   10   10    1    1
  0.5542572E+02  0.5431010E-09  0.5431010E-09  0.1879101E-08  0.5000000E-15
  1.000000000000000E-004
  CAR 
 unknown system                          
     40      6     26
 
  0.0000000E+00  0.0000000E+00  0.0000000E+00  0.4000000E-01
    1      -12.493624   1.000000
    2      -10.869054   1.000000
    3       -8.892813   1.000000
    4       -8.750395   1.000000
    5       -8.750222   1.000000
    6       -8.517426   1.000000
    7       -7.939692   1.000000
    8       -7.766174   1.000000
    9       -5.571548   1.000000
   10       -4.418483   1.000000
   11       -4.320739   1.000000
   12       -4.320645   1.000000
   13       -3.436647   1.000000
   14       -3.436637   1.000000
   15       -2.440873   1.000000
   16       -2.438524   1.000000
   17       -2.080268   1.000000
   18       -2.080228   1.000000
   19       -1.815563   1.000000
   20       -1.815410   1.000000
   21       -1.428143   0.958269
   22       -0.872685   0.000000
   23        0.149334   0.000000
   24        0.252998   0.000000
   25        0.882239   0.000000
   26        0.969569   0.000000
 
  0.2000000E+00  0.0000000E+00  0.0000000E+00  0.1600000E+00
    1      -12.326535   1.000000
    2      -10.729567   1.000000
    3       -9.973605   1.000000
    4       -9.097695   1.000000
    5       -8.455613   1.000000
    6       -8.358707   1.000000
    7       -7.486204   1.000000
    8       -7.110912   1.000000
    9       -5.741936   1.000000
   10       -4.709111   1.000000
   11       -4.498333   1.000000
   12       -3.955644   1.000000
   13       -3.762224   1.000000
   14       -3.727244   1.000000
   15       -3.146224   1.000000
   16       -2.571135   1.000000
   17       -2.271697   1.000000
   18       -1.735172   1.000000
   19       -1.643933   0.999999
   20       -1.623578   0.999997
   21       -1.411916   0.933381
   22       -1.003568   0.000010
   23        0.356608   0.000000
   24        0.720006   0.000000
   25        0.994330   0.000000
   26        1.108493   0.000000
 
  0.4000000E+00  0.0000000E+00  0.0000000E+00  0.1600000E+00
    1      -11.831647   1.000000
    2      -11.030750   1.000000
    3      -10.329733   1.000000
    4       -9.735946   1.000000
    5       -8.329410   1.000000
    6       -8.278145   1.000000
    7       -6.927619   1.000000
    8       -6.268601   1.000000
    9       -5.796467   1.000000
   10       -4.709154   1.000000
   11       -4.684191   1.000000
   12       -4.591405   1.000000
   13       -4.306001   1.000000
   14       -4.170649   1.000000
   15       -3.283628   1.000000
   16       -3.077248   1.000000
   17       -1.897194   1.000000
   18       -1.656420   1.000000
   19       -1.588460   0.999968
   20       -1.396934   0.901400
   21       -1.315704   0.555991
   22       -0.639175   0.000000
   23       -0.443444   0.000000
   24        0.485853   0.000000
   25        1.694125   0.000000
   26        2.179776   0.000000
 
  0.2000000E+00  0.2000000E+00  0.0000000E+00  0.1600000E+00
    1      -12.163623   1.000000
    2      -10.608528   1.000000
    3      -10.089293   1.000000
    4       -9.731627   1.000000
    5       -8.432095   1.000000
    6       -8.104643   1.000000
    7       -7.554170   1.000000
    8       -6.674428   1.000000
    9       -6.064928   1.000000
   10       -4.617426   1.000000
   11       -4.600289   1.000000
   12       -4.255007   1.000000
   13       -3.811781   1.000000
   14       -3.782715   1.000000
   15       -3.195299   1.000000
   16       -2.019324   1.000000
   17       -1.992599   1.000000
   18       -1.898431   1.000000
   19       -1.767098   1.000000
   20       -1.724946   1.000000
   21       -1.355421   0.758814
   22       -0.813739   0.000000
   23       -0.005213   0.000000
   24        0.728066   0.000000
   25        1.003192   0.000000
   26        1.474824   0.000000
 
  0.4000000E+00  0.2000000E+00  0.0000000E+00  0.3200000E+00
    1      -11.684105   1.000000
    2      -10.924894   1.000000
    3      -10.290465   1.000000
    4       -9.957436   1.000000
    5       -8.422132   1.000000
    6       -8.385360   1.000000
    7       -7.058864   1.000000
    8       -6.609204   1.000000
    9       -6.104489   1.000000
   10       -5.445061   1.000000
   11       -4.191246   1.000000
   12       -4.075009   1.000000
   13       -4.062002   1.000000
   14       -3.425156   1.000000
   15       -3.308793   1.000000
   16       -2.519411   1.000000
   17       -2.211466   1.000000
   18       -2.189912   1.000000
   19       -1.488755   0.995175
   20       -1.265692   0.285540
   21       -1.165300   0.023504
   22       -0.590112   0.000000
   23       -0.056494   0.000000
   24        0.735389   0.000000
   25        1.621372   0.000000
   26        1.831337   0.000000
 
  0.4000000E+00  0.4000000E+00  0.0000000E+00  0.1600000E+00
    1      -11.265857   1.000000
    2      -10.777351   1.000000
    3      -10.422032   1.000000
    4      -10.304689   1.000000
    5       -8.551026   1.000000
    6       -8.463951   1.000000
    7       -7.305171   1.000000
    8       -7.047460   1.000000
    9       -6.195329   1.000000
   10       -6.070209   1.000000
   11       -4.036154   1.000000
   12       -3.990454   1.000000
   13       -2.949033   1.000000
   14       -2.922301   1.000000
   15       -2.644503   1.000000
   16       -2.598620   1.000000
   17       -2.270840   1.000000
   18       -2.009293   1.000000
   19       -1.459998   0.985424
   20       -1.154885   0.016441
   21       -1.072582   0.000488
   22       -1.039685   0.000084
   23        0.762951   0.000000
   24        1.175321   0.000000
   25        1.241702   0.000000
   26        1.539250   0.000000
