unknown system                          
   1.00000000000000     
     5.431010    0.000000    0.000000
     0.000000    5.431010    0.000000
     0.000000    0.000000   18.791010
   Si
    10
Direct
  0.000000  0.000000  0.000000
  0.499999  0.499999  0.000000
  0.250000  0.250000  0.072255
  0.750000  0.750000  0.072255
  0.000000  0.499999  0.144511
  0.499999  0.000000  0.144511
  0.250000  0.750000  0.216766
  0.750000  0.250000  0.216766
  0.000000  0.000000  0.289022
  0.499999  0.499999  0.289022
 
   24   24   80
 0.12392     0.21317     0.47767     0.69520     0.76535     0.72688     0.59194     0.39457     0.20721     0.89979E-01
 0.39180E-01 0.21387E-01 0.17187E-01 0.21397E-01 0.39165E-01 0.90041E-01 0.20713     0.39468     0.59188     0.72691    
 0.76534     0.69520     0.47768     0.21316     0.21317     0.36654     0.62456     0.77377     0.80748     0.75474    
 0.61537     0.41732     0.23028     0.11007     0.53137E-01 0.29729E-01 0.21397E-01 0.22039E-01 0.34595E-01 0.75107E-01
 0.17695     0.35535     0.55398     0.69493     0.73694     0.66863     0.47313     0.26040     0.47767     0.62456    
 0.77208     0.83734     0.83328     0.76041     0.61089     0.41387     0.24023     0.13322     0.79700E-01 0.53099E-01
 0.39165E-01 0.34595E-01 0.42016E-01 0.72391E-01 0.15290     0.31003     0.50670     0.66192     0.72765     0.70081    
 0.59216     0.47313     0.69520     0.77377     0.83734     0.85525     0.82269     0.72840     0.57080     0.39060    
 0.25139     0.17228     0.13328     0.11011     0.90041E-01 0.75107E-01 0.72391E-01 0.89914E-01 0.14510     0.26542    
 0.44374     0.61039     0.70793     0.73009     0.70080     0.66862     0.76535     0.80748     0.83328     0.82269    
 0.76467     0.65304     0.50533     0.37164     0.28824     0.25136     0.24020     0.23019     0.20713     0.17695    
 0.15290     0.14510     0.16578     0.23484     0.36511     0.52181     0.64423     0.70796     0.72766     0.73695    
 0.72688     0.75474     0.76041     0.72840     0.65304     0.54576     0.44342     0.38340     0.37166     0.39062    
 0.41392     0.41740     0.39468     0.35535     0.31003     0.26542     0.23484     0.23982     0.29692     0.40334    
 0.52176     0.61037     0.66187     0.69490     0.59194     0.61537     0.61089     0.57080     0.50533     0.44342    
 0.41804     0.44342     0.50532     0.57078     0.61086     0.61532     0.59188     0.55398     0.50670     0.44374    
 0.36511     0.29692     0.27085     0.29694     0.36514     0.44381     0.50677     0.55406     0.39457     0.41732    
 0.41387     0.39060     0.37164     0.38340     0.44342     0.54577     0.65304     0.72842     0.76043     0.75476    
 0.72691     0.69493     0.66192     0.61039     0.52181     0.40334     0.29694     0.23981     0.23481     0.26538    
 0.30993     0.35526     0.20721     0.23028     0.24023     0.25139     0.28824     0.37166     0.50532     0.65304    
 0.76466     0.82268     0.83327     0.80747     0.76534     0.73694     0.72765     0.70793     0.64423     0.52176    
 0.36514     0.23481     0.16580     0.14512     0.15295     0.17704     0.89979E-01 0.11007     0.13322     0.17228    
 0.25136     0.39062     0.57078     0.72842     0.82268     0.85525     0.83734     0.77377     0.69520     0.66863    
 0.70081     0.73009     0.70796     0.61037     0.44381     0.26538     0.14512     0.89889E-01 0.72369E-01 0.75071E-01
 0.39180E-01 0.53137E-01 0.79700E-01 0.13328     0.24020     0.41392     0.61086     0.76043     0.83327     0.83734    
 0.77208     0.62456     0.47768     0.47313     0.59216     0.70080     0.72766     0.66187     0.50677     0.30993    
 0.15295     0.72369E-01 0.42033E-01 0.34609E-01 0.21387E-01 0.29729E-01 0.53099E-01 0.11011     0.23019     0.41740    
 0.61532     0.75476     0.80747     0.77377     0.62456     0.36654     0.21316     0.26040     0.47313     0.66862    
 0.73695     0.69490     0.55406     0.35526     0.17704     0.75071E-01 0.34609E-01 0.22031E-01 0.17187E-01 0.21397E-01
 0.39165E-01 0.90041E-01 0.20713     0.39468     0.59188     0.72691     0.76534     0.69520     0.47768     0.21316    
 0.12392     0.21317     0.47767     0.69520     0.76535     0.72688     0.59194     0.39457     0.20721     0.89979E-01
 0.39180E-01 0.21387E-01 0.21397E-01 0.22039E-01 0.34595E-01 0.75107E-01 0.17695     0.35535     0.55398     0.69493    
 0.73694     0.66863     0.47313     0.26040     0.21317     0.36654     0.62456     0.77377     0.80748     0.75474    
 0.61537     0.41732     0.23028     0.11007     0.53137E-01 0.29729E-01 0.39165E-01 0.34595E-01 0.42016E-01 0.72391E-01
 0.15290     0.31003     0.50670     0.66192     0.72765     0.70081     0.59216     0.47313     0.47767     0.62456    
 0.77208     0.83734     0.83328     0.76041     0.61089     0.41387     0.24023     0.13322     0.79700E-01 0.53099E-01
 0.90041E-01 0.75107E-01 0.72391E-01 0.89914E-01 0.14510     0.26542     0.44374     0.61039     0.70793     0.73009    
 0.70080     0.66862     0.69520     0.77377     0.83734     0.85525     0.82269     0.72840     0.57080     0.39060    
 0.25139     0.17228     0.13328     0.11011     0.20713     0.17695     0.15290     0.14510     0.16578     0.23484    
 0.36511     0.52181     0.64423     0.70796     0.72766     0.73695     0.76535     0.80748     0.83328     0.82269    
 0.76467     0.65304     0.50533     0.37164     0.28824     0.25136     0.24020     0.23019     0.39468     0.35535    
 0.31003     0.26542     0.23484     0.23982     0.29692     0.40334     0.52176     0.61037     0.66187     0.69490    
 0.72688     0.75474     0.76041     0.72840     0.65304     0.54576     0.44342     0.38340     0.37166     0.39062    
 0.41392     0.41740     0.59188     0.55398     0.50670     0.44374     0.36511     0.29692     0.27085     0.29694    
 0.36514     0.44381     0.50677     0.55406     0.59194     0.61537     0.61089     0.57080     0.50533     0.44342    
 0.41804     0.44342     0.50532     0.57078     0.61086     0.61532     0.72691     0.69493     0.66192     0.61039    
 0.52181     0.40334     0.29694     0.23981     0.23481     0.26538     0.30993     0.35526     0.39457     0.41732    
 0.41387     0.39060     0.37164     0.38340     0.44342     0.54577     0.65304     0.72842     0.76043     0.75476    
 0.76534     0.73694     0.72765     0.70793     0.64423     0.52176     0.36514     0.23481     0.16580     0.14512    
 0.15295     0.17704     0.20721     0.23028     0.24023     0.25139     0.28824     0.37166     0.50532     0.65304    
 0.76466     0.82268     0.83327     0.80747     0.69520     0.66863     0.70081     0.73009     0.70796     0.61037    
 0.44381     0.26538     0.14512     0.89889E-01 0.72369E-01 0.75071E-01 0.89979E-01 0.11007     0.13322     0.17228    
 0.25136     0.39062     0.57078     0.72842     0.82268     0.85525     0.83734     0.77377     0.47768     0.47313    
 0.59216     0.70080     0.72766     0.66187     0.50677     0.30993     0.15295     0.72369E-01 0.42033E-01 0.34609E-01
 0.39180E-01 0.53137E-01 0.79700E-01 0.13328     0.24020     0.41392     0.61086     0.76043     0.83327     0.83734    
 0.77208     0.62456     0.21316     0.26040     0.47313     0.66862     0.73695     0.69490     0.55406     0.35526    
 0.17704     0.75071E-01 0.34609E-01 0.22031E-01 0.21387E-01 0.29729E-01 0.53099E-01 0.11011     0.23019     0.41740    
 0.61532     0.75476     0.80747     0.77377     0.62456     0.36654     0.11840     0.21295     0.49334     0.70870    
 0.76942     0.72460     0.59401     0.41021     0.23064     0.11047     0.52183E-01 0.29250E-01 0.23445E-01 0.29255E-01
 0.52179E-01 0.11050     0.23062     0.41026     0.59399     0.72462     0.76942     0.70870     0.49334     0.21295    
 0.21295     0.43806     0.71219     0.82704     0.84016     0.78303     0.65566     0.47297     0.28607     0.15297    
 0.80317E-01 0.44823E-01 0.29255E-01 0.26675E-01 0.38397E-01 0.77892E-01 0.17267     0.33392     0.51539     0.65080    
 0.69057     0.60644     0.39450     0.21163     0.49334     0.71219     0.84769     0.88755     0.87395     0.81069    
 0.68786     0.50990     0.32951     0.20087     0.12506     0.80291E-01 0.52179E-01 0.38397E-01 0.40309E-01 0.64464E-01
 0.13149     0.26353     0.43521     0.57904     0.63772     0.59124     0.46951     0.39450     0.70870     0.82704    
 0.88755     0.89830     0.87271     0.80690     0.68667     0.52158     0.37015     0.26668     0.20091     0.15297    
 0.11050     0.77892E-01 0.64464E-01 0.74122E-01 0.11677     0.21266     0.35968     0.50577     0.59568     0.61313    
 0.59123     0.60644     0.76942     0.84016     0.87395     0.87271     0.84080     0.76956     0.65049     0.51913    
 0.42573     0.37012     0.32950     0.28602     0.23062     0.17267     0.13149     0.11677     0.13192     0.18728    
 0.29139     0.41977     0.52779     0.59571     0.63772     0.69058     0.72460     0.78303     0.81069     0.80690    
 0.76956     0.69173     0.59503     0.53267     0.51914     0.52159     0.50993     0.47299     0.41026     0.33392    
 0.26353     0.21266     0.18728     0.19403     0.24064     0.32391     0.41971     0.50575     0.57901     0.65079    
 0.59401     0.65566     0.68786     0.68667     0.65049     0.59503     0.56680     0.59503     0.65048     0.68666    
 0.68785     0.65563     0.59399     0.51539     0.43521     0.35968     0.29139     0.24064     0.22182     0.24066    
 0.29141     0.35974     0.43523     0.51543     0.41021     0.47297     0.50990     0.52158     0.51913     0.53267    
 0.59503     0.69173     0.76957     0.80691     0.81069     0.78304     0.72462     0.65080     0.57904     0.50577    
 0.41977     0.32391     0.24066     0.19402     0.18725     0.21264     0.26348     0.33390     0.23064     0.28607    
 0.32951     0.37015     0.42573     0.51914     0.65048     0.76957     0.84080     0.87271     0.87395     0.84015    
 0.76942     0.69057     0.63772     0.59568     0.52779     0.41971     0.29141     0.18725     0.13193     0.11679    
 0.13151     0.17272     0.11047     0.15297     0.20087     0.26668     0.37012     0.52159     0.68666     0.80691    
 0.87271     0.89831     0.88755     0.82704     0.70870     0.60644     0.59124     0.61313     0.59571     0.50575    
 0.35974     0.21264     0.11679     0.74111E-01 0.64454E-01 0.77883E-01 0.52183E-01 0.80317E-01 0.12506     0.20091    
 0.32950     0.50993     0.68785     0.81069     0.87395     0.88755     0.84769     0.71219     0.49334     0.39450    
 0.46951     0.59123     0.63772     0.57901     0.43523     0.26348     0.13151     0.64454E-01 0.40314E-01 0.38403E-01
 0.29250E-01 0.44823E-01 0.80291E-01 0.15297     0.28602     0.47299     0.65563     0.78304     0.84015     0.82704    
 0.71219     0.43805     0.21295     0.21163     0.39450     0.60644     0.69058     0.65079     0.51543     0.33390    
 0.17272     0.77883E-01 0.38403E-01 0.26672E-01 0.23445E-01 0.29255E-01 0.52179E-01 0.11050     0.23062     0.41026    
 0.59399     0.72462     0.76942     0.70870     0.49334     0.21295     0.11840     0.21295     0.49334     0.70870    
 0.76942     0.72460     0.59401     0.41021     0.23064     0.11047     0.52183E-01 0.29250E-01 0.29255E-01 0.26675E-01
 0.38397E-01 0.77892E-01 0.17267     0.33392     0.51539     0.65080     0.69057     0.60644     0.39450     0.21163    
 0.21295     0.43806     0.71219     0.82704     0.84016     0.78303     0.65566     0.47297     0.28607     0.15297    
 0.80317E-01 0.44823E-01 0.52179E-01 0.38397E-01 0.40309E-01 0.64464E-01 0.13149     0.26353     0.43521     0.57904    
 0.63772     0.59124     0.46951     0.39450     0.49334     0.71219     0.84769     0.88755     0.87395     0.81069    
 0.68786     0.50990     0.32951     0.20087     0.12506     0.80291E-01 0.11050     0.77892E-01 0.64464E-01 0.74122E-01
 0.11677     0.21266     0.35968     0.50577     0.59568     0.61313     0.59123     0.60644     0.70870     0.82704    
 0.88755     0.89830     0.87271     0.80690     0.68667     0.52158     0.37015     0.26668     0.20091     0.15297    
 0.23062     0.17267     0.13149     0.11677     0.13192     0.18728     0.29139     0.41977     0.52779     0.59571    
 0.63772     0.69058     0.76942     0.84016     0.87395     0.87271     0.84080     0.76956     0.65049     0.51913    
 0.42573     0.37012     0.32950     0.28602     0.41026     0.33392     0.26353     0.21266     0.18728     0.19403    
 0.24064     0.32391     0.41971     0.50575     0.57901     0.65079     0.72460     0.78303     0.81069     0.80690    
 0.76956     0.69173     0.59503     0.53267     0.51914     0.52159     0.50993     0.47299     0.59399     0.51539    
 0.43521     0.35968     0.29139     0.24064     0.22182     0.24066     0.29141     0.35974     0.43523     0.51543    
 0.59401     0.65566     0.68786     0.68667     0.65049     0.59503     0.56680     0.59503     0.65048     0.68666    
 0.68785     0.65563     0.72462     0.65080     0.57904     0.50577     0.41977     0.32391     0.24066     0.19402    
 0.18725     0.21264     0.26348     0.33390     0.41021     0.47297     0.50990     0.52158     0.51913     0.53267    
 0.59503     0.69173     0.76957     0.80691     0.81069     0.78304     0.76942     0.69057     0.63772     0.59568    
 0.52779     0.41971     0.29141     0.18725     0.13193     0.11679     0.13151     0.17272     0.23064     0.28607    
 0.32951     0.37015     0.42573     0.51914     0.65048     0.76957     0.84080     0.87271     0.87395     0.84015    
 0.70870     0.60644     0.59124     0.61313     0.59571     0.50575     0.35974     0.21264     0.11679     0.74111E-01
 0.64454E-01 0.77883E-01 0.11047     0.15297     0.20087     0.26668     0.37012     0.52159     0.68666     0.80691    
 0.87271     0.89831     0.88755     0.82704     0.49334     0.39450     0.46951     0.59123     0.63772     0.57901    
 0.43523     0.26348     0.13151     0.64454E-01 0.40314E-01 0.38403E-01 0.52183E-01 0.80317E-01 0.12506     0.20091    
 0.32950     0.50993     0.68785     0.81069     0.87395     0.88755     0.84769     0.71219     0.21295     0.21163    
 0.39450     0.60644     0.69058     0.65079     0.51543     0.33390     0.17272     0.77883E-01 0.38403E-01 0.26672E-01
 0.29250E-01 0.44823E-01 0.80291E-01 0.15297     0.28602     0.47299     0.65563     0.78304     0.84015     0.82704    
 0.71219     0.43805     0.26632     0.37513     0.61102     0.75623     0.78230     0.72350     0.59722     0.42625    
 0.25749     0.13885     0.74037E-01 0.45110E-01 0.37243E-01 0.45108E-01 0.74043E-01 0.13885     0.25753     0.42626    
 0.59725     0.72350     0.78231     0.75623     0.61102     0.37513     0.37513     0.61211     0.80583     0.86986    
 0.86336     0.80489     0.69219     0.52648     0.34748     0.20857     0.12079     0.70559E-01 0.45108E-01 0.37818E-01
 0.48377E-01 0.86724E-01 0.17305     0.31610     0.47989     0.61022     0.66444     0.61256     0.45956     0.32822    
 0.61102     0.80583     0.89596     0.91541     0.89898     0.84996     0.75267     0.59599     0.42375     0.28628    
 0.18884     0.12079     0.74043E-01 0.48377E-01 0.43585E-01 0.61254E-01 0.11470     0.22121     0.36478     0.49350    
 0.55861     0.53698     0.46581     0.45956     0.75623     0.86986     0.91541     0.92236     0.90756     0.86525    
 0.76900     0.61711     0.47420     0.37087     0.28630     0.20855     0.13885     0.86724E-01 0.61254E-01 0.61706E-01
 0.90473E-01 0.16069     0.27358     0.39311     0.47836     0.51569     0.53697     0.61257     0.78230     0.86336    
 0.89898     0.90756     0.89481     0.84349     0.73020     0.59552     0.51471     0.47418     0.42376     0.34747    
 0.25753     0.17305     0.11470     0.90473E-01 0.96736E-01 0.13546     0.21147     0.30877     0.39981     0.47839    
 0.55860     0.66444     0.72350     0.80489     0.84996     0.86525     0.84349     0.76625     0.65173     0.58581    
 0.59553     0.61711     0.59601     0.52646     0.42626     0.31610     0.22121     0.16069     0.13546     0.13998    
 0.17405     0.23450     0.30871     0.39311     0.49348     0.61024     0.59722     0.69219     0.75267     0.76900    
 0.73020     0.65173     0.60777     0.65173     0.73020     0.76899     0.75267     0.69219     0.59725     0.47989    
 0.36478     0.27358     0.21147     0.17405     0.16105     0.17407     0.21147     0.27363     0.36476     0.47990    
 0.42625     0.52648     0.59599     0.61711     0.59552     0.58581     0.65173     0.76625     0.84350     0.86525    
 0.84996     0.80488     0.72350     0.61022     0.49350     0.39311     0.30877     0.23450     0.17407     0.13998    
 0.13544     0.16068     0.22118     0.31613     0.25749     0.34748     0.42375     0.47420     0.51471     0.59553    
 0.73020     0.84350     0.89481     0.90756     0.89898     0.86336     0.78231     0.66444     0.55861     0.47836    
 0.39981     0.30871     0.21147     0.13544     0.96742E-01 0.90483E-01 0.11470     0.17306     0.13885     0.20857    
 0.28628     0.37087     0.47418     0.61711     0.76899     0.86525     0.90756     0.92236     0.91541     0.86986    
 0.75623     0.61256     0.53698     0.51569     0.47839     0.39311     0.27363     0.16068     0.90483E-01 0.61703E-01
 0.61251E-01 0.86734E-01 0.74037E-01 0.12079     0.18884     0.28630     0.42376     0.59601     0.75267     0.84996    
 0.89898     0.91541     0.89596     0.80583     0.61102     0.45956     0.46581     0.53697     0.55860     0.49348    
 0.36476     0.22118     0.11470     0.61251E-01 0.43585E-01 0.48376E-01 0.45110E-01 0.70559E-01 0.12079     0.20855    
 0.34747     0.52646     0.69219     0.80488     0.86336     0.86986     0.80583     0.61211     0.37513     0.32822    
 0.45956     0.61257     0.66444     0.61024     0.47990     0.31613     0.17306     0.86734E-01 0.48376E-01 0.37818E-01
 0.37243E-01 0.45108E-01 0.74043E-01 0.13885     0.25753     0.42626     0.59725     0.72350     0.78231     0.75623    
 0.61102     0.37513     0.26632     0.37513     0.61102     0.75623     0.78230     0.72350     0.59722     0.42625    
 0.25749     0.13885     0.74037E-01 0.45110E-01 0.45108E-01 0.37818E-01 0.48377E-01 0.86724E-01 0.17305     0.31610    
 0.47989     0.61022     0.66444     0.61256     0.45956     0.32822     0.37513     0.61211     0.80583     0.86986    
 0.86336     0.80489     0.69219     0.52648     0.34748     0.20857     0.12079     0.70559E-01 0.74043E-01 0.48377E-01
 0.43585E-01 0.61254E-01 0.11470     0.22121     0.36478     0.49350     0.55861     0.53698     0.46581     0.45956    
 0.61102     0.80583     0.89596     0.91541     0.89898     0.84996     0.75267     0.59599     0.42375     0.28628    
 0.18884     0.12079     0.13885     0.86724E-01 0.61254E-01 0.61706E-01 0.90473E-01 0.16069     0.27358     0.39311    
 0.47836     0.51569     0.53697     0.61257     0.75623     0.86986     0.91541     0.92236     0.90756     0.86525    
 0.76900     0.61711     0.47420     0.37087     0.28630     0.20855     0.25753     0.17305     0.11470     0.90473E-01
 0.96736E-01 0.13546     0.21147     0.30877     0.39981     0.47839     0.55860     0.66444     0.78230     0.86336    
 0.89898     0.90756     0.89481     0.84349     0.73020     0.59552     0.51471     0.47418     0.42376     0.34747    
 0.42626     0.31610     0.22121     0.16069     0.13546     0.13998     0.17405     0.23450     0.30871     0.39311    
 0.49348     0.61024     0.72350     0.80489     0.84996     0.86525     0.84349     0.76625     0.65173     0.58581    
 0.59553     0.61711     0.59601     0.52646     0.59725     0.47989     0.36478     0.27358     0.21147     0.17405    
 0.16105     0.17407     0.21147     0.27363     0.36476     0.47990     0.59722     0.69219     0.75267     0.76900    
 0.73020     0.65173     0.60777     0.65173     0.73020     0.76899     0.75267     0.69219     0.72350     0.61022    
 0.49350     0.39311     0.30877     0.23450     0.17407     0.13998     0.13544     0.16068     0.22118     0.31613    
 0.42625     0.52648     0.59599     0.61711     0.59552     0.58581     0.65173     0.76625     0.84350     0.86525    
 0.84996     0.80488     0.78231     0.66444     0.55861     0.47836     0.39981     0.30871     0.21147     0.13544    
 0.96742E-01 0.90483E-01 0.11470     0.17306     0.25749     0.34748     0.42375     0.47420     0.51471     0.59553    
 0.73020     0.84350     0.89481     0.90756     0.89898     0.86336     0.75623     0.61256     0.53698     0.51569    
 0.47839     0.39311     0.27363     0.16068     0.90483E-01 0.61703E-01 0.61251E-01 0.86734E-01 0.13885     0.20857    
 0.28628     0.37087     0.47418     0.61711     0.76899     0.86525     0.90756     0.92236     0.91541     0.86986    
 0.61102     0.45956     0.46581     0.53697     0.55860     0.49348     0.36476     0.22118     0.11470     0.61251E-01
 0.43585E-01 0.48376E-01 0.74037E-01 0.12079     0.18884     0.28630     0.42376     0.59601     0.75267     0.84996    
 0.89898     0.91541     0.89596     0.80583     0.37513     0.32822     0.45956     0.61257     0.66444     0.61024    
 0.47990     0.31613     0.17306     0.86734E-01 0.48376E-01 0.37818E-01 0.45110E-01 0.70559E-01 0.12079     0.20855    
 0.34747     0.52646     0.69219     0.80488     0.86336     0.86986     0.80583     0.61211     0.46090     0.53967    
 0.68664     0.76919     0.76930     0.70651     0.59221     0.44099     0.29410     0.18463     0.11517     0.79222E-01
 0.68620E-01 0.79213E-01 0.11518     0.18461     0.29415     0.44098     0.59224     0.70651     0.76932     0.76919    
 0.68664     0.53967     0.53967     0.71114     0.83521     0.87410     0.86132     0.81012     0.71351     0.57027    
 0.41703     0.28786     0.18873     0.11969     0.79213E-01 0.63762E-01 0.71587E-01 0.10747     0.18203     0.30184    
 0.44358     0.56131     0.62533     0.61559     0.53852     0.47575     0.68664     0.83521     0.90214     0.91702    
 0.90616     0.86895     0.78348     0.64511     0.50394     0.38787     0.28337     0.18875     0.11518     0.71587E-01
 0.56903E-01 0.67151E-01 0.10716     0.18828     0.30254     0.41014     0.47885     0.49730     0.49126     0.53852    
 0.76919     0.87410     0.91702     0.92934     0.92369     0.88739     0.78779     0.63639     0.52359     0.45956    
 0.38787     0.28783     0.18461     0.10747     0.67151E-01 0.57584E-01 0.73420E-01 0.12030     0.20072     0.29109    
 0.36689     0.42823     0.49730     0.61559     0.76930     0.86132     0.90616     0.92369     0.91528     0.85756    
 0.71406     0.55883     0.51066     0.52359     0.50395     0.41703     0.29415     0.18203     0.10716     0.73420E-01
 0.70449E-01 0.93066E-01 0.14269     0.21038     0.28274     0.36691     0.47883     0.62533     0.70651     0.81012    
 0.86895     0.88739     0.85756     0.74763     0.57676     0.50127     0.55884     0.63639     0.64511     0.57025    
 0.44098     0.30184     0.18828     0.12030     0.93066E-01 0.92875E-01 0.11409     0.15426     0.21034     0.29110    
 0.41013     0.56133     0.59221     0.71351     0.78348     0.78779     0.71406     0.57676     0.50012     0.57676    
 0.71406     0.78779     0.78349     0.71352     0.59224     0.44358     0.30254     0.20072     0.14269     0.11409    
 0.10515     0.11410     0.14269     0.20075     0.30251     0.44358     0.44099     0.57027     0.64511     0.63639    
 0.55883     0.50127     0.57676     0.74763     0.85756     0.88739     0.86895     0.81011     0.70651     0.56131    
 0.41014     0.29109     0.21038     0.15426     0.11410     0.92874E-01 0.93058E-01 0.12030     0.18827     0.30188    
 0.29410     0.41703     0.50394     0.52359     0.51066     0.55884     0.71406     0.85756     0.91528     0.92369    
 0.90617     0.86132     0.76932     0.62533     0.47885     0.36689     0.28274     0.21034     0.14269     0.93058E-01
 0.70449E-01 0.73425E-01 0.10715     0.18203     0.18463     0.28786     0.38787     0.45956     0.52359     0.63639    
 0.78779     0.88739     0.92369     0.92934     0.91702     0.87409     0.76919     0.61559     0.49730     0.42823    
 0.36691     0.29110     0.20075     0.12030     0.73425E-01 0.57585E-01 0.67150E-01 0.10748     0.11517     0.18873    
 0.28337     0.38787     0.50395     0.64511     0.78349     0.86895     0.90617     0.91702     0.90214     0.83521    
 0.68664     0.53852     0.49126     0.49730     0.47883     0.41013     0.30251     0.18827     0.10715     0.67150E-01
 0.56903E-01 0.71583E-01 0.79222E-01 0.11969     0.18875     0.28783     0.41703     0.57025     0.71352     0.81011    
 0.86132     0.87409     0.83521     0.71115     0.53967     0.47575     0.53852     0.61559     0.62533     0.56133    
 0.44358     0.30188     0.18203     0.10748     0.71583E-01 0.63761E-01 0.68620E-01 0.79213E-01 0.11518     0.18461    
 0.29415     0.44098     0.59224     0.70651     0.76932     0.76919     0.68664     0.53967     0.46090     0.53967    
 0.68664     0.76919     0.76930     0.70651     0.59221     0.44099     0.29410     0.18463     0.11517     0.79222E-01
 0.79213E-01 0.63762E-01 0.71587E-01 0.10747     0.18203     0.30184     0.44358     0.56131     0.62533     0.61559    
 0.53852     0.47575     0.53967     0.71114     0.83521     0.87410     0.86132     0.81012     0.71351     0.57027    
 0.41703     0.28786     0.18873     0.11969     0.11518     0.71587E-01 0.56903E-01 0.67151E-01 0.10716     0.18828    
 0.30254     0.41014     0.47885     0.49730     0.49126     0.53852     0.68664     0.83521     0.90214     0.91702    
 0.90616     0.86895     0.78348     0.64511     0.50394     0.38787     0.28337     0.18875     0.18461     0.10747    
 0.67151E-01 0.57584E-01 0.73420E-01 0.12030     0.20072     0.29109     0.36689     0.42823     0.49730     0.61559    
 0.76919     0.87410     0.91702     0.92934     0.92369     0.88739     0.78779     0.63639     0.52359     0.45956    
 0.38787     0.28783     0.29415     0.18203     0.10716     0.73420E-01 0.70449E-01 0.93066E-01 0.14269     0.21038    
 0.28274     0.36691     0.47883     0.62533     0.76930     0.86132     0.90616     0.92369     0.91528     0.85756    
 0.71406     0.55883     0.51066     0.52359     0.50395     0.41703     0.44098     0.30184     0.18828     0.12030    
 0.93066E-01 0.92875E-01 0.11409     0.15426     0.21034     0.29110     0.41013     0.56133     0.70651     0.81012    
 0.86895     0.88739     0.85756     0.74763     0.57676     0.50127     0.55884     0.63639     0.64511     0.57025    
 0.59224     0.44358     0.30254     0.20072     0.14269     0.11409     0.10515     0.11410     0.14269     0.20075    
 0.30251     0.44358     0.59221     0.71351     0.78348     0.78779     0.71406     0.57676     0.50012     0.57676    
 0.71406     0.78779     0.78349     0.71352     0.70651     0.56131     0.41014     0.29109     0.21038     0.15426    
 0.11410     0.92874E-01 0.93058E-01 0.12030     0.18827     0.30188     0.44099     0.57027     0.64511     0.63639    
 0.55883     0.50127     0.57676     0.74763     0.85756     0.88739     0.86895     0.81011     0.76932     0.62533    
 0.47885     0.36689     0.28274     0.21034     0.14269     0.93058E-01 0.70449E-01 0.73425E-01 0.10715     0.18203    
 0.29410     0.41703     0.50394     0.52359     0.51066     0.55884     0.71406     0.85756     0.91528     0.92369    
 0.90617     0.86132     0.76919     0.61559     0.49730     0.42823     0.36691     0.29110     0.20075     0.12030    
 0.73425E-01 0.57585E-01 0.67150E-01 0.10748     0.18463     0.28786     0.38787     0.45956     0.52359     0.63639    
 0.78779     0.88739     0.92369     0.92934     0.91702     0.87409     0.68664     0.53852     0.49126     0.49730    
 0.47883     0.41013     0.30251     0.18827     0.10715     0.67150E-01 0.56903E-01 0.71583E-01 0.11517     0.18873    
 0.28337     0.38787     0.50395     0.64511     0.78349     0.86895     0.90617     0.91702     0.90214     0.83521    
 0.53967     0.47575     0.53852     0.61559     0.62533     0.56133     0.44358     0.30188     0.18203     0.10748    
 0.71583E-01 0.63761E-01 0.79222E-01 0.11969     0.18875     0.28783     0.41703     0.57025     0.71352     0.81011    
 0.86132     0.87409     0.83521     0.71115     0.54495     0.59094     0.67773     0.72783     0.72207     0.66844    
 0.57331     0.45771     0.35189     0.26444     0.19461     0.15017     0.13557     0.15016     0.19461     0.26443    
 0.35192     0.45770     0.57332     0.66843     0.72207     0.72783     0.67773     0.59094     0.59094     0.71355    
 0.80755     0.84270     0.83580     0.79256     0.70796     0.59879     0.49654     0.40233     0.30471     0.21394    
 0.15016     0.12042     0.12211     0.15263     0.21035     0.29669     0.40363     0.49901     0.55530     0.56569    
 0.54022     0.52784     0.67773     0.80755     0.87568     0.89910     0.89482     0.85590     0.76736     0.65496    
 0.57166     0.50759     0.42062     0.30473     0.19461     0.12211     0.90387E-01 0.89793E-01 0.11536     0.16963    
 0.25009     0.33119     0.38852     0.42527     0.46218     0.54021     0.72783     0.84270     0.89910     0.92062    
 0.91433     0.86290     0.73750     0.59752     0.54533     0.54391     0.50758     0.40232     0.26443     0.15263    
 0.89793E-01 0.66599E-01 0.69798E-01 0.96334E-01 0.14696     0.20882     0.26728     0.33232     0.42527     0.56570    
 0.72207     0.83580     0.89482     0.91433     0.89521     0.80094     0.59343     0.44128     0.46056     0.54533    
 0.57167     0.49654     0.35192     0.21035     0.11536     0.69798E-01 0.57426E-01 0.66458E-01 0.94366E-01 0.13702    
 0.19026     0.26729     0.38850     0.55530     0.66844     0.79256     0.85590     0.86290     0.80094     0.60962    