       N       E                     dE             d eps       ncg     rms          rms(c)
DAV:   1     0.133694501877E+03    0.13369E+03   -0.90457E+03   312   0.623E+02
DAV:   2    -0.344465711255E+02   -0.16814E+03   -0.16589E+03   406   0.152E+02
DAV:   3    -0.471453777540E+02   -0.12699E+02   -0.12481E+02   356   0.435E+01
DAV:   4    -0.476289312057E+02   -0.48355E+00   -0.48190E+00   512   0.990E+00
DAV:   5    -0.476367623447E+02   -0.78311E-02   -0.78257E-02   446   0.115E+00    0.593E+00
RMM:   6    -0.466080227148E+02    0.10287E+01   -0.23580E+00   329   0.357E+00    0.324E+00
RMM:   7    -0.464240834912E+02    0.18394E+00   -0.12771E+00   340   0.307E+00    0.936E-01
RMM:   8    -0.464081616885E+02    0.15922E-01   -0.13056E-01   359   0.132E+00    0.227E-01
RMM:   9    -0.464084872439E+02   -0.32556E-03   -0.16488E-02   395   0.472E-01    0.962E-02
RMM:  10    -0.464083296874E+02    0.15756E-03   -0.22355E-03   362   0.179E-01    0.417E-02
RMM:  11    -0.464082561900E+02    0.73497E-04   -0.89972E-04   361   0.107E-01    0.232E-02
RMM:  12    -0.464083223634E+02   -0.66173E-04   -0.70193E-04   360   0.616E-02    0.192E-02
RMM:  13    -0.464083260165E+02   -0.36531E-05   -0.21800E-04   354   0.449E-02    0.935E-03
RMM:  14    -0.464084450217E+02   -0.11901E-03   -0.13519E-04   366   0.343E-02    0.121E-02
RMM:  15    -0.464085447521E+02   -0.99730E-04   -0.51990E-05   353   0.227E-02    0.331E-03
RMM:  16    -0.464086390185E+02   -0.94266E-04   -0.11946E-05   357   0.113E-02    0.340E-03
RMM:  17    -0.464086801557E+02   -0.41137E-04   -0.64458E-06   300   0.710E-03    0.147E-03
RMM:  18    -0.464086995073E+02   -0.19352E-04   -0.15019E-06   222   0.379E-03    0.512E-04
RMM:  19    -0.464087047446E+02   -0.52373E-05   -0.42828E-07   207   0.214E-03    0.314E-04
RMM:  20    -0.464087049445E+02   -0.19986E-06   -0.16952E-08    72   0.908E-04
   1 F= -.46408705E+02 E0= -.46386861E+02  d E =-.436880E-01
