<?xml version="1.0" encoding="ISO-8859-1"?>
<modeling>
 <generator>
  <i name="program" type="string">vasp </i>
  <i name="version" type="string">5.4.1  </i>
  <i name="subversion" type="string">05Feb16 (build Mar 02 2016 14:09:44) complex                          parallel </i>
  <i name="platform" type="string">Abel-impi-ifc-cuda </i>
  <i name="date" type="string">2019 10 04 </i>
  <i name="time" type="string">09:39:41 </i>
 </generator>
 <incar>
  <i type="string" name="PREC">normal    ! low/normal/accurate</i>
  <i type="string" name="ALGO"> Fast      ! Algorithm for electronic re</i>
  <i type="int" name="ISPIN">     1</i>
  <i type="int" name="NELMIN">     4</i>
  <i name="EDIFF">      0.00000100</i>
  <i type="int" name="NSW">     0</i>
  <i name="ENCUT">    250.00000000</i>
  <i type="int" name="NEDOS">  2401</i>
  <i type="string" name="LREAL"> Auto      ! Projection in reciprocal sp</i>
  <i name="EMIN">    -17.00000000</i>
  <i name="EMAX">      7.00000000</i>
  <i type="int" name="ISMEAR">     0</i>
  <i name="SIGMA">      0.10000000</i>
  <i type="logical" name="LWAVE"> F  </i>
  <i type="logical" name="LORBIT"> F  </i>
  <i type="logical" name="LELF"> T  </i>
  <v type="int" name="KPOINT_BSE">    -1     0     0     0</v>
 </incar>
 <kpoints>
  <generation param="Gamma">
   <v type="int" name="divisions">       5        5        1 </v>
   <v name="usershift">      0.00000000       0.00000000       0.00000000 </v>
   <v name="genvec1">      0.20000000       0.00000000       0.00000000 </v>
   <v name="genvec2">      0.00000000       0.20000000       0.00000000 </v>
   <v name="genvec3">      0.00000000       0.00000000       1.00000000 </v>
   <v name="shift">      0.00000000       0.00000000       0.00000000 </v>
  </generation>
  <varray name="kpointlist" >
   <v>       0.00000000       0.00000000       0.00000000 </v>
   <v>       0.20000000       0.00000000       0.00000000 </v>
   <v>       0.40000000       0.00000000       0.00000000 </v>
   <v>       0.20000000       0.20000000       0.00000000 </v>
   <v>       0.40000000       0.20000000       0.00000000 </v>
   <v>       0.40000000       0.40000000       0.00000000 </v>
  </varray>
  <varray name="weights" >
   <v>       0.04000000 </v>
   <v>       0.16000000 </v>
   <v>       0.16000000 </v>
   <v>       0.16000000 </v>
   <v>       0.32000000 </v>
   <v>       0.16000000 </v>
  </varray>
 </kpoints>
 <parameters>
  <separator name="general" >
   <i type="string" name="SYSTEM">unknown system</i>
   <i type="logical" name="LCOMPAT"> F  </i>
  </separator>
  <separator name="electronic" >
   <i type="string" name="PREC">normal</i>
   <i name="ENMAX">    250.00000000</i>
   <i name="ENAUG">    322.06900000</i>
   <i name="EDIFF">      0.00000100</i>
   <i type="int" name="IALGO">    68</i>
   <i type="int" name="IWAVPR">    10</i>
   <i type="int" name="NBANDS">    26</i>
   <i name="NELECT">     40.00000000</i>
   <i type="int" name="TURBO">     0</i>
   <i type="int" name="IRESTART">     0</i>
   <i type="int" name="NREBOOT">     0</i>
   <i type="int" name="NMIN">     0</i>
   <i name="EREF">      0.00000000</i>
   <separator name="electronic smearing" >
    <i type="int" name="ISMEAR">     0</i>
    <i name="SIGMA">      0.10000000</i>
    <i name="KSPACING">      0.50000000</i>
    <i type="logical" name="KGAMMA"> T  </i>
   </separator>
   <separator name="electronic projectors" >
    <i type="logical" name="LREAL"> T  </i>
    <v name="ROPT">     -0.00050000</v>
    <i type="int" name="LMAXPAW">  -100</i>
    <i type="int" name="LMAXMIX">     2</i>
    <i type="logical" name="NLSPLINE"> F  </i>
   </separator>
   <separator name="electronic startup" >
    <i type="int" name="ISTART">     0</i>
    <i type="int" name="ICHARG">     2</i>
    <i type="int" name="INIWAV">     1</i>
   </separator>
   <separator name="electronic spin" >
    <i type="int" name="ISPIN">     1</i>
    <i type="logical" name="LNONCOLLINEAR"> F  </i>
    <v name="MAGMOM">      1.00000000      1.00000000      1.00000000      1.00000000      1.00000000      1.00000000      1.00000000      1.00000000      1.00000000      1.00000000</v>
    <i name="NUPDOWN">     -1.00000000</i>
    <i type="logical" name="LSORBIT"> F  </i>
    <v name="SAXIS">      0.00000000      0.00000000      1.00000000</v>
    <i type="logical" name="LSPIRAL"> F  </i>
    <v name="QSPIRAL">      0.00000000      0.00000000      0.00000000</v>
    <i type="logical" name="LZEROZ"> F  </i>
   </separator>
   <separator name="electronic exchange-correlation" >
    <i type="logical" name="LASPH"> F  </i>
    <i type="logical" name="LMETAGGA"> F  </i>
   </separator>
   <separator name="electronic convergence" >
    <i type="int" name="NELM">    60</i>
    <i type="int" name="NELMDL">    -5</i>
    <i type="int" name="NELMIN">     4</i>
    <i name="ENINI">    250.00000000</i>
    <separator name="electronic convergence detail" >
     <i type="logical" name="LDIAG"> T  </i>
     <i type="logical" name="LSUBROT"> F  </i>
     <i name="WEIMIN">      0.00000000</i>
     <i name="EBREAK">      0.00000001</i>
     <i name="DEPER">      0.30000000</i>
     <i type="int" name="NRMM">     4</i>
     <i name="TIME">      0.40000000</i>
    </separator>
   </separator>
   <separator name="electronic mixer" >
    <i name="AMIX">      0.40000000</i>
    <i name="BMIX">      1.00000000</i>
    <i name="AMIN">      0.10000000</i>
    <i name="AMIX_MAG">      1.60000000</i>
    <i name="BMIX_MAG">      1.00000000</i>
    <separator name="electronic mixer details" >
     <i type="int" name="IMIX">     4</i>
     <i type="logical" name="MIXFIRST"> F  </i>
     <i type="int" name="MAXMIX">   -45</i>
     <i name="WC">    100.00000000</i>
     <i type="int" name="INIMIX">     1</i>
     <i type="int" name="MIXPRE">     1</i>
     <i type="int" name="MREMOVE">     5</i>
    </separator>
   </separator>
   <separator name="electronic dipolcorrection" >
    <i type="logical" name="LDIPOL"> F  </i>
    <i type="logical" name="LMONO"> F  </i>
    <i type="int" name="IDIPOL">     0</i>
    <i name="EPSILON">      1.00000000</i>
    <v name="DIPOL">   -100.00000000   -100.00000000   -100.00000000</v>
    <i name="EFIELD">      0.00000000</i>
   </separator>
  </separator>
  <separator name="grids" >
   <i type="int" name="NGX">    24</i>
   <i type="int" name="NGY">    24</i>
   <i type="int" name="NGZ">    80</i>
   <i type="int" name="NGXF">    48</i>
   <i type="int" name="NGYF">    48</i>
   <i type="int" name="NGZF">   160</i>
   <i type="logical" name="ADDGRID"> F  </i>
  </separator>
  <separator name="ionic" >
   <i type="int" name="NSW">     0</i>
   <i type="int" name="IBRION">    -1</i>
   <i type="int" name="ISIF">     2</i>
   <i name="PSTRESS">      0.00000000</i>
   <i name="EDIFFG">      0.00001000</i>
   <i type="int" name="NFREE">     0</i>
   <i name="POTIM">      0.50000000</i>
   <i name="SMASS">     -3.00000000</i>
   <i name="SCALEE">      1.00000000</i>
  </separator>
  <separator name="ionic md" >
   <i name="TEBEG">      0.00010000</i>
   <i name="TEEND">      0.00010000</i>
   <i type="int" name="NBLOCK">     1</i>
   <i type="int" name="KBLOCK">     1</i>
   <i type="int" name="NPACO">   256</i>
   <i name="APACO">     16.00000000</i>
  </separator>
  <separator name="symmetry" >
   <i type="int" name="ISYM">     2</i>
   <i name="SYMPREC">      0.00001000</i>
  </separator>
  <separator name="dos" >
   <i type="logical" name="LORBIT"> F  </i>
   <v name="RWIGS">     -1.00000000</v>
   <i type="int" name="NEDOS">  2401</i>
   <i name="EMIN">    -17.00000000</i>
   <i name="EMAX">      7.00000000</i>
   <i name="EFERMI">      0.00000000</i>
  </separator>
  <separator name="writing" >
   <i type="int" name="NWRITE">     2</i>
   <i type="logical" name="LWAVE"> F  </i>
   <i type="logical" name="LCHARG"> T  </i>
   <i type="logical" name="LPARD"> F  </i>
   <i type="logical" name="LVTOT"> F  </i>
   <i type="logical" name="LVHAR"> F  </i>
   <i type="logical" name="LELF"> T  </i>
   <i type="logical" name="LOPTICS"> F  </i>
   <v name="STM">      0.00000000      0.00000000      0.00000000      0.00000000      0.00000000      0.00000000      0.00000000</v>
  </separator>
  <separator name="performance" >
   <i type="int" name="NPAR">     2</i>
   <i type="int" name="NSIM">     4</i>
   <i type="int" name="NBLK">    -1</i>
   <i type="logical" name="LPLANE"> T  </i>
   <i type="logical" name="LSCALAPACK"> F  </i>
   <i type="logical" name="LSCAAWARE"> F  </i>
   <i type="logical" name="LSCALU"> F  </i>
   <i type="logical" name="LASYNC"> F  </i>
   <i type="logical" name="LORBITALREAL"> F  </i>
  </separator>
  <separator name="miscellaneous" >
   <i type="int" name="IDIOT">     3</i>
   <i type="logical" name="LMUSIC"> F  </i>
   <v name="POMASS">     28.08500000</v>
   <v name="DARWINR">      0.00000000</v>
   <v name="DARWINV">      1.00000000</v>
   <i type="logical" name="LCORR"> T  </i>
  </separator>
  <i type="logical" name="GGA_COMPAT"> T  </i>
  <i type="logical" name="LBERRY"> F  </i>
  <i type="int" name="ICORELEVEL">     0</i>
  <i type="logical" name="LDAU"> F  </i>
  <i type="int" name="I_CONSTRAINED_M">     0</i>
  <separator name="electronic exchange-correlation" >
   <i type="string" name="GGA">--</i>
   <i type="int" name="VOSKOWN">     0</i>
   <i type="logical" name="LHFCALC"> F  </i>
   <i type="string" name="PRECFOCK"></i>
   <i type="logical" name="LSYMGRAD"> F  </i>
   <i type="logical" name="LHFONE"> F  </i>
   <i type="logical" name="LRHFCALC"> F  </i>
   <i type="logical" name="LTHOMAS"> F  </i>
   <i type="logical" name="LMODELHF"> F  </i>
   <i name="ENCUT4O">     -1.00000000</i>
   <i type="int" name="EXXOEP">     0</i>
   <i type="int" name="FOURORBIT">     0</i>
   <i name="AEXX">      0.00000000</i>
   <i name="HFALPHA">      0.00000000</i>
   <i name="MCALPHA">      0.00000000</i>
   <i name="ALDAX">      1.00000000</i>
   <i name="AGGAX">      1.00000000</i>
   <i name="ALDAC">      1.00000000</i>
   <i name="AGGAC">      1.00000000</i>
   <i type="int" name="NKREDX">     1</i>
   <i type="int" name="NKREDY">     1</i>
   <i type="int" name="NKREDZ">     1</i>
   <i type="logical" name="SHIFTRED"> F  </i>
   <i type="logical" name="ODDONLY"> F  </i>
   <i type="logical" name="EVENONLY"> F  </i>
   <i type="int" name="LMAXFOCK">     0</i>
   <i type="int" name="NMAXFOCKAE">     0</i>
   <i type="logical" name="LFOCKAEDFT"> F  </i>
   <i name="HFSCREEN">      0.00000000</i>
   <i name="HFSCREENC">      0.00000000</i>
   <i type="int" name="NBANDSGWLOW">     0</i>
  </separator>
  <separator name="vdW DFT" >
   <i type="logical" name="LUSE_VDW"> F  </i>
   <i name="Zab_VDW">     -0.84910000</i>
   <i name="PARAM1">      0.12340000</i>
   <i name="PARAM2">      1.00000000</i>
   <i name="PARAM3">      0.00000000</i>
  </separator>
  <separator name="model GW" >
   <i type="int" name="MODEL_GW">     0</i>
   <i name="MODEL_EPS0">     33.25543086</i>
   <i name="MODEL_ALPHA">      1.00000000</i>
  </separator>
  <separator name="linear response parameters" >
   <i type="logical" name="LEPSILON"> F  </i>
   <i type="logical" name="LRPA"> F  </i>
   <i type="logical" name="LNABLA"> F  </i>
   <i type="logical" name="LVEL"> F  </i>
   <i type="int" name="KINTER">     0</i>
   <i name="CSHIFT">      0.10000000</i>
   <i name="OMEGAMAX">     -1.00000000</i>
   <i name="DEG_THRESHOLD">      0.00200000</i>
  </separator>
  <separator name="orbital magnetization" >
   <i type="logical" name="NUCIND"> F  </i>
   <v name="MAGPOS">      0.00000000      0.00000000      0.00000000</v>
   <i type="logical" name="LNICSALL"> T  </i>
   <i type="logical" name="ORBITALMAG"> F  </i>
   <i type="logical" name="LMAGBLOCH"> F  </i>
   <i type="logical" name="LCHIMAG"> F  </i>
   <i type="logical" name="LGAUGE"> T  </i>
   <i type="int" name="MAGATOM">     0</i>
   <v name="MAGDIPOL">      0.00000000      0.00000000      0.00000000</v>
   <v name="AVECCONST">      0.00000000      0.00000000      0.00000000</v>
  </separator>
  <separator name="response functions" >
   <i type="logical" name="LADDER"> F  </i>
   <i type="logical" name="LFXC"> F  </i>
   <i type="logical" name="LHARTREE"> T  </i>
   <i type="int" name="IBSE">     0</i>
   <v type="int" name="KPOINT">    -1     0     0     0</v>
   <i type="logical" name="LTCTE"> F  </i>
   <i type="logical" name="LTETE"> F  </i>
   <i type="logical" name="LTRIPLET"> F  </i>
   <i type="logical" name="LFXCEPS"> F  </i>
   <i type="logical" name="LFXHEG"> F  </i>
   <i type="int" name="NATURALO">     0</i>
   <i type="logical" name="L2ORDER"> F  </i>
   <i type="logical" name="LUSEW"> F  </i>
   <i name="ENCUTGW">     -2.00000000</i>
   <i name="ENCUTGWSOFT">     -2.00000000</i>
   <i name="ENCUTLF">     -1.00000000</i>
   <i type="int" name="LMAXMP2">    -1</i>
   <i name="SCISSOR">      0.00000000</i>
   <i type="int" name="NOMEGA">     0</i>
   <i type="int" name="NOMEGAR">     0</i>
   <i type="int" name="NBANDSGW">    -1</i>
   <i type="int" name="NBANDSO">    -1</i>
   <i type="int" name="NBANDSV">    -1</i>
   <i type="int" name="NELM">     1</i>
   <i type="int" name="NELMHF">     1</i>
   <i type="int" name="DIM">     3</i>
   <i type="int" name="ANTIRES">     0</i>
   <i name="OMEGAMAX">    -30.00000000</i>
   <i name="OMEGAMIN">    -30.00000000</i>
   <i name="OMEGATL">   -200.00000000</i>
   <i type="int" name="OMEGAGRID">     0</i>
   <i name="CSHIFT">     -0.10000000</i>
   <i type="logical" name="SELFENERGY"> F  </i>
   <i type="logical" name="LSPECTRAL"> F  </i>
   <i type="logical" name="LSPECTRALGW"> F  </i>
   <i type="logical" name="LSINGLES"> F  </i>
   <i type="logical" name="LFERMIGW"> F  </i>
   <i type="logical" name="ODDONLYGW"> F  </i>
   <i type="logical" name="EVENONLYGW"> F  </i>
   <i type="int" name="NKREDLFX">     1</i>
   <i type="int" name="NKREDLFY">     1</i>
   <i type="int" name="NKREDLFZ">     1</i>
   <i type="int" name="MAXMEM">  1800</i>
   <i type="int" name="TELESCOPE">     0</i>
   <i type="int" name="TAUPAR">     1</i>
   <i type="int" name="OMEGAPAR">    -1</i>
   <i name="LAMBDA">      1.00000000</i>
  </separator>
  <separator name="External order field" >
   <i name="OFIELD_KAPPA">      0.00000000</i>
   <v name="OFIELD_K">      0.00000000      0.00000000      0.00000000</v>
   <i name="OFIELD_Q6_NEAR">      0.00000000</i>
   <i name="OFIELD_Q6_FAR">      0.00000000</i>
   <i name="OFIELD_A">      0.00000000</i>
  </separator>
 </parameters>
 <atominfo>
  <atoms>      10 </atoms>
  <types>       1 </types>
  <array name="atoms" >
   <dimension dim="1">ion</dimension>
   <field type="string">element</field>
   <field type="int">atomtype</field>
   <set>
    <rc><c>Si</c><c>   1</c></rc>
    <rc><c>Si</c><c>   1</c></rc>
    <rc><c>Si</c><c>   1</c></rc>
    <rc><c>Si</c><c>   1</c></rc>
    <rc><c>Si</c><c>   1</c></rc>
    <rc><c>Si</c><c>   1</c></rc>
    <rc><c>Si</c><c>   1</c></rc>
    <rc><c>Si</c><c>   1</c></rc>
    <rc><c>Si</c><c>   1</c></rc>
    <rc><c>Si</c><c>   1</c></rc>
   </set>
  </array>
  <array name="atomtypes" >
   <dimension dim="1">type</dimension>
   <field type="int">atomspertype</field>
   <field type="string">element</field>
   <field>mass</field>
   <field>valence</field>
   <field type="string">pseudopotential</field>
   <set>
    <rc><c>  10</c><c>Si</c><c>     28.08500000</c><c>      4.00000000</c><c> PAW_PBE Si 05Jan2001                   </c></rc>
   </set>
  </array>
 </atominfo>
 <structure name="initialpos" >
  <crystal>
   <varray name="basis" >
    <v>       5.43101000       0.00000000       0.00000000 </v>
    <v>       0.00000000       5.43101000       0.00000000 </v>
    <v>       0.00000000       0.00000000      18.79101000 </v>
   </varray>
   <i name="volume">    554.25718099 </i>
   <varray name="rec_basis" >
    <v>       0.18412781       0.00000000       0.00000000 </v>
    <v>       0.00000000       0.18412781       0.00000000 </v>
    <v>       0.00000000       0.00000000       0.05321694 </v>
   </varray>
  </crystal>
  <varray name="positions" >
   <v>       0.00000000       0.00000000       0.00000000 </v>
   <v>       0.49999908       0.49999908       0.00000000 </v>
   <v>       0.24999954       0.24999954       0.07225530 </v>
   <v>       0.75000046       0.75000046       0.07225530 </v>
   <v>       0.00000000       0.49999908       0.14451059 </v>
   <v>       0.49999908       0.00000000       0.14451059 </v>
   <v>       0.24999954       0.75000046       0.21676642 </v>
   <v>       0.75000046       0.24999954       0.21676642 </v>
   <v>       0.00000000       0.00000000       0.28902172 </v>
   <v>       0.49999908       0.49999908       0.28902172 </v>
  </varray>
 </structure>
 <calculation>
  <scstep>
   <time name="dav">    0.28    0.29</time>
   <time name="total">    0.34    0.38</time>
   <energy>
    <i name="alphaZ">      6.07354845 </i>
    <i name="ewald">   2085.29160421 </i>
    <i name="hartreedc">  -2983.03323094 </i>
    <i name="XCdc">    -96.54900134 </i>
    <i name="pawpsdc">    329.77604058 </i>
    <i name="pawaedc">   -153.84263392 </i>
    <i name="eentropy">     -0.00726309 </i>
    <i name="bandstr">    -84.63205820 </i>
    <i name="atom">   1030.61749613 </i>
    <i name="e_fr_energy">    133.69450188 </i>
    <i name="e_wo_entrp">    133.70176497 </i>
    <i name="e_0_energy">    133.69813342 </i>
   </energy>
  </scstep>
  <scstep>
   <time name="dav">    0.34    0.35</time>
   <time name="total">    0.34    0.35</time>
   <energy>
    <i name="e_fr_energy">    -34.44657113 </i>
    <i name="e_wo_entrp">    -34.41417293 </i>
    <i name="e_0_energy">    -34.43037203 </i>
   </energy>
  </scstep>
  <scstep>
   <time name="dav">    0.31    0.31</time>
   <time name="total">    0.31    0.32</time>
   <energy>
    <i name="e_fr_energy">    -47.14537775 </i>
    <i name="e_wo_entrp">    -47.09665291 </i>
    <i name="e_0_energy">    -47.12101533 </i>
   </energy>
  </scstep>
  <scstep>
   <time name="dav">    0.42    0.42</time>
   <time name="total">    0.42    0.42</time>
   <energy>
    <i name="e_fr_energy">    -47.62893121 </i>
    <i name="e_wo_entrp">    -47.58238252 </i>
    <i name="e_0_energy">    -47.60565686 </i>
   </energy>
  </scstep>
  <scstep>
   <time name="dav">    0.37    0.37</time>
   <time name="total">    0.40    0.41</time>
   <energy>
    <i name="e_fr_energy">    -47.63676234 </i>
    <i name="e_wo_entrp">    -47.59022674 </i>
    <i name="e_0_energy">    -47.61349454 </i>
   </energy>
  </scstep>
  <scstep>
   <time name="diag">    0.05    0.05</time>
   <time name="diis">    0.19    0.19</time>
   <time name="orth">    0.01    0.01</time>
   <time name="total">    0.33    0.34</time>
   <energy>
    <i name="e_fr_energy">    -46.60802271 </i>
    <i name="e_wo_entrp">    -46.56153679 </i>
    <i name="e_0_energy">    -46.58477975 </i>
   </energy>
  </scstep>
  <scstep>
   <time name="diag">    0.05    0.05</time>
   <time name="diis">    0.19    0.19</time>
   <time name="orth">    0.01    0.01</time>
   <time name="total">    0.33    0.33</time>
   <energy>
    <i name="e_fr_energy">    -46.42408349 </i>
    <i name="e_wo_entrp">    -46.38086620 </i>
    <i name="e_0_energy">    -46.40247484 </i>
   </energy>
  </scstep>
  <scstep>
   <time name="diag">    0.05    0.05</time>
   <time name="diis">    0.20    0.21</time>
   <time name="orth">    0.01    0.01</time>
   <time name="total">    0.35    0.35</time>
   <energy>
    <i name="e_fr_energy">    -46.40816169 </i>
    <i name="e_wo_entrp">    -46.36438102 </i>
    <i name="e_0_energy">    -46.38627135 </i>
   </energy>
  </scstep>
  <scstep>
   <time name="diag">    0.05    0.05</time>
   <time name="diis">    0.22    0.22</time>
   <time name="orth">    0.01    0.01</time>
   <time name="total">    0.36    0.37</time>
   <energy>
    <i name="e_fr_energy">    -46.40848724 </i>
    <i name="e_wo_entrp">    -46.36523073 </i>
    <i name="e_0_energy">    -46.38685899 </i>
   </energy>
  </scstep>
  <scstep>
   <time name="diag">    0.05    0.05</time>
   <time name="diis">    0.20    0.21</time>
   <time name="orth">    0.01    0.01</time>
   <time name="total">    0.35    0.35</time>
   <energy>
    <i name="e_fr_energy">    -46.40832969 </i>
    <i name="e_wo_entrp">    -46.36483684 </i>
    <i name="e_0_energy">    -46.38658327 </i>
   </energy>
  </scstep>
  <scstep>
   <time name="diag">    0.05    0.05</time>
   <time name="diis">    0.21    0.21</time>
   <time name="orth">    0.01    0.01</time>
   <time name="total">    0.35    0.35</time>
   <energy>
    <i name="e_fr_energy">    -46.40825619 </i>
    <i name="e_wo_entrp">    -46.36457156 </i>
    <i name="e_0_energy">    -46.38641388 </i>
   </energy>
  </scstep>
  <scstep>
   <time name="diag">    0.05    0.05</time>
   <time name="diis">    0.20    0.21</time>
   <time name="orth">    0.01    0.01</time>
   <time name="total">    0.35    0.35</time>
   <energy>
    <i name="e_fr_energy">    -46.40832236 </i>
    <i name="e_wo_entrp">    -46.36471803 </i>
    <i name="e_0_energy">    -46.38652019 </i>
   </energy>
  </scstep>
  <scstep>
   <time name="diag">    0.05    0.05</time>
   <time name="diis">    0.20    0.20</time>
   <time name="orth">    0.01    0.01</time>
   <time name="total">    0.35    0.35</time>
   <energy>
    <i name="e_fr_energy">    -46.40832602 </i>
    <i name="e_wo_entrp">    -46.36466079 </i>
    <i name="e_0_energy">    -46.38649340 </i>
   </energy>
  </scstep>
  <scstep>
   <time name="diag">    0.05    0.05</time>
   <time name="diis">    0.21    0.21</time>
   <time name="orth">    0.01    0.01</time>
   <time name="total">    0.35    0.36</time>
   <energy>
    <i name="e_fr_energy">    -46.40844502 </i>
    <i name="e_wo_entrp">    -46.36474462 </i>
    <i name="e_0_energy">    -46.38659482 </i>
   </energy>
  </scstep>
  <scstep>
   <time name="diag">    0.05    0.05</time>
   <time name="diis">    0.20    0.20</time>
   <time name="orth">    0.01    0.01</time>
   <time name="total">    0.34    0.35</time>
   <energy>
    <i name="e_fr_energy">    -46.40854475 </i>
    <i name="e_wo_entrp">    -46.36486071 </i>
    <i name="e_0_energy">    -46.38670273 </i>
   </energy>
  </scstep>
  <scstep>
   <time name="diag">    0.05    0.05</time>
   <time name="diis">    0.20    0.20</time>
   <time name="orth">    0.01    0.01</time>
   <time name="total">    0.35    0.35</time>
   <energy>
    <i name="e_fr_energy">    -46.40863902 </i>
    <i name="e_wo_entrp">    -46.36494525 </i>
    <i name="e_0_energy">    -46.38679213 </i>
   </energy>
  </scstep>
  <scstep>
   <time name="diag">    0.05    0.05</time>
   <time name="diis">    0.17    0.17</time>
   <time name="orth">    0.01    0.01</time>
   <time name="total">    0.31    0.32</time>
   <energy>
    <i name="e_fr_energy">    -46.40868016 </i>
    <i name="e_wo_entrp">    -46.36499236 </i>
    <i name="e_0_energy">    -46.38683626 </i>
   </energy>
  </scstep>
  <scstep>
   <time name="diag">    0.05    0.05</time>
   <time name="diis">    0.13    0.13</time>
   <time name="orth">    0.01    0.01</time>
   <time name="total">    0.27    0.28</time>
   <energy>
    <i name="e_fr_energy">    -46.40869951 </i>
    <i name="e_wo_entrp">    -46.36501169 </i>
    <i name="e_0_energy">    -46.38685560 </i>
   </energy>
  </scstep>
  <scstep>
   <time name="diag">    0.05    0.05</time>
   <time name="diis">    0.13    0.13</time>
   <time name="orth">    0.01    0.01</time>
   <time name="total">    0.27    0.27</time>
   <energy>
    <i name="e_fr_energy">    -46.40870474 </i>
    <i name="e_wo_entrp">    -46.36501666 </i>
    <i name="e_0_energy">    -46.38686070 </i>
   </energy>
  </scstep>
  <scstep>
   <time name="diag">    0.05    0.05</time>
   <time name="diis">    0.09    0.09</time>
   <time name="orth">    0.01    0.01</time>
   <time name="total">    0.20    0.21</time>
   <energy>
    <i name="alphaZ">      6.07354845 </i>
    <i name="ewald">   2085.29160421 </i>
    <i name="hartreedc">  -3022.85877458 </i>
    <i name="XCdc">    -94.06907492 </i>
    <i name="pawpsdc">    362.51936409 </i>
    <i name="pawaedc">   -187.38646681 </i>
    <i name="eentropy">     -0.04368800 </i>
    <i name="bandstr">   -226.55271350 </i>
    <i name="atom">   1030.61749613 </i>
    <i name="e_fr_energy">    -46.40870494 </i>
    <i name="e_wo_entrp">    -46.36501695 </i>
    <i name="e_0_energy">    -46.38686094 </i>
   </energy>
  </scstep>
  <structure>
   <crystal>
    <varray name="basis" >
     <v>       5.43101000       0.00000000       0.00000000 </v>
     <v>       0.00000000       5.43101000       0.00000000 </v>
     <v>       0.00000000       0.00000000      18.79101000 </v>
    </varray>
    <i name="volume">    554.25718099 </i>
    <varray name="rec_basis" >
     <v>       0.18412781       0.00000000       0.00000000 </v>
     <v>       0.00000000       0.18412781       0.00000000 </v>
     <v>       0.00000000       0.00000000       0.05321694 </v>
    </varray>
   </crystal>
   <varray name="positions" >
    <v>       0.00000000       0.00000000       0.00000000 </v>
    <v>       0.49999908       0.49999908       0.00000000 </v>
    <v>       0.24999954       0.24999954       0.07225530 </v>
    <v>       0.75000046       0.75000046       0.07225530 </v>
    <v>       0.00000000       0.49999908       0.14451059 </v>
    <v>       0.49999908       0.00000000       0.14451059 </v>
    <v>       0.24999954       0.75000046       0.21676642 </v>
    <v>       0.75000046       0.24999954       0.21676642 </v>
    <v>       0.00000000       0.00000000       0.28902172 </v>
    <v>       0.49999908       0.49999908       0.28902172 </v>
   </varray>
  </structure>
  <varray name="forces" >
   <v>       0.00000000      -0.00000000       0.13594823 </v>
   <v>       0.00000000       0.00000000       0.13594823 </v>
   <v>       0.00000000      -0.00000000      -0.25432891 </v>
   <v>       0.00000000      -0.00000000      -0.25432891 </v>
   <v>       0.00000000      -0.00000000       0.00000000 </v>
   <v>       0.00000000      -0.00000000       0.00000000 </v>
   <v>       0.00000000      -0.00000000       0.25432891 </v>
   <v>       0.00000000      -0.00000000       0.25432891 </v>
   <v>       0.00000000      -0.00000000      -0.13594823 </v>
   <v>      -0.00000000       0.00000000      -0.13594823 </v>
  </varray>
  <varray name="stress" >
   <v>      -6.99740559       0.00000000       0.00000000 </v>
   <v>      -0.00000000      -6.99740559       0.00000000 </v>
   <v>       0.00000000       0.00000000      -1.60428253 </v>
  </varray>
  <energy>
   <i name="e_fr_energy">    -46.40870494 </i>
   <i name="e_wo_entrp">    -46.38686094 </i>
   <i name="e_0_energy">     -0.04368800 </i>
  </energy>
  <time name="totalsc">    7.55    7.85</time>
  <eigenvalues>
   <array>
    <dimension dim="1">band</dimension>
    <dimension dim="2">kpoint</dimension>
    <dimension dim="3">spin</dimension>
    <field>eigene</field>
    <field>occ</field>
    <set>
     <set comment="spin 1">
      <set comment="kpoint 1">
       <r>  -12.4936    1.0000 </r>
       <r>  -10.8691    1.0000 </r>
       <r>   -8.8928    1.0000 </r>
       <r>   -8.7504    1.0000 </r>
       <r>   -8.7502    1.0000 </r>
       <r>   -8.5174    1.0000 </r>
       <r>   -7.9397    1.0000 </r>
       <r>   -7.7662    1.0000 </r>
       <r>   -5.5715    1.0000 </r>
       <r>   -4.4185    1.0000 </r>
       <r>   -4.3207    1.0000 </r>
       <r>   -4.3206    1.0000 </r>
       <r>   -3.4366    1.0000 </r>
       <r>   -3.4366    1.0000 </r>
       <r>   -2.4409    1.0000 </r>
       <r>   -2.4385    1.0000 </r>
       <r>   -2.0803    1.0000 </r>
       <r>   -2.0802    1.0000 </r>
       <r>   -1.8156    1.0000 </r>
       <r>   -1.8154    1.0000 </r>
       <r>   -1.4281    0.9583 </r>
       <r>   -0.8727    0.0000 </r>
       <r>    0.1493    0.0000 </r>
       <r>    0.2530    0.0000 </r>
       <r>    0.8822    0.0000 </r>
       <r>    0.9696    0.0000 </r>
      </set>
      <set comment="kpoint 2">
       <r>  -12.3265    1.0000 </r>
       <r>  -10.7296    1.0000 </r>
       <r>   -9.9736    1.0000 </r>
       <r>   -9.0977    1.0000 </r>
       <r>   -8.4556    1.0000 </r>
       <r>   -8.3587    1.0000 </r>
       <r>   -7.4862    1.0000 </r>
       <r>   -7.1109    1.0000 </r>
       <r>   -5.7419    1.0000 </r>
       <r>   -4.7091    1.0000 </r>
       <r>   -4.4983    1.0000 </r>
       <r>   -3.9556    1.0000 </r>
       <r>   -3.7622    1.0000 </r>
       <r>   -3.7272    1.0000 </r>
       <r>   -3.1462    1.0000 </r>
       <r>   -2.5711    1.0000 </r>
       <r>   -2.2717    1.0000 </r>
       <r>   -1.7352    1.0000 </r>
       <r>   -1.6439    1.0000 </r>
       <r>   -1.6236    1.0000 </r>
       <r>   -1.4119    0.9334 </r>
       <r>   -1.0036    0.0000 </r>
       <r>    0.3566    0.0000 </r>
       <r>    0.7200    0.0000 </r>
       <r>    0.9943    0.0000 </r>
       <r>    1.1085    0.0000 </r>
      </set>
      <set comment="kpoint 3">
       <r>  -11.8316    1.0000 </r>
       <r>  -11.0308    1.0000 </r>
       <r>  -10.3297    1.0000 </r>
       <r>   -9.7359    1.0000 </r>
       <r>   -8.3294    1.0000 </r>
       <r>   -8.2781    1.0000 </r>
       <r>   -6.9276    1.0000 </r>
       <r>   -6.2686    1.0000 </r>
       <r>   -5.7965    1.0000 </r>
       <r>   -4.7092    1.0000 </r>
       <r>   -4.6842    1.0000 </r>
       <r>   -4.5914    1.0000 </r>
       <r>   -4.3060    1.0000 </r>
       <r>   -4.1706    1.0000 </r>
       <r>   -3.2836    1.0000 </r>
       <r>   -3.0772    1.0000 </r>
       <r>   -1.8972    1.0000 </r>
       <r>   -1.6564    1.0000 </r>
       <r>   -1.5885    1.0000 </r>
       <r>   -1.3969    0.9014 </r>
       <r>   -1.3157    0.5560 </r>
       <r>   -0.6392    0.0000 </r>
       <r>   -0.4434    0.0000 </r>
       <r>    0.4859    0.0000 </r>
       <r>    1.6941    0.0000 </r>
       <r>    2.1798    0.0000 </r>
      </set>
      <set comment="kpoint 4">
       <r>  -12.1636    1.0000 </r>
       <r>  -10.6085    1.0000 </r>
       <r>  -10.0893    1.0000 </r>
       <r>   -9.7316    1.0000 </r>
       <r>   -8.4321    1.0000 </r>
       <r>   -8.1046    1.0000 </r>
       <r>   -7.5542    1.0000 </r>
       <r>   -6.6744    1.0000 </r>
       <r>   -6.0649    1.0000 </r>
       <r>   -4.6174    1.0000 </r>
       <r>   -4.6003    1.0000 </r>
       <r>   -4.2550    1.0000 </r>
       <r>   -3.8118    1.0000 </r>
       <r>   -3.7827    1.0000 </r>
       <r>   -3.1953    1.0000 </r>
       <r>   -2.0193    1.0000 </r>
       <r>   -1.9926    1.0000 </r>
       <r>   -1.8984    1.0000 </r>
       <r>   -1.7671    1.0000 </r>
       <r>   -1.7249    1.0000 </r>
       <r>   -1.3554    0.7588 </r>
       <r>   -0.8137    0.0000 </r>
       <r>   -0.0052    0.0000 </r>
       <r>    0.7281    0.0000 </r>
       <r>    1.0032    0.0000 </r>
       <r>    1.4748    0.0000 </r>
      </set>
      <set comment="kpoint 5">
       <r>  -11.6841    1.0000 </r>
       <r>  -10.9249    1.0000 </r>
       <r>  -10.2905    1.0000 </r>
       <r>   -9.9574    1.0000 </r>
       <r>   -8.4221    1.0000 </r>
       <r>   -8.3854    1.0000 </r>
       <r>   -7.0589    1.0000 </r>
       <r>   -6.6092    1.0000 </r>
       <r>   -6.1045    1.0000 </r>
       <r>   -5.4451    1.0000 </r>
       <r>   -4.1912    1.0000 </r>
       <r>   -4.0750    1.0000 </r>
       <r>   -4.0620    1.0000 </r>
       <r>   -3.4252    1.0000 </r>
       <r>   -3.3088    1.0000 </r>
       <r>   -2.5194    1.0000 </r>
       <r>   -2.2115    1.0000 </r>
       <r>   -2.1899    1.0000 </r>
       <r>   -1.4888    0.9952 </r>
       <r>   -1.2657    0.2855 </r>
       <r>   -1.1653    0.0235 </r>
       <r>   -0.5901    0.0000 </r>
       <r>   -0.0565    0.0000 </r>
       <r>    0.7354    0.0000 </r>
       <r>    1.6214    0.0000 </r>
       <r>    1.8313    0.0000 </r>
      </set>
      <set comment="kpoint 6">
       <r>  -11.2659    1.0000 </r>
       <r>  -10.7774    1.0000 </r>
       <r>  -10.4220    1.0000 </r>
       <r>  -10.3047    1.0000 </r>
       <r>   -8.5510    1.0000 </r>
       <r>   -8.4640    1.0000 </r>
       <r>   -7.3052    1.0000 </r>
       <r>   -7.0475    1.0000 </r>
       <r>   -6.1953    1.0000 </r>
       <r>   -6.0702    1.0000 </r>
       <r>   -4.0362    1.0000 </r>
       <r>   -3.9905    1.0000 </r>
       <r>   -2.9490    1.0000 </r>
       <r>   -2.9223    1.0000 </r>
       <r>   -2.6445    1.0000 </r>
       <r>   -2.5986    1.0000 </r>
       <r>   -2.2708    1.0000 </r>
       <r>   -2.0093    1.0000 </r>
       <r>   -1.4600    0.9854 </r>
       <r>   -1.1549    0.0164 </r>
       <r>   -1.0726    0.0005 </r>
       <r>   -1.0397    0.0001 </r>
       <r>    0.7630    0.0000 </r>
       <r>    1.1753    0.0000 </r>
       <r>    1.2417    0.0000 </r>
       <r>    1.5392    0.0000 </r>
      </set>
     </set>
    </set>
   </array>
  </eigenvalues>
  <separator name="orbital magnetization" >
   <v name="MAGDIPOLOUT">      0.00000000      0.00000000      0.00000000</v>
  </separator>
  <dos>
   <i name="efermi">     -1.30574746 </i>
   <total>
    <array>
     <dimension dim="1">gridpoints</dimension>
     <dimension dim="2">spin</dimension>
     <field>energy</field>
     <field>total</field>
     <field>integrated</field>
     <set>
      <set comment="spin 1">
       <r>   -17.0000     0.0000     0.0000 </r>
       <r>   -16.9900     0.0000     0.0000 </r>
       <r>   -16.9800     0.0000     0.0000 </r>
       <r>   -16.9700     0.0000     0.0000 </r>
       <r>   -16.9600     0.0000     0.0000 </r>
       <r>   -16.9500     0.0000     0.0000 </r>
       <r>   -16.9400     0.0000     0.0000 </r>
       <r>   -16.9300     0.0000     0.0000 </r>
       <r>   -16.9200     0.0000     0.0000 </r>
       <r>   -16.9100     0.0000     0.0000 </r>
       <r>   -16.9000     0.0000     0.0000 </r>
       <r>   -16.8900     0.0000     0.0000 </r>
       <r>   -16.8800     0.0000     0.0000 </r>
       <r>   -16.8700     0.0000     0.0000 </r>
       <r>   -16.8600     0.0000     0.0000 </r>
       <r>   -16.8500     0.0000     0.0000 </r>
       <r>   -16.8400     0.0000     0.0000 </r>
       <r>   -16.8300     0.0000     0.0000 </r>
       <r>   -16.8200     0.0000     0.0000 </r>
       <r>   -16.8100     0.0000     0.0000 </r>
       <r>   -16.8000     0.0000     0.0000 </r>
       <r>   -16.7900     0.0000     0.0000 </r>
       <r>   -16.7800     0.0000     0.0000 </r>
       <r>   -16.7700     0.0000     0.0000 </r>
       <r>   -16.7600     0.0000     0.0000 </r>
       <r>   -16.7500     0.0000     0.0000 </r>
       <r>   -16.7400     0.0000     0.0000 </r>
       <r>   -16.7300     0.0000     0.0000 </r>
       <r>   -16.7200     0.0000     0.0000 </r>
       <r>   -16.7100     0.0000     0.0000 </r>
       <r>   -16.7000     0.0000     0.0000 </r>
       <r>   -16.6900     0.0000     0.0000 </r>
       <r>   -16.6800     0.0000     0.0000 </r>
       <r>   -16.6700     0.0000     0.0000 </r>
       <r>   -16.6600     0.0000     0.0000 </r>
       <r>   -16.6500     0.0000     0.0000 </r>
       <r>   -16.6400     0.0000     0.0000 </r>
       <r>   -16.6300     0.0000     0.0000 </r>
       <r>   -16.6200     0.0000     0.0000 </r>
       <r>   -16.6100     0.0000     0.0000 </r>
       <r>   -16.6000     0.0000     0.0000 </r>
       <r>   -16.5900     0.0000     0.0000 </r>
       <r>   -16.5800     0.0000     0.0000 </r>
       <r>   -16.5700     0.0000     0.0000 </r>
       <r>   -16.5600     0.0000     0.0000 </r>
       <r>   -16.5500     0.0000     0.0000 </r>
       <r>   -16.5400     0.0000     0.0000 </r>
       <r>   -16.5300     0.0000     0.0000 </r>
       <r>   -16.5200     0.0000     0.0000 </r>
       <r>   -16.5100     0.0000     0.0000 </r>
       <r>   -16.5000     0.0000     0.0000 </r>
       <r>   -16.4900     0.0000     0.0000 </r>
       <r>   -16.4800     0.0000     0.0000 </r>
       <r>   -16.4700     0.0000     0.0000 </r>
       <r>   -16.4600     0.0000     0.0000 </r>
       <r>   -16.4500     0.0000     0.0000 </r>
       <r>   -16.4400     0.0000     0.0000 </r>
       <r>   -16.4300     0.0000     0.0000 </r>
       <r>   -16.4200     0.0000     0.0000 </r>
       <r>   -16.4100     0.0000     0.0000 </r>
       <r>   -16.4000     0.0000     0.0000 </r>
       <r>   -16.3900     0.0000     0.0000 </r>
       <r>   -16.3800     0.0000     0.0000 </r>
       <r>   -16.3700     0.0000     0.0000 </r>
       <r>   -16.3600     0.0000     0.0000 </r>
       <r>   -16.3500     0.0000     0.0000 </r>
       <r>   -16.3400     0.0000     0.0000 </r>
       <r>   -16.3300     0.0000     0.0000 </r>
       <r>   -16.3200     0.0000     0.0000 </r>
       <r>   -16.3100     0.0000     0.0000 </r>
       <r>   -16.3000     0.0000     0.0000 </r>
       <r>   -16.2900     0.0000     0.0000 </r>
       <r>   -16.2800     0.0000     0.0000 </r>
       <r>   -16.2700     0.0000     0.0000 </r>
       <r>   -16.2600     0.0000     0.0000 </r>
       <r>   -16.2500     0.0000     0.0000 </r>
       <r>   -16.2400     0.0000     0.0000 </r>
       <r>   -16.2300     0.0000     0.0000 </r>
       <r>   -16.2200     0.0000     0.0000 </r>
       <r>   -16.2100     0.0000     0.0000 </r>
       <r>   -16.2000     0.0000     0.0000 </r>
       <r>   -16.1900     0.0000     0.0000 </r>
       <r>   -16.1800     0.0000     0.0000 </r>
       <r>   -16.1700     0.0000     0.0000 </r>
       <r>   -16.1600     0.0000     0.0000 </r>
       <r>   -16.1500     0.0000     0.0000 </r>
       <r>   -16.1400     0.0000     0.0000 </r>
       <r>   -16.1300     0.0000     0.0000 </r>
       <r>   -16.1200     0.0000     0.0000 </r>
       <r>   -16.1100     0.0000     0.0000 </r>
       <r>   -16.1000     0.0000     0.0000 </r>
       <r>   -16.0900     0.0000     0.0000 </r>
       <r>   -16.0800     0.0000     0.0000 </r>
       <r>   -16.0700     0.0000     0.0000 </r>
       <r>   -16.0600     0.0000     0.0000 </r>
       <r>   -16.0500     0.0000     0.0000 </r>
       <r>   -16.0400     0.0000     0.0000 </r>
       <r>   -16.0300     0.0000     0.0000 </r>
       <r>   -16.0200     0.0000     0.0000 </r>
       <r>   -16.0100     0.0000     0.0000 </r>
       <r>   -16.0000     0.0000     0.0000 </r>
       <r>   -15.9900     0.0000     0.0000 </r>
       <r>   -15.9800     0.0000     0.0000 </r>
       <r>   -15.9700     0.0000     0.0000 </r>
       <r>   -15.9600     0.0000     0.0000 </r>
       <r>   -15.9500     0.0000     0.0000 </r>
       <r>   -15.9400     0.0000     0.0000 </r>
       <r>   -15.9300     0.0000     0.0000 </r>
       <r>   -15.9200     0.0000     0.0000 </r>
       <r>   -15.9100     0.0000     0.0000 </r>
       <r>   -15.9000     0.0000     0.0000 </r>
       <r>   -15.8900     0.0000     0.0000 </r>
       <r>   -15.8800     0.0000     0.0000 </r>
       <r>   -15.8700     0.0000     0.0000 </r>
       <r>   -15.8600     0.0000     0.0000 </r>
       <r>   -15.8500     0.0000     0.0000 </r>
       <r>   -15.8400     0.0000     0.0000 </r>
       <r>   -15.8300     0.0000     0.0000 </r>
       <r>   -15.8200     0.0000     0.0000 </r>
       <r>   -15.8100     0.0000     0.0000 </r>
       <r>   -15.8000     0.0000     0.0000 </r>
       <r>   -15.7900     0.0000     0.0000 </r>
       <r>   -15.7800     0.0000     0.0000 </r>
       <r>   -15.7700     0.0000     0.0000 </r>
       <r>   -15.7600     0.0000     0.0000 </r>
       <r>   -15.7500     0.0000     0.0000 </r>
       <r>   -15.7400     0.0000     0.0000 </r>
       <r>   -15.7300     0.0000     0.0000 </r>
       <r>   -15.7200     0.0000     0.0000 </r>
       <r>   -15.7100     0.0000     0.0000 </r>
       <r>   -15.7000     0.0000     0.0000 </r>
       <r>   -15.6900     0.0000     0.0000 </r>
       <r>   -15.6800     0.0000     0.0000 </r>
       <r>   -15.6700     0.0000     0.0000 </r>
       <r>   -15.6600     0.0000     0.0000 </r>
       <r>   -15.6500     0.0000     0.0000 </r>
       <r>   -15.6400     0.0000     0.0000 </r>
       <r>   -15.6300     0.0000     0.0000 </r>
       <r>   -15.6200     0.0000     0.0000 </r>
       <r>   -15.6100     0.0000     0.0000 </r>
       <r>   -15.6000     0.0000     0.0000 </r>
       <r>   -15.5900     0.0000     0.0000 </r>
       <r>   -15.5800     0.0000     0.0000 </r>
       <r>   -15.5700     0.0000     0.0000 </r>
       <r>   -15.5600     0.0000     0.0000 </r>
       <r>   -15.5500     0.0000     0.0000 </r>
       <r>   -15.5400     0.0000     0.0000 </r>
       <r>   -15.5300     0.0000     0.0000 </r>
       <r>   -15.5200     0.0000     0.0000 </r>
       <r>   -15.5100     0.0000     0.0000 </r>
       <r>   -15.5000     0.0000     0.0000 </r>
       <r>   -15.4900     0.0000     0.0000 </r>
       <r>   -15.4800     0.0000     0.0000 </r>
       <r>   -15.4700     0.0000     0.0000 </r>
       <r>   -15.4600     0.0000     0.0000 </r>
       <r>   -15.4500     0.0000     0.0000 </r>
       <r>   -15.4400     0.0000     0.0000 </r>
       <r>   -15.4300     0.0000     0.0000 </r>
       <r>   -15.4200     0.0000     0.0000 </r>
       <r>   -15.4100     0.0000     0.0000 </r>
       <r>   -15.4000     0.0000     0.0000 </r>
       <r>   -15.3900     0.0000     0.0000 </r>
       <r>   -15.3800     0.0000     0.0000 </r>
       <r>   -15.3700     0.0000     0.0000 </r>
       <r>   -15.3600     0.0000     0.0000 </r>
       <r>   -15.3500     0.0000     0.0000 </r>
       <r>   -15.3400     0.0000     0.0000 </r>
       <r>   -15.3300     0.0000     0.0000 </r>
       <r>   -15.3200     0.0000     0.0000 </r>
       <r>   -15.3100     0.0000     0.0000 </r>
       <r>   -15.3000     0.0000     0.0000 </r>
       <r>   -15.2900     0.0000     0.0000 </r>
       <r>   -15.2800     0.0000     0.0000 </r>
       <r>   -15.2700     0.0000     0.0000 </r>
       <r>   -15.2600     0.0000     0.0000 </r>
       <r>   -15.2500     0.0000     0.0000 </r>
       <r>   -15.2400     0.0000     0.0000 </r>
       <r>   -15.2300     0.0000     0.0000 </r>
       <r>   -15.2200     0.0000     0.0000 </r>
       <r>   -15.2100     0.0000     0.0000 </r>
       <r>   -15.2000     0.0000     0.0000 </r>
       <r>   -15.1900     0.0000     0.0000 </r>
       <r>   -15.1800     0.0000     0.0000 </r>
       <r>   -15.1700     0.0000     0.0000 </r>
       <r>   -15.1600     0.0000     0.0000 </r>
       <r>   -15.1500     0.0000     0.0000 </r>
       <r>   -15.1400     0.0000     0.0000 </r>
       <r>   -15.1300     0.0000     0.0000 </r>
       <r>   -15.1200     0.0000     0.0000 </r>
       <r>   -15.1100     0.0000     0.0000 </r>
       <r>   -15.1000     0.0000     0.0000 </r>
       <r>   -15.0900     0.0000     0.0000 </r>
       <r>   -15.0800     0.0000     0.0000 </r>
       <r>   -15.0700     0.0000     0.0000 </r>
       <r>   -15.0600     0.0000     0.0000 </r>
       <r>   -15.0500     0.0000     0.0000 </r>
       <r>   -15.0400     0.0000     0.0000 </r>
       <r>   -15.0300     0.0000     0.0000 </r>
       <r>   -15.0200     0.0000     0.0000 </r>
       <r>   -15.0100     0.0000     0.0000 </r>
       <r>   -15.0000     0.0000     0.0000 </r>
       <r>   -14.9900     0.0000     0.0000 </r>
       <r>   -14.9800     0.0000     0.0000 </r>
       <r>   -14.9700     0.0000     0.0000 </r>
       <r>   -14.9600     0.0000     0.0000 </r>
       <r>   -14.9500     0.0000     0.0000 </r>
       <r>   -14.9400     0.0000     0.0000 </r>
       <r>   -14.9300     0.0000     0.0000 </r>
       <r>   -14.9200     0.0000     0.0000 </r>
       <r>   -14.9100     0.0000     0.0000 </r>
       <r>   -14.9000     0.0000     0.0000 </r>
       <r>   -14.8900     0.0000     0.0000 </r>
       <r>   -14.8800     0.0000     0.0000 </r>
       <r>   -14.8700     0.0000     0.0000 </r>
       <r>   -14.8600     0.0000     0.0000 </r>
       <r>   -14.8500     0.0000     0.0000 </r>
       <r>   -14.8400     0.0000     0.0000 </r>
       <r>   -14.8300     0.0000     0.0000 </r>
       <r>   -14.8200     0.0000     0.0000 </r>
       <r>   -14.8100     0.0000     0.0000 </r>
       <r>   -14.8000     0.0000     0.0000 </r>
       <r>   -14.7900     0.0000     0.0000 </r>
       <r>   -14.7800     0.0000     0.0000 </r>
       <r>   -14.7700     0.0000     0.0000 </r>
       <r>   -14.7600     0.0000     0.0000 </r>
       <r>   -14.7500     0.0000     0.0000 </r>
       <r>   -14.7400     0.0000     0.0000 </r>
       <r>   -14.7300     0.0000     0.0000 </r>
       <r>   -14.7200     0.0000     0.0000 </r>
       <r>   -14.7100     0.0000     0.0000 </r>
       <r>   -14.7000     0.0000     0.0000 </r>
       <r>   -14.6900     0.0000     0.0000 </r>
       <r>   -14.6800     0.0000     0.0000 </r>
       <r>   -14.6700     0.0000     0.0000 </r>
       <r>   -14.6600     0.0000     0.0000 </r>
       <r>   -14.6500     0.0000     0.0000 </r>
       <r>   -14.6400     0.0000     0.0000 </r>
       <r>   -14.6300     0.0000     0.0000 </r>
       <r>   -14.6200     0.0000     0.0000 </r>
       <r>   -14.6100     0.0000     0.0000 </r>
       <r>   -14.6000     0.0000     0.0000 </r>
       <r>   -14.5900     0.0000     0.0000 </r>
       <r>   -14.5800     0.0000     0.0000 </r>
       <r>   -14.5700     0.0000     0.0000 </r>
       <r>   -14.5600     0.0000     0.0000 </r>
       <r>   -14.5500     0.0000     0.0000 </r>
       <r>   -14.5400     0.0000     0.0000 </r>
       <r>   -14.5300     0.0000     0.0000 </r>
       <r>   -14.5200     0.0000     0.0000 </r>
       <r>   -14.5100     0.0000     0.0000 </r>
       <r>   -14.5000     0.0000     0.0000 </r>
       <r>   -14.4900     0.0000     0.0000 </r>
       <r>   -14.4800     0.0000     0.0000 </r>
       <r>   -14.4700     0.0000     0.0000 </r>
       <r>   -14.4600     0.0000     0.0000 </r>
       <r>   -14.4500     0.0000     0.0000 </r>
       <r>   -14.4400     0.0000     0.0000 </r>
       <r>   -14.4300     0.0000     0.0000 </r>
       <r>   -14.4200     0.0000     0.0000 </r>
       <r>   -14.4100     0.0000     0.0000 </r>
       <r>   -14.4000     0.0000     0.0000 </r>
       <r>   -14.3900     0.0000     0.0000 </r>
       <r>   -14.3800     0.0000     0.0000 </r>
       <r>   -14.3700     0.0000     0.0000 </r>
       <r>   -14.3600     0.0000     0.0000 </r>
       <r>   -14.3500     0.0000     0.0000 </r>
       <r>   -14.3400     0.0000     0.0000 </r>
       <r>   -14.3300     0.0000     0.0000 </r>
       <r>   -14.3200     0.0000     0.0000 </r>
       <r>   -14.3100     0.0000     0.0000 </r>
       <r>   -14.3000     0.0000     0.0000 </r>
       <r>   -14.2900     0.0000     0.0000 </r>
       <r>   -14.2800     0.0000     0.0000 </r>
       <r>   -14.2700     0.0000     0.0000 </r>
       <r>   -14.2600     0.0000     0.0000 </r>
       <r>   -14.2500     0.0000     0.0000 </r>
       <r>   -14.2400     0.0000     0.0000 </r>
       <r>   -14.2300     0.0000     0.0000 </r>
       <r>   -14.2200     0.0000     0.0000 </r>
       <r>   -14.2100     0.0000     0.0000 </r>
       <r>   -14.2000     0.0000     0.0000 </r>
       <r>   -14.1900     0.0000     0.0000 </r>
       <r>   -14.1800     0.0000     0.0000 </r>
       <r>   -14.1700     0.0000     0.0000 </r>
       <r>   -14.1600     0.0000     0.0000 </r>
       <r>   -14.1500     0.0000     0.0000 </r>
       <r>   -14.1400     0.0000     0.0000 </r>
       <r>   -14.1300     0.0000     0.0000 </r>
       <r>   -14.1200     0.0000     0.0000 </r>
       <r>   -14.1100     0.0000     0.0000 </r>
       <r>   -14.1000     0.0000     0.0000 </r>
       <r>   -14.0900     0.0000     0.0000 </r>
       <r>   -14.0800     0.0000     0.0000 </r>
       <r>   -14.0700     0.0000     0.0000 </r>
       <r>   -14.0600     0.0000     0.0000 </r>
       <r>   -14.0500     0.0000     0.0000 </r>
       <r>   -14.0400     0.0000     0.0000 </r>
       <r>   -14.0300     0.0000     0.0000 </r>
       <r>   -14.0200     0.0000     0.0000 </r>
       <r>   -14.0100     0.0000     0.0000 </r>
       <r>   -14.0000     0.0000     0.0000 </r>
       <r>   -13.9900     0.0000     0.0000 </r>
       <r>   -13.9800     0.0000     0.0000 </r>
       <r>   -13.9700     0.0000     0.0000 </r>
       <r>   -13.9600     0.0000     0.0000 </r>
       <r>   -13.9500     0.0000     0.0000 </r>
       <r>   -13.9400     0.0000     0.0000 </r>
       <r>   -13.9300     0.0000     0.0000 </r>
       <r>   -13.9200     0.0000     0.0000 </r>
       <r>   -13.9100     0.0000     0.0000 </r>
       <r>   -13.9000     0.0000     0.0000 </r>
       <r>   -13.8900     0.0000     0.0000 </r>
       <r>   -13.8800     0.0000     0.0000 </r>
       <r>   -13.8700     0.0000     0.0000 </r>
       <r>   -13.8600     0.0000     0.0000 </r>
       <r>   -13.8500     0.0000     0.0000 </r>
       <r>   -13.8400     0.0000     0.0000 </r>
       <r>   -13.8300     0.0000     0.0000 </r>
       <r>   -13.8200     0.0000     0.0000 </r>
       <r>   -13.8100     0.0000     0.0000 </r>
       <r>   -13.8000     0.0000     0.0000 </r>
       <r>   -13.7900     0.0000     0.0000 </r>
       <r>   -13.7800     0.0000     0.0000 </r>
       <r>   -13.7700     0.0000     0.0000 </r>
       <r>   -13.7600     0.0000     0.0000 </r>
       <r>   -13.7500     0.0000     0.0000 </r>
       <r>   -13.7400     0.0000     0.0000 </r>
       <r>   -13.7300     0.0000     0.0000 </r>
       <r>   -13.7200     0.0000     0.0000 </r>
       <r>   -13.7100     0.0000     0.0000 </r>
       <r>   -13.7000     0.0000     0.0000 </r>
       <r>   -13.6900     0.0000     0.0000 </r>
       <r>   -13.6800     0.0000     0.0000 </r>
       <r>   -13.6700     0.0000     0.0000 </r>
       <r>   -13.6600     0.0000     0.0000 </r>
       <r>   -13.6500     0.0000     0.0000 </r>
       <r>   -13.6400     0.0000     0.0000 </r>
       <r>   -13.6300     0.0000     0.0000 </r>
       <r>   -13.6200     0.0000     0.0000 </r>
       <r>   -13.6100     0.0000     0.0000 </r>
       <r>   -13.6000     0.0000     0.0000 </r>
       <r>   -13.5900     0.0000     0.0000 </r>
       <r>   -13.5800     0.0000     0.0000 </r>
       <r>   -13.5700     0.0000     0.0000 </r>
       <r>   -13.5600     0.0000     0.0000 </r>
       <r>   -13.5500     0.0000     0.0000 </r>
       <r>   -13.5400     0.0000     0.0000 </r>
       <r>   -13.5300     0.0000     0.0000 </r>
       <r>   -13.5200     0.0000     0.0000 </r>
       <r>   -13.5100     0.0000     0.0000 </r>
       <r>   -13.5000     0.0000     0.0000 </r>
       <r>   -13.4900     0.0000     0.0000 </r>
       <r>   -13.4800     0.0000     0.0000 </r>
       <r>   -13.4700     0.0000     0.0000 </r>
       <r>   -13.4600     0.0000     0.0000 </r>
       <r>   -13.4500     0.0000     0.0000 </r>
       <r>   -13.4400     0.0000     0.0000 </r>
       <r>   -13.4300     0.0000     0.0000 </r>
       <r>   -13.4200     0.0000     0.0000 </r>
       <r>   -13.4100     0.0000     0.0000 </r>
       <r>   -13.4000     0.0000     0.0000 </r>
       <r>   -13.3900     0.0000     0.0000 </r>
       <r>   -13.3800     0.0000     0.0000 </r>
       <r>   -13.3700     0.0000     0.0000 </r>
       <r>   -13.3600     0.0000     0.0000 </r>
       <r>   -13.3500     0.0000     0.0000 </r>
       <r>   -13.3400     0.0000     0.0000 </r>
       <r>   -13.3300     0.0000     0.0000 </r>
       <r>   -13.3200     0.0000     0.0000 </r>
       <r>   -13.3100     0.0000     0.0000 </r>
       <r>   -13.3000     0.0000     0.0000 </r>
       <r>   -13.2900     0.0000     0.0000 </r>
       <r>   -13.2800     0.0000     0.0000 </r>
       <r>   -13.2700     0.0000     0.0000 </r>
       <r>   -13.2600     0.0000     0.0000 </r>
       <r>   -13.2500     0.0000     0.0000 </r>
       <r>   -13.2400     0.0000     0.0000 </r>
       <r>   -13.2300     0.0000     0.0000 </r>
       <r>   -13.2200     0.0000     0.0000 </r>
       <r>   -13.2100     0.0000     0.0000 </r>
       <r>   -13.2000     0.0000     0.0000 </r>
       <r>   -13.1900     0.0000     0.0000 </r>
       <r>   -13.1800     0.0000     0.0000 </r>
       <r>   -13.1700     0.0000     0.0000 </r>
       <r>   -13.1600     0.0000     0.0000 </r>
       <r>   -13.1500     0.0000     0.0000 </r>
       <r>   -13.1400     0.0000     0.0000 </r>
       <r>   -13.1300     0.0000     0.0000 </r>
       <r>   -13.1200     0.0000     0.0000 </r>
       <r>   -13.1100     0.0000     0.0000 </r>
       <r>   -13.1000     0.0000     0.0000 </r>
       <r>   -13.0900     0.0000     0.0000 </r>
       <r>   -13.0800     0.0000     0.0000 </r>
       <r>   -13.0700     0.0000     0.0000 </r>
       <r>   -13.0600     0.0000     0.0000 </r>
       <r>   -13.0500     0.0000     0.0000 </r>
       <r>   -13.0400     0.0000     0.0000 </r>
       <r>   -13.0300     0.0000     0.0000 </r>
       <r>   -13.0200     0.0000     0.0000 </r>
       <r>   -13.0100     0.0000     0.0000 </r>
       <r>   -13.0000     0.0000     0.0000 </r>
       <r>   -12.9900     0.0000     0.0000 </r>
       <r>   -12.9800     0.0000     0.0000 </r>
       <r>   -12.9700     0.0000     0.0000 </r>
       <r>   -12.9600     0.0000     0.0000 </r>
       <r>   -12.9500     0.0000     0.0000 </r>
       <r>   -12.9400     0.0000     0.0000 </r>
       <r>   -12.9300     0.0000     0.0000 </r>
       <r>   -12.9200     0.0000     0.0000 </r>
       <r>   -12.9100     0.0000     0.0000 </r>
       <r>   -12.9000     0.0000     0.0000 </r>
       <r>   -12.8900     0.0000     0.0000 </r>
       <r>   -12.8800     0.0000     0.0000 </r>
       <r>   -12.8700     0.0000     0.0000 </r>
       <r>   -12.8600     0.0000     0.0000 </r>
       <r>   -12.8500     0.0000     0.0000 </r>
       <r>   -12.8400     0.0000     0.0000 </r>
       <r>   -12.8300     0.0000     0.0000 </r>
       <r>   -12.8200     0.0000     0.0000 </r>
       <r>   -12.8100     0.0000     0.0000 </r>
       <r>   -12.8000     0.0000     0.0000 </r>
       <r>   -12.7900     0.0001     0.0000 </r>
       <r>   -12.7800     0.0001     0.0000 </r>
       <r>   -12.7700     0.0002     0.0000 </r>
       <r>   -12.7600     0.0003     0.0000 </r>
       <r>   -12.7500     0.0005     0.0000 </r>
       <r>   -12.7400     0.0008     0.0000 </r>
       <r>   -12.7300     0.0013     0.0000 </r>
       <r>   -12.7200     0.0022     0.0001 </r>
       <r>   -12.7100     0.0034     0.0001 </r>
       <r>   -12.7000     0.0052     0.0001 </r>
       <r>   -12.6900     0.0079     0.0002 </r>
       <r>   -12.6800     0.0117     0.0003 </r>
       <r>   -12.6700     0.0169     0.0005 </r>
       <r>   -12.6600     0.0241     0.0007 </r>
       <r>   -12.6500     0.0335     0.0011 </r>
       <r>   -12.6400     0.0458     0.0015 </r>
       <r>   -12.6300     0.0615     0.0022 </r>
       <r>   -12.6200     0.0808     0.0030 </r>
       <r>   -12.6100     0.1041     0.0040 </r>
       <r>   -12.6000     0.1315     0.0053 </r>
       <r>   -12.5900     0.1630     0.0069 </r>
       <r>   -12.5800     0.1982     0.0089 </r>
       <r>   -12.5700     0.2366     0.0113 </r>
       <r>   -12.5600     0.2774     0.0141 </r>
       <r>   -12.5500     0.3195     0.0173 </r>
       <r>   -12.5400     0.3619     0.0209 </r>
       <r>   -12.5300     0.4037     0.0249 </r>
       <r>   -12.5200     0.4441     0.0294 </r>
       <r>   -12.5100     0.4829     0.0342 </r>
       <r>   -12.5000     0.5202     0.0394 </r>
       <r>   -12.4900     0.5570     0.0450 </r>
       <r>   -12.4800     0.5948     0.0509 </r>
       <r>   -12.4700     0.6355     0.0573 </r>
       <r>   -12.4600     0.6818     0.0641 </r>
       <r>   -12.4500     0.7362     0.0714 </r>
       <r>   -12.4400     0.8012     0.0795 </r>
       <r>   -12.4300     0.8785     0.0882 </r>
       <r>   -12.4200     0.9690     0.0979 </r>
       <r>   -12.4100     1.0724     0.1087 </r>
       <r>   -12.4000     1.1869     0.1205 </r>
       <r>   -12.3900     1.3091     0.1336 </r>
       <r>   -12.3800     1.4348     0.1480 </r>
       <r>   -12.3700     1.5584     0.1635 </r>
       <r>   -12.3600     1.6741     0.1803 </r>
       <r>   -12.3500     1.7765     0.1981 </r>
       <r>   -12.3400     1.8608     0.2167 </r>
       <r>   -12.3300     1.9237     0.2359 </r>
       <r>   -12.3200     1.9639     0.2555 </r>
       <r>   -12.3100     1.9818     0.2754 </r>
       <r>   -12.3000     1.9805     0.2952 </r>
       <r>   -12.2900     1.9642     0.3148 </r>
       <r>   -12.2800     1.9388     0.3342 </r>
       <r>   -12.2700     1.9104     0.3533 </r>
       <r>   -12.2600     1.8851     0.3721 </r>
       <r>   -12.2500     1.8676     0.3908 </r>
       <r>   -12.2400     1.8612     0.4094 </r>
       <r>   -12.2300     1.8668     0.4281 </r>
       <r>   -12.2200     1.8833     0.4469 </r>
       <r>   -12.2100     1.9072     0.4660 </r>
       <r>   -12.2000     1.9334     0.4853 </r>
       <r>   -12.1900     1.9558     0.5049 </r>
       <r>   -12.1800     1.9677     0.5246 </r>
       <r>   -12.1700     1.9630     0.5442 </r>
       <r>   -12.1600     1.9369     0.5636 </r>
       <r>   -12.1500     1.8862     0.5824 </r>
       <r>   -12.1400     1.8098     0.6005 </r>
       <r>   -12.1300     1.7087     0.6176 </r>
       <r>   -12.1200     1.5859     0.6335 </r>
       <r>   -12.1100     1.4460     0.6479 </r>
       <r>   -12.1000     1.2945     0.6609 </r>
       <r>   -12.0900     1.1376     0.6723 </r>
       <r>   -12.0800     0.9815     0.6821 </r>
       <r>   -12.0700     0.8317     0.6904 </r>
       <r>   -12.0600     0.6929     0.6973 </r>
       <r>   -12.0500     0.5690     0.7030 </r>
       <r>   -12.0400     0.4625     0.7076 </r>
       <r>   -12.0300     0.3753     0.7114 </r>
       <r>   -12.0200     0.3083     0.7145 </r>
       <r>   -12.0100     0.2619     0.7171 </r>
       <r>   -12.0000     0.2363     0.7195 </r>
       <r>   -11.9900     0.2315     0.7218 </r>
       <r>   -11.9800     0.2475     0.7242 </r>
       <r>   -11.9700     0.2844     0.7271 </r>
       <r>   -11.9600     0.3421     0.7305 </r>
       <r>   -11.9500     0.4207     0.7347 </r>
       <r>   -11.9400     0.5195     0.7399 </r>
       <r>   -11.9300     0.6375     0.7463 </r>
       <r>   -11.9200     0.7729     0.7540 </r>
       <r>   -11.9100     0.9229     0.7632 </r>
       <r>   -11.9000     1.0841     0.7741 </r>
       <r>   -11.8900     1.2522     0.7866 </r>
       <r>   -11.8800     1.4226     0.8008 </r>
       <r>   -11.8700     1.5906     0.8167 </r>
       <r>   -11.8600     1.7521     0.8343 </r>
       <r>   -11.8500     1.9039     0.8533 </r>
       <r>   -11.8400     2.0443     0.8737 </r>
       <r>   -11.8300     2.1735     0.8955 </r>
       <r>   -11.8200     2.2932     0.9184 </r>
       <r>   -11.8100     2.4069     0.9425 </r>
       <r>   -11.8000     2.5190     0.9677 </r>
       <r>   -11.7900     2.6345     0.9940 </r>
       <r>   -11.7800     2.7575     1.0216 </r>
       <r>   -11.7700     2.8908     1.0505 </r>
       <r>   -11.7600     3.0350     1.0808 </r>
       <r>   -11.7500     3.1878     1.1127 </r>
       <r>   -11.7400     3.3440     1.1462 </r>
       <r>   -11.7300     3.4956     1.1811 </r>
       <r>   -11.7200     3.6326     1.2175 </r>
       <r>   -11.7100     3.7436     1.2549 </r>
       <r>   -11.7000     3.8177     1.2931 </r>
       <r>   -11.6900     3.8450     1.3315 </r>
       <r>   -11.6800     3.8183     1.3697 </r>
       <r>   -11.6700     3.7338     1.4070 </r>
       <r>   -11.6600     3.5915     1.4429 </r>
       <r>   -11.6500     3.3953     1.4769 </r>
       <r>   -11.6400     3.1527     1.5084 </r>
       <r>   -11.6300     2.8739     1.5372 </r>
       <r>   -11.6200     2.5709     1.5629 </r>
       <r>   -11.6100     2.2564     1.5854 </r>
       <r>   -11.6000     1.9424     1.6049 </r>
       <r>   -11.5900     1.6398     1.6213 </r>
       <r>   -11.5800     1.3575     1.6348 </r>
       <r>   -11.5700     1.1020     1.6459 </r>
       <r>   -11.5600     0.8771     1.6546 </r>
       <r>   -11.5500     0.6845     1.6615 </r>
       <r>   -11.5400     0.5240     1.6667 </r>
       <r>   -11.5300     0.3936     1.6706 </r>
       <r>   -11.5200     0.2906     1.6736 </r>
       <r>   -11.5100     0.2114     1.6757 </r>
       <r>   -11.5000     0.1527     1.6772 </r>
       <r>   -11.4900     0.1111     1.6783 </r>
       <r>   -11.4800     0.0839     1.6791 </r>
       <r>   -11.4700     0.0688     1.6798 </r>
       <r>   -11.4600     0.0643     1.6805 </r>
       <r>   -11.4500     0.0698     1.6812 </r>
       <r>   -11.4400     0.0852     1.6820 </r>
       <r>   -11.4300     0.1111     1.6831 </r>
       <r>   -11.4200     0.1484     1.6846 </r>
       <r>   -11.4100     0.1984     1.6866 </r>
       <r>   -11.4000     0.2626     1.6892 </r>
       <r>   -11.3900     0.3421     1.6927 </r>
       <r>   -11.3800     0.4378     1.6970 </r>
       <r>   -11.3700     0.5495     1.7025 </r>
       <r>   -11.3600     0.6763     1.7093 </r>
       <r>   -11.3500     0.8161     1.7175 </r>
       <r>   -11.3400     0.9654     1.7271 </r>
       <r>   -11.3300     1.1195     1.7383 </r>
       <r>   -11.3200     1.2725     1.7510 </r>
       <r>   -11.3100     1.4180     1.7652 </r>
       <r>   -11.3000     1.5490     1.7807 </r>
       <r>   -11.2900     1.6590     1.7973 </r>
       <r>   -11.2800     1.7420     1.8147 </r>
       <r>   -11.2700     1.7936     1.8326 </r>
       <r>   -11.2600     1.8113     1.8508 </r>
       <r>   -11.2500     1.7948     1.8687 </r>
       <r>   -11.2400     1.7458     1.8862 </r>
       <r>   -11.2300     1.6686     1.9028 </r>
       <r>   -11.2200     1.5692     1.9185 </r>
       <r>   -11.2100     1.4551     1.9331 </r>
       <r>   -11.2000     1.3348     1.9464 </r>
       <r>   -11.1900     1.2173     1.9586 </r>
       <r>   -11.1800     1.1111     1.9697 </r>
       <r>   -11.1700     1.0242     1.9800 </r>
       <r>   -11.1600     0.9633     1.9896 </r>
       <r>   -11.1500     0.9336     1.9989 </r>
       <r>   -11.1400     0.9386     2.0083 </r>
       <r>   -11.1300     0.9803     2.0181 </r>
       <r>   -11.1200     1.0589     2.0287 </r>
       <r>   -11.1100     1.1730     2.0404 </r>
       <r>   -11.1000     1.3199     2.0536 </r>
       <r>   -11.0900     1.4961     2.0686 </r>
       <r>   -11.0800     1.6971     2.0856 </r>
       <r>   -11.0700     1.9184     2.1048 </r>
       <r>   -11.0600     2.1553     2.1263 </r>
       <r>   -11.0500     2.4033     2.1503 </r>
       <r>   -11.0400     2.6582     2.1769 </r>
       <r>   -11.0300     2.9164     2.2061 </r>
       <r>   -11.0200     3.1741     2.2378 </r>
       <r>   -11.0100     3.4280     2.2721 </r>
       <r>   -11.0000     3.6740     2.3088 </r>
       <r>   -10.9900     3.9079     2.3479 </r>
       <r>   -10.9800     4.1247     2.3892 </r>
       <r>   -10.9700     4.3190     2.4324 </r>
       <r>   -10.9600     4.4851     2.4772 </r>
       <r>   -10.9500     4.6173     2.5234 </r>
       <r>   -10.9400     4.7111     2.5705 </r>
       <r>   -10.9300     4.7633     2.6181 </r>
       <r>   -10.9200     4.7730     2.6659 </r>
       <r>   -10.9100     4.7420     2.7133 </r>
       <r>   -10.9000     4.6749     2.7600 </r>
       <r>   -10.8900     4.5790     2.8058 </r>
       <r>   -10.8800     4.4637     2.8505 </r>
       <r>   -10.8700     4.3396     2.8939 </r>
       <r>   -10.8600     4.2175     2.9360 </r>
       <r>   -10.8500     4.1074     2.9771 </r>
       <r>   -10.8400     4.0170     3.0173 </r>
       <r>   -10.8300     3.9512     3.0568 </r>
       <r>   -10.8200     3.9116     3.0959 </r>
       <r>   -10.8100     3.8966     3.1349 </r>
       <r>   -10.8000     3.9013     3.1739 </r>
       <r>   -10.7900     3.9185     3.2131 </r>
       <r>   -10.7800     3.9397     3.2525 </r>
       <r>   -10.7700     3.9563     3.2920 </r>
       <r>   -10.7600     3.9602     3.3316 </r>
       <r>   -10.7500     3.9453     3.3711 </r>
       <r>   -10.7400     3.9077     3.4102 </r>
       <r>   -10.7300     3.8461     3.4486 </r>
       <r>   -10.7200     3.7618     3.4862 </r>
       <r>   -10.7100     3.6584     3.5228 </r>
       <r>   -10.7000     3.5407     3.5582 </r>
       <r>   -10.6900     3.4142     3.5924 </r>
       <r>   -10.6800     3.2842     3.6252 </r>
       <r>   -10.6700     3.1550     3.6568 </r>
       <r>   -10.6600     3.0297     3.6871 </r>
       <r>   -10.6500     2.9095     3.7162 </r>
       <r>   -10.6400     2.7940     3.7441 </r>
       <r>   -10.6300     2.6817     3.7709 </r>
       <r>   -10.6200     2.5706     3.7966 </r>
       <r>   -10.6100     2.4583     3.8212 </r>
       <r>   -10.6000     2.3435     3.8446 </r>
       <r>   -10.5900     2.2260     3.8669 </r>
       <r>   -10.5800     2.1072     3.8880 </r>
       <r>   -10.5700     1.9901     3.9079 </r>
       <r>   -10.5600     1.8795     3.9267 </r>
       <r>   -10.5500     1.7812     3.9445 </r>
       <r>   -10.5400     1.7017     3.9615 </r>
       <r>   -10.5300     1.6475     3.9780 </r>
       <r>   -10.5200     1.6248     3.9942 </r>
       <r>   -10.5100     1.6384     4.0106 </r>
       <r>   -10.5000     1.6922     4.0275 </r>
       <r>   -10.4900     1.7883     4.0454 </r>
       <r>   -10.4800     1.9277     4.0647 </r>
       <r>   -10.4700     2.1100     4.0858 </r>
       <r>   -10.4600     2.3341     4.1091 </r>
       <r>   -10.4500     2.5984     4.1351 </r>
       <r>   -10.4400     2.9010     4.1641 </r>
       <r>   -10.4300     3.2395     4.1965 </r>
       <r>   -10.4200     3.6115     4.2326 </r>
       <r>   -10.4100     4.0134     4.2728 </r>
       <r>   -10.4000     4.4405     4.3172 </r>
       <r>   -10.3900     4.8862     4.3660 </r>
       <r>   -10.3800     5.3413     4.4194 </r>
       <r>   -10.3700     5.7939     4.4774 </r>
       <r>   -10.3600     6.2293     4.5397 </r>
       <r>   -10.3500     6.6305     4.6060 </r>
       <r>   -10.3400     6.9791     4.6758 </r>
       <r>   -10.3300     7.2567     4.7483 </r>
       <r>   -10.3200     7.4461     4.8228 </r>
       <r>   -10.3100     7.5338     4.8981 </r>
       <r>   -10.3000     7.5106     4.9732 </r>
       <r>   -10.2900     7.3735     5.0470 </r>
       <r>   -10.2800     7.1261     5.1182 </r>
       <r>   -10.2700     6.7787     5.1860 </r>
       <r>   -10.2600     6.3475     5.2495 </r>
       <r>   -10.2500     5.8536     5.3080 </r>
       <r>   -10.2400     5.3213     5.3612 </r>
       <r>   -10.2300     4.7761     5.4090 </r>
       <r>   -10.2200     4.2427     5.4514 </r>
       <r>   -10.2100     3.7436     5.4889 </r>
       <r>   -10.2000     3.2974     5.5218 </r>
       <r>   -10.1900     2.9178     5.5510 </r>
       <r>   -10.1800     2.6138     5.5772 </r>
       <r>   -10.1700     2.3889     5.6010 </r>
       <r>   -10.1600     2.2425     5.6235 </r>
       <r>   -10.1500     2.1703     5.6452 </r>
       <r>   -10.1400     2.1654     5.6668 </r>
       <r>   -10.1300     2.2195     5.6890 </r>
       <r>   -10.1200     2.3241     5.7123 </r>
       <r>   -10.1100     2.4712     5.7370 </r>
       <r>   -10.1000     2.6540     5.7635 </r>
       <r>   -10.0900     2.8671     5.7922 </r>
       <r>   -10.0800     3.1065     5.8233 </r>
       <r>   -10.0700     3.3688     5.8569 </r>
       <r>   -10.0600     3.6509     5.8934 </r>
       <r>   -10.0500     3.9489     5.9329 </r>
       <r>   -10.0400     4.2573     5.9755 </r>
       <r>   -10.0300     4.5684     6.0212 </r>
       <r>   -10.0200     4.8719     6.0699 </r>
       <r>   -10.0100     5.1553     6.1215 </r>
       <r>   -10.0000     5.4044     6.1755 </r>
       <r>    -9.9900     5.6043     6.2316 </r>
       <r>    -9.9800     5.7410     6.2890 </r>
       <r>    -9.9700     5.8026     6.3470 </r>
       <r>    -9.9600     5.7812     6.4048 </r>
       <r>    -9.9500     5.6738     6.4615 </r>
       <r>    -9.9400     5.4828     6.5164 </r>
       <r>    -9.9300     5.2166     6.5685 </r>
       <r>    -9.9200     4.8889     6.6174 </r>
       <r>    -9.9100     4.5177     6.6626 </r>
       <r>    -9.9000     4.1238     6.7038 </r>
       <r>    -9.8900     3.7297     6.7411 </r>
       <r>    -9.8800     3.3571     6.7747 </r>
       <r>    -9.8700     3.0259     6.8050 </r>
       <r>    -9.8600     2.7524     6.8325 </r>
       <r>    -9.8500     2.5489     6.8580 </r>
       <r>    -9.8400     2.4221     6.8822 </r>
       <r>    -9.8300     2.3737     6.9059 </r>
       <r>    -9.8200     2.3996     6.9299 </r>
       <r>    -9.8100     2.4912     6.9548 </r>
       <r>    -9.8000     2.6353     6.9812 </r>
       <r>    -9.7900     2.8155     7.0094 </r>
       <r>    -9.7800     3.0134     7.0395 </r>
       <r>    -9.7700     3.2095     7.0716 </r>
       <r>    -9.7600     3.3851     7.1054 </r>
       <r>    -9.7500     3.5235     7.1407 </r>
       <r>    -9.7400     3.6108     7.1768 </r>
       <r>    -9.7300     3.6376     7.2132 </r>
       <r>    -9.7200     3.5986     7.2491 </r>
       <r>    -9.7100     3.4939     7.2841 </r>
       <r>    -9.7000     3.3276     7.3174 </r>
       <r>    -9.6900     3.1082     7.3484 </r>
       <r>    -9.6800     2.8467     7.3769 </r>
       <r>    -9.6700     2.5562     7.4025 </r>
       <r>    -9.6600     2.2503     7.4250 </r>
       <r>    -9.6500     1.9421     7.4444 </r>
       <r>    -9.6400     1.6430     7.4608 </r>
       <r>    -9.6300     1.3626     7.4744 </r>
       <r>    -9.6200     1.1077     7.4855 </r>
       <r>    -9.6100     0.8828     7.4944 </r>
       <r>    -9.6000     0.6896     7.5012 </r>
       <r>    -9.5900     0.5281     7.5065 </r>
       <r>    -9.5800     0.3964     7.5105 </r>
       <r>    -9.5700     0.2917     7.5134 </r>
       <r>    -9.5600     0.2104     7.5155 </r>
       <r>    -9.5500     0.1487     7.5170 </r>
       <r>    -9.5400     0.1031     7.5180 </r>
       <r>    -9.5300     0.0700     7.5187 </r>
       <r>    -9.5200     0.0466     7.5192 </r>
       <r>    -9.5100     0.0304     7.5195 </r>
       <r>    -9.5000     0.0195     7.5197 </r>
       <r>    -9.4900     0.0122     7.5198 </r>
       <r>    -9.4800     0.0075     7.5199 </r>
       <r>    -9.4700     0.0045     7.5199 </r>
       <r>    -9.4600     0.0027     7.5200 </r>
       <r>    -9.4500     0.0016     7.5200 </r>
       <r>    -9.4400     0.0009     7.5200 </r>
       <r>    -9.4300     0.0005     7.5200 </r>
       <r>    -9.4200     0.0003     7.5200 </r>
       <r>    -9.4100     0.0002     7.5200 </r>
       <r>    -9.4000     0.0002     7.5200 </r>
       <r>    -9.3900     0.0003     7.5200 </r>
       <r>    -9.3800     0.0005     7.5200 </r>
       <r>    -9.3700     0.0008     7.5200 </r>
       <r>    -9.3600     0.0014     7.5200 </r>
       <r>    -9.3500     0.0024     7.5201 </r>
       <r>    -9.3400     0.0040     7.5201 </r>
       <r>    -9.3300     0.0065     7.5202 </r>
       <r>    -9.3200     0.0104     7.5203 </r>
       <r>    -9.3100     0.0162     7.5204 </r>
       <r>    -9.3000     0.0247     7.5207 </r>
       <r>    -9.2900     0.0370     7.5210 </r>
       <r>    -9.2800     0.0543     7.5216 </r>
       <r>    -9.2700     0.0782     7.5224 </r>
       <r>    -9.2600     0.1103     7.5235 </r>
       <r>    -9.2500     0.1525     7.5250 </r>
       <r>    -9.2400     0.2067     7.5271 </r>
       <r>    -9.2300     0.2747     7.5298 </r>
       <r>    -9.2200     0.3577     7.5334 </r>
       <r>    -9.2100     0.4567     7.5380 </r>
       <r>    -9.2000     0.5715     7.5437 </r>
       <r>    -9.1900     0.7010     7.5507 </r>
       <r>    -9.1800     0.8429     7.5591 </r>
       <r>    -9.1700     0.9935     7.5690 </r>
       <r>    -9.1600     1.1479     7.5805 </r>
       <r>    -9.1500     1.3001     7.5935 </r>
       <r>    -9.1400     1.4435     7.6080 </r>
       <r>    -9.1300     1.5712     7.6237 </r>
       <r>    -9.1200     1.6766     7.6404 </r>
       <r>    -9.1100     1.7540     7.6580 </r>
       <r>    -9.1000     1.7994     7.6760 </r>
       <r>    -9.0900     1.8102     7.6941 </r>
       <r>    -9.0800     1.7864     7.7119 </r>
       <r>    -9.0700     1.7299     7.7292 </r>
       <r>    -9.0600     1.6447     7.7457 </r>
       <r>    -9.0500     1.5365     7.7611 </r>
       <r>    -9.0400     1.4120     7.7752 </r>
       <r>    -9.0300     1.2786     7.7880 </r>
       <r>    -9.0200     1.1437     7.7994 </r>
       <r>    -9.0100     1.0138     7.8095 </r>
       <r>    -9.0000     0.8948     7.8185 </r>
       <r>    -8.9900     0.7907     7.8264 </r>
       <r>    -8.9800     0.7044     7.8334 </r>
       <r>    -8.9700     0.6369     7.8398 </r>
       <r>    -8.9600     0.5881     7.8457 </r>
       <r>    -8.9500     0.5566     7.8512 </r>
       <r>    -8.9400     0.5400     7.8566 </r>
       <r>    -8.9300     0.5359     7.8620 </r>
       <r>    -8.9200     0.5414     7.8674 </r>
       <r>    -8.9100     0.5539     7.8730 </r>
       <r>    -8.9000     0.5714     7.8787 </r>
       <r>    -8.8900     0.5922     7.8846 </r>
       <r>    -8.8800     0.6154     7.8908 </r>
       <r>    -8.8700     0.6407     7.8972 </r>
       <r>    -8.8600     0.6682     7.9038 </r>
       <r>    -8.8500     0.6982     7.9108 </r>
       <r>    -8.8400     0.7308     7.9181 </r>
       <r>    -8.8300     0.7662     7.9258 </r>
       <r>    -8.8200     0.8038     7.9338 </r>
       <r>    -8.8100     0.8427     7.9423 </r>
       <r>    -8.8000     0.8813     7.9511 </r>
       <r>    -8.7900     0.9176     7.9602 </r>
       <r>    -8.7800     0.9494     7.9697 </r>
       <r>    -8.7700     0.9744     7.9795 </r>
       <r>    -8.7600     0.9911     7.9894 </r>
       <r>    -8.7500     0.9984     7.9994 </r>
       <r>    -8.7400     0.9964     8.0093 </r>
       <r>    -8.7300     0.9864     8.0192 </r>
       <r>    -8.7200     0.9712     8.0289 </r>
       <r>    -8.7100     0.9548     8.0385 </r>
       <r>    -8.7000     0.9423     8.0479 </r>
       <r>    -8.6900     0.9397     8.0573 </r>
       <r>    -8.6800     0.9535     8.0668 </r>
       <r>    -8.6700     0.9906     8.0767 </r>
       <r>    -8.6600     1.0574     8.0873 </r>
       <r>    -8.6500     1.1598     8.0989 </r>
       <r>    -8.6400     1.3033     8.1119 </r>
       <r>    -8.6300     1.4922     8.1269 </r>
       <r>    -8.6200     1.7301     8.1442 </r>
       <r>    -8.6100     2.0198     8.1644 </r>
       <r>    -8.6000     2.3636     8.1880 </r>
       <r>    -8.5900     2.7634     8.2156 </r>
       <r>    -8.5800     3.2206     8.2478 </r>
       <r>    -8.5700     3.7365     8.2852 </r>
       <r>    -8.5600     4.3120     8.3283 </r>
       <r>    -8.5500     4.9471     8.3778 </r>
       <r>    -8.5400     5.6407     8.4342 </r>
       <r>    -8.5300     6.3897     8.4981 </r>
       <r>    -8.5200     7.1882     8.5700 </r>
       <r>    -8.5100     8.0275     8.6502 </r>
       <r>    -8.5000     8.8946     8.7392 </r>
       <r>    -8.4900     9.7731     8.8369 </r>
       <r>    -8.4800    10.6427     8.9434 </r>
       <r>    -8.4700    11.4804     9.0582 </r>
       <r>    -8.4600    12.2610     9.1808 </r>
       <r>    -8.4500    12.9594     9.3104 </r>
       <r>    -8.4400    13.5514     9.4459 </r>
       <r>    -8.4300    14.0158     9.5860 </r>
       <r>    -8.4200    14.3358     9.7294 </r>
       <r>    -8.4100    14.5002     9.8744 </r>
       <r>    -8.4000    14.5040    10.0194 </r>
       <r>    -8.3900    14.3486    10.1629 </r>
       <r>    -8.3800    14.0417    10.3033 </r>
       <r>    -8.3700    13.5962    10.4393 </r>
       <r>    -8.3600    13.0296    10.5696 </r>
       <r>    -8.3500    12.3621    10.6932 </r>
       <r>    -8.3400    11.6158    10.8094 </r>
       <r>    -8.3300    10.8130    10.9175 </r>
       <r>    -8.3200     9.9755    11.0173 </r>
       <r>    -8.3100     9.1234    11.1085 </r>
       <r>    -8.3000     8.2752    11.1912 </r>
       <r>    -8.2900     7.4467    11.2657 </r>
       <r>    -8.2800     6.6517    11.3322 </r>
       <r>    -8.2700     5.9016    11.3912 </r>
       <r>    -8.2600     5.2057    11.4433 </r>
       <r>    -8.2500     4.5715    11.4890 </r>
       <r>    -8.2400     4.0047    11.5291 </r>
       <r>    -8.2300     3.5093    11.5642 </r>
       <r>    -8.2200     3.0873    11.5950 </r>
       <r>    -8.2100     2.7389    11.6224 </r>
       <r>    -8.2000     2.4621    11.6470 </r>
       <r>    -8.1900     2.2528    11.6696 </r>
       <r>    -8.1800     2.1050    11.6906 </r>
       <r>    -8.1700     2.0102    11.7107 </r>
       <r>    -8.1600     1.9586    11.7303 </r>
       <r>    -8.1500     1.9392    11.7497 </r>
       <r>    -8.1400     1.9403    11.7691 </r>
       <r>    -8.1300     1.9505    11.7886 </r>
       <r>    -8.1200     1.9594    11.8082 </r>
       <r>    -8.1100     1.9582    11.8278 </r>
       <r>    -8.1000     1.9402    11.8472 </r>
       <r>    -8.0900     1.9013    11.8662 </r>
       <r>    -8.0800     1.8402    11.8846 </r>
       <r>    -8.0700     1.7579    11.9022 </r>
       <r>    -8.0600     1.6576    11.9188 </r>
       <r>    -8.0500     1.5439    11.9342 </r>
       <r>    -8.0400     1.4225    11.9484 </r>
       <r>    -8.0300     1.2993    11.9614 </r>
       <r>    -8.0200     1.1795    11.9732 </r>
       <r>    -8.0100     1.0676    11.9839 </r>
       <r>    -8.0000     0.9667    11.9935 </r>
       <r>    -7.9900     0.8786    12.0023 </r>
       <r>    -7.9800     0.8036    12.0104 </r>
       <r>    -7.9700     0.7411    12.0178 </r>
       <r>    -7.9600     0.6893    12.0247 </r>
       <r>    -7.9500     0.6463    12.0311 </r>
       <r>    -7.9400     0.6099    12.0372 </r>
       <r>    -7.9300     0.5782    12.0430 </r>
       <r>    -7.9200     0.5497    12.0485 </r>
       <r>    -7.9100     0.5235    12.0538 </r>
       <r>    -7.9000     0.4995    12.0587 </r>
       <r>    -7.8900     0.4779    12.0635 </r>
       <r>    -7.8800     0.4593    12.0681 </r>
       <r>    -7.8700     0.4446    12.0726 </r>
       <r>    -7.8600     0.4344    12.0769 </r>
       <r>    -7.8500     0.4293    12.0812 </r>
       <r>    -7.8400     0.4293    12.0855 </r>
       <r>    -7.8300     0.4340    12.0898 </r>
       <r>    -7.8200     0.4425    12.0943 </r>
       <r>    -7.8100     0.4534    12.0988 </r>
       <r>    -7.8000     0.4654    12.1034 </r>
       <r>    -7.7900     0.4766    12.1082 </r>
       <r>    -7.7800     0.4858    12.1131 </r>
       <r>    -7.7700     0.4919    12.1180 </r>
       <r>    -7.7600     0.4945    12.1229 </r>
       <r>    -7.7500     0.4939    12.1279 </r>
       <r>    -7.7400     0.4913    12.1328 </r>
       <r>    -7.7300     0.4888    12.1377 </r>
       <r>    -7.7200     0.4893    12.1426 </r>
       <r>    -7.7100     0.4962    12.1475 </r>
       <r>    -7.7000     0.5135    12.1527 </r>
       <r>    -7.6900     0.5454    12.1581 </r>
       <r>    -7.6800     0.5958    12.1641 </r>
       <r>    -7.6700     0.6684    12.1708 </r>
       <r>    -7.6600     0.7659    12.1784 </r>
       <r>    -7.6500     0.8901    12.1873 </r>
       <r>    -7.6400     1.0413    12.1977 </r>
       <r>    -7.6300     1.2184    12.2099 </r>
       <r>    -7.6200     1.4186    12.2241 </r>
       <r>    -7.6100     1.6373    12.2405 </r>
       <r>    -7.6000     1.8686    12.2592 </r>
       <r>    -7.5900     2.1053    12.2802 </r>
       <r>    -7.5800     2.3391    12.3036 </r>
       <r>    -7.5700     2.5614    12.3292 </r>
       <r>    -7.5600     2.7635    12.3569 </r>
       <r>    -7.5500     2.9372    12.3862 </r>
       <r>    -7.5400     3.0754    12.4170 </r>
       <r>    -7.5300     3.1726    12.4487 </r>
       <r>    -7.5200     3.2251    12.4810 </r>
[...]
        <r>  0.0000  0.0013  0.0000  0.0013  0.0000  0.0000  0.0000  0.0000  0.0000 </r>
        <r>  0.0000  0.0148  0.0000  0.0148  0.0000  0.0000  0.0000  0.0000  0.0000 </r>
        <r>  0.0000  0.0148  0.0000  0.0148  0.0000  0.0000  0.0000  0.0000  0.0000 </r>
        <r>  0.0556  0.0002  0.0195  0.0002  0.0000  0.0000  0.0000  0.0000  0.0000 </r>
        <r>  0.0556  0.0002  0.0195  0.0002  0.0000  0.0000  0.0000  0.0000  0.0000 </r>
        <r>  0.0713  0.0001  0.0133  0.0001  0.0000  0.0000  0.0000  0.0000  0.0000 </r>
        <r>  0.0713  0.0001  0.0133  0.0001  0.0000  0.0000  0.0000  0.0000  0.0000 </r>
        <r>  0.0000  0.0122  0.0000  0.0122  0.0000  0.0000  0.0000  0.0000  0.0000 </r>
        <r>  0.0000  0.0122  0.0000  0.0122  0.0000  0.0000  0.0000  0.0000  0.0000 </r>
       </set>
       <set comment="band 8">
        <r>  0.0107  0.0107  0.0004  0.0107  0.0000  0.0000  0.0000  0.0000  0.0000 </r>
        <r>  0.0107  0.0107  0.0004  0.0107  0.0000  0.0000  0.0000  0.0000  0.0000 </r>
        <r>  0.0587  0.0042  0.0089  0.0042  0.0000  0.0000  0.0000  0.0000  0.0000 </r>
        <r>  0.0587  0.0042  0.0089  0.0042  0.0000  0.0000  0.0000  0.0000  0.0000 </r>
        <r>  0.0311  0.0023  0.0158  0.0023  0.0000  0.0000  0.0000  0.0000  0.0000 </r>
        <r>  0.0311  0.0023  0.0158  0.0023  0.0000  0.0000  0.0000  0.0000  0.0000 </r>
        <r>  0.0012  0.0078  0.0108  0.0078  0.0000  0.0000  0.0000  0.0000  0.0000 </r>
        <r>  0.0012  0.0078  0.0108  0.0078  0.0000  0.0000  0.0000  0.0000  0.0000 </r>
        <r>  0.0306  0.0006  0.0000  0.0006  0.0000  0.0000  0.0000  0.0000  0.0000 </r>
        <r>  0.0306  0.0006  0.0000  0.0006  0.0000  0.0000  0.0000  0.0000  0.0000 </r>
       </set>
       <set comment="band 9">
        <r>  0.0920  0.0000  0.0011  0.0000  0.0000  0.0000  0.0000  0.0000  0.0000 </r>
        <r>  0.0920  0.0000  0.0011  0.0000  0.0000  0.0000  0.0000  0.0000  0.0000 </r>
        <r>  0.0327  0.0007  0.0389  0.0007  0.0000  0.0000  0.0000  0.0000  0.0000 </r>
        <r>  0.0327  0.0007  0.0389  0.0007  0.0000  0.0000  0.0000  0.0000  0.0000 </r>
        <r>  0.0000  0.0199  0.0000  0.0199  0.0000  0.0000  0.0000  0.0000  0.0000 </r>
        <r>  0.0000  0.0199  0.0000  0.0199  0.0000  0.0000  0.0000  0.0000  0.0000 </r>
        <r>  0.0000  0.0000  0.0000  0.0000  0.0000  0.0000  0.0000  0.0000  0.0000 </r>
        <r>  0.0000  0.0000  0.0000  0.0000  0.0000  0.0000  0.0000  0.0000  0.0000 </r>
        <r>  0.0196  0.0000  0.0002  0.0000  0.0000  0.0000  0.0000  0.0000  0.0000 </r>
        <r>  0.0196  0.0000  0.0002  0.0000  0.0000  0.0000  0.0000  0.0000  0.0000 </r>
       </set>
       <set comment="band 10">
        <r>  0.0247  0.0008  0.0002  0.0008  0.0000  0.0000  0.0000  0.0000  0.0000 </r>
        <r>  0.0247  0.0008  0.0002  0.0008  0.0000  0.0000  0.0000  0.0000  0.0000 </r>
        <r>  0.0047  0.0000  0.0003  0.0000  0.0000  0.0000  0.0000  0.0000  0.0000 </r>
        <r>  0.0047  0.0000  0.0003  0.0000  0.0000  0.0000  0.0000  0.0000  0.0000 </r>
        <r>  0.0044  0.0184  0.0043  0.0184  0.0000  0.0000  0.0000  0.0000  0.0000 </r>
        <r>  0.0044  0.0184  0.0043  0.0184  0.0000  0.0000  0.0000  0.0000  0.0000 </r>
        <r>  0.0299  0.0071  0.0290  0.0071  0.0000  0.0000  0.0000  0.0000  0.0000 </r>
        <r>  0.0299  0.0071  0.0290  0.0071  0.0000  0.0000  0.0000  0.0000  0.0000 </r>
        <r>  0.0549  0.0016  0.0018  0.0016  0.0000  0.0000  0.0000  0.0000  0.0000 </r>
        <r>  0.0550  0.0016  0.0018  0.0016  0.0000  0.0000  0.0000  0.0000  0.0000 </r>
       </set>
       <set comment="band 11">
        <r>  0.0000  0.0108  0.0000  0.0108  0.0000  0.0000  0.0000  0.0000  0.0000 </r>
        <r>  0.0000  0.0108  0.0000  0.0108  0.0000  0.0000  0.0000  0.0000  0.0000 </r>
        <r>  0.0000  0.0135  0.0000  0.0135  0.0000  0.0000  0.0000  0.0000  0.0000 </r>
        <r>  0.0000  0.0135  0.0000  0.0135  0.0000  0.0000  0.0000  0.0000  0.0000 </r>
        <r>  0.0118  0.0001  0.0332  0.0001  0.0000  0.0000  0.0000  0.0000  0.0000 </r>
        <r>  0.0118  0.0001  0.0332  0.0001  0.0000  0.0000  0.0000  0.0000  0.0000 </r>
        <r>  0.0004  0.0018  0.0414  0.0018  0.0000  0.0000  0.0000  0.0000  0.0000 </r>
        <r>  0.0004  0.0018  0.0414  0.0018  0.0000  0.0000  0.0000  0.0000  0.0000 </r>
        <r>  0.0000  0.0156  0.0000  0.0156  0.0000  0.0000  0.0000  0.0000  0.0000 </r>
        <r>  0.0000  0.0156  0.0000  0.0156  0.0000  0.0000  0.0000  0.0000  0.0000 </r>
       </set>
       <set comment="band 12">
        <r>  0.0005  0.0175  0.0028  0.0175  0.0000  0.0000  0.0000  0.0000  0.0000 </r>
        <r>  0.0005  0.0174  0.0028  0.0174  0.0000  0.0000  0.0000  0.0000  0.0000 </r>
        <r>  0.0000  0.0026  0.0449  0.0026  0.0000  0.0000  0.0000  0.0000  0.0000 </r>
        <r>  0.0000  0.0026  0.0449  0.0026  0.0000  0.0000  0.0000  0.0000  0.0000 </r>
        <r>  0.0075  0.0000  0.0299  0.0000  0.0000  0.0000  0.0000  0.0000  0.0000 </r>
        <r>  0.0075  0.0000  0.0299  0.0000  0.0000  0.0000  0.0000  0.0000  0.0000 </r>
        <r>  0.0068  0.0104  0.0013  0.0104  0.0000  0.0000  0.0000  0.0000  0.0000 </r>
        <r>  0.0068  0.0104  0.0013  0.0104  0.0000  0.0000  0.0000  0.0000  0.0000 </r>
        <r>  0.0124  0.0065  0.0015  0.0065  0.0000  0.0000  0.0000  0.0000  0.0000 </r>
        <r>  0.0124  0.0065  0.0015  0.0065  0.0000  0.0000  0.0000  0.0000  0.0000 </r>
       </set>
       <set comment="band 13">
        <r>  0.0000  0.0007  0.0000  0.0007  0.0000  0.0000  0.0000  0.0000  0.0000 </r>
        <r>  0.0000  0.0007  0.0000  0.0007  0.0000  0.0000  0.0000  0.0000  0.0000 </r>
        <r>  0.0000  0.0002  0.0000  0.0002  0.0000  0.0000  0.0000  0.0000  0.0000 </r>
        <r>  0.0000  0.0002  0.0000  0.0002  0.0000  0.0000  0.0000  0.0000  0.0000 </r>
        <r>  0.0073  0.0459  0.0005  0.0459  0.0000  0.0000  0.0000  0.0000  0.0000 </r>
        <r>  0.0073  0.0459  0.0005  0.0459  0.0000  0.0000  0.0000  0.0000  0.0000 </r>
        <r>  0.0081  0.0391  0.0161  0.0391  0.0000  0.0000  0.0000  0.0000  0.0000 </r>
        <r>  0.0081  0.0391  0.0161  0.0391  0.0000  0.0000  0.0000  0.0000  0.0000 </r>
        <r>  0.0000  0.0019  0.0000  0.0019  0.0000  0.0000  0.0000  0.0000  0.0000 </r>
        <r>  0.0000  0.0019  0.0000  0.0019  0.0000  0.0000  0.0000  0.0000  0.0000 </r>
       </set>
       <set comment="band 14">
        <r>  0.0185  0.0249  0.0007  0.0249  0.0000  0.0000  0.0000  0.0000  0.0000 </r>
        <r>  0.0185  0.0249  0.0007  0.0249  0.0000  0.0000  0.0000  0.0000  0.0000 </r>
        <r>  0.0251  0.0256  0.0068  0.0256  0.0000  0.0000  0.0000  0.0000  0.0000 </r>
        <r>  0.0251  0.0256  0.0068  0.0256  0.0000  0.0000  0.0000  0.0000  0.0000 </r>
        <r>  0.0000  0.0017  0.0000  0.0017  0.0000  0.0000  0.0000  0.0000  0.0000 </r>
        <r>  0.0000  0.0017  0.0000  0.0017  0.0000  0.0000  0.0000  0.0000  0.0000 </r>
        <r>  0.0000  0.0066  0.0000  0.0066  0.0000  0.0000  0.0000  0.0000  0.0000 </r>
        <r>  0.0000  0.0066  0.0000  0.0066  0.0000  0.0000  0.0000  0.0000  0.0000 </r>
        <r>  0.0163  0.0000  0.0191  0.0000  0.0000  0.0000  0.0000  0.0000  0.0000 </r>
        <r>  0.0163  0.0000  0.0191  0.0000  0.0000  0.0000  0.0000  0.0000  0.0000 </r>
       </set>
       <set comment="band 15">
        <r>  0.0261  0.0001  0.0441  0.0001  0.0000  0.0000  0.0000  0.0000  0.0000 </r>
        <r>  0.0261  0.0001  0.0441  0.0001  0.0000  0.0000  0.0000  0.0000  0.0000 </r>
        <r>  0.0024  0.0119  0.0010  0.0119  0.0000  0.0000  0.0000  0.0000  0.0000 </r>
        <r>  0.0024  0.0119  0.0010  0.0119  0.0000  0.0000  0.0000  0.0000  0.0000 </r>
        <r>  0.0064  0.0026  0.0001  0.0026  0.0000  0.0000  0.0000  0.0000  0.0000 </r>
        <r>  0.0064  0.0026  0.0001  0.0026  0.0000  0.0000  0.0000  0.0000  0.0000 </r>
        <r>  0.0159  0.0009  0.0011  0.0009  0.0000  0.0000  0.0000  0.0000  0.0000 </r>
        <r>  0.0159  0.0009  0.0011  0.0009  0.0000  0.0000  0.0000  0.0000  0.0000 </r>
        <r>  0.0085  0.0090  0.0108  0.0090  0.0000  0.0000  0.0000  0.0000  0.0000 </r>
        <r>  0.0085  0.0090  0.0108  0.0090  0.0000  0.0000  0.0000  0.0000  0.0000 </r>
       </set>
       <set comment="band 16">
        <r>  0.0000  0.0007  0.0000  0.0007  0.0000  0.0000  0.0000  0.0000  0.0000 </r>
        <r>  0.0000  0.0007  0.0000  0.0007  0.0000  0.0000  0.0000  0.0000  0.0000 </r>
        <r>  0.0000  0.0366  0.0000  0.0366  0.0000  0.0000  0.0000  0.0000  0.0000 </r>
        <r>  0.0000  0.0366  0.0000  0.0366  0.0000  0.0000  0.0000  0.0000  0.0000 </r>
        <r>  0.0000  0.0418  0.0000  0.0418  0.0000  0.0000  0.0000  0.0000  0.0000 </r>
        <r>  0.0000  0.0418  0.0000  0.0418  0.0000  0.0000  0.0000  0.0000  0.0000 </r>
        <r>  0.0000  0.0168  0.0000  0.0168  0.0000  0.0000  0.0000  0.0000  0.0000 </r>
        <r>  0.0000  0.0168  0.0000  0.0168  0.0000  0.0000  0.0000  0.0000  0.0000 </r>
        <r>  0.0000  0.0113  0.0000  0.0113  0.0000  0.0000  0.0000  0.0000  0.0000 </r>
        <r>  0.0000  0.0113  0.0000  0.0113  0.0000  0.0000  0.0000  0.0000  0.0000 </r>
       </set>
       <set comment="band 17">
        <r>  0.0033  0.0190  0.0212  0.0190  0.0000  0.0000  0.0000  0.0000  0.0000 </r>
        <r>  0.0033  0.0190  0.0213  0.0190  0.0000  0.0000  0.0000  0.0000  0.0000 </r>
        <r>  0.0035  0.0227  0.0023  0.0227  0.0000  0.0000  0.0000  0.0000  0.0000 </r>
        <r>  0.0035  0.0227  0.0023  0.0227  0.0000  0.0000  0.0000  0.0000  0.0000 </r>
        <r>  0.0000  0.0004  0.0000  0.0004  0.0000  0.0000  0.0000  0.0000  0.0000 </r>
        <r>  0.0000  0.0004  0.0000  0.0004  0.0000  0.0000  0.0000  0.0000  0.0000 </r>
        <r>  0.0000  0.0096  0.0000  0.0096  0.0000  0.0000  0.0000  0.0000  0.0000 </r>
        <r>  0.0000  0.0096  0.0000  0.0096  0.0000  0.0000  0.0000  0.0000  0.0000 </r>
        <r>  0.0157  0.0000  0.0371  0.0000  0.0000  0.0000  0.0000  0.0000  0.0000 </r>
        <r>  0.0157  0.0000  0.0371  0.0000  0.0000  0.0000  0.0000  0.0000  0.0000 </r>
       </set>
       <set comment="band 18">
        <r>  0.0000  0.0003  0.0000  0.0003  0.0000  0.0000  0.0000  0.0000  0.0000 </r>
        <r>  0.0000  0.0003  0.0000  0.0003  0.0000  0.0000  0.0000  0.0000  0.0000 </r>
        <r>  0.0000  0.0168  0.0000  0.0168  0.0000  0.0000  0.0000  0.0000  0.0000 </r>
        <r>  0.0000  0.0168  0.0000  0.0168  0.0000  0.0000  0.0000  0.0000  0.0000 </r>
        <r>  0.0000  0.0124  0.0000  0.0124  0.0000  0.0000  0.0000  0.0000  0.0000 </r>
        <r>  0.0000  0.0124  0.0000  0.0124  0.0000  0.0000  0.0000  0.0000  0.0000 </r>
        <r>  0.0000  0.0413  0.0000  0.0413  0.0000  0.0000  0.0000  0.0000  0.0000 </r>
        <r>  0.0000  0.0413  0.0000  0.0413  0.0000  0.0000  0.0000  0.0000  0.0000 </r>
        <r>  0.0000  0.0406  0.0000  0.0406  0.0000  0.0000  0.0000  0.0000  0.0000 </r>
        <r>  0.0000  0.0406  0.0000  0.0406  0.0000  0.0000  0.0000  0.0000  0.0000 </r>
       </set>
       <set comment="band 19">
        <r>  0.0000  0.0379  0.0000  0.0379  0.0000  0.0000  0.0000  0.0000  0.0000 </r>
        <r>  0.0000  0.0379  0.0000  0.0379  0.0000  0.0000  0.0000  0.0000  0.0000 </r>
        <r>  0.0000  0.0020  0.0000  0.0020  0.0000  0.0000  0.0000  0.0000  0.0000 </r>
        <r>  0.0000  0.0020  0.0000  0.0020  0.0000  0.0000  0.0000  0.0000  0.0000 </r>
        <r>  0.0096  0.0012  0.0327  0.0012  0.0000  0.0000  0.0000  0.0000  0.0000 </r>
        <r>  0.0096  0.0012  0.0327  0.0012  0.0000  0.0000  0.0000  0.0000  0.0000 </r>
        <r>  0.0034  0.0061  0.0087  0.0061  0.0000  0.0000  0.0000  0.0000  0.0000 </r>
        <r>  0.0034  0.0061  0.0087  0.0061  0.0000  0.0000  0.0000  0.0000  0.0000 </r>
        <r>  0.0000  0.0045  0.0000  0.0045  0.0000  0.0000  0.0000  0.0000  0.0000 </r>
        <r>  0.0000  0.0045  0.0000  0.0045  0.0000  0.0000  0.0000  0.0000  0.0000 </r>
       </set>
       <set comment="band 20">
        <r>  0.0025  0.0047  0.0160  0.0047  0.0000  0.0000  0.0000  0.0000  0.0000 </r>
        <r>  0.0025  0.0047  0.0160  0.0047  0.0000  0.0000  0.0000  0.0000  0.0000 </r>
        <r>  0.0054  0.0027  0.0163  0.0027  0.0000  0.0000  0.0000  0.0000  0.0000 </r>
        <r>  0.0054  0.0027  0.0163  0.0027  0.0000  0.0000  0.0000  0.0000  0.0000 </r>
        <r>  0.0106  0.0007  0.0262  0.0007  0.0000  0.0000  0.0000  0.0000  0.0000 </r>
        <r>  0.0106  0.0007  0.0262  0.0007  0.0000  0.0000  0.0000  0.0000  0.0000 </r>
        <r>  0.0009  0.0027  0.0006  0.0027  0.0000  0.0000  0.0000  0.0000  0.0000 </r>
        <r>  0.0009  0.0027  0.0006  0.0027  0.0000  0.0000  0.0000  0.0000  0.0000 </r>
        <r>  0.0022  0.0325  0.0008  0.0325  0.0000  0.0000  0.0000  0.0000  0.0000 </r>
        <r>  0.0022  0.0325  0.0008  0.0325  0.0000  0.0000  0.0000  0.0000  0.0000 </r>
       </set>
       <set comment="band 21">
        <r>  0.0006  0.0009  0.0276  0.0009  0.0000  0.0000  0.0000  0.0000  0.0000 </r>
        <r>  0.0006  0.0009  0.0274  0.0009  0.0000  0.0000  0.0000  0.0000  0.0000 </r>
        <r>  0.0044  0.0035  0.0008  0.0035  0.0000  0.0000  0.0000  0.0000  0.0000 </r>
        <r>  0.0044  0.0035  0.0008  0.0035  0.0000  0.0000  0.0000  0.0000  0.0000 </r>
        <r>  0.0049  0.0105  0.0001  0.0104  0.0000  0.0000  0.0000  0.0000  0.0000 </r>
        <r>  0.0049  0.0104  0.0001  0.0105  0.0000  0.0000  0.0000  0.0000  0.0000 </r>
        <r>  0.0057  0.0001  0.0307  0.0001  0.0000  0.0000  0.0000  0.0000  0.0000 </r>
        <r>  0.0057  0.0001  0.0307  0.0001  0.0000  0.0000  0.0000  0.0000  0.0000 </r>
        <r>  0.0141  0.0003  0.0710  0.0003  0.0000  0.0000  0.0000  0.0000  0.0000 </r>
        <r>  0.0141  0.0003  0.0708  0.0003  0.0000  0.0000  0.0000  0.0000  0.0000 </r>
       </set>
       <set comment="band 22">
        <r>  0.0152  0.0006  0.0667  0.0006  0.0000  0.0000  0.0000  0.0000  0.0000 </r>
        <r>  0.0153  0.0006  0.0669  0.0006  0.0000  0.0000  0.0000  0.0000  0.0000 </r>
        <r>  0.0046  0.0010  0.0310  0.0010  0.0000  0.0000  0.0000  0.0000  0.0000 </r>
        <r>  0.0046  0.0010  0.0310  0.0010  0.0000  0.0000  0.0000  0.0000  0.0000 </r>
        <r>  0.0000  0.0115  0.0000  0.0115  0.0000  0.0000  0.0000  0.0000  0.0000 </r>
        <r>  0.0000  0.0115  0.0000  0.0115  0.0000  0.0000  0.0000  0.0000  0.0000 </r>
        <r>  0.0000  0.0055  0.0000  0.0055  0.0000  0.0000  0.0000  0.0000  0.0000 </r>
        <r>  0.0000  0.0055  0.0000  0.0055  0.0000  0.0000  0.0000  0.0000  0.0000 </r>
        <r>  0.0012  0.0012  0.0325  0.0012  0.0000  0.0000  0.0000  0.0000  0.0000 </r>
        <r>  0.0012  0.0012  0.0327  0.0012  0.0000  0.0000  0.0000  0.0000  0.0000 </r>
       </set>
       <set comment="band 23">
        <r>  0.0000  0.0001  0.0057  0.0001  0.0000  0.0000  0.0000  0.0000  0.0000 </r>
        <r>  0.0000  0.0001  0.0057  0.0001  0.0000  0.0000  0.0000  0.0000  0.0000 </r>
        <r>  0.0006  0.0000  0.0022  0.0000  0.0000  0.0000  0.0000  0.0000  0.0000 </r>
        <r>  0.0006  0.0000  0.0022  0.0000  0.0000  0.0000  0.0000  0.0000  0.0000 </r>
        <r>  0.0000  0.0000  0.0000  0.0000  0.0000  0.0000  0.0000  0.0000  0.0000 </r>
        <r>  0.0000  0.0000  0.0000  0.0000  0.0000  0.0000  0.0000  0.0000  0.0000 </r>
        <r>  0.0000  0.0001  0.0000  0.0001  0.0000  0.0000  0.0000  0.0000  0.0000 </r>
        <r>  0.0000  0.0001  0.0000  0.0001  0.0000  0.0000  0.0000  0.0000  0.0000 </r>
        <r>  0.0039  0.0764  0.0006  0.0764  0.0000  0.0000  0.0000  0.0000  0.0000 </r>
        <r>  0.0039  0.0764  0.0006  0.0764  0.0000  0.0000  0.0000  0.0000  0.0000 </r>
       </set>
       <set comment="band 24">
        <r>  0.0000  0.0846  0.0000  0.0846  0.0000  0.0000  0.0000  0.0000  0.0000 </r>
        <r>  0.0000  0.0846  0.0000  0.0846  0.0000  0.0000  0.0000  0.0000  0.0000 </r>
        <r>  0.0000  0.0002  0.0000  0.0002  0.0000  0.0000  0.0000  0.0000  0.0000 </r>
        <r>  0.0000  0.0002  0.0000  0.0002  0.0000  0.0000  0.0000  0.0000  0.0000 </r>
        <r>  0.0000  0.0054  0.0000  0.0054  0.0000  0.0000  0.0000  0.0000  0.0000 </r>
        <r>  0.0000  0.0054  0.0000  0.0054  0.0000  0.0000  0.0000  0.0000  0.0000 </r>
        <r>  0.0000  0.0000  0.0000  0.0000  0.0000  0.0000  0.0000  0.0000  0.0000 </r>
        <r>  0.0000  0.0000  0.0000  0.0000  0.0000  0.0000  0.0000  0.0000  0.0000 </r>
        <r>  0.0000  0.0001  0.0000  0.0001  0.0000  0.0000  0.0000  0.0000  0.0000 </r>
        <r>  0.0000  0.0001  0.0000  0.0001  0.0000  0.0000  0.0000  0.0000  0.0000 </r>
       </set>
       <set comment="band 25">
        <r>  0.0000  0.0007  0.0038  0.0007  0.0000  0.0000  0.0000  0.0000  0.0000 </r>
        <r>  0.0000  0.0007  0.0038  0.0007  0.0000  0.0000  0.0000  0.0000  0.0000 </r>
        <r>  0.0167  0.0000  0.0136  0.0000  0.0000  0.0000  0.0000  0.0000  0.0000 </r>
        <r>  0.0167  0.0000  0.0136  0.0000  0.0000  0.0000  0.0000  0.0000  0.0000 </r>
        <r>  0.0192  0.0000  0.0207  0.0000  0.0000  0.0000  0.0000  0.0000  0.0000 </r>
        <r>  0.0192  0.0000  0.0207  0.0000  0.0000  0.0000  0.0000  0.0000  0.0000 </r>
        <r>  0.0238  0.0000  0.0123  0.0000  0.0000  0.0000  0.0000  0.0000  0.0000 </r>
        <r>  0.0238  0.0000  0.0123  0.0000  0.0000  0.0000  0.0000  0.0000  0.0000 </r>
        <r>  0.0182  0.0007  0.0065  0.0007  0.0000  0.0000  0.0000  0.0000  0.0000 </r>
        <r>  0.0182  0.0007  0.0065  0.0007  0.0000  0.0000  0.0000  0.0000  0.0000 </r>
       </set>
       <set comment="band 26">
        <r>  0.0016  0.0004  0.0017  0.0004  0.0000  0.0000  0.0000  0.0000  0.0000 </r>
        <r>  0.0016  0.0004  0.0017  0.0004  0.0000  0.0000  0.0000  0.0000  0.0000 </r>
        <r>  0.0312  0.0003  0.0073  0.0003  0.0000  0.0000  0.0000  0.0000  0.0000 </r>
        <r>  0.0312  0.0003  0.0073  0.0003  0.0000  0.0000  0.0000  0.0000  0.0000 </r>
        <r>  0.0185  0.0001  0.0182  0.0001  0.0000  0.0000  0.0000  0.0000  0.0000 </r>
        <r>  0.0186  0.0001  0.0181  0.0001  0.0000  0.0000  0.0000  0.0000  0.0000 </r>
        <r>  0.0308  0.0000  0.0054  0.0000  0.0000  0.0000  0.0000  0.0000  0.0000 </r>
        <r>  0.0300  0.0000  0.0056  0.0000  0.0000  0.0000  0.0000  0.0000  0.0000 </r>
        <r>  0.0228  0.0006  0.0324  0.0006  0.0000  0.0000  0.0000  0.0000  0.0000 </r>
        <r>  0.0227  0.0006  0.0324  0.0006  0.0000  0.0000  0.0000  0.0000  0.0000 </r>
       </set>
      </set>
     </set>
    </set>
   </array>
  </projected>
 </calculation>
 <structure name="finalpos" >
  <crystal>
   <varray name="basis" >
    <v>       5.43101000       0.00000000       0.00000000 </v>
    <v>       0.00000000       5.43101000       0.00000000 </v>
    <v>       0.00000000       0.00000000      18.79101000 </v>
   </varray>
   <i name="volume">    554.25718099 </i>
   <varray name="rec_basis" >
    <v>       0.18412781       0.00000000       0.00000000 </v>
    <v>       0.00000000       0.18412781       0.00000000 </v>
    <v>       0.00000000       0.00000000       0.05321694 </v>
   </varray>
  </crystal>
  <varray name="positions" >
   <v>       0.00000000       0.00000000       0.00000000 </v>
   <v>       0.49999908       0.49999908       0.00000000 </v>
   <v>       0.24999954       0.24999954       0.07225530 </v>
   <v>       0.75000046       0.75000046       0.07225530 </v>
   <v>       0.00000000       0.49999908       0.14451059 </v>
   <v>       0.49999908       0.00000000       0.14451059 </v>
   <v>       0.24999954       0.75000046       0.21676642 </v>
   <v>       0.75000046       0.24999954       0.21676642 </v>
   <v>       0.00000000       0.00000000       0.28902172 </v>
   <v>       0.49999908       0.49999908       0.28902172 </v>
  </varray>
 </structure>
</modeling>
