unknown system                          
           1
     5.431010    0.000000    0.000000
     0.000000    5.431010    0.000000
     0.000000    0.000000   18.791010
   Si
  10
Direct configuration=     1
   0.00000000  0.00000000  0.00000000
   0.49999908  0.49999908  0.00000000
   0.24999954  0.24999954  0.07225530
   0.75000046  0.75000046  0.07225530
   0.00000000  0.49999908  0.14451059
   0.49999908  0.00000000  0.14451059
   0.24999954  0.75000046  0.21676642
   0.75000046  0.24999954  0.21676642
   0.00000000  0.00000000  0.28902172
   0.49999908  0.49999908  0.28902172
