unknown system                          
   1.00000000000000     
     4.913700    0.000000    0.000000
    -2.456850    4.255389    0.000000
     0.000000    0.000000    5.405130
   Si   O 
     3     6
Direct
  0.469800  0.020000  0.666670
  0.000000  0.469800  0.333330
  0.530200  0.530200  0.000000
  0.414500  0.266200  0.785600
  0.733800  0.148300  0.452270
  0.851700  0.585500  0.118930
  0.148300  0.733800  0.547730
  0.266200  0.414500  0.214400
  0.585500  0.851700  0.881070
 
   48   48   56
  1.4709      1.3862      1.3767      1.4191      1.4961      1.5974      1.7182      1.8562      2.0095      2.1745    
  2.3449      2.5124      2.6703      2.8177      2.9636      3.1273      3.3341      3.6102      3.9876      4.5235    
  5.3185      6.5178      8.2839      10.757      14.024      18.116      22.996      28.529      34.406      40.069    
  44.728      47.541      47.900      45.691      41.349      35.679      29.547      23.632      18.341      13.858    
  10.232      7.4398      5.4004      3.9833      3.0294      2.3878      1.9488      1.6523      1.4051      1.3138    
  1.3063      1.3625      1.4641      1.5997      1.7637      1.9528      2.1634      2.3906      2.6268      2.8605    
  3.0773      3.2649      3.4196      3.5504      3.6787      3.8331      4.0447      4.3497      4.8048      5.5016    
  6.5634      8.1171      10.257      13.021      16.381      20.232      24.367      28.450      32.018      34.546    
  35.586      34.917      32.636      29.128      24.924      20.541      16.370      12.661      9.5486      7.0798    
  5.2272      3.9019      2.9812      2.3448      1.9010      1.5962      1.4117      1.3234      1.3223      1.3923    
  1.5164      1.6827      1.8850      2.1209      2.3873      2.6794      2.9887      3.3009      3.5958      3.8509    
  4.0484      4.1824      4.2638      4.3189      4.3830      4.4934      4.6909      5.0301      5.5891      6.4631    
  7.7426      9.4860      11.698      14.313      17.189      20.102      22.761      24.836      26.023      26.116    
  25.076      23.050      20.324      17.240      14.113      11.190      8.6408      6.5558      4.9483      3.7663    
  2.9212      2.3210      1.8946      1.5985      1.4689      1.3961      1.4096      1.4968      1.6441      1.8400    
  2.0785      2.3585      2.6802      3.0413      3.4334      3.8398      4.2354      4.5884      4.8663      5.0457    
  5.1211      5.1093      5.0458      4.9760      4.9461      5.0014      5.1919      5.5792      6.2339      7.2166    
  8.5539      10.220      12.129      14.142      16.070      17.692      18.793      19.202      18.846      17.760    
  16.081      14.014      11.783      9.5942      7.6085      5.9267      4.5875      3.5741      2.8319      2.2947    
  1.9072      1.6369      1.5601      1.5143      1.5520      1.6632      1.8368      2.0634      2.3382      2.6621    
  3.0397      3.4736      3.9582      4.4766      4.9987      5.4828      5.8817      6.1530      6.2712      6.2365    
  6.0772      5.8428      5.5929      5.3842      5.2667      5.2861      5.4890      5.9187      6.6038      7.5445    
  8.7043      10.005      11.327      12.519      13.424      13.911      13.899      13.376      12.399      11.079    
  9.5649      8.0077      6.5371      5.2443      4.1774      3.3437      2.7180      2.2582      1.9254      1.6958    
  1.6758      1.6672      1.7379      1.8806      2.0857      2.3459      2.6586      3.0277      3.4620      3.9706    
  4.5551      5.2012      5.8753      6.5255      7.0890      7.5030      7.7186      7.7143      7.5038      7.1340    
  6.6744      6.2019      5.7865      5.4819      5.3246      5.3398      5.5460      5.9526      6.5483      7.2915    
  8.1081      8.9001      9.5606      9.9910      10.118      9.9102      9.3795      8.5820      7.6042      6.5464    
  5.5052      4.5571      3.7487      3.0958      2.5909      2.2142      1.9446      1.7674      1.8106      1.8489    
  1.9613      2.1428      2.3861      2.6853      3.0393      3.4547      3.9454      4.5284      5.2148      5.9974    
  6.8433      7.6926      8.4660      9.0771      9.4502      9.5375      9.3322      8.8709      8.2267      7.4946    
  6.7718      6.1375      5.6430      5.3131      5.1568      5.1736      5.3522      5.6667      6.0746      6.5184    
  6.9299      7.2373      7.3793      7.3188      7.0491      6.5916      5.9890      5.3002      4.5912      3.9223    
  3.3341      2.8452      2.4577      2.1669      1.9660      1.8488      1.9612      2.0552      2.2188      2.4482    
  2.7388      3.0855      3.4872      3.9515      4.4976      5.1513      5.9348      6.8525      7.8785      8.9508    
  9.9751      10.839      11.436      11.686      11.553      11.057      10.269      9.2953      8.2588      7.2729    
  6.4234      5.7580      5.2872      4.9956      4.8574      4.8473      4.9398      5.1022      5.2897      5.4506    
  5.5373      5.5163      5.3728      5.1099      4.7461      4.3119      3.8450      3.3846      2.9644      2.6074    
  2.3250      2.1202      1.9921      1.9396      2.1248      2.2813      2.5061      2.7962      3.1476      3.5553    
  4.0165      4.5382      5.1416      5.8606      6.7300      7.7701      8.9690      10.270      11.572      12.739    
  13.628      14.119      14.139      13.681      12.804      11.624      10.284      8.9329      7.6980      6.6631    
  5.8598      5.2748      4.8722      4.6146      4.4708      4.4128      4.4090      4.4247      4.4254      4.3818    
  4.2747      4.0991      3.8626      3.5802      3.2698      2.9526      2.6538      2.3985      2.2047      2.0795    
  2.0242      2.0390      2.2971      2.5211      2.8171      3.1831      3.6141      4.1030      4.6444      5.2412    
  5.9125      6.6958      7.6386      8.7798      10.127      11.640      13.219      14.718      15.959      16.773    
  17.039      16.707      15.817      14.483      12.870      11.160      9.5172      8.0674      6.8796      5.9673    
  5.3003      4.8257      4.4902      4.2532      4.0873      3.9698      3.8756      3.7786      3.6576      3.5019    
  3.3112      3.0925      2.8576      2.6226      2.4067      2.2296      2.1076      2.0506      2.0627      2.1447    
  2.4716      2.7665      3.1420      3.5986      4.1309      4.7286      5.3805      6.0822      6.8457      7.7061    
  8.7179      9.9372      11.396      13.078      14.903      16.724      18.344      19.549      20.155      20.057    
  19.253      17.845      16.012      13.967      11.915      10.024      8.4081      7.1177      6.1420      5.4251    
  4.8961      4.4964      4.1887      3.9491      3.7564      3.5888      3.4262      3.2528      3.0594      2.8468    
  2.6272      2.4195      2.2429      2.1129      2.0417      2.0387      2.1090      2.2533      2.6403      3.0057    
  3.4656      4.0244      4.6786      5.4151      6.2151      7.0632      7.9595      8.9294      10.024      11.310    
  12.842      14.635      16.639      18.729      20.705      22.324      23.345      23.591      22.995      21.624    
  19.655      17.328      14.891      12.561      10.497      8.7870      7.4462      6.4344      5.6806      5.1105    
  4.6649      4.3049      4.0061      3.7506      3.5213      3.3010      3.0763      2.8430      2.6077      2.3871    
  2.2033      2.0773      2.0250      2.0545      2.1673      2.3624      2.7963      3.2240      3.7670      4.4338    
  5.2244      6.1253      7.1110      8.1538      9.2376      10.370      11.587      12.952      14.534      16.378    
  18.474      20.735      22.987      24.983      26.441      27.112      26.849      25.655      23.677      21.163    
  18.403      15.664      13.154      11.002      9.2624      7.9187      6.9089      6.1475      5.5525      5.0640    
  4.6474      4.2827      3.9549      3.6510      3.3615      3.0805      2.8068      2.5479      2.3242      2.1643    
  2.0929      2.1212      2.2492      2.4737      2.9382      3.4091      4.0234      4.7940      5.7245      6.8037    
  8.0035      9.2863      10.617      11.979      13.384      14.874      16.515      18.371      20.472      22.783    
  25.180      27.445      29.287      30.405      30.570      29.694      27.866      25.315      22.348      19.274    
  16.355      13.778      11.641      9.9587      8.6788      7.7091      6.9521      6.3281      5.7839      5.2889    
  4.8274      4.3927      3.9831      3.5983      3.2387      2.9089      2.6234      2.4062      2.2829      2.2705    
  2.3750      2.5966      3.0740      3.5566      4.2167      5.0719      6.1305      7.3847      8.8087      10.360    
  11.989      13.651      15.324      17.016      18.767      20.638      22.686      24.931      27.318      29.688    
  31.785      33.290      33.905      33.452      31.931      29.522      26.519      23.256      20.044      17.121    
  14.638      12.645      11.105      9.9301      9.0143      8.2581      7.5846      6.9452      6.3179      5.6993    
  5.0964      4.5224      3.9936      3.5254      3.1311      2.8232      2.6168      2.5283      2.5702      2.7497    
  3.2221      3.6746      4.3405      5.2441      6.3993      7.8041      9.4372      11.258      13.210      15.228    
  17.251      19.240      21.189      23.131      25.127      27.233      29.463      31.748      33.902      35.634    
  36.629      36.633      35.544      33.450      30.609      27.368      24.064      20.970      18.270      16.052    
  14.311      12.972      11.924      11.053      10.260      9.4740      8.6585      7.8057      6.9321      6.0712    
  5.2631      4.5437      3.9378      3.4591      3.1155      2.9132      2.8579      2.9567      3.4071      3.7837    
  4.4051      5.3049      6.5057      8.0127      9.8118      11.870      14.133      16.526      18.957      21.334    
  23.592      25.712      27.724      29.689      31.672      33.661      35.552      37.176      38.298      38.665    
  38.095      36.557      34.191      31.268      28.133      25.120      22.435      20.184      18.385      16.982    
  15.868      14.922      14.033      13.114      12.105      10.983      9.7711      8.5227      7.3062      6.1862    
  5.2149      4.4288      3.8443      3.4592      3.2609      3.2410      3.6556      3.9126      4.4367      5.2713    
  6.4506      7.9901      9.8856      12.115      14.634      17.372      20.219      23.043      25.715      28.144    
  30.300      32.212      33.918      35.386      36.628      37.666      38.454      38.855      38.692      37.846    
  36.318      34.234      31.798      29.262      26.908      24.917      23.305      22.021      20.971      20.042    
  19.122      18.108      16.921      15.520      13.919      12.184      10.417      8.7267      7.2089      5.9360    
  4.9489      4.2525      3.8233      3.6298      4.0003      4.0930      4.4710      5.1791      6.2629      7.7516    
  9.6535      11.959      14.641      17.640      20.851      24.120      27.266      30.122      32.578      34.593    
  36.071      36.912      37.191      37.128      36.959      36.808      36.650      36.371      35.866      35.088    
  34.041      32.767      31.365      30.017      28.906      28.013      27.256      26.532      25.726      24.720    
  23.414      21.745      19.713      17.394      14.930      12.488      10.224      8.2539      6.6530      5.4534    
  4.6428      4.1756      4.4983      4.3618      4.5463      5.0745      5.9936      7.3459      9.1548      11.426    
  14.148      17.283      20.745      24.383      27.988      31.332      34.223      36.517      37.937      38.229    
  37.428      35.879      34.119      32.659      31.805      31.619      31.998      32.761      33.684      34.507    
  35.006      35.101      34.933      34.762      34.616      34.405      34.000      33.242      31.979      30.109    
  27.616      24.600      21.262      17.853      14.603      11.689      9.2282      7.2891      5.8873      4.9829    
  5.2502      4.7760      4.7041      5.0053      5.7036      6.8443      8.4656      10.590      13.222      16.346    
  19.902      23.766      27.731      31.538      34.925      37.650      39.254      39.262      37.539      34.416    
  30.647      27.162      24.749      23.852      24.562      26.693      29.836      33.398      36.712      39.273    
  40.941      41.977      42.808      43.519      43.967      43.910      43.073      41.235      38.329      34.487    
  30.019      25.314      20.739      16.564      12.959      10.017      7.7763      6.2139      6.4006      5.4269    
  4.9998      5.0179      5.4514      6.3259      7.6840      9.5612      11.981      14.947      18.431      22.340    
  26.499      30.653      34.499      37.730      39.752      39.849      37.619      33.215      27.431      21.522    
  16.804      14.267      14.403      17.224      22.301      28.788      35.547      41.494      46.007      49.129    
  51.423      53.492      55.357      56.678      56.960      55.726      52.717      48.031      42.117      35.625    
  29.189      23.277      18.143      13.889      10.536      8.0627      8.1128      6.4378      5.5113      5.1626    
  5.2880      5.8627      6.9094      8.4670      10.575      13.260      16.518      20.291      24.448      28.769    
  32.950      36.651      39.242      39.801      37.625      32.560      25.233      17.021      9.6676      4.7480    
  3.3054      5.7581      11.897      20.840      31.097      40.958      49.132      55.230      59.756      63.631    
  67.449      70.913      73.269      73.628      71.309      66.161      58.685      49.868      40.823      32.428    
  25.161      19.154      14.364      10.712      10.528      7.9363      6.3337      5.5015      5.2602      5.5097    
  6.2234      7.4235      9.1580      11.473      14.385      17.867      21.836      26.126      30.464      34.507    
  37.694      38.995      37.439      32.508      24.491      14.639      4.8961     -2.6852     -6.4798     -5.5254    
 0.40523      10.679      23.724      37.349      49.528      59.222      66.658      72.896      79.025      85.239    
  90.624      93.815      93.494      88.939      80.399      69.083      56.709      44.868      34.561      26.119    
  19.442      14.308      13.739      10.019      7.5586      6.1054      5.4148      5.3044      5.6784      6.5187    
  7.8601      9.7566      12.246      15.329      18.965      23.043      27.351      31.569      35.257      37.440    
  36.958      32.959      25.303      14.882      3.5474     -6.4012     -12.849     -14.270     -9.8832     0.16594    
  14.579      31.018      46.852      60.266      70.947      79.898      88.538      97.683      106.67      113.77    
  116.96      114.66      106.44      93.317      77.475      61.398      47.003      35.189      25.972      18.959    
  17.775      12.726      9.2465      7.0360      5.7958      5.2721      5.3002      5.8017      6.7674      8.2391    
  10.274      12.903      16.113      19.845      23.958      28.200      32.218      35.271      36.142      33.736    
  27.491      17.780      6.0674     -5.4044     -14.248     -18.467     -16.716     -8.5142      5.4216      23.019    
  41.379      57.970      71.745      83.360      94.397      106.17      118.66      130.10      137.92      139.66    
  133.79      120.62      102.30      82.024      62.858      46.732      34.168      24.744      22.603      16.033    
  11.404      8.3215      6.4324      5.4323      5.0981      5.2833      5.9121      6.9916      8.5868      10.753    
  13.500      16.805      20.610      24.753      28.941      32.708      35.005      34.621      30.650      22.910    
  12.266     0.56598     -9.8518     -16.728     -18.232     -13.222     -1.6566      15.024      34.097      52.617    
  68.767      82.569      95.473      109.16      124.29      139.59      152.32      159.43      158.04      147.09    
  128.28      105.14      81.535      60.678      44.084      31.674      28.087      19.836      13.970      9.9381    
  7.3264      5.7949      5.0722      4.9483      5.2810      6.0280      7.2364      8.9702      11.260      14.120    
  17.562      21.517      25.778      30.024      33.605      35.363      34.186      29.421      21.263      10.892    
 0.22478     -8.5279     -13.242     -12.202     -4.5688      9.0866      26.671      45.282      62.531      77.641    
  91.579      106.13      122.56      140.35      157.04      169.52      174.03      167.81      151.11      127.33    
  100.96      76.024      55.312      39.559      33.917      23.928      16.803      11.804      8.4431      6.3499    
  5.2120      4.7711      4.8378      5.3172      6.2110      7.5702      9.4471      11.894      14.971      18.692    
  22.952      27.519      32.058      35.746      37.435      36.172      31.559      23.997      14.690      5.4370    
 -1.6687     -4.5718     -1.7439      7.2088      21.157      37.731      54.366      69.561      83.545      97.842    
  114.03      132.43      151.23      167.52      177.61      177.59      165.81      144.32      117.74      90.633    
  66.708      47.831      39.535      27.973      19.680      13.780      9.7065      7.0572      5.4920      4.7268    
  4.5448      4.8053      5.4531      6.5110      8.0461      10.142      12.890      16.369      20.578      25.391    
  30.566      35.709      39.899      42.076      41.431      37.671      31.192      23.090      15.053      9.1157    
  7.2395      10.685      19.417      31.979      46.121      59.962      72.955      86.005      100.65      117.78    
  136.53      154.36      168.07      173.74      168.34      152.00      128.22      101.65      76.432      55.463    
  44.154      31.507      22.309      15.678      10.998      7.8438      5.8706      4.7904      4.3715      4.4383    
  4.8900      5.7190      6.9917      8.8078      11.284      14.545      18.681      23.665      29.330      35.412    
  41.453      46.513      49.579      49.873      47.080      41.513      34.186      26.759      21.251      19.489    
  22.406      29.622      39.645      50.692      61.675      72.733      84.960      99.484      116.24      133.48    
  148.39      157.67      158.09      148.23      129.78      106.49      82.442      61.115      46.934      34.008    
  24.362      17.280      12.169      8.6129      6.2913      4.9297      4.2896      4.1757      4.4623      5.1180    
  6.1952      7.7965      10.058      13.144      17.203      22.293      28.337      35.131      42.379      49.544    
  55.622      59.555      60.517      58.150      52.762      45.431      37.900      32.142      29.730      31.259    
  36.205      43.317      51.381      59.913      69.368      80.673      94.202      109.07      123.23      133.87    
  138.19      134.22      122.05      103.92      83.280      63.560      47.271      35.031      25.535      18.366    
  13.060      9.2581      6.6864      5.1003      4.2679      3.9900      4.1325      4.6479      5.5724      7.0074    
  9.1044      12.051      16.033      21.178      27.505      34.902      43.123      51.751      60.078      66.948    
  71.188      71.939      68.941      62.721      54.591      46.368      39.865      36.338      36.136      38.747    
  43.237      48.869      55.526      63.660      73.641      85.145      97.004      107.23      113.43      113.62    
  107.03      94.601      78.708      62.188      45.056      34.355      25.621      18.771      13.540      9.6806    
  6.9843      5.2502      4.2713      3.8583      3.8764      4.2689      5.0624      6.3586      8.3192      11.146    
  15.047      20.203      26.728      34.634      43.773      53.758      63.891      73.136      80.104      83.535    
  82.737      77.836      69.809      60.259      50.999      43.574      38.893      37.108      37.788      40.306    
  44.247      49.581      56.373      64.494      73.377      81.828      88.150      90.614      88.127      80.766    
  69.822      57.286      40.726      32.081      24.585      18.417      13.529      9.8071      7.1231      5.3314    
  4.2646      3.7550      3.6725      3.9565      4.6298      5.7959      7.6244      10.327      14.129      19.249    
  25.885      34.191      44.184      55.590      67.680      79.235      88.714      94.542      95.610      91.748    
  83.778      73.261      62.028      51.726      43.511      37.938      35.022      34.434      35.753      38.650    
  42.855      48.160      54.248      60.468      65.779      68.932      68.890      65.270      58.556      49.917    
  35.085      28.592      22.573      17.342      13.015      9.6044      7.0649      5.3099      4.2179      3.6529    
  3.4980      3.6920      4.2540      5.2879      6.9699      9.5235      13.189      18.212      24.855      33.409    
  44.109      56.901      71.147      85.460      97.868      106.31      109.27      106.27      98.036      86.288    
  73.093      60.307      49.235      40.584      34.583      31.138      29.966      30.646      32.740      35.887    
  39.766      43.976      47.919      50.810      51.853      50.544      46.898      41.462      28.995      24.420    
  19.873      15.683      12.053      9.0851      6.8026      5.1700      4.1113      3.5299      3.3314      3.4572    
  3.9192      4.8179      6.3327      8.6966      12.167      17.010      23.533      32.132      43.263      57.187    
  73.527      90.893      106.92      118.86      124.44      122.68      114.20      100.90      85.305      69.780    
  55.949      44.622      36.029      30.110      26.635      25.244      25.491      26.925      29.154      31.824    
  34.539      36.812      38.108      37.986      36.269      33.124      23.133      20.080      16.823      13.644    
  10.756      8.3045      6.3568      4.9143      3.9391      3.3746      3.1563      3.2337      3.6112      4.3781    
  5.7079      7.8370      11.038      15.600      21.855      30.253      41.421      55.961      73.916      94.148    
  114.12      130.42      139.85      140.55      132.63      118.03      99.820      81.092      64.120      50.026    
  39.028      30.916      25.382      22.092      20.650      20.610      21.537      23.050      24.799      26.437    
  27.604      27.972      27.328      25.653      17.902      15.960      13.738      11.446      9.2690      7.3478    
  5.7695      4.5606      3.7084      3.1863      2.9627      3.0074      3.3192      3.9655      5.1017      6.9597    
  9.8219      13.995      19.818      27.756      38.512      52.956      71.618      93.882      117.41      138.40    
  152.76      157.42      151.55      136.85      116.61      94.643      74.134      56.874      43.312      33.112    
  25.748      20.778      17.820      16.464      16.272      16.834      17.803      18.876      19.780      20.271    
  20.158      19.354      13.484      12.307      10.862      9.2961      7.7424      6.3138      5.0983      4.1385    
  3.4335      2.9714      2.7513      2.7734      3.0367      3.5790      4.5259      6.0970      8.5720      12.259    
  17.498      24.738      34.668      48.268      66.475      89.351      115.18      140.27      160.06      170.11    
  168.05      154.83      133.96      109.58      85.689      65.049      48.685      36.342      27.281      20.847    
  16.579      14.066      12.880      12.607      12.899      13.464      14.059      14.484      14.586      14.263    
  9.9232      9.2515      8.3612      7.3505      6.3036      5.2972      4.4079      3.6847      3.1315      2.7411    
  2.5333      2.5377      2.7614      3.2175      3.9955      5.2878      7.3548      10.492      15.035      21.401    
  30.199      42.350      58.990      80.804      106.97      134.46      158.81      174.83      178.37      168.77    
  149.03      123.86      97.630      73.996      54.836      40.291      29.591      21.866      16.484      12.980    
  10.928      9.9270      9.6276      9.7333      10.003      10.262      10.394      10.304      7.1926      6.8374    
  6.3233      5.7077      5.0417      4.3727      3.7566      3.2369      2.8225      2.5106      2.3270      2.3162    
  2.5000      2.8847      3.5248      4.5665      6.2335      8.8015      12.594      17.993      25.494      35.854    
  50.160      69.464      93.819      121.27      147.88      168.71      178.52      174.64      158.51      134.66    
  107.96      82.527      61.120      44.563      32.327      23.452      17.127      12.790      10.011      8.3994    
  7.5996      7.3015      7.2620      7.3208      7.3805      7.3623      5.2079      5.0334      4.7581      4.4040    
  4.0032      3.5859      3.1842      2.8278      2.5308      2.2983      2.1508      2.1299      2.2719      2.5939    
  3.1253      3.9561      5.2588      7.2813      10.329      14.744      20.920      29.416      41.104      57.064    
  77.931      102.89      129.02      151.99      166.79      169.35      159.07      139.11      114.28      88.934    
  66.495      48.561      35.097      25.261      18.160      13.150      9.7806      7.6683      6.4514      5.8129    
  5.5097      5.3805      5.3296      5.2917      3.8371      3.7494      3.6123      3.4214      3.1945      2.9520    
  2.7088      2.4799      2.2811      2.1233      2.0195      1.9995      2.1051      2.3682      2.8083      3.4688    
  4.4651      6.0021      8.3540      11.827      16.744      23.501      32.703      45.204      61.813      82.543    
  105.79      128.13      145.24      153.01      149.26      135.21      114.55      91.465      69.701      51.496    
  37.412      26.944      19.284      13.771      9.9431      7.4266      5.8686      4.9557      4.4429      4.1595    
  4.0006      3.9070      2.9215      2.8632      2.7975      2.7053      2.5902      2.4636      2.3328      2.2048    
  2.0909      2.0016      1.9454      1.9408      2.0241      2.2329      2.5886      3.1118      3.8679      5.0030    
  6.7424      9.3576      13.132      18.363      25.430      34.884      47.390      63.325      82.102      101.64    
  118.55      129.13      130.76      123.03      107.97      89.004      69.686      52.565      38.734      28.141    
  20.224      14.407      10.257      7.4332      5.6111      4.4882      3.8140      3.4081      3.1591      3.0084    
  2.3123      2.2560      2.2232      2.1903      2.1489      2.1011      2.0519      2.0056      1.9676      1.9434    
  1.9378      1.9622      2.0407      2.2056      2.4830      2.8914      3.4645      4.2887      5.5253      7.4021    
  10.176      14.098      19.413      26.430      35.557      47.163      61.184      76.620      91.326      102.44    
  107.35      104.82      95.499      81.621      66.060      51.258      38.620      28.522      20.735      14.858    
  10.549      7.5276      5.5188      4.2421      3.4455      2.9434      2.6227      2.4241      1.9016      1.8379    
  1.8196      1.8226      1.8324      1.8441      1.8595      1.8818      1.9126      1.9522      2.0017      2.0654    
  2.1554      2.2932      2.5051      2.8143      3.2433      3.8363      4.6911      5.9764      7.9120      10.723    
  14.604      19.736      26.321      34.573      44.549      55.844      67.314      77.113      83.190      84.075    
  79.519      70.617      59.308      47.589      36.891      27.875      20.627      14.973      10.701      7.6117    
  5.4955      4.1125      3.2271      2.6540      2.2780      2.0387      1.6302      1.5564      1.5443      1.5702    
  1.6177      1.6783      1.7497      1.8323      1.9261      2.0290      2.1375      2.2488      2.3650      2.4964    
  2.6628      2.8886      3.1971      3.6152      4.1953      5.0421      6.3185      8.2183      10.923      14.575    
  19.281      25.121      32.104      40.044      48.373      56.062      61.766      64.253      62.903      58.001    
  50.609      42.111      33.717      26.182      19.813      14.649      10.617      7.6065      5.4755      4.0401    
  3.0999      2.4805      2.0650      1.7918      1.4805      1.4198      1.4127      1.4375      1.4811      1.5385    
  1.6079      1.6878      1.7769      1.8733      1.9736      2.0733      2.1687      2.2598      2.3547      2.4706    
  2.6309      2.8584      3.1757      3.6173      4.2480      5.1698      6.5069      8.3723      10.833      13.891    
  17.474      21.428      25.499      29.310      32.376      34.200      34.433      33.013      30.186      26.415    
  22.219      18.043      14.206      10.893      8.1859      6.0860      4.5380      3.4480      2.7032      2.1965    
  1.8490      1.6175      1.3993      1.3330      1.3279      1.3654      1.4310      1.5181      1.6245      1.7481    
  1.8848      2.0301      2.1798      2.3276      2.4648      2.5837      2.6827      2.7707      2.8664      2.9940    
  3.1785      3.4450      3.8284      4.3872      5.2075      6.3873      8.0064      10.096      12.622      15.477    
  18.484      21.389      23.879      25.621      26.336      25.889      24.337      21.914      18.954      15.798    
  12.733      9.9690      7.6358      5.7829      4.3872      3.3749      2.6542      2.1439      1.7860      1.5449    
  1.4125      1.3509      1.3528      1.4032      1.4892      1.6029      1.7411      1.9016      2.0801      2.2710    
  2.4685      2.6648      2.8488      3.0074      3.1304      3.2153      3.2716      3.3204      3.3899      3.5078    
  3.7007      4.0013      4.4596      5.1427      6.1212      7.4454      9.1222      11.099      13.255      15.416    