   9   9   0   0
  0.1255774E+02  0.4913700E-09  0.4913700E-09  0.5405130E-09  0.5000000E-15
  1.000000000000000E-004
  CAR 
 unknown system                          
     13.74750670    -20.45640560  301      1.23457545      1.00000000
    -20.456  0.0000E+00  0.0000E+00
    -20.342  0.0000E+00  0.0000E+00
    -20.228  0.0000E+00  0.0000E+00
    -20.114  0.0000E+00  0.0000E+00
    -20.000  0.0000E+00  0.0000E+00
    -19.886  0.0000E+00  0.0000E+00
    -19.772  0.0000E+00  0.0000E+00
    -19.658  0.0000E+00  0.0000E+00
    -19.544  0.0000E+00  0.0000E+00
    -19.430  0.0000E+00  0.0000E+00
    -19.316  0.0000E+00  0.0000E+00
    -19.202  0.0000E+00  0.0000E+00
    -19.088  0.0000E+00  0.0000E+00
    -18.974  0.0000E+00  0.0000E+00
    -18.860  0.0000E+00  0.0000E+00
    -18.746  0.0000E+00  0.0000E+00
    -18.632  0.0000E+00  0.0000E+00
    -18.518  0.0000E+00  0.0000E+00
    -18.404  0.4572E+00  0.7961E-02
    -18.290  0.1783E+01  0.1531E+00
    -18.176  0.4047E+01  0.4454E+00
    -18.062  0.7687E+01  0.1104E+01
    -17.948  0.3436E+01  0.1913E+01
    -17.834  0.0000E+00  0.2000E+01
    -17.720  0.1470E+01  0.2060E+01
    -17.606  0.3242E+01  0.2302E+01
    -17.492  0.6133E+01  0.2812E+01
    -17.378  0.7889E+01  0.3544E+01
    -17.264  0.1021E+01  0.3953E+01
    -17.150  0.0000E+00  0.4000E+01
    -17.036  0.4657E+00  0.4008E+01
    -16.922  0.2462E+01  0.4164E+01
    -16.808  0.7398E+01  0.4812E+01
    -16.694  0.3881E+01  0.5499E+01
    -16.580  0.2637E+01  0.5856E+01
    -16.466  0.6565E+01  0.6199E+01
    -16.352  0.6897E+01  0.7184E+01
    -16.238  0.4660E+01  0.7804E+01
    -16.124  0.1270E+02  0.9210E+01
    -16.010  0.0000E+00  0.1000E+02
    -15.896  0.2993E+02  0.1109E+02
    -15.782  0.0000E+00  0.1200E+02
    -15.668  0.0000E+00  0.1200E+02
    -15.554  0.0000E+00  0.1200E+02
    -15.440  0.0000E+00  0.1200E+02
    -15.326  0.0000E+00  0.1200E+02
    -15.212  0.0000E+00  0.1200E+02
    -15.098  0.0000E+00  0.1200E+02
    -14.984  0.0000E+00  0.1200E+02
    -14.870  0.0000E+00  0.1200E+02
    -14.756  0.0000E+00  0.1200E+02
    -14.642  0.0000E+00  0.1200E+02
    -14.528  0.0000E+00  0.1200E+02
    -14.414  0.0000E+00  0.1200E+02
    -14.300  0.0000E+00  0.1200E+02
    -14.186  0.0000E+00  0.1200E+02
    -14.072  0.0000E+00  0.1200E+02
    -13.958  0.0000E+00  0.1200E+02
    -13.844  0.0000E+00  0.1200E+02
    -13.730  0.0000E+00  0.1200E+02
    -13.616  0.0000E+00  0.1200E+02
    -13.502  0.0000E+00  0.1200E+02
    -13.388  0.0000E+00  0.1200E+02
    -13.274  0.0000E+00  0.1200E+02
    -13.160  0.0000E+00  0.1200E+02
    -13.046  0.0000E+00  0.1200E+02
    -12.932  0.0000E+00  0.1200E+02
    -12.818  0.0000E+00  0.1200E+02
    -12.704  0.0000E+00  0.1200E+02
    -12.590  0.0000E+00  0.1200E+02
    -12.475  0.0000E+00  0.1200E+02
    -12.361  0.0000E+00  0.1200E+02
    -12.247  0.0000E+00  0.1200E+02
    -12.133  0.0000E+00  0.1200E+02
    -12.019  0.0000E+00  0.1200E+02
    -11.905  0.0000E+00  0.1200E+02
    -11.791  0.0000E+00  0.1200E+02
    -11.677  0.0000E+00  0.1200E+02
    -11.563  0.0000E+00  0.1200E+02
    -11.449  0.0000E+00  0.1200E+02
    -11.335  0.0000E+00  0.1200E+02
    -11.221  0.0000E+00  0.1200E+02
    -11.107  0.0000E+00  0.1200E+02
    -10.993  0.0000E+00  0.1200E+02
    -10.879  0.0000E+00  0.1200E+02
    -10.765  0.0000E+00  0.1200E+02
    -10.651  0.0000E+00  0.1200E+02
    -10.537  0.0000E+00  0.1200E+02
    -10.423  0.0000E+00  0.1200E+02
    -10.309  0.0000E+00  0.1200E+02
    -10.195  0.0000E+00  0.1200E+02
    -10.081  0.0000E+00  0.1200E+02
     -9.967  0.0000E+00  0.1200E+02
     -9.853  0.0000E+00  0.1200E+02
     -9.739  0.0000E+00  0.1200E+02
     -9.625  0.0000E+00  0.1200E+02
     -9.511  0.0000E+00  0.1200E+02
     -9.397  0.0000E+00  0.1200E+02
     -9.283  0.0000E+00  0.1200E+02
     -9.169  0.0000E+00  0.1200E+02
     -9.055  0.0000E+00  0.1200E+02
     -8.941  0.0000E+00  0.1200E+02
     -8.827  0.0000E+00  0.1200E+02
     -8.713  0.0000E+00  0.1200E+02
     -8.599  0.0000E+00  0.1200E+02
     -8.485  0.0000E+00  0.1200E+02
     -8.371  0.0000E+00  0.1200E+02
     -8.257  0.0000E+00  0.1200E+02
     -8.143  0.2309E+00  0.1201E+02
     -8.029  0.4176E+00  0.1205E+02
     -7.915  0.6269E+00  0.1211E+02
     -7.801  0.8468E+00  0.1220E+02
     -7.687  0.1165E+01  0.1231E+02
     -7.573  0.1599E+01  0.1247E+02
     -7.459  0.2752E+01  0.1270E+02
     -7.345  0.7340E+01  0.1332E+02
     -7.231  0.2017E+01  0.1382E+02
     -7.117  0.5249E+00  0.1396E+02
     -7.003  0.2349E+00  0.1400E+02
     -6.889  0.1971E+00  0.1402E+02
     -6.775  0.3249E+00  0.1405E+02
     -6.661  0.5351E+00  0.1410E+02
     -6.547  0.1042E+01  0.1418E+02
     -6.433  0.1823E+01  0.1434E+02
     -6.319  0.3177E+01  0.1463E+02
     -6.205  0.4961E+01  0.1508E+02
     -6.091  0.2264E+01  0.1553E+02
     -5.977  0.1348E+01  0.1573E+02
     -5.863  0.8261E+00  0.1585E+02
     -5.749  0.6074E+00  0.1593E+02
     -5.635  0.3321E+00  0.1599E+02
     -5.521  0.1265E+00  0.1600E+02
     -5.407  0.1800E+01  0.1610E+02
     -5.293  0.3564E+01  0.1642E+02
     -5.179  0.3149E+01  0.1679E+02
     -5.065  0.2953E+01  0.1714E+02
     -4.951  0.2193E+01  0.1745E+02
     -4.837  0.1659E+01  0.1767E+02
     -4.723  0.1332E+01  0.1784E+02
     -4.609  0.8360E+00  0.1797E+02
     -4.495  0.2460E+01  0.1804E+02
     -4.381  0.1134E+02  0.1898E+02
     -4.267  0.5065E+01  0.1986E+02
     -4.153  0.8073E+01  0.2051E+02
     -4.039  0.8724E+01  0.2144E+02
     -3.925  0.2729E+01  0.2204E+02
     -3.811  0.6203E+01  0.2238E+02
     -3.696  0.7237E+01  0.2331E+02
     -3.582  0.2797E+01  0.2382E+02
     -3.468  0.1745E+00  0.2400E+02
     -3.354  0.0000E+00  0.2400E+02
     -3.240  0.0000E+00  0.2400E+02
     -3.126  0.0000E+00  0.2400E+02
     -3.012  0.0000E+00  0.2400E+02
     -2.898  0.0000E+00  0.2400E+02
     -2.784  0.0000E+00  0.2400E+02
     -2.670  0.0000E+00  0.2400E+02
     -2.556  0.0000E+00  0.2400E+02
     -2.442  0.0000E+00  0.2400E+02
     -2.328  0.0000E+00  0.2400E+02
     -2.214  0.7442E+01  0.2414E+02
     -2.100  0.1149E+02  0.2545E+02
     -1.986  0.8117E+01  0.2632E+02
     -1.872  0.5267E+01  0.2709E+02
     -1.758  0.4052E+01  0.2777E+02
     -1.644  0.3960E+01  0.2811E+02
     -1.530  0.1100E+02  0.2910E+02
     -1.416  0.3572E+01  0.2990E+02
     -1.302  0.3629E+01  0.3009E+02
     -1.188  0.1301E+02  0.3116E+02
     -1.074  0.1005E+01  0.3197E+02
     -0.960  0.1784E+02  0.3256E+02
     -0.846  0.1258E+01  0.3387E+02
     -0.732  0.4948E+01  0.3411E+02
     -0.618  0.7725E+01  0.3486E+02
     -0.504  0.8949E+01  0.3598E+02
     -0.390  0.1216E+02  0.3705E+02
     -0.276  0.4909E+01  0.3781E+02
     -0.162  0.9605E+01  0.3854E+02
     -0.048  0.7586E+01  0.3958E+02
      0.066  0.5952E+01  0.4019E+02
      0.180  0.1544E+02  0.4128E+02
      0.294  0.9067E+00  0.4200E+02
      0.408  0.1329E+02  0.4264E+02
      0.522  0.3064E+01  0.4374E+02
      0.636  0.4466E+01  0.4410E+02
      0.750  0.6716E+01  0.4470E+02
      0.864  0.7222E+01  0.4593E+02
      0.978  0.7415E+01  0.4660E+02
      1.092  0.5229E+01  0.4775E+02
      1.206  0.0000E+00  0.4800E+02
      1.320  0.0000E+00  0.4800E+02
      1.434  0.0000E+00  0.4800E+02
      1.548  0.0000E+00  0.4800E+02
      1.662  0.0000E+00  0.4800E+02
      1.776  0.0000E+00  0.4800E+02
      1.890  0.0000E+00  0.4800E+02
      2.004  0.0000E+00  0.4800E+02
      2.118  0.0000E+00  0.4800E+02
      2.232  0.0000E+00  0.4800E+02
      2.346  0.0000E+00  0.4800E+02
      2.460  0.0000E+00  0.4800E+02
      2.574  0.0000E+00  0.4800E+02
      2.688  0.0000E+00  0.4800E+02
      2.802  0.0000E+00  0.4800E+02
      2.916  0.0000E+00  0.4800E+02
      3.030  0.0000E+00  0.4800E+02
      3.144  0.0000E+00  0.4800E+02
      3.258  0.0000E+00  0.4800E+02
      3.372  0.0000E+00  0.4800E+02
      3.486  0.0000E+00  0.4800E+02
      3.600  0.0000E+00  0.4800E+02
      3.714  0.0000E+00  0.4800E+02
      3.828  0.0000E+00  0.4800E+02
      3.942  0.0000E+00  0.4800E+02
      4.056  0.0000E+00  0.4800E+02
      4.170  0.0000E+00  0.4800E+02
      4.284  0.0000E+00  0.4800E+02
      4.398  0.0000E+00  0.4800E+02
      4.512  0.0000E+00  0.4800E+02
      4.626  0.0000E+00  0.4800E+02
      4.740  0.0000E+00  0.4800E+02
      4.854  0.0000E+00  0.4800E+02
      4.969  0.0000E+00  0.4800E+02
      5.083  0.0000E+00  0.4800E+02
      5.197  0.0000E+00  0.4800E+02
      5.311  0.0000E+00  0.4800E+02
      5.425  0.0000E+00  0.4800E+02
      5.539  0.0000E+00  0.4800E+02
      5.653  0.0000E+00  0.4800E+02
      5.767  0.0000E+00  0.4800E+02
      5.881  0.0000E+00  0.4800E+02
      5.995  0.0000E+00  0.4800E+02
      6.109  0.0000E+00  0.4800E+02
      6.223  0.0000E+00  0.4800E+02
      6.337  0.0000E+00  0.4800E+02
      6.451  0.0000E+00  0.4800E+02
      6.565  0.0000E+00  0.4800E+02
      6.679  0.0000E+00  0.4800E+02
      6.793  0.0000E+00  0.4800E+02
      6.907  0.0000E+00  0.4800E+02
      7.021  0.0000E+00  0.4800E+02
      7.135  0.1817E-02  0.4800E+02
      7.249  0.2463E-01  0.4800E+02
      7.363  0.7358E-01  0.4801E+02
      7.477  0.1487E+00  0.4802E+02
      7.591  0.2236E+00  0.4804E+02
      7.705  0.2638E+00  0.4807E+02
      7.819  0.2863E+00  0.4810E+02
      7.933  0.3198E+00  0.4813E+02
      8.047  0.3666E+00  0.4817E+02
      8.161  0.4161E+00  0.4822E+02
      8.275  0.4681E+00  0.4827E+02
      8.389  0.5224E+00  0.4833E+02
      8.503  0.6112E+00  0.4839E+02
      8.617  0.7685E+00  0.4847E+02
      8.731  0.8487E+00  0.4856E+02
      8.845  0.8618E+00  0.4866E+02
      8.959  0.9247E+00  0.4876E+02
      9.073  0.9898E+00  0.4887E+02
      9.187  0.1057E+01  0.4899E+02
      9.301  0.1515E+01  0.4913E+02
      9.415  0.1540E+01  0.4930E+02
      9.529  0.1296E+01  0.4946E+02
      9.643  0.1289E+01  0.4961E+02
      9.757  0.1499E+01  0.4977E+02
      9.871  0.2052E+01  0.4995E+02
      9.985  0.1149E+01  0.5013E+02
     10.099  0.1141E+01  0.5025E+02
     10.213  0.3166E+01  0.5047E+02
     10.327  0.1020E+02  0.5120E+02
     10.441  0.4071E+01  0.5201E+02
     10.555  0.6045E+01  0.5255E+02
     10.669  0.7691E+01  0.5345E+02
     10.783  0.4833E+01  0.5415E+02
     10.897  0.2304E+01  0.5449E+02
     11.011  0.4165E+01  0.5482E+02
     11.125  0.6845E+01  0.5550E+02
     11.239  0.3544E+01  0.5609E+02
     11.353  0.5749E+01  0.5661E+02
     11.467  0.7592E+01  0.5742E+02
     11.581  0.2221E+01  0.5794E+02
     11.695  0.4970E-01  0.5800E+02
     11.809  0.0000E+00  0.5800E+02
     11.923  0.0000E+00  0.5800E+02
     12.037  0.0000E+00  0.5800E+02
     12.151  0.0000E+00  0.5800E+02
     12.265  0.0000E+00  0.5800E+02
     12.379  0.0000E+00  0.5800E+02
     12.493  0.0000E+00  0.5800E+02
     12.607  0.0000E+00  0.5800E+02
     12.721  0.0000E+00  0.5800E+02
     12.835  0.0000E+00  0.5800E+02
     12.949  0.0000E+00  0.5800E+02
     13.063  0.0000E+00  0.5800E+02
     13.177  0.0000E+00  0.5800E+02
     13.291  0.0000E+00  0.5800E+02
     13.405  0.0000E+00  0.5800E+02
     13.519  0.0000E+00  0.5800E+02
     13.633  0.0000E+00  0.5800E+02
     13.748  0.0000E+00  0.5800E+02
