       N       E                     dE             d eps       ncg     rms          rms(c)
DAV:   1     0.271012474300E+03    0.27101E+03   -0.22539E+04  5408   0.125E+03
DAV:   2    -0.629731244868E+02   -0.33399E+03   -0.32668E+03  7003   0.316E+02
DAV:   3    -0.801439914584E+02   -0.17171E+02   -0.17126E+02  6256   0.820E+01
DAV:   4    -0.803559801258E+02   -0.21199E+00   -0.21165E+00  6291   0.979E+00
DAV:   5    -0.803602165458E+02   -0.42364E-02   -0.42348E-02  6171   0.135E+00    0.185E+01
RMM:   6    -0.708929050656E+02    0.94673E+01   -0.40229E+01  5708   0.332E+01    0.518E+00
RMM:   7    -0.708640472292E+02    0.28858E-01   -0.17990E+00  6149   0.614E+00    0.340E+00
RMM:   8    -0.708778181071E+02   -0.13771E-01   -0.27551E-01  6054   0.406E+00    0.635E-01
RMM:   9    -0.708696259825E+02    0.81921E-02   -0.47425E-02  6253   0.114E+00    0.151E-01
RMM:  10    -0.708723502062E+02   -0.27242E-02   -0.17079E-02  6191   0.662E-01    0.196E-01
RMM:  11    -0.708714822040E+02    0.86800E-03   -0.43667E-03  6193   0.378E-01    0.184E-02
RMM:  12    -0.708715233883E+02   -0.41184E-04   -0.16250E-04  5724   0.761E-02    0.140E-02
RMM:  13    -0.708715235386E+02   -0.15028E-06   -0.82486E-06  4029   0.161E-02
   1 F= -.70871524E+02 E0= -.70871524E+02  d E =0.000000E+00
