 vasp.5.4.1 05Feb16 (build Mar 02 2016 14:09:44) complex                        
  
 executed on   Abel-impi-ifc-cuda date 2019.09.13  12:03:40
 running on    1 total cores
 distrk:  each k-point on    1 cores,    1 groups
 distr:  one band on NCORES_PER_BAND=   1 cores,    1 groups


--------------------------------------------------------------------------------------------------------


 INCAR:
 POTCAR:   PAW_PBE Si 05Jan2001                   
 POTCAR:   PAW_PBE O 08Apr2002                    
 POTCAR:   PAW_PBE Si 05Jan2001                   
   VRHFIN =Si: s2p2                                                             
   LEXCH  = PE                                                                  
   EATOM  =   103.0669 eV,    7.5752 Ry                                         
                                                                                
   TITEL  = PAW_PBE Si 05Jan2001                                                
   LULTRA =        F    use ultrasoft PP ?                                      
   IUNSCR =        1    unscreen: 0-lin 1-nonlin 2-no                           
   RPACOR =    1.500    partial core radius                                     
   POMASS =   28.085; ZVAL   =    4.000    mass and valenz                      
   RCORE  =    1.900    outmost cutoff radius                                   
   RWIGS  =    2.480; RWIGS  =    1.312    wigner-seitz radius (au A)           
   ENMAX  =  245.345; ENMIN  =  184.009 eV                                      
   ICORE  =        2    local potential                                         
   LCOR   =        T    correct aug charges                                     
   LPAW   =        T    paw PP                                                  
   EAUG   =  322.069                                                            
   DEXC   =    -.007                                                            
   RMAX   =    2.944    core radius for proj-oper                               
   RAUG   =    1.300    factor for augmentation sphere                          
   RDEP   =    1.993    radius for radial grids                                 
   QCUT   =   -4.246; QGAM   =    8.493    optimization parameters              
                                                                                
   Description                                                                  
     l     E      TYP  RCUT    TYP  RCUT                                        
     0   .000     23  1.900                                                     
     0   .000     23  1.900                                                     
     1   .000     23  1.900                                                     
     1   .000     23  1.900                                                     
     2   .000      7  1.900                                                     
  local pseudopotential read in
  partial core-charges read in
  atomic valenz-charges read in
  non local Contribution for L=           0  read in
    real space projection operators read in
  non local Contribution for L=           0  read in
    real space projection operators read in
  non local Contribution for L=           1  read in
    real space projection operators read in
  non local Contribution for L=           1  read in
    real space projection operators read in
    PAW grid and wavefunctions read in
 
   number of l-projection  operators is LMAX  =           4
   number of lm-projection operators is LMMAX =           8
 
 POTCAR:   PAW_PBE O 08Apr2002                    
   VRHFIN =O: s2p4                                                              
   LEXCH  = PE                                                                  
   EATOM  =   432.3788 eV,   31.7789 Ry                                         
                                                                                
   TITEL  = PAW_PBE O 08Apr2002                                                 
   LULTRA =        F    use ultrasoft PP ?                                      
   IUNSCR =        0    unscreen: 0-lin 1-nonlin 2-no                           
   RPACOR =     .000    partial core radius                                     
   POMASS =   16.000; ZVAL   =    6.000    mass and valenz                      
   RCORE  =    1.520    outmost cutoff radius                                   
   RWIGS  =    1.550; RWIGS  =     .820    wigner-seitz radius (au A)           
   ENMAX  =  400.000; ENMIN  =  300.000 eV                                      
   ICORE  =        2    local potential                                         
   LCOR   =        T    correct aug charges                                     
   LPAW   =        T    paw PP                                                  
   EAUG   =  605.392                                                            
   DEXC   =     .000                                                            
   RMAX   =    2.264    core radius for proj-oper                               
   RAUG   =    1.300    factor for augmentation sphere                          
   RDEP   =    1.550    radius for radial grids                                 
   QCUT   =   -5.520; QGAM   =   11.041    optimization parameters              
                                                                                
   Description                                                                  
     l     E      TYP  RCUT    TYP  RCUT                                        
     0   .000     23  1.200                                                     
     0  -.700     23  1.200                                                     
     1   .000     23  1.520                                                     
     1   .600     23  1.520                                                     
     2   .000      7  1.500                                                     
  local pseudopotential read in
  atomic valenz-charges read in
  non local Contribution for L=           0  read in
    real space projection operators read in
  non local Contribution for L=           0  read in
    real space projection operators read in
  non local Contribution for L=           1  read in
    real space projection operators read in
  non local Contribution for L=           1  read in
    real space projection operators read in
    PAW grid and wavefunctions read in
 
   number of l-projection  operators is LMAX  =           4
   number of lm-projection operators is LMMAX =           8
 
 Optimization of the real space projectors (new method)

 maximal supplied QI-value         = 19.84
 optimisation between [QCUT,QGAM] = [ 10.12, 20.44] = [ 28.68,116.96] Ry 
 Optimized for a Real-space Cutoff    1.23 Angstroem

   l    n(q)    QCUT    max X(q) W(low)/X(q) W(high)/X(q)  e(spline) 
   0      7    10.119     8.708    0.24E-04    0.14E-04    0.43E-08
   0      7    10.119   106.241    0.56E-04    0.21E-03    0.45E-07
   1      7    10.119     5.901    0.36E-04    0.73E-05    0.14E-07
   1      7    10.119    73.241    0.33E-03    0.48E-03    0.11E-06
 Optimization of the real space projectors (new method)

 maximal supplied QI-value         = 24.76
 optimisation between [QCUT,QGAM] = [ 10.15, 20.30] = [ 28.85,115.39] Ry 
 Optimized for a Real-space Cutoff    1.30 Angstroem

   l    n(q)    QCUT    max X(q) W(low)/X(q) W(high)/X(q)  e(spline) 
   0      8    10.150     4.192    0.55E-04    0.58E-04    0.78E-07
   0      8    10.150     8.473    0.46E-03    0.68E-03    0.23E-06
   1      7    10.150     2.474    0.11E-03    0.93E-04    0.33E-07
   1      7    10.150     3.912    0.46E-03    0.50E-03    0.15E-06
 PAW_PBE Si 05Jan2001                   :
 energy of atom  1       EATOM= -103.0669
 kinetic energy error for atom=    0.0012 (will be added to EATOM!!)
 PAW_PBE O 08Apr2002                    :
 energy of atom  2       EATOM= -432.3788
 kinetic energy error for atom=    0.1156 (will be added to EATOM!!)
 
 
 POSCAR: SiO2_P3221_icsd_34644                   
  positions in direct lattice
  No initial velocities read in
 exchange correlation table for  LEXCH =        8
   RHO(1)=    0.500       N(1)  =     2000
   RHO(2)=  100.500       N(2)  =     4000
 


--------------------------------------------------------------------------------------------------------


 ion  position               nearest neighbor table
   1  0.470  0.020  0.667-   4 1.51   5 1.61   7 1.63   9 1.68   3 2.98   2 3.03   2 3.11   3 3.14

   2  0.000  0.470  0.333-   8 1.60   5 1.60   6 1.62   7 1.62   1 3.03   3 3.06   3 3.06   1 3.11

   3  0.530  0.530  0.000-   6 1.60   9 1.60   8 1.62   4 1.62   1 2.98   2 3.06   2 3.06   1 3.14

   4  0.414  0.266  0.786-   1 1.51   3 1.62
   5  0.734  0.148  0.452-   2 1.60   1 1.61
   6  0.852  0.586  0.119-   3 1.60   2 1.62
   7  0.148  0.734  0.548-   2 1.62   1 1.63
   8  0.266  0.414  0.214-   2 1.60   3 1.62
   9  0.586  0.852  0.881-   3 1.60   1 1.68
 
  LATTYP: Found a hexagonal cell.
 ALAT       =     4.9137000030
 C/A-ratio  =     1.1000122101
  
  Lattice vectors:
  
 A1 = (   4.9137000000,   0.0000000000,   0.0000000000)
 A2 = (  -2.4568500000,   4.2553890300,   0.0000000000)
 A3 = (   0.0000000000,   0.0000000000,   5.4051300000)


Analysis of symmetry for initial positions (statically):
=====================================================================
 Subroutine PRICEL returns:
 Original cell was already a primitive cell.
 

 Routine SETGRP: Setting up the symmetry group for a 
 hexagonal supercell.


 Subroutine GETGRP returns: Found  1 space group operations
 (whereof  1 operations were pure point group operations)
 out of a pool of 24 trial point group operations.


The static configuration has the point symmetry C_1 .


Analysis of symmetry for dynamics (positions and initial velocities):
=====================================================================
 Subroutine PRICEL returns:
 Original cell was already a primitive cell.
 

 Routine SETGRP: Setting up the symmetry group for a 
 hexagonal supercell.


 Subroutine GETGRP returns: Found  1 space group operations
 (whereof  1 operations were pure point group operations)
 out of a pool of 24 trial point group operations.


The dynamic configuration has the point symmetry C_1 .


 Subroutine INISYM returns: Found  1 space group operations
 (whereof  1 operations are pure point group operations),
 and found     1 'primitive' translations

 
 
 KPOINTS: k-density: 4.0                          

Automatic generation of k-mesh.
Space group operators:
 irot       det(A)        alpha          n_x          n_y          n_z        tau_x        tau_y        tau_z
    1     1.000000     0.000001     1.000000     0.000000     0.000000     0.000000     0.000000     0.000000
 
 Subroutine IBZKPT returns following result:
 ===========================================
 
 Found     92 irreducible k-points:
 
 Following reciprocal coordinates:
            Coordinates               Weight
  0.000000  0.000000  0.000000      1.000000
  0.166667  0.000000  0.000000      2.000000
  0.333333  0.000000  0.000000      2.000000
  0.500000  0.000000  0.000000      1.000000
  0.000000  0.166667  0.000000      2.000000
  0.166667  0.166667  0.000000      2.000000
  0.333333  0.166667  0.000000      2.000000
  0.500000  0.166667  0.000000      2.000000
 -0.333333  0.166667  0.000000      2.000000
 -0.166667  0.166667  0.000000      2.000000
  0.000000  0.333333  0.000000      2.000000
  0.166667  0.333333  0.000000      2.000000
  0.333333  0.333333  0.000000      2.000000
  0.500000  0.333333  0.000000      2.000000
 -0.333333  0.333333  0.000000      2.000000
 -0.166667  0.333333  0.000000      2.000000
  0.000000  0.500000  0.000000      1.000000
  0.166667  0.500000  0.000000      2.000000
  0.333333  0.500000  0.000000      2.000000
  0.500000  0.500000  0.000000      1.000000
  0.000000  0.000000  0.200000      2.000000
  0.166667  0.000000  0.200000      2.000000
  0.333333  0.000000  0.200000      2.000000
  0.500000  0.000000  0.200000      2.000000
 -0.333333  0.000000  0.200000      2.000000
 -0.166667  0.000000  0.200000      2.000000
  0.000000  0.166667  0.200000      2.000000
  0.166667  0.166667  0.200000      2.000000
  0.333333  0.166667  0.200000      2.000000
  0.500000  0.166667  0.200000      2.000000
 -0.333333  0.166667  0.200000      2.000000
 -0.166667  0.166667  0.200000      2.000000
  0.000000  0.333333  0.200000      2.000000
  0.166667  0.333333  0.200000      2.000000
  0.333333  0.333333  0.200000      2.000000
  0.500000  0.333333  0.200000      2.000000
 -0.333333  0.333333  0.200000      2.000000
 -0.166667  0.333333  0.200000      2.000000
  0.000000  0.500000  0.200000      2.000000
  0.166667  0.500000  0.200000      2.000000
  0.333333  0.500000  0.200000      2.000000
  0.500000  0.500000  0.200000      2.000000
 -0.333333  0.500000  0.200000      2.000000
 -0.166667  0.500000  0.200000      2.000000
  0.000000 -0.333333  0.200000      2.000000
  0.166667 -0.333333  0.200000      2.000000
  0.333333 -0.333333  0.200000      2.000000
  0.500000 -0.333333  0.200000      2.000000
 -0.333333 -0.333333  0.200000      2.000000
 -0.166667 -0.333333  0.200000      2.000000
  0.000000 -0.166667  0.200000      2.000000
  0.166667 -0.166667  0.200000      2.000000
  0.333333 -0.166667  0.200000      2.000000
  0.500000 -0.166667  0.200000      2.000000
 -0.333333 -0.166667  0.200000      2.000000
 -0.166667 -0.166667  0.200000      2.000000
  0.000000  0.000000  0.400000      2.000000
  0.166667  0.000000  0.400000      2.000000
  0.333333  0.000000  0.400000      2.000000
  0.500000  0.000000  0.400000      2.000000
 -0.333333  0.000000  0.400000      2.000000
 -0.166667  0.000000  0.400000      2.000000
  0.000000  0.166667  0.400000      2.000000
  0.166667  0.166667  0.400000      2.000000
  0.333333  0.166667  0.400000      2.000000
  0.500000  0.166667  0.400000      2.000000
 -0.333333  0.166667  0.400000      2.000000
 -0.166667  0.166667  0.400000      2.000000
  0.000000  0.333333  0.400000      2.000000
  0.166667  0.333333  0.400000      2.000000
  0.333333  0.333333  0.400000      2.000000
  0.500000  0.333333  0.400000      2.000000
 -0.333333  0.333333  0.400000      2.000000
 -0.166667  0.333333  0.400000      2.000000
  0.000000  0.500000  0.400000      2.000000
  0.166667  0.500000  0.400000      2.000000
  0.333333  0.500000  0.400000      2.000000
  0.500000  0.500000  0.400000      2.000000
 -0.333333  0.500000  0.400000      2.000000
 -0.166667  0.500000  0.400000      2.000000
  0.000000 -0.333333  0.400000      2.000000
  0.166667 -0.333333  0.400000      2.000000
  0.333333 -0.333333  0.400000      2.000000
  0.500000 -0.333333  0.400000      2.000000
 -0.333333 -0.333333  0.400000      2.000000
 -0.166667 -0.333333  0.400000      2.000000
  0.000000 -0.166667  0.400000      2.000000
  0.166667 -0.166667  0.400000      2.000000
  0.333333 -0.166667  0.400000      2.000000
  0.500000 -0.166667  0.400000      2.000000
 -0.333333 -0.166667  0.400000      2.000000
 -0.166667 -0.166667  0.400000      2.000000
 
 Following cartesian coordinates:
            Coordinates               Weight
  0.000000  0.000000  0.000000      1.000000
  0.033919  0.019583  0.000000      2.000000
  0.067838  0.039166  0.000000      2.000000
  0.101756  0.058749  0.000000      1.000000
  0.000000  0.039166  0.000000      2.000000
  0.033919  0.058749  0.000000      2.000000
  0.067838  0.078332  0.000000      2.000000
  0.101756  0.097915  0.000000      2.000000
 -0.067838  0.000000  0.000000      2.000000
 -0.033919  0.019583  0.000000      2.000000
  0.000000  0.078332  0.000000      2.000000
  0.033919  0.097915  0.000000      2.000000
  0.067838  0.117498  0.000000      2.000000
  0.101756  0.137081  0.000000      2.000000
 -0.067838  0.039166  0.000000      2.000000
 -0.033919  0.058749  0.000000      2.000000
  0.000000  0.117498  0.000000      1.000000
  0.033919  0.137081  0.000000      2.000000
  0.067838  0.156664  0.000000      2.000000
  0.101756  0.176247  0.000000      1.000000
  0.000000  0.000000  0.037002      2.000000
  0.033919  0.019583  0.037002      2.000000
  0.067838  0.039166  0.037002      2.000000
  0.101756  0.058749  0.037002      2.000000
 -0.067838 -0.039166  0.037002      2.000000
 -0.033919 -0.019583  0.037002      2.000000
  0.000000  0.039166  0.037002      2.000000
  0.033919  0.058749  0.037002      2.000000
  0.067838  0.078332  0.037002      2.000000
  0.101756  0.097915  0.037002      2.000000
 -0.067838  0.000000  0.037002      2.000000
 -0.033919  0.019583  0.037002      2.000000
  0.000000  0.078332  0.037002      2.000000
  0.033919  0.097915  0.037002      2.000000
  0.067838  0.117498  0.037002      2.000000
  0.101756  0.137081  0.037002      2.000000
 -0.067838  0.039166  0.037002      2.000000
 -0.033919  0.058749  0.037002      2.000000
  0.000000  0.117498  0.037002      2.000000
  0.033919  0.137081  0.037002      2.000000
  0.067838  0.156664  0.037002      2.000000
  0.101756  0.176247  0.037002      2.000000
 -0.067838  0.078332  0.037002      2.000000
 -0.033919  0.097915  0.037002      2.000000
  0.000000 -0.078332  0.037002      2.000000
  0.033919 -0.058749  0.037002      2.000000
  0.067838 -0.039166  0.037002      2.000000
  0.101756 -0.019583  0.037002      2.000000
 -0.067838 -0.117498  0.037002      2.000000
 -0.033919 -0.097915  0.037002      2.000000
  0.000000 -0.039166  0.037002      2.000000
  0.033919 -0.019583  0.037002      2.000000
  0.067838 -0.000000  0.037002      2.000000
  0.101756  0.019583  0.037002      2.000000
 -0.067838 -0.078332  0.037002      2.000000
 -0.033919 -0.058749  0.037002      2.000000
  0.000000  0.000000  0.074004      2.000000
  0.033919  0.019583  0.074004      2.000000
  0.067838  0.039166  0.074004      2.000000
  0.101756  0.058749  0.074004      2.000000
 -0.067838 -0.039166  0.074004      2.000000
 -0.033919 -0.019583  0.074004      2.000000
  0.000000  0.039166  0.074004      2.000000
  0.033919  0.058749  0.074004      2.000000
  0.067838  0.078332  0.074004      2.000000
  0.101756  0.097915  0.074004      2.000000
 -0.067838  0.000000  0.074004      2.000000
 -0.033919  0.019583  0.074004      2.000000
  0.000000  0.078332  0.074004      2.000000
  0.033919  0.097915  0.074004      2.000000
  0.067838  0.117498  0.074004      2.000000
  0.101756  0.137081  0.074004      2.000000
 -0.067838  0.039166  0.074004      2.000000
 -0.033919  0.058749  0.074004      2.000000
  0.000000  0.117498  0.074004      2.000000
  0.033919  0.137081  0.074004      2.000000
  0.067838  0.156664  0.074004      2.000000
  0.101756  0.176247  0.074004      2.000000
 -0.067838  0.078332  0.074004      2.000000
 -0.033919  0.097915  0.074004      2.000000
  0.000000 -0.078332  0.074004      2.000000
  0.033919 -0.058749  0.074004      2.000000
  0.067838 -0.039166  0.074004      2.000000
  0.101756 -0.019583  0.074004      2.000000
 -0.067838 -0.117498  0.074004      2.000000
 -0.033919 -0.097915  0.074004      2.000000
  0.000000 -0.039166  0.074004      2.000000
  0.033919 -0.019583  0.074004      2.000000
  0.067838 -0.000000  0.074004      2.000000
  0.101756  0.019583  0.074004      2.000000
 -0.067838 -0.078332  0.074004      2.000000
 -0.033919 -0.058749  0.074004      2.000000
 
 TETIRR: Found    540 inequivalent tetrahedra from     1080


--------------------------------------------------------------------------------------------------------




 Dimension of arrays:
   k-points           NKPTS =     92   k-points in BZ     NKDIM =     92   number of bands    NBANDS=     29
   number of dos      NEDOS =    301   number of ions     NIONS =      9
   non local maximal  LDIM  =      4   non local SUM 2l+1 LMDIM =      8
   total plane-waves  NPLWV =  16128
   max r-space proj   IRMAX =   1367   max aug-charges    IRDMAX=   4970
   dimension x,y,z NGX =    24 NGY =   24 NGZ =   28
   dimension x,y,z NGXF=    48 NGYF=   48 NGZF=   56
   support grid    NGXF=    48 NGYF=   48 NGZF=   56
   ions per type =               3   6
 NGX,Y,Z   is equivalent  to a cutoff of   8.12,  8.12,  8.61 a.u.
 NGXF,Y,Z  is equivalent  to a cutoff of  16.24, 16.24, 17.22 a.u.


 I would recommend the setting:
   dimension x,y,z NGX =    24 NGY =   24 NGZ =   26
 SYSTEM =  unknown system                          
 POSCAR =  SiO2_P3221_icsd_34644                   

 Startparameter for this run:
   NWRITE =      2    write-flag & timer
   PREC   = normal    normal or accurate (medium, high low for compatibility)
   ISTART =      0    job   : 0-new  1-cont  2-samecut
   ICHARG =      2    charge: 1-file 2-atom 10-const
   ISPIN  =      1    spin polarized calculation?
   LNONCOLLINEAR =      F non collinear calculations
   LSORBIT =      F    spin-orbit coupling
   INIWAV =      1    electr: 0-lowe 1-rand  2-diag
   LASPH  =      F    aspherical Exc in radial PAW
   METAGGA=      F    non-selfconsistent MetaGGA calc.

 Electronic Relaxation 1
   ENCUT  =  400.0 eV  29.40 Ry    5.42 a.u.   8.01  8.01  8.81*2*pi/ulx,y,z
   ENINI  =  400.0     initial cutoff
   ENAUG  =  605.4 eV  augmentation charge cutoff
   NELM   =     60;   NELMIN=  4; NELMDL= -5     # of ELM steps 
   EDIFF  = 0.1E-04   stopping-criterion for ELM
   LREAL  =      T    real-space projection
   NLSPLINE    = F    spline interpolate recip. space projectors
   LCOMPAT=      F    compatible to vasp.4.4
   GGA_COMPAT  = T    GGA compatible to vasp.4.4-vasp.4.6
   LMAXPAW     = -100 max onsite density
   LMAXMIX     =    2 max onsite mixed and CHGCAR
   VOSKOWN=      0    Vosko Wilk Nusair interpolation
   ROPT   =   -0.00050  -0.00050
 Ionic relaxation
   EDIFFG = 0.1E-03   stopping-criterion for IOM
   NSW    =      0    number of steps for IOM
   NBLOCK =      1;   KBLOCK =      1    inner block; outer block 
   IBRION =     -1    ionic relax: 0-MD 1-quasi-New 2-CG
   NFREE  =      0    steps in history (QN), initial steepest desc. (CG)
   ISIF   =      2    stress and relaxation
   IWAVPR =     10    prediction:  0-non 1-charg 2-wave 3-comb
   ISYM   =      2    0-nonsym 1-usesym 2-fastsym
   LCORR  =      T    Harris-Foulkes like correction to forces

   POTIM  = 0.5000    time-step for ionic-motion
   TEIN   =    0.0    initial temperature
   TEBEG  =    0.0;   TEEND  =   0.0 temperature during run
   SMASS  =  -3.00    Nose mass-parameter (am)
   estimated Nose-frequenzy (Omega)   =  0.10E-29 period in steps =****** mass=  -0.552E-27a.u.
   SCALEE = 1.0000    scale energy and forces
   NPACO  =    256;   APACO  = 16.0  distance and # of slots for P.C.
   PSTRESS=    0.0 pullay stress

  Mass of Ions in am
   POMASS =  28.09 16.00
  Ionic Valenz
   ZVAL   =   4.00  6.00
  Atomic Wigner-Seitz radii
   RWIGS  =  -1.00 -1.00
  virtual crystal weights 
   VCA    =   1.00  1.00
   NELECT =      48.0000    total number of electrons
   NUPDOWN=      -1.0000    fix difference up-down

 DOS related values:
   EMIN   =  10.00;   EMAX   =-10.00  energy-range for DOS
   EFERMI =   0.00
   ISMEAR =    -5;   SIGMA  =   0.20  broadening in eV -4-tet -1-fermi 0-gaus

 Electronic relaxation 2 (details)
   IALGO  =     68    algorithm
   LDIAG  =      T    sub-space diagonalisation (order eigenvalues)
   LSUBROT=      F    optimize rotation matrix (better conditioning)
   TURBO    =      0    0=normal 1=particle mesh
   IRESTART =      0    0=no restart 2=restart with 2 vectors
   NREBOOT  =      0    no. of reboots
   NMIN     =      0    reboot dimension
   EREF     =   0.00    reference energy to select bands
   IMIX   =      4    mixing-type and parameters
     AMIX     =   0.40;   BMIX     =  1.00
     AMIX_MAG =   1.60;   BMIX_MAG =  1.00
     AMIN     =   0.10
     WC   =   100.;   INIMIX=   1;  MIXPRE=   1;  MAXMIX= -45

 Intra band minimization:
   WEIMIN = 0.0000     energy-eigenvalue tresh-hold
   EBREAK =  0.86E-07  absolut break condition
   DEPER  =   0.30     relativ break condition  

   TIME   =   0.40     timestep for ELM

  volume/ion in A,a.u.               =      12.56        84.74
  Fermi-wavevector in a.u.,A,eV,Ry     =   1.230563  2.325427 20.603106  1.514286
  Thomas-Fermi vector in A             =   2.365407
 
 Write flags
   LWAVE  =      F    write WAVECAR
   LCHARG =      T    write CHGCAR
   LVTOT  =      F    write LOCPOT, total local potential
   LVHAR  =      F    write LOCPOT, Hartree potential only
   LELF   =      F    write electronic localiz. function (ELF)
   LORBIT =      0    0 simple, 1 ext, 2 COOP (PROOUT)


 Dipole corrections
   LMONO  =      F    monopole corrections only (constant potential shift)
   LDIPOL =      F    correct potential (dipole corrections)
   IDIPOL =      0    1-x, 2-y, 3-z, 4-all directions 
   EPSILON=  1.0000000 bulk dielectric constant

 Exchange correlation treatment:
   GGA     =    --    GGA type
   LEXCH   =     8    internal setting for exchange type
   VOSKOWN=      0    Vosko Wilk Nusair interpolation
   LHFCALC =     F    Hartree Fock is set to
   LHFONE  =     F    Hartree Fock one center treatment
   AEXX    =    0.0000 exact exchange contribution

 Linear response parameters
   LEPSILON=     F    determine dielectric tensor
   LRPA    =     F    only Hartree local field effects (RPA)
   LNABLA  =     F    use nabla operator in PAW spheres
   LVEL    =     F    velocity operator in full k-point grid
   LINTERFAST=   F  fast interpolation
   KINTER  =     0    interpolate to denser k-point grid
   CSHIFT  =0.1000    complex shift for real part using Kramers Kronig
   OMEGAMAX=  -1.0    maximum frequency
   DEG_THRESHOLD= 0.2000000E-02 threshold for treating states as degnerate
   RTIME   =    0.100 relaxation time in fs

 Orbital magnetization related:
   ORBITALMAG=     F  switch on orbital magnetization
   LCHIMAG   =     F  perturbation theory with respect to B field
   DQ        =  0.001000  dq finite difference perturbation B field



--------------------------------------------------------------------------------------------------------


 Static calculation
 charge density and potential will be updated during run
 non-spin polarized calculation
 RMM-DIIS sequential band-by-band and
  variant of blocked Davidson during initial phase
 perform sub-space diagonalisation
    before iterative eigenvector-optimisation
 modified Broyden-mixing scheme, WC =      100.0
 initial mixing is a Kerker type mixing with AMIX =  0.4000 and BMIX =      1.0000
 Hartree-type preconditioning will be used
 using additional bands            5
 real space projection scheme for non local part
 use partial core corrections
 calculate Harris-corrections to forces 
   (improved forces if not selfconsistent)
 use gradient corrections 
 use of overlap-Matrix (Vanderbilt PP)
 Fermi weights with tetrahedron method with Bloechl corrections


--------------------------------------------------------------------------------------------------------


  energy-cutoff  :      400.00
  volume of cell :      113.02
      direct lattice vectors                 reciprocal lattice vectors
     4.913700000  0.000000000  0.000000000     0.203512628  0.117498070  0.000000000
    -2.456850000  4.255389030  0.000000000     0.000000000  0.234996141  0.000000000
     0.000000000  0.000000000  5.405130000     0.000000000  0.000000000  0.185009426

  length of vectors
     4.913700000  4.913700003  5.405130000     0.234996141  0.234996141  0.185009426


 
 k-points in units of 2pi/SCALE and weight: k-density: 4.0                          
   0.00000000  0.00000000  0.00000000       0.006
   0.03391877  0.01958301  0.00000000       0.011
   0.06783754  0.03916602  0.00000000       0.011
   0.10175631  0.05874904  0.00000000       0.006
   0.00000000  0.03916602  0.00000000       0.011
   0.03391877  0.05874904  0.00000000       0.011
   0.06783754  0.07833205  0.00000000       0.011
   0.10175631  0.09791506  0.00000000       0.011
  -0.06783754  0.00000000  0.00000000       0.011
  -0.03391877  0.01958301  0.00000000       0.011
   0.00000000  0.07833205  0.00000000       0.011
   0.03391877  0.09791506  0.00000000       0.011
   0.06783754  0.11749807  0.00000000       0.011
   0.10175631  0.13708108  0.00000000       0.011
  -0.06783754  0.03916602  0.00000000       0.011
  -0.03391877  0.05874904  0.00000000       0.011
   0.00000000  0.11749807  0.00000000       0.006
   0.03391877  0.13708108  0.00000000       0.011
   0.06783754  0.15666409  0.00000000       0.011
   0.10175631  0.17624711  0.00000000       0.006
   0.00000000  0.00000000  0.03700189       0.011
   0.03391877  0.01958301  0.03700189       0.011
   0.06783754  0.03916602  0.03700189       0.011
   0.10175631  0.05874904  0.03700189       0.011
  -0.06783754 -0.03916602  0.03700189       0.011
  -0.03391877 -0.01958301  0.03700189       0.011
   0.00000000  0.03916602  0.03700189       0.011
   0.03391877  0.05874904  0.03700189       0.011
   0.06783754  0.07833205  0.03700189       0.011
   0.10175631  0.09791506  0.03700189       0.011
  -0.06783754  0.00000000  0.03700189       0.011
  -0.03391877  0.01958301  0.03700189       0.011
   0.00000000  0.07833205  0.03700189       0.011
   0.03391877  0.09791506  0.03700189       0.011
   0.06783754  0.11749807  0.03700189       0.011
   0.10175631  0.13708108  0.03700189       0.011
  -0.06783754  0.03916602  0.03700189       0.011
  -0.03391877  0.05874904  0.03700189       0.011
   0.00000000  0.11749807  0.03700189       0.011
   0.03391877  0.13708108  0.03700189       0.011
   0.06783754  0.15666409  0.03700189       0.011
   0.10175631  0.17624711  0.03700189       0.011
  -0.06783754  0.07833205  0.03700189       0.011
  -0.03391877  0.09791506  0.03700189       0.011
   0.00000000 -0.07833205  0.03700189       0.011
   0.03391877 -0.05874904  0.03700189       0.011
   0.06783754 -0.03916602  0.03700189       0.011
   0.10175631 -0.01958301  0.03700189       0.011
  -0.06783754 -0.11749807  0.03700189       0.011
  -0.03391877 -0.09791506  0.03700189       0.011
   0.00000000 -0.03916602  0.03700189       0.011
   0.03391877 -0.01958301  0.03700189       0.011
   0.06783754 -0.00000000  0.03700189       0.011
   0.10175631  0.01958301  0.03700189       0.011
  -0.06783754 -0.07833205  0.03700189       0.011
  -0.03391877 -0.05874904  0.03700189       0.011
   0.00000000  0.00000000  0.07400377       0.011
   0.03391877  0.01958301  0.07400377       0.011
   0.06783754  0.03916602  0.07400377       0.011
   0.10175631  0.05874904  0.07400377       0.011
  -0.06783754 -0.03916602  0.07400377       0.011
  -0.03391877 -0.01958301  0.07400377       0.011
   0.00000000  0.03916602  0.07400377       0.011
   0.03391877  0.05874904  0.07400377       0.011
   0.06783754  0.07833205  0.07400377       0.011
   0.10175631  0.09791506  0.07400377       0.011
  -0.06783754  0.00000000  0.07400377       0.011
  -0.03391877  0.01958301  0.07400377       0.011
   0.00000000  0.07833205  0.07400377       0.011
   0.03391877  0.09791506  0.07400377       0.011
   0.06783754  0.11749807  0.07400377       0.011
   0.10175631  0.13708108  0.07400377       0.011
  -0.06783754  0.03916602  0.07400377       0.011
  -0.03391877  0.05874904  0.07400377       0.011
   0.00000000  0.11749807  0.07400377       0.011
   0.03391877  0.13708108  0.07400377       0.011
   0.06783754  0.15666409  0.07400377       0.011
   0.10175631  0.17624711  0.07400377       0.011
  -0.06783754  0.07833205  0.07400377       0.011
  -0.03391877  0.09791506  0.07400377       0.011
   0.00000000 -0.07833205  0.07400377       0.011
   0.03391877 -0.05874904  0.07400377       0.011
   0.06783754 -0.03916602  0.07400377       0.011
   0.10175631 -0.01958301  0.07400377       0.011
  -0.06783754 -0.11749807  0.07400377       0.011
  -0.03391877 -0.09791506  0.07400377       0.011
   0.00000000 -0.03916602  0.07400377       0.011
   0.03391877 -0.01958301  0.07400377       0.011
   0.06783754 -0.00000000  0.07400377       0.011
   0.10175631  0.01958301  0.07400377       0.011
  -0.06783754 -0.07833205  0.07400377       0.011
  -0.03391877 -0.05874904  0.07400377       0.011
 
 k-points in reciprocal lattice and weights: k-density: 4.0                          
   0.00000000  0.00000000  0.00000000       0.006
   0.16666667  0.00000000  0.00000000       0.011
   0.33333333  0.00000000  0.00000000       0.011
   0.50000000  0.00000000  0.00000000       0.006
   0.00000000  0.16666667  0.00000000       0.011
   0.16666667  0.16666667  0.00000000       0.011
   0.33333333  0.16666667  0.00000000       0.011
   0.50000000  0.16666667  0.00000000       0.011
  -0.33333333  0.16666667  0.00000000       0.011
  -0.16666667  0.16666667  0.00000000       0.011
   0.00000000  0.33333333  0.00000000       0.011
   0.16666667  0.33333333  0.00000000       0.011
   0.33333333  0.33333333  0.00000000       0.011
   0.50000000  0.33333333  0.00000000       0.011
  -0.33333333  0.33333333  0.00000000       0.011
  -0.16666667  0.33333333  0.00000000       0.011
   0.00000000  0.50000000  0.00000000       0.006
   0.16666667  0.50000000  0.00000000       0.011
   0.33333333  0.50000000  0.00000000       0.011
   0.50000000  0.50000000  0.00000000       0.006
   0.00000000  0.00000000  0.20000000       0.011
   0.16666667  0.00000000  0.20000000       0.011
   0.33333333  0.00000000  0.20000000       0.011
   0.50000000  0.00000000  0.20000000       0.011
  -0.33333333  0.00000000  0.20000000       0.011
  -0.16666667  0.00000000  0.20000000       0.011
   0.00000000  0.16666667  0.20000000       0.011
   0.16666667  0.16666667  0.20000000       0.011
   0.33333333  0.16666667  0.20000000       0.011
   0.50000000  0.16666667  0.20000000       0.011
  -0.33333333  0.16666667  0.20000000       0.011
  -0.16666667  0.16666667  0.20000000       0.011
   0.00000000  0.33333333  0.20000000       0.011
   0.16666667  0.33333333  0.20000000       0.011
   0.33333333  0.33333333  0.20000000       0.011
   0.50000000  0.33333333  0.20000000       0.011
  -0.33333333  0.33333333  0.20000000       0.011
  -0.16666667  0.33333333  0.20000000       0.011
   0.00000000  0.50000000  0.20000000       0.011
   0.16666667  0.50000000  0.20000000       0.011
   0.33333333  0.50000000  0.20000000       0.011
   0.50000000  0.50000000  0.20000000       0.011
  -0.33333333  0.50000000  0.20000000       0.011
  -0.16666667  0.50000000  0.20000000       0.011
   0.00000000 -0.33333333  0.20000000       0.011
   0.16666667 -0.33333333  0.20000000       0.011
   0.33333333 -0.33333333  0.20000000       0.011
   0.50000000 -0.33333333  0.20000000       0.011
  -0.33333333 -0.33333333  0.20000000       0.011
  -0.16666667 -0.33333333  0.20000000       0.011
   0.00000000 -0.16666667  0.20000000       0.011
   0.16666667 -0.16666667  0.20000000       0.011
   0.33333333 -0.16666667  0.20000000       0.011
   0.50000000 -0.16666667  0.20000000       0.011
  -0.33333333 -0.16666667  0.20000000       0.011
  -0.16666667 -0.16666667  0.20000000       0.011
   0.00000000  0.00000000  0.40000000       0.011
   0.16666667  0.00000000  0.40000000       0.011
   0.33333333  0.00000000  0.40000000       0.011
   0.50000000  0.00000000  0.40000000       0.011
  -0.33333333  0.00000000  0.40000000       0.011
  -0.16666667  0.00000000  0.40000000       0.011
   0.00000000  0.16666667  0.40000000       0.011
   0.16666667  0.16666667  0.40000000       0.011
   0.33333333  0.16666667  0.40000000       0.011
   0.50000000  0.16666667  0.40000000       0.011
  -0.33333333  0.16666667  0.40000000       0.011
  -0.16666667  0.16666667  0.40000000       0.011
   0.00000000  0.33333333  0.40000000       0.011
   0.16666667  0.33333333  0.40000000       0.011
   0.33333333  0.33333333  0.40000000       0.011
   0.50000000  0.33333333  0.40000000       0.011
  -0.33333333  0.33333333  0.40000000       0.011
  -0.16666667  0.33333333  0.40000000       0.011
   0.00000000  0.50000000  0.40000000       0.011
   0.16666667  0.50000000  0.40000000       0.011
   0.33333333  0.50000000  0.40000000       0.011
   0.50000000  0.50000000  0.40000000       0.011
  -0.33333333  0.50000000  0.40000000       0.011
  -0.16666667  0.50000000  0.40000000       0.011
   0.00000000 -0.33333333  0.40000000       0.011
   0.16666667 -0.33333333  0.40000000       0.011
   0.33333333 -0.33333333  0.40000000       0.011
   0.50000000 -0.33333333  0.40000000       0.011
  -0.33333333 -0.33333333  0.40000000       0.011
  -0.16666667 -0.33333333  0.40000000       0.011
   0.00000000 -0.16666667  0.40000000       0.011
   0.16666667 -0.16666667  0.40000000       0.011
   0.33333333 -0.16666667  0.40000000       0.011
   0.50000000 -0.16666667  0.40000000       0.011
  -0.33333333 -0.16666667  0.40000000       0.011
  -0.16666667 -0.16666667  0.40000000       0.011
 
 position of ions in fractional coordinates (direct lattice) 
   0.46980000  0.02000000  0.66667000
   0.00000000  0.46980000  0.33333000
   0.53020000  0.53020000  0.00000000
   0.41450000  0.26620000  0.78560000
   0.73380000  0.14830000  0.45227000
   0.85170000  0.58550000  0.11893000
   0.14830000  0.73380000  0.54773000
   0.26620000  0.41450000  0.21440000
   0.58550000  0.85170000  0.88107000
 
 position of ions in cartesian coordinates  (Angst):
   2.25931926  0.08510778  3.60343802
  -1.15422813  1.99918177  1.80169198
   1.30262187  2.25620726  0.00000000
   1.38271518  1.13278456  4.24627013
   3.24132221  0.63107419  2.44457815
   2.74651261  2.49153028  0.64283211
  -1.07413482  3.12260447  2.96055185
   0.28966261  1.76385875  1.15885987
   0.78447221  3.62431484  4.76229789
 


--------------------------------------------------------------------------------------------------------


 k-point  1 :   0.0000 0.0000 0.0000  plane waves:    2009
 k-point  2 :   0.1667 0.0000 0.0000  plane waves:    2040
 k-point  3 :   0.3333 0.0000 0.0000  plane waves:    2062
 k-point  4 :   0.5000 0.0000 0.0000  plane waves:    2058
 k-point  5 :   0.0000 0.1667 0.0000  plane waves:    2040
 k-point  6 :   0.1667 0.1667 0.0000  plane waves:    2038
 k-point  7 :   0.3333 0.1667 0.0000  plane waves:    2058
 k-point  8 :   0.5000 0.1667 0.0000  plane waves:    2058
 k-point  9 :  -0.3333 0.1667 0.0000  plane waves:    2038
 k-point 10 :  -0.1667 0.1667 0.0000  plane waves:    2040
 k-point 11 :   0.0000 0.3333 0.0000  plane waves:    2062
 k-point 12 :   0.1667 0.3333 0.0000  plane waves:    2058
 k-point 13 :   0.3333 0.3333 0.0000  plane waves:    2082
 k-point 14 :   0.5000 0.3333 0.0000  plane waves:    2058
 k-point 15 :  -0.3333 0.3333 0.0000  plane waves:    2062
 k-point 16 :  -0.1667 0.3333 0.0000  plane waves:    2038
 k-point 17 :   0.0000 0.5000 0.0000  plane waves:    2058
 k-point 18 :   0.1667 0.5000 0.0000  plane waves:    2058
 k-point 19 :   0.3333 0.5000 0.0000  plane waves:    2058
 k-point 20 :   0.5000 0.5000 0.0000  plane waves:    2058
 k-point 21 :   0.0000 0.0000 0.2000  plane waves:    2040
 k-point 22 :   0.1667 0.0000 0.2000  plane waves:    2044
 k-point 23 :   0.3333 0.0000 0.2000  plane waves:    2056
 k-point 24 :   0.5000 0.0000 0.2000  plane waves:    2056
 k-point 25 :  -0.3333 0.0000 0.2000  plane waves:    2056
 k-point 26 :  -0.1667 0.0000 0.2000  plane waves:    2044
 k-point 27 :   0.0000 0.1667 0.2000  plane waves:    2044
 k-point 28 :   0.1667 0.1667 0.2000  plane waves:    2052
 k-point 29 :   0.3333 0.1667 0.2000  plane waves:    2054
 k-point 30 :   0.5000 0.1667 0.2000  plane waves:    2054
 k-point 31 :  -0.3333 0.1667 0.2000  plane waves:    2052
 k-point 32 :  -0.1667 0.1667 0.2000  plane waves:    2044
 k-point 33 :   0.0000 0.3333 0.2000  plane waves:    2056
 k-point 34 :   0.1667 0.3333 0.2000  plane waves:    2054
 k-point 35 :   0.3333 0.3333 0.2000  plane waves:    2055
 k-point 36 :   0.5000 0.3333 0.2000  plane waves:    2054
 k-point 37 :  -0.3333 0.3333 0.2000  plane waves:    2056
 k-point 38 :  -0.1667 0.3333 0.2000  plane waves:    2052
 k-point 39 :   0.0000 0.5000 0.2000  plane waves:    2056
 k-point 40 :   0.1667 0.5000 0.2000  plane waves:    2054
 k-point 41 :   0.3333 0.5000 0.2000  plane waves:    2054
 k-point 42 :   0.5000 0.5000 0.2000  plane waves:    2056
 k-point 43 :  -0.3333 0.5000 0.2000  plane waves:    2054
 k-point 44 :  -0.1667 0.5000 0.2000  plane waves:    2054
 k-point 45 :   0.0000-0.3333 0.2000  plane waves:    2056
 k-point 46 :   0.1667-0.3333 0.2000  plane waves:    2052
 k-point 47 :   0.3333-0.3333 0.2000  plane waves:    2056
 k-point 48 :   0.5000-0.3333 0.2000  plane waves:    2054
 k-point 49 :  -0.3333-0.3333 0.2000  plane waves:    2055
 k-point 50 :  -0.1667-0.3333 0.2000  plane waves:    2054
 k-point 51 :   0.0000-0.1667 0.2000  plane waves:    2044
 k-point 52 :   0.1667-0.1667 0.2000  plane waves:    2044
 k-point 53 :   0.3333-0.1667 0.2000  plane waves:    2052
 k-point 54 :   0.5000-0.1667 0.2000  plane waves:    2054
 k-point 55 :  -0.3333-0.1667 0.2000  plane waves:    2054
 k-point 56 :  -0.1667-0.1667 0.2000  plane waves:    2052
 k-point 57 :   0.0000 0.0000 0.4000  plane waves:    2046
 k-point 58 :   0.1667 0.0000 0.4000  plane waves:    2056
 k-point 59 :   0.3333 0.0000 0.4000  plane waves:    2050
 k-point 60 :   0.5000 0.0000 0.4000  plane waves:    2056
 k-point 61 :  -0.3333 0.0000 0.4000  plane waves:    2050
 k-point 62 :  -0.1667 0.0000 0.4000  plane waves:    2056
 k-point 63 :   0.0000 0.1667 0.4000  plane waves:    2056
 k-point 64 :   0.1667 0.1667 0.4000  plane waves:    2061
 k-point 65 :   0.3333 0.1667 0.4000  plane waves:    2055
 k-point 66 :   0.5000 0.1667 0.4000  plane waves:    2055
 k-point 67 :  -0.3333 0.1667 0.4000  plane waves:    2061
 k-point 68 :  -0.1667 0.1667 0.4000  plane waves:    2056
 k-point 69 :   0.0000 0.3333 0.4000  plane waves:    2050
 k-point 70 :   0.1667 0.3333 0.4000  plane waves:    2055
 k-point 71 :   0.3333 0.3333 0.4000  plane waves:    2046
 k-point 72 :   0.5000 0.3333 0.4000  plane waves:    2055
 k-point 73 :  -0.3333 0.3333 0.4000  plane waves:    2050
 k-point 74 :  -0.1667 0.3333 0.4000  plane waves:    2061
 k-point 75 :   0.0000 0.5000 0.4000  plane waves:    2056
 k-point 76 :   0.1667 0.5000 0.4000  plane waves:    2055
 k-point 77 :   0.3333 0.5000 0.4000  plane waves:    2055
 k-point 78 :   0.5000 0.5000 0.4000  plane waves:    2056
 k-point 79 :  -0.3333 0.5000 0.4000  plane waves:    2055
 k-point 80 :  -0.1667 0.5000 0.4000  plane waves:    2055
 k-point 81 :   0.0000-0.3333 0.4000  plane waves:    2050
 k-point 82 :   0.1667-0.3333 0.4000  plane waves:    2061
 k-point 83 :   0.3333-0.3333 0.4000  plane waves:    2050
 k-point 84 :   0.5000-0.3333 0.4000  plane waves:    2055
 k-point 85 :  -0.3333-0.3333 0.4000  plane waves:    2046
 k-point 86 :  -0.1667-0.3333 0.4000  plane waves:    2055
 k-point 87 :   0.0000-0.1667 0.4000  plane waves:    2056
 k-point 88 :   0.1667-0.1667 0.4000  plane waves:    2056
 k-point 89 :   0.3333-0.1667 0.4000  plane waves:    2061
 k-point 90 :   0.5000-0.1667 0.4000  plane waves:    2055
 k-point 91 :  -0.3333-0.1667 0.4000  plane waves:    2055
 k-point 92 :  -0.1667-0.1667 0.4000  plane waves:    2061

 maximum and minimum number of plane-waves per node :      2082     2009

 maximum number of plane-waves:      2082
 maximum index in each direction: 
   IXMAX=    8   IYMAX=    8   IZMAX=    8
   IXMIN=   -8   IYMIN=   -8   IZMIN=   -9

 WARNING: aliasing errors must be expected set NGX to  34 to avoid them
 WARNING: aliasing errors must be expected set NGY to  34 to avoid them
 WARNING: aliasing errors must be expected set NGZ to  36 to avoid them
 aliasing errors are usually negligible using standard VASP settings
 and one can safely disregard these warnings

 serial   3D FFT for wavefunctions
 parallel 3D FFT for charge:
    minimum data exchange during FFTs selected (reduces bandwidth)


 total amount of memory used by VASP on root node   135556. kBytes
========================================================================

   base      :      30000. kBytes
   nonlr-proj:        968. kBytes
   fftplans  :       4548. kBytes
   grid      :       8064. kBytes
   one-center:         27. kBytes
   wavefun   :      91949. kBytes
 
     INWAV:  cpu time    0.0010: real time    0.0002
 Broyden mixing: mesh for mixing (old mesh)
   NGX = 17   NGY = 17   NGZ = 17
  (NGX  = 48   NGY  = 48   NGZ  = 56)
  gives a total of   4913 points

 initial charge density was supplied:
 charge density of overlapping atoms calculated
 number of electron      48.0000000 magnetization 
 keeping initial charge density in first step


--------------------------------------------------------------------------------------------------------


 Maximum index for non-local projection operator         1282
 Maximum index for augmentation-charges         4640 (set IRDMAX)


--------------------------------------------------------------------------------------------------------


 First call to EWALD:  gamma=   0.367
 Maximum number of real-space cells 3x 3x 3
 Maximum number of reciprocal cells 3x 3x 3

 FEWALD executed in parallel
    FEWALD:  cpu time    0.0020: real time    0.0018


----------------------------------------- Iteration    1(   1)  ---------------------------------------


    POTLOK:  cpu time    0.0660: real time    0.0672
    SETDIJ:  cpu time    0.0130: real time    0.0128
     EDDAV:  cpu time    6.8590: real time    6.8593
 BZINTS: Fermi energy: 16.079925; 48.000000 electrons
         Band energy: -61.515291;  BLOECHL correction: -0.131531
       DOS:  cpu time    0.0280: real time    0.0279
    --------------------------------------------
      LOOP:  cpu time    6.9689: real time    7.1163

 eigenvalue-minimisations  :  5408
 total energy-change (2. order) : 0.2710125E+03  (-0.2253913E+04)
 number of electron      48.0000000 magnetization 
 augmentation part       48.0000000 magnetization 

 Free energy of the ion-electron system (eV)
  ---------------------------------------------------
  alpha Z        PSCENC =        69.72802778
  Ewald energy   TEWEN  =     -1886.62880430
  -Hartree energ DENC   =      -937.03789541
  -exchange      EXHF   =         0.00000000
  -V(xc)+E(xc)   XCENC  =       142.00811384
  PAW double counting   =      1574.92322788    -1533.24131965
  entropy T*S    EENTRO =         0.00000000
  eigenvalues    EBANDS =       -61.51529074
  atomic energy  EATOM  =      2902.77641490
  Solvation  Ediel_sol  =         0.00000000
  ---------------------------------------------------
  free energy    TOTEN  =       271.01247430 eV

  energy without entropy =      271.01247430  energy(sigma->0) =      271.01247430


--------------------------------------------------------------------------------------------------------




----------------------------------------- Iteration    1(   2)  ---------------------------------------


     EDDAV:  cpu time    8.4157: real time    8.4150
 BZINTS: Fermi energy:  0.116344; 48.000000 electrons
         Band energy:-395.500890;  BLOECHL correction: -0.000000
       DOS:  cpu time    0.0100: real time    0.0098
    --------------------------------------------
      LOOP:  cpu time    8.4267: real time    8.4295

 eigenvalue-minimisations  :  7003
 total energy-change (2. order) :-0.3339856E+03  (-0.3266849E+03)
 number of electron      48.0000000 magnetization 
 augmentation part       48.0000000 magnetization 

 Free energy of the ion-electron system (eV)
  ---------------------------------------------------
  alpha Z        PSCENC =        69.72802778
  Ewald energy   TEWEN  =     -1886.62880430
  -Hartree energ DENC   =      -937.03789541
  -exchange      EXHF   =         0.00000000
  -V(xc)+E(xc)   XCENC  =       142.00811384
  PAW double counting   =      1574.92322788    -1533.24131965
  entropy T*S    EENTRO =         0.00000000
  eigenvalues    EBANDS =      -395.50088952
  atomic energy  EATOM  =      2902.77641490
  Solvation  Ediel_sol  =         0.00000000
  ---------------------------------------------------
  free energy    TOTEN  =       -62.97312449 eV

  energy without entropy =      -62.97312449  energy(sigma->0) =      -62.97312449


--------------------------------------------------------------------------------------------------------




----------------------------------------- Iteration    1(   3)  ---------------------------------------


     EDDAV:  cpu time    7.6808: real time    7.6789
 BZINTS: Fermi energy: -2.000489; 48.000000 electrons
         Band energy:-412.671756;  BLOECHL correction:  0.000000
       DOS:  cpu time    0.0050: real time    0.0055
    --------------------------------------------
      LOOP:  cpu time    7.6878: real time    7.6892

 eigenvalue-minimisations  :  6256
 total energy-change (2. order) :-0.1717087E+02  (-0.1712617E+02)
 number of electron      48.0000000 magnetization 
 augmentation part       48.0000000 magnetization 

 Free energy of the ion-electron system (eV)
  ---------------------------------------------------
  alpha Z        PSCENC =        69.72802778
  Ewald energy   TEWEN  =     -1886.62880430
  -Hartree energ DENC   =      -937.03789541
  -exchange      EXHF   =         0.00000000
  -V(xc)+E(xc)   XCENC  =       142.00811384
  PAW double counting   =      1574.92322788    -1533.24131965
  entropy T*S    EENTRO =         0.00000000
  eigenvalues    EBANDS =      -412.67175650
  atomic energy  EATOM  =      2902.77641490
  Solvation  Ediel_sol  =         0.00000000
  ---------------------------------------------------
  free energy    TOTEN  =       -80.14399146 eV

  energy without entropy =      -80.14399146  energy(sigma->0) =      -80.14399146


--------------------------------------------------------------------------------------------------------




----------------------------------------- Iteration    1(   4)  ---------------------------------------


     EDDAV:  cpu time    7.7618: real time    7.7618
 BZINTS: Fermi energy: -2.040768; 48.000000 electrons
         Band energy:-412.883745;  BLOECHL correction:  0.000000
       DOS:  cpu time    0.0050: real time    0.0056
    --------------------------------------------
      LOOP:  cpu time    7.7678: real time    7.7906

 eigenvalue-minimisations  :  6291
 total energy-change (2. order) :-0.2119887E+00  (-0.2116476E+00)
 number of electron      48.0000000 magnetization 
 augmentation part       48.0000000 magnetization 

 Free energy of the ion-electron system (eV)
  ---------------------------------------------------
  alpha Z        PSCENC =        69.72802778
  Ewald energy   TEWEN  =     -1886.62880430
  -Hartree energ DENC   =      -937.03789541
  -exchange      EXHF   =         0.00000000
  -V(xc)+E(xc)   XCENC  =       142.00811384
  PAW double counting   =      1574.92322788    -1533.24131965
  entropy T*S    EENTRO =         0.00000000
  eigenvalues    EBANDS =      -412.88374516
  atomic energy  EATOM  =      2902.77641490
  Solvation  Ediel_sol  =         0.00000000
  ---------------------------------------------------
  free energy    TOTEN  =       -80.35598013 eV

  energy without entropy =      -80.35598013  energy(sigma->0) =      -80.35598013


--------------------------------------------------------------------------------------------------------




----------------------------------------- Iteration    1(   5)  ---------------------------------------


     EDDAV:  cpu time    7.7648: real time    7.7627
 BZINTS: Fermi energy: -2.015628; 48.000000 electrons
         Band energy:-412.887982;  BLOECHL correction:  0.000000
       DOS:  cpu time    0.0060: real time    0.0056
    CHARGE:  cpu time    0.4809: real time    0.4813
    MIXING:  cpu time    0.0020: real time    0.0021
    --------------------------------------------
      LOOP:  cpu time    8.2547: real time    8.2576

 eigenvalue-minimisations  :  6171
 total energy-change (2. order) :-0.4236420E-02  (-0.4234821E-02)
 number of electron      48.0000146 magnetization 
 augmentation part        4.4359663 magnetization 

 Broyden mixing:
  rms(total) = 0.18499E+01    rms(broyden)= 0.18488E+01
  rms(prec ) = 0.34606E+01
  weight for this iteration     100.00

 Free energy of the ion-electron system (eV)
  ---------------------------------------------------
  alpha Z        PSCENC =        69.72802778
  Ewald energy   TEWEN  =     -1886.62880430
  -Hartree energ DENC   =      -937.03789541
  -exchange      EXHF   =         0.00000000
  -V(xc)+E(xc)   XCENC  =       142.00811384
  PAW double counting   =      1574.92322788    -1533.24131965
  entropy T*S    EENTRO =         0.00000000
  eigenvalues    EBANDS =      -412.88798158
  atomic energy  EATOM  =      2902.77641490
  Solvation  Ediel_sol  =         0.00000000
  ---------------------------------------------------
  free energy    TOTEN  =       -80.36021655 eV

  energy without entropy =      -80.36021655  energy(sigma->0) =      -80.36021655


--------------------------------------------------------------------------------------------------------




----------------------------------------- Iteration    1(   6)  ---------------------------------------


    POTLOK:  cpu time    0.0650: real time    0.0657
    SETDIJ:  cpu time    0.0120: real time    0.0124
    EDDIAG:  cpu time    1.2748: real time    1.2750
  RMM-DIIS:  cpu time    4.8263: real time    4.8248
    ORTHCH:  cpu time    0.1410: real time    0.1411
 BZINTS: Fermi energy:  0.774834; 48.000000 electrons
         Band energy:-300.935040;  BLOECHL correction:  0.000000
       DOS:  cpu time    0.0070: real time    0.0056
    CHARGE:  cpu time    0.4829: real time    0.4834
    MIXING:  cpu time    0.0030: real time    0.0024
    --------------------------------------------
      LOOP:  cpu time    6.8130: real time    6.8164

 eigenvalue-minimisations  :  5708
 total energy-change (2. order) : 0.9467311E+01  (-0.4022911E+01)
 number of electron      48.0000126 magnetization 
 augmentation part        3.6527997 magnetization 

 Broyden mixing:
  rms(total) = 0.51800E+00    rms(broyden)= 0.51715E+00
  rms(prec ) = 0.83456E+00
  weight for this iteration     100.00

 eigenvalues of (default mixing * dielectric matrix)
  average eigenvalue GAMMA=   1.0113
  1.0113

 Free energy of the ion-electron system (eV)
  ---------------------------------------------------
  alpha Z        PSCENC =        69.72802778
  Ewald energy   TEWEN  =     -1886.62880430
  -Hartree energ DENC   =     -1044.66683885
  -exchange      EXHF   =         0.00000000
  -V(xc)+E(xc)   XCENC  =       149.23318245
  PAW double counting   =      1892.39896065    -1852.79880803
  entropy T*S    EENTRO =         0.00000000
  eigenvalues    EBANDS =      -300.93503966
  atomic energy  EATOM  =      2902.77641490
  Solvation  Ediel_sol  =         0.00000000
  ---------------------------------------------------
  free energy    TOTEN  =       -70.89290507 eV

  energy without entropy =      -70.89290507  energy(sigma->0) =      -70.89290507


--------------------------------------------------------------------------------------------------------




----------------------------------------- Iteration    1(   7)  ---------------------------------------


    POTLOK:  cpu time    0.0660: real time    0.0660
    SETDIJ:  cpu time    0.0120: real time    0.0124
    EDDIAG:  cpu time    1.2738: real time    1.2739
  RMM-DIIS:  cpu time    5.2442: real time    5.2414
    ORTHCH:  cpu time    0.1410: real time    0.1411
 BZINTS: Fermi energy:  1.145887; 48.000000 electrons
         Band energy:-283.596453;  BLOECHL correction:  0.000000
       DOS:  cpu time    0.0060: real time    0.0056
    CHARGE:  cpu time    0.4849: real time    0.4854
    MIXING:  cpu time    0.0020: real time    0.0021
    --------------------------------------------
      LOOP:  cpu time    7.2299: real time    7.2344

 eigenvalue-minimisations  :  6149
 total energy-change (2. order) : 0.2885784E-01  (-0.1798989E+00)
 number of electron      48.0000123 magnetization 
 augmentation part        3.5352770 magnetization 

 Broyden mixing:
  rms(total) = 0.33991E+00    rms(broyden)= 0.33975E+00
  rms(prec ) = 0.48244E+00
  weight for this iteration     100.00

 eigenvalues of (default mixing * dielectric matrix)
  average eigenvalue GAMMA=   1.7530
  1.1693  2.3367

 Free energy of the ion-electron system (eV)
  ---------------------------------------------------
  alpha Z        PSCENC =        69.72802778
  Ewald energy   TEWEN  =     -1886.62880430
  -Hartree energ DENC   =     -1063.01217833
  -exchange      EXHF   =         0.00000000
  -V(xc)+E(xc)   XCENC  =       150.47989351
  PAW double counting   =      1993.35351409    -1953.96446151
  entropy T*S    EENTRO =         0.00000000
  eigenvalues    EBANDS =      -283.59645337
  atomic energy  EATOM  =      2902.77641490
  Solvation  Ediel_sol  =         0.00000000
  ---------------------------------------------------
  free energy    TOTEN  =       -70.86404723 eV

  energy without entropy =      -70.86404723  energy(sigma->0) =      -70.86404723


--------------------------------------------------------------------------------------------------------




----------------------------------------- Iteration    1(   8)  ---------------------------------------


    POTLOK:  cpu time    0.0660: real time    0.0666
    SETDIJ:  cpu time    0.0130: real time    0.0124
    EDDIAG:  cpu time    1.2668: real time    1.2665
  RMM-DIIS:  cpu time    5.1292: real time    5.1306
    ORTHCH:  cpu time    0.1390: real time    0.1395
 BZINTS: Fermi energy:  1.065456; 48.000000 electrons
         Band energy:-281.119998;  BLOECHL correction:  0.000000
       DOS:  cpu time    0.0060: real time    0.0057
    CHARGE:  cpu time    0.4779: real time    0.4778
    MIXING:  cpu time    0.0030: real time    0.0023
    --------------------------------------------
      LOOP:  cpu time    7.1019: real time    7.1071

 eigenvalue-minimisations  :  6054
 total energy-change (2. order) :-0.1377088E-01  (-0.2755116E-01)
 number of electron      48.0000124 magnetization 
 augmentation part        3.5748005 magnetization 

 Broyden mixing:
  rms(total) = 0.63509E-01    rms(broyden)= 0.63504E-01
  rms(prec ) = 0.11950E+00
  weight for this iteration     100.00

 eigenvalues of (default mixing * dielectric matrix)
  average eigenvalue GAMMA=   1.5652
  2.5434  1.0761  1.0761

 Free energy of the ion-electron system (eV)
  ---------------------------------------------------
  alpha Z        PSCENC =        69.72802778
  Ewald energy   TEWEN  =     -1886.62880430
  -Hartree energ DENC   =     -1065.88550896
  -exchange      EXHF   =         0.00000000
  -V(xc)+E(xc)   XCENC  =       150.76211253
  PAW double counting   =      2070.33140133    -2030.84146294
  entropy T*S    EENTRO =         0.00000000
  eigenvalues    EBANDS =      -281.11999843
  atomic energy  EATOM  =      2902.77641490
  Solvation  Ediel_sol  =         0.00000000
  ---------------------------------------------------
  free energy    TOTEN  =       -70.87781811 eV

  energy without entropy =      -70.87781811  energy(sigma->0) =      -70.87781811


--------------------------------------------------------------------------------------------------------




----------------------------------------- Iteration    1(   9)  ---------------------------------------


    POTLOK:  cpu time    0.0640: real time    0.0653
    SETDIJ:  cpu time    0.0130: real time    0.0123
    EDDIAG:  cpu time    1.2598: real time    1.2597
  RMM-DIIS:  cpu time    5.3332: real time    5.3319
    ORTHCH:  cpu time    0.1410: real time    0.1410
 BZINTS: Fermi energy:  1.233693; 48.000000 electrons
         Band energy:-276.614537;  BLOECHL correction:  0.000000
       DOS:  cpu time    0.0060: real time    0.0056
    CHARGE:  cpu time    0.4829: real time    0.4829
    MIXING:  cpu time    0.0020: real time    0.0023
    --------------------------------------------
      LOOP:  cpu time    7.3029: real time    7.3089

 eigenvalue-minimisations  :  6253
 total energy-change (2. order) : 0.8192125E-02  (-0.4742525E-02)
 number of electron      48.0000123 magnetization 
 augmentation part        3.5529281 magnetization 

 Broyden mixing:
  rms(total) = 0.15069E-01    rms(broyden)= 0.15035E-01
  rms(prec ) = 0.24616E-01
  weight for this iteration     100.00

 eigenvalues of (default mixing * dielectric matrix)
  average eigenvalue GAMMA=   1.6582
  2.6182  1.9566  1.0065  1.0514

 Free energy of the ion-electron system (eV)
  ---------------------------------------------------
  alpha Z        PSCENC =        69.72802778
  Ewald energy   TEWEN  =     -1886.62880430
  -Hartree energ DENC   =     -1070.63908663
  -exchange      EXHF   =         0.00000000
  -V(xc)+E(xc)   XCENC  =       151.08994305
  PAW double counting   =      2082.84579614    -2043.42738021
  entropy T*S    EENTRO =         0.00000000
  eigenvalues    EBANDS =      -276.61453671
  atomic energy  EATOM  =      2902.77641490
  Solvation  Ediel_sol  =         0.00000000
  ---------------------------------------------------
  free energy    TOTEN  =       -70.86962598 eV

  energy without entropy =      -70.86962598  energy(sigma->0) =      -70.86962598


--------------------------------------------------------------------------------------------------------




----------------------------------------- Iteration    1(  10)  ---------------------------------------


    POTLOK:  cpu time    0.0650: real time    0.0661
    SETDIJ:  cpu time    0.0130: real time    0.0125
    EDDIAG:  cpu time    1.2608: real time    1.2606
  RMM-DIIS:  cpu time    5.2442: real time    5.2424
    ORTHCH:  cpu time    0.1440: real time    0.1437
 BZINTS: Fermi energy:  1.252046; 48.000000 electrons
         Band energy:-275.198154;  BLOECHL correction:  0.000000
       DOS:  cpu time    0.0050: real time    0.0055
    CHARGE:  cpu time    0.4779: real time    0.4780
    MIXING:  cpu time    0.0030: real time    0.0025
    --------------------------------------------
      LOOP:  cpu time    7.2149: real time    7.2165

 eigenvalue-minimisations  :  6191
 total energy-change (2. order) :-0.2724224E-02  (-0.1707948E-02)
 number of electron      48.0000123 magnetization 
 augmentation part        3.5398717 magnetization 

 Broyden mixing:
  rms(total) = 0.19603E-01    rms(broyden)= 0.19588E-01
  rms(prec ) = 0.33795E-01
  weight for this iteration     100.00

 eigenvalues of (default mixing * dielectric matrix)
  average eigenvalue GAMMA=   1.6598
  2.6201  2.3621  1.0185  1.1493  1.1493

 Free energy of the ion-electron system (eV)
  ---------------------------------------------------
  alpha Z        PSCENC =        69.72802778
  Ewald energy   TEWEN  =     -1886.62880430
  -Hartree energ DENC   =     -1072.13937649
  -exchange      EXHF   =         0.00000000
  -V(xc)+E(xc)   XCENC  =       151.19013067
  PAW double counting   =      2080.88036613    -2041.48095533
  entropy T*S    EENTRO =         0.00000000
  eigenvalues    EBANDS =      -275.19815356
  atomic energy  EATOM  =      2902.77641490
  Solvation  Ediel_sol  =         0.00000000
  ---------------------------------------------------
  free energy    TOTEN  =       -70.87235021 eV

  energy without entropy =      -70.87235021  energy(sigma->0) =      -70.87235021


--------------------------------------------------------------------------------------------------------




----------------------------------------- Iteration    1(  11)  ---------------------------------------


    POTLOK:  cpu time    0.0650: real time    0.0656
    SETDIJ:  cpu time    0.0120: real time    0.0123
    EDDIAG:  cpu time    1.2618: real time    1.2615
  RMM-DIIS:  cpu time    5.2682: real time    5.2667
    ORTHCH:  cpu time    0.1420: real time    0.1422
 BZINTS: Fermi energy:  1.237574; 48.000000 electrons
         Band energy:-276.406634;  BLOECHL correction:  0.000000
       DOS:  cpu time    0.0060: real time    0.0057
    CHARGE:  cpu time    0.4839: real time    0.4841
    MIXING:  cpu time    0.0030: real time    0.0026
    --------------------------------------------
      LOOP:  cpu time    7.2429: real time    7.2552

 eigenvalue-minimisations  :  6193
 total energy-change (2. order) : 0.8680022E-03  (-0.4366701E-03)
 number of electron      48.0000123 magnetization 
 augmentation part        3.5471382 magnetization 

 Broyden mixing:
  rms(total) = 0.18396E-02    rms(broyden)= 0.18259E-02
  rms(prec ) = 0.26871E-02
  weight for this iteration     100.00

 eigenvalues of (default mixing * dielectric matrix)
  average eigenvalue GAMMA=   1.6449
  2.9128  2.4667  0.9550  1.2172  1.1589  1.1589

 Free energy of the ion-electron system (eV)
  ---------------------------------------------------
  alpha Z        PSCENC =        69.72802778
  Ewald energy   TEWEN  =     -1886.62880430
  -Hartree energ DENC   =     -1070.86812801
  -exchange      EXHF   =         0.00000000
  -V(xc)+E(xc)   XCENC  =       151.10293766
  PAW double counting   =      2076.31725942    -2036.89255608
  entropy T*S    EENTRO =         0.00000000
  eigenvalues    EBANDS =      -276.40663357
  atomic energy  EATOM  =      2902.77641490
  Solvation  Ediel_sol  =         0.00000000
  ---------------------------------------------------
  free energy    TOTEN  =       -70.87148220 eV

  energy without entropy =      -70.87148220  energy(sigma->0) =      -70.87148220


--------------------------------------------------------------------------------------------------------




----------------------------------------- Iteration    1(  12)  ---------------------------------------


    POTLOK:  cpu time    0.0650: real time    0.0661
    SETDIJ:  cpu time    0.0130: real time    0.0125
    EDDIAG:  cpu time    1.2868: real time    1.2864
  RMM-DIIS:  cpu time    4.9622: real time    4.9631
    ORTHCH:  cpu time    0.1390: real time    0.1395
 BZINTS: Fermi energy:  1.237074; 48.000000 electrons
         Band energy:-276.231578;  BLOECHL correction:  0.000000
       DOS:  cpu time    0.0060: real time    0.0055
    CHARGE:  cpu time    0.4769: real time    0.4772
    MIXING:  cpu time    0.0030: real time    0.0027
    --------------------------------------------
      LOOP:  cpu time    6.9539: real time    6.9592

 eigenvalue-minimisations  :  5724
 total energy-change (2. order) :-0.4118429E-04  (-0.1624984E-04)
 number of electron      48.0000123 magnetization 
 augmentation part        3.5467435 magnetization 

 Broyden mixing:
  rms(total) = 0.13969E-02    rms(broyden)= 0.13966E-02
  rms(prec ) = 0.24594E-02
  weight for this iteration     100.00

 eigenvalues of (default mixing * dielectric matrix)
  average eigenvalue GAMMA=   1.7229
  3.0113  2.3791  2.3111  0.9777  1.1477  1.1169  1.1169

 Free energy of the ion-electron system (eV)
  ---------------------------------------------------
  alpha Z        PSCENC =        69.72802778
  Ewald energy   TEWEN  =     -1886.62880430
  -Hartree energ DENC   =     -1071.05131881
  -exchange      EXHF   =         0.00000000
  -V(xc)+E(xc)   XCENC  =       151.11384057
  PAW double counting   =      2075.99219168    -2036.57029757
  entropy T*S    EENTRO =         0.00000000
  eigenvalues    EBANDS =      -276.23157764
  atomic energy  EATOM  =      2902.77641490
  Solvation  Ediel_sol  =         0.00000000
  ---------------------------------------------------
  free energy    TOTEN  =       -70.87152339 eV

  energy without entropy =      -70.87152339  energy(sigma->0) =      -70.87152339


--------------------------------------------------------------------------------------------------------




----------------------------------------- Iteration    1(  13)  ---------------------------------------


    POTLOK:  cpu time    0.0650: real time    0.0654
    SETDIJ:  cpu time    0.0130: real time    0.0123
    EDDIAG:  cpu time    1.2618: real time    1.2619
  RMM-DIIS:  cpu time    3.6614: real time    3.6607
    ORTHCH:  cpu time    0.1400: real time    0.1400
 BZINTS: Fermi energy:  1.234575; 48.000000 electrons
         Band energy:-276.252035;  BLOECHL correction:  0.000000
       DOS:  cpu time    0.0060: real time    0.0055
    --------------------------------------------
      LOOP:  cpu time    5.1482: real time    5.1581

 eigenvalue-minimisations  :  4029
 total energy-change (2. order) :-0.1502817E-06  (-0.8248650E-06)
 number of electron      48.0000123 magnetization 
 augmentation part        3.5467435 magnetization 

 Free energy of the ion-electron system (eV)
  ---------------------------------------------------
  alpha Z        PSCENC =        69.72802778
  Ewald energy   TEWEN  =     -1886.62880430
  -Hartree energ DENC   =     -1071.02929011
  -exchange      EXHF   =         0.00000000
  -V(xc)+E(xc)   XCENC  =       151.11180171
  PAW double counting   =      2075.99183133    -2036.56946969
  entropy T*S    EENTRO =         0.00000000
  eigenvalues    EBANDS =      -276.25203515
  atomic energy  EATOM  =      2902.77641490
  Solvation  Ediel_sol  =         0.00000000
  ---------------------------------------------------
  free energy    TOTEN  =       -70.87152354 eV

  energy without entropy =      -70.87152354  energy(sigma->0) =      -70.87152354


--------------------------------------------------------------------------------------------------------




 average (electrostatic) potential at core
  the test charge radii are     0.9892  0.7215
  (the norm of the test charge is              1.0000)
       1 -86.4080       2 -86.3446       3 -86.4317       4 -72.9718       5 -72.4852
       6 -72.4594       7 -72.2531       8 -72.4517       9 -72.1080
 
 
 
 E-fermi :   1.2346     XC(G=0):  -9.2041     alpha+bet :-10.3421


 k-point     1 :       0.0000    0.0000    0.0000
  band No.  band energies     occupation 
      1     -18.4564      2.00000
      2     -17.1545      2.00000
      3     -16.7934      2.00000
      4     -16.1798      2.00000
      5     -16.0485      2.00000
      6     -15.9688      2.00000
      7      -7.2792      2.00000
      8      -7.1195      2.00000
      9      -4.5451      2.00000
     10      -4.2364      2.00000
     11      -4.1397      2.00000
     12      -4.1210      2.00000
     13      -1.9517      2.00000
     14      -1.8453      2.00000
     15      -1.7578      2.00000
     16      -1.2678      2.00000
     17      -0.5564      2.00000
     18      -0.4423      2.00000
     19      -0.3964      2.00000
     20       0.1438      2.00000
     21       0.2263      2.00000
     22       0.4700      2.00000
     23       0.7493      2.00000
     24       0.8569      2.00000
     25       7.0922      0.00000
     26      10.3325      0.00000
     27      10.4333      0.00000
     28      10.8603      0.00000
     29      10.9592      0.00000

 k-point     2 :       0.1667    0.0000    0.0000
  band No.  band energies     occupation 
      1     -18.3877      2.00000
      2     -17.1837      2.00000
      3     -16.7850      2.00000
      4     -16.2841      2.00000
      5     -16.0914      2.00000
      6     -15.9189      2.00000
      7      -7.3101      2.00000
      8      -6.9412      2.00000
      9      -4.5711      2.00000
     10      -4.3055      2.00000
     11      -4.1793      2.00000
     12      -3.9922      2.00000
     13      -2.0200      2.00000
     14      -1.8777      2.00000
     15      -1.6411      2.00000
     16      -1.1939      2.00000
     17      -0.7523      2.00000
     18      -0.4714      2.00000
     19      -0.4006      2.00000
     20       0.0867      2.00000
     21       0.1252      2.00000
     22       0.3802      2.00000
     23       0.8329      2.00000
     24       0.9315      2.00000
     25       7.5157      0.00000
     26      10.3531      0.00000
     27      10.4739      0.00000
     28      10.8759      0.00000
     29      11.0886      0.00000

 k-point     3 :       0.3333    0.0000    0.0000
  band No.  band energies     occupation 
      1     -18.2173      2.00000
      2     -17.2799      2.00000
      3     -16.7672      2.00000
      4     -16.4653      2.00000
      5     -16.1244      2.00000
      6     -15.8863      2.00000
      7      -7.3751      2.00000
      8      -6.5209      2.00000
      9      -4.6312      2.00000
     10      -4.5472      2.00000
     11      -4.1949      2.00000
     12      -3.6890      2.00000
     13      -2.1391      2.00000
     14      -1.7011      2.00000
     15      -1.6214      2.00000
     16      -1.3084      2.00000
     17      -0.9942      2.00000
     18      -0.5615      2.00000
     19      -0.4571      2.00000
     20       0.0215      2.00000
     21       0.0635      2.00000
     22       0.2845      2.00000
     23       0.9072      2.00000
     24       1.0370      2.00000
     25       8.5148      0.00000
     26      10.3779      0.00000
     27      10.5972      0.00000
     28      11.0548      0.00000
     29      11.4083      0.00000

 k-point     4 :       0.5000    0.0000    0.0000
  band No.  band energies     occupation 
      1     -18.1007      2.00000
      2     -17.3657      2.00000
      3     -16.7587      2.00000
      4     -16.5407      2.00000
      5     -16.1379      2.00000
      6     -15.8778      2.00000
      7      -7.4068      2.00000
      8      -6.2578      2.00000
      9      -4.7819      2.00000
     10      -4.5816      2.00000
     11      -4.2037      2.00000
     12      -3.5203      2.00000
     13      -2.1424      2.00000
     14      -1.7808      2.00000
     15      -1.6098      2.00000
     16      -1.3200      2.00000
     17      -1.0619      2.00000
     18      -0.6389      2.00000
     19      -0.5299      2.00000
     20       0.0403      2.00000
     21       0.0609      2.00000
     22       0.2634      2.00000
     23       0.9106      2.00000
     24       1.0868      2.00000
     25       9.3463      0.00000
     26      10.0876      0.00000
     27      10.7774      0.00000
     28      10.9357      0.00000
     29      11.7475      0.00000

 k-point     5 :       0.0000    0.1667    0.0000
  band No.  band energies     occupation 
      1     -18.3819      2.00000
      2     -17.1945      2.00000
      3     -16.8182      2.00000
      4     -16.1883      2.00000
      5     -16.1171      2.00000
      6     -15.9500      2.00000
      7      -7.2657      2.00000
      8      -6.9966      2.00000
      9      -4.5547      2.00000
     10      -4.3008      2.00000
     11      -4.2130      2.00000
     12      -3.9612      2.00000
     13      -2.0703      2.00000
     14      -1.8176      2.00000
     15      -1.6954      2.00000
     16      -1.1608      2.00000
     17      -0.6945      2.00000
     18      -0.5096      2.00000
     19      -0.4600      2.00000
     20       0.1009      2.00000
     21       0.1695      2.00000
     22       0.3741      2.00000
     23       0.8354      2.00000
     24       0.9244      2.00000
     25       7.5132      0.00000
     26      10.3485      0.00000
     27      10.4397      0.00000
     28      10.9427      0.00000
     29      11.0594      0.00000

 k-point     6 :       0.1667    0.1667    0.0000
  band No.  band energies     occupation 
      1     -18.2589      2.00000
      2     -17.2615      2.00000
      3     -16.8111      2.00000
      4     -16.3337      2.00000
      5     -16.1408      2.00000
      6     -15.9087      2.00000
      7      -7.3548      2.00000
      8      -6.6408      2.00000
      9      -4.7058      2.00000
     10      -4.4221      2.00000
     11      -4.1302      2.00000
     12      -3.7876      2.00000
     13      -2.0985      2.00000
     14      -1.8017      2.00000
     15      -1.6171      2.00000
     16      -1.2017      2.00000
     17      -1.0247      2.00000
     18      -0.5399      2.00000
     19      -0.3399      2.00000
     20      -0.0362      2.00000
     21       0.1363      2.00000
     22       0.2808      2.00000
     23       0.9337      2.00000
     24       0.9691      2.00000
     25       8.2203      0.00000
     26      10.4356      0.00000
     27      10.5503      0.00000
     28      11.0127      0.00000
     29      11.2731      0.00000

 k-point     7 :       0.3333    0.1667    0.0000
  band No.  band energies     occupation 
      1     -18.0897      2.00000
      2     -17.3809      2.00000
      3     -16.8164      2.00000
      4     -16.4619      2.00000
      5     -16.1429      2.00000
      6     -15.8889      2.00000
      7      -7.4141      2.00000
      8      -6.1880      2.00000
      9      -5.0493      2.00000
     10      -4.4506      2.00000
     11      -4.1151      2.00000
     12      -3.5392      2.00000
     13      -2.1101      2.00000
     14      -1.7715      2.00000
     15      -1.6851      2.00000
     16      -1.2764      2.00000
     17      -1.0651      2.00000
     18      -0.6727      2.00000
     19      -0.3734      2.00000
     20      -0.1614      2.00000
     21       0.0180      2.00000
     22       0.3929      2.00000
     23       0.9034      2.00000
     24       1.0847      2.00000
     25       9.2280      0.00000
     26      10.3399      0.00000
     27      10.6864      0.00000
     28      11.1209      0.00000
     29      11.5626      0.00000

 k-point     8 :       0.5000    0.1667    0.0000
  band No.  band energies     occupation 
      1     -18.0839      2.00000
      2     -17.3879      2.00000
      3     -16.8138      2.00000
      4     -16.4833      2.00000
      5     -16.1229      2.00000
      6     -15.8887      2.00000
      7      -7.4046      2.00000
      8      -6.1961      2.00000
      9      -5.0594      2.00000
     10      -4.4357      2.00000
     11      -4.1316      2.00000
     12      -3.5383      2.00000
     13      -2.1043      2.00000
     14      -1.7851      2.00000
     15      -1.6968      2.00000
     16      -1.2230      2.00000
     17      -1.0003      2.00000
     18      -0.6745      2.00000
     19      -0.5053      2.00000
     20      -0.1888      2.00000
     21       0.0521      2.00000
     22       0.4261      2.00000
     23       0.8745      2.00000
     24       1.1199      2.00000
     25       9.2374      0.00000
     26      10.3199      0.00000
     27      10.6691      0.00000
     28      11.1273      0.00000
     29      11.5244      0.00000

 k-point     9 :      -0.3333    0.1667    0.0000
  band No.  band energies     occupation 
      1     -18.2519      2.00000
      2     -17.2686      2.00000
      3     -16.8102      2.00000
      4     -16.3894      2.00000
      5     -16.0847      2.00000
      6     -15.9094      2.00000
      7      -7.3233      2.00000
      8      -6.6713      2.00000
      9      -4.7288      2.00000
     10      -4.4001      2.00000
     11      -4.1473      2.00000
     12      -3.7865      2.00000
     13      -2.1037      2.00000
     14      -1.8431      2.00000
     15      -1.5261      2.00000
     16      -1.1652      2.00000
     17      -0.9786      2.00000
     18      -0.6100      2.00000
     19      -0.3942      2.00000
     20      -0.1566      2.00000
     21       0.1845      2.00000
     22       0.3418      2.00000
     23       0.8650      2.00000
     24       1.0662      2.00000
     25       8.2225      0.00000
     26      10.3717      0.00000
     27      10.5823      0.00000
     28      11.0320      0.00000
     29      11.2394      0.00000

 k-point    10 :      -0.1667    0.1667    0.0000
  band No.  band energies     occupation 
      1     -18.3793      2.00000
      2     -17.1960      2.00000
      3     -16.8197      2.00000
      4     -16.2432      2.00000
      5     -16.0550      2.00000
      6     -15.9563      2.00000
      7      -7.2183      2.00000
      8      -7.0440      2.00000
      9      -4.5626      2.00000
     10      -4.3163      2.00000
     11      -4.1927      2.00000
     12      -3.9651      2.00000
     13      -2.0815      2.00000
     14      -1.8405      2.00000
[...]
      8      -6.0513      2.00000
      9      -5.1250      2.00000
     10      -4.3393      2.00000
     11      -4.1320      2.00000
     12      -3.7093      2.00000
     13      -2.0802      2.00000
     14      -1.9921      2.00000
     15      -1.3739      2.00000
     16      -1.2888      2.00000
     17      -0.9629      2.00000
     18      -0.4994      2.00000
     19      -0.3742      2.00000
     20      -0.1696      2.00000
     21       0.1225      2.00000
     22       0.4740      2.00000
     23       0.8014      2.00000
     24       1.0077      2.00000
     25       9.1779      0.00000
     26      10.0731      0.00000
     27      10.4692      0.00000
     28      11.0320      0.00000
     29      11.3882      0.00000

 k-point    83 :       0.3333   -0.3333    0.4000
  band No.  band energies     occupation 
      1     -18.0464      2.00000
      2     -17.5363      2.00000
      3     -16.8497      2.00000
      4     -16.3380      2.00000
      5     -16.0888      2.00000
      6     -15.8828      2.00000
      7      -7.5222      2.00000
      8      -6.1304      2.00000
      9      -5.1940      2.00000
     10      -4.2357      2.00000
     11      -4.1785      2.00000
     12      -3.6931      2.00000
     13      -2.1004      2.00000
     14      -2.0774      2.00000
     15      -1.3411      2.00000
     16      -1.2435      2.00000
     17      -1.0112      2.00000
     18      -0.5265      2.00000
     19      -0.2984      2.00000
     20      -0.1067      2.00000
     21       0.1206      2.00000
     22       0.4119      2.00000
     23       0.6950      2.00000
     24       1.0791      2.00000
     25       9.3225      0.00000
     26      10.3624      0.00000
     27      10.4766      0.00000
     28      11.0371      0.00000
     29      11.2541      0.00000

 k-point    84 :       0.5000   -0.3333    0.4000
  band No.  band energies     occupation 
      1     -17.9830      2.00000
      2     -17.4671      2.00000
      3     -16.9042      2.00000
      4     -16.4170      2.00000
      5     -16.1381      2.00000
      6     -15.8924      2.00000
      7      -7.1851      2.00000
      8      -6.2593      2.00000
      9      -5.3788      2.00000
     10      -4.2941      2.00000
     11      -4.0003      2.00000
     12      -3.7487      2.00000
     13      -2.1607      2.00000
     14      -2.0875      2.00000
     15      -1.4078      2.00000
     16      -1.1746      2.00000
     17      -0.9320      2.00000
     18      -0.6612      2.00000
     19      -0.2343      2.00000
     20       0.0471      2.00000
     21       0.1899      2.00000
     22       0.3775      2.00000
     23       0.5911      2.00000
     24       0.9467      2.00000
     25       9.8094      0.00000
     26      10.4904      0.00000
     27      10.7603      0.00000
     28      11.0390      0.00000
     29      11.3490      0.00000

 k-point    85 :      -0.3333   -0.3333    0.4000
  band No.  band energies     occupation 
      1     -17.9390      2.00000
      2     -17.4873      2.00000
      3     -16.8317      2.00000
      4     -16.4797      2.00000
      5     -16.1977      2.00000
      6     -15.8951      2.00000
      7      -6.9832      2.00000
      8      -6.3023      2.00000
      9      -5.5222      2.00000
     10      -4.3227      2.00000
     11      -3.9133      2.00000
     12      -3.7922      2.00000
     13      -2.1909      2.00000
     14      -1.9718      2.00000
     15      -1.5753      2.00000
     16      -1.0901      2.00000
     17      -0.8760      2.00000
     18      -0.8039      2.00000
     19      -0.0991      2.00000
     20       0.1146      2.00000
     21       0.2713      2.00000
     22       0.3544      2.00000
     23       0.5640      2.00000
     24       0.7598      2.00000
     25      10.1282      0.00000
     26      10.5582      0.00000
     27      10.8618      0.00000
     28      11.1782      0.00000
     29      11.3927      0.00000

 k-point    86 :      -0.1667   -0.3333    0.4000
  band No.  band energies     occupation 
      1     -17.9672      2.00000
      2     -17.5577      2.00000
      3     -16.7154      2.00000
      4     -16.4759      2.00000
      5     -16.1964      2.00000
      6     -15.8904      2.00000
      7      -7.2464      2.00000
      8      -6.1743      2.00000
      9      -5.3780      2.00000
     10      -4.3025      2.00000
     11      -3.9865      2.00000
     12      -3.7689      2.00000
     13      -2.1763      2.00000
     14      -2.0345      2.00000
     15      -1.5024      2.00000
     16      -1.1990      2.00000
     17      -0.8873      2.00000
     18      -0.6280      2.00000
     19      -0.1639      2.00000
     20      -0.0643      2.00000
     21       0.1809      2.00000
     22       0.4986      2.00000
     23       0.6775      2.00000
     24       0.7771      2.00000
     25       9.8868      0.00000
     26      10.3251      0.00000
     27      10.7330      0.00000
     28      11.2328      0.00000
     29      11.5015      0.00000

 k-point    87 :       0.0000   -0.1667    0.4000
  band No.  band energies     occupation 
      1     -18.1503      2.00000
      2     -17.7100      2.00000
      3     -16.5948      2.00000
      4     -16.1906      2.00000
      5     -16.1308      2.00000
      6     -15.8511      2.00000
      7      -8.0428      2.00000
      8      -5.7782      2.00000
      9      -4.9849      2.00000
     10      -4.4676      2.00000
     11      -4.2931      2.00000
     12      -3.6784      2.00000
     13      -1.9364      2.00000
     14      -1.7555      2.00000
     15      -1.5134      2.00000
     16      -1.2071      2.00000
     17      -0.9290      2.00000
     18      -0.6188      2.00000
     19      -0.4847      2.00000
     20      -0.3387      2.00000
     21       0.0538      2.00000
     22       0.6913      2.00000
     23       0.9051      2.00000
     24       1.0241      2.00000
     25       8.7391      0.00000
     26       9.7550      0.00000
     27      10.3712      0.00000
     28      10.6392      0.00000
     29      11.3056      0.00000

 k-point    88 :       0.1667   -0.1667    0.4000
  band No.  band energies     occupation 
      1     -18.1562      2.00000
      2     -17.6905      2.00000
      3     -16.6282      2.00000
      4     -16.2386      2.00000
      5     -16.0677      2.00000
      6     -15.8458      2.00000
      7      -8.0353      2.00000
      8      -5.7982      2.00000
      9      -4.9830      2.00000
     10      -4.4629      2.00000
     11      -4.3005      2.00000
     12      -3.6626      2.00000
     13      -1.9361      2.00000
     14      -1.7589      2.00000
     15      -1.5066      2.00000
     16      -1.2069      2.00000
     17      -0.9311      2.00000
     18      -0.6737      2.00000
     19      -0.4400      2.00000
     20      -0.3197      2.00000
     21       0.0476      2.00000
     22       0.6535      2.00000
     23       0.8498      2.00000
     24       1.1124      2.00000
     25       8.7101      0.00000
     26       9.8206      0.00000
     27      10.2744      0.00000
     28      10.8112      0.00000
     29      11.1650      0.00000

 k-point    89 :       0.3333   -0.1667    0.4000
  band No.  band energies     occupation 
      1     -18.0959      2.00000
      2     -17.5683      2.00000
      3     -16.7134      2.00000
      4     -16.3694      2.00000
      5     -16.1110      2.00000
      6     -15.8593      2.00000
      7      -7.6952      2.00000
      8      -5.9456      2.00000
      9      -5.1702      2.00000
     10      -4.3681      2.00000
     11      -4.1410      2.00000
     12      -3.7290      2.00000
     13      -2.0887      2.00000
     14      -1.9245      2.00000
     15      -1.4013      2.00000
     16      -1.2921      2.00000
     17      -0.9177      2.00000
     18      -0.5415      2.00000
     19      -0.4028      2.00000
     20      -0.1137      2.00000
     21       0.1008      2.00000
     22       0.4684      2.00000
     23       0.7793      2.00000
     24       1.0151      2.00000
     25       9.1926      0.00000
     26      10.0791      0.00000
     27      10.4832      0.00000
     28      11.0070      0.00000
     29      11.5124      0.00000

 k-point    90 :       0.5000   -0.1667    0.4000
  band No.  band energies     occupation 
      1     -18.0306      2.00000
      2     -17.3965      2.00000
      3     -16.8614      2.00000
      4     -16.4642      2.00000
      5     -16.1796      2.00000
      6     -15.8721      2.00000
      7      -7.2486      2.00000
      8      -6.1684      2.00000
      9      -5.3334      2.00000
     10      -4.3780      2.00000
     11      -3.9354      2.00000
     12      -3.8151      2.00000
     13      -2.1848      2.00000
     14      -2.0204      2.00000
     15      -1.4321      2.00000
     16      -1.1946      2.00000
     17      -0.9050      2.00000
     18      -0.6423      2.00000
     19      -0.1887      2.00000
     20      -0.0104      2.00000
     21       0.2231      2.00000
     22       0.3219      2.00000
     23       0.6443      2.00000
     24       0.8832      2.00000
     25       9.8888      0.00000
     26      10.4004      0.00000
     27      10.7070      0.00000
     28      11.1106      0.00000
     29      11.4580      0.00000

 k-point    91 :      -0.3333   -0.1667    0.4000
  band No.  band energies     occupation 
      1     -18.0239      2.00000
      2     -17.4433      2.00000
      3     -16.7632      2.00000
      4     -16.5070      2.00000
      5     -16.1925      2.00000
      6     -15.8747      2.00000
      7      -7.2724      2.00000
      8      -6.1262      2.00000
      9      -5.3482      2.00000
     10      -4.3801      2.00000
     11      -3.9225      2.00000
     12      -3.8214      2.00000
     13      -2.1708      2.00000
     14      -2.0221      2.00000
     15      -1.4573      2.00000
     16      -1.2032      2.00000
     17      -0.9511      2.00000
     18      -0.5966      2.00000
     19      -0.1586      2.00000
     20      -0.0149      2.00000
     21       0.2148      2.00000
     22       0.3715      2.00000
     23       0.5855      2.00000
     24       0.8879      2.00000
     25       9.8107      0.00000
     26      10.5510      0.00000
     27      10.7834      0.00000
     28      11.1314      0.00000
     29      11.3948      0.00000

 k-point    92 :      -0.1667   -0.1667    0.4000
  band No.  band energies     occupation 
      1     -18.0831      2.00000
      2     -17.6202      2.00000
      3     -16.5855      2.00000
      4     -16.4022      2.00000
      5     -16.1611      2.00000
      6     -15.8663      2.00000
      7      -7.7183      2.00000
      8      -5.8916      2.00000
      9      -5.1901      2.00000
     10      -4.3607      2.00000
     11      -4.1429      2.00000
     12      -3.7398      2.00000
     13      -2.0761      2.00000
     14      -1.9165      2.00000
     15      -1.4327      2.00000
     16      -1.3004      2.00000
     17      -0.9499      2.00000
     18      -0.5012      2.00000
     19      -0.3622      2.00000
     20      -0.1842      2.00000
     21       0.1201      2.00000
     22       0.5795      2.00000
     23       0.7582      2.00000
     24       0.9378      2.00000
     25       9.1934      0.00000
     26      10.0713      0.00000
     27      10.6087      0.00000
     28      10.8902      0.00000
     29      11.3086      0.00000


--------------------------------------------------------------------------------------------------------


 soft charge-density along one line, spin component           1
         0         1         2         3         4         5         6         7         8         9
 total charge-density along one line
 
 pseudopotential strength for first ion, spin component:           1
 18.764   0.002   0.008   0.002  -0.005  -0.000  -0.000   0.000
  0.002   0.006  -0.000  -0.000   0.000   0.000   0.000  -0.000
  0.008  -0.000   4.222   0.002  -0.002  -0.003  -0.000   0.000
  0.002  -0.000   0.002   4.220  -0.003  -0.000  -0.003   0.000
 -0.005   0.000  -0.002  -0.003   4.221   0.000   0.000  -0.003
 -0.000   0.000  -0.003  -0.000   0.000   0.005   0.000  -0.000
 -0.000   0.000  -0.000  -0.003   0.000   0.000   0.005  -0.000
  0.000  -0.000   0.000   0.000  -0.003  -0.000  -0.000   0.005
 total augmentation occupancy for first ion, spin component:           1
  1.174  -1.654   0.068   0.014  -0.041  -0.129  -0.027   0.103
 -1.654   3.644  -0.174  -0.039   0.152   0.385   0.087  -0.318
  0.068  -0.174   1.065   0.072  -0.056  -1.254  -0.125   0.107
  0.014  -0.039   0.072   0.991  -0.090  -0.124  -1.147   0.155
 -0.041   0.152  -0.056  -0.090   0.985   0.108   0.156  -1.194
 -0.129   0.385  -1.254  -0.124   0.108   1.825   0.251  -0.218
 -0.027   0.087  -0.125  -1.147   0.156   0.251   1.620  -0.308
  0.103  -0.318   0.107   0.155  -1.194  -0.218  -0.308   1.725


------------------------ aborting loop because EDIFF is reached ----------------------------------------


    CHARGE:  cpu time    0.4759: real time    0.4766
    FORLOC:  cpu time    0.0090: real time    0.0091
    FORNL :  cpu time    2.2537: real time    2.2534
    STRESS:  cpu time    6.7790: real time    6.7774
    FORCOR:  cpu time    0.0660: real time    0.0655
    FORHAR:  cpu time    0.0160: real time    0.0160
    MIXING:  cpu time    0.0030: real time    0.0029
    OFIELD:  cpu time    0.0000: real time    0.0000

  FORCE on cell =-STRESS in cart. coord.  units (eV):
  Direction    XX          YY          ZZ          XY          YZ          ZX
  --------------------------------------------------------------------------------------
  Alpha Z    69.72803    69.72803    69.72803
  Ewald    -645.37924  -640.18347  -601.06990   -13.30450    14.70397   -23.87549
  Hartree   347.15778   347.52242   376.21530    -1.08170     1.43229    -2.68462
  E(xc)    -225.67733  -225.69779  -225.58122     0.06522    -0.05477     0.09162
  Local    -421.34637  -426.21953  -494.72573    12.62398   -14.10059    23.67704
  n-local   -52.08615   -51.55328   -52.68122    -1.48933     1.34361    -2.22789
  augment    27.06710    27.02039    27.03152     0.10432    -0.11598     0.19771
  Kinetic   903.67397   903.19166   902.49952     1.06936    -1.24307     1.98170
  Fock        0.00000     0.00000     0.00000     0.00000     0.00000     0.00000
  -------------------------------------------------------------------------------------
  Total       3.13780     3.80843     1.41629    -2.01266     1.96546    -2.83995
  in kB      44.48167    53.98862    20.07751   -28.53169    27.86251   -40.25936
  external pressure =       39.52 kB  Pullay stress =        0.00 kB


 VOLUME and BASIS-vectors are now :
 -----------------------------------------------------------------------------
  energy-cutoff  :      400.00
  volume of cell :      113.02
      direct lattice vectors                 reciprocal lattice vectors
     4.913700000  0.000000000  0.000000000     0.203512628  0.117498070  0.000000000
    -2.456850000  4.255389030  0.000000000     0.000000000  0.234996141  0.000000000
     0.000000000  0.000000000  5.405130000     0.000000000  0.000000000  0.185009426

  length of vectors
     4.913700000  4.913700003  5.405130000     0.234996141  0.234996141  0.185009426


 FORCES acting on ions
    electron-ion (+dipol)            ewald-force                    non-local-force                 convergence-correction
 -----------------------------------------------------------------------------------------------
   -.667E+01 0.123E+02 0.338E+01   0.540E+01 -.106E+02 -.301E+01   0.434E+01 -.634E+01 -.138E+01   0.139E-03 -.674E-03 0.569E-04
   -.213E+00 -.132E+01 0.180E+00   0.352E+00 0.129E+01 0.822E-01   -.220E+00 0.704E+00 -.165E+00   0.181E-03 0.537E-04 0.123E-03
   0.943E+00 0.106E+01 0.377E+00   -.130E+01 0.873E+00 0.899E-01   -.206E+00 -.138E+01 -.274E+00   -.497E-04 0.106E-02 0.215E-03
   0.791E+02 0.380E+00 0.244E+02   -.101E+03 0.477E+01 -.304E+02   0.197E+02 -.258E+01 0.743E+01   -.868E-03 -.139E-02 -.175E-02
   -.447E+02 0.624E+02 0.304E+02   0.543E+02 -.811E+02 -.404E+02   -.973E+01 0.183E+02 0.101E+02   0.125E-02 -.125E-02 -.107E-02
   -.301E+02 -.665E+02 0.303E+02   0.403E+02 0.823E+02 -.400E+02   -.977E+01 -.156E+02 0.960E+01   0.118E-02 0.195E-02 -.795E-03
   0.669E+02 -.796E+01 -.321E+02   -.825E+02 0.688E+01 0.433E+02   0.154E+02 0.151E+01 -.109E+02   -.216E-02 -.649E-04 0.717E-03
   -.294E+02 0.655E+02 -.301E+02   0.394E+02 -.805E+02 0.401E+02   -.939E+01 0.145E+02 -.101E+02   0.850E-05 -.165E-02 0.148E-02
   -.387E+02 -.593E+02 -.237E+02   0.452E+02 0.761E+02 0.302E+02   -.729E+01 -.157E+02 -.736E+01   0.151E-02 0.187E-02 0.151E-02
 -----------------------------------------------------------------------------------------------
   -.279E+01 0.658E+01 0.306E+01   -.355E-13 0.284E-13 0.000E+00   0.280E+01 -.659E+01 -.306E+01   0.120E-02 -.102E-03 0.475E-03
 
 
 POSITION                                       TOTAL-FORCE (eV/Angst)
 -----------------------------------------------------------------------------------
      2.25932      0.08511      3.60344         3.071003     -4.707149     -1.007020
     -1.15423      1.99918      1.80169        -0.081998      0.673455      0.096465
      1.30262      2.25621      0.00000        -0.563042      0.559249      0.193134
      1.38272      1.13278      4.24627        -2.451695      2.570304      1.414232
      3.24132      0.63107      2.44458        -0.091844     -0.416456      0.080762
      2.74651      2.49153      0.64283         0.438263      0.196805     -0.074686
     -1.07413      3.12260      2.96055        -0.209707      0.435258      0.242717
      0.28966      1.76386      1.15886         0.600124     -0.466605     -0.114067
      0.78447      3.62431      4.76230        -0.711104      1.155139     -0.831537
 -----------------------------------------------------------------------------------
    total drift:                                0.014456     -0.008139      0.004887


--------------------------------------------------------------------------------------------------------



  FREE ENERGIE OF THE ION-ELECTRON SYSTEM (eV)
  ---------------------------------------------------
  free  energy   TOTEN  =       -70.87152354 eV

  energy  without entropy=      -70.87152354  energy(sigma->0) =      -70.87152354
 


--------------------------------------------------------------------------------------------------------


    POTLOK:  cpu time    0.0760: real time    0.0759


--------------------------------------------------------------------------------------------------------


     LOOP+:  cpu time  103.9332: real time  104.2306
    4ORBIT:  cpu time    0.0010: real time    0.0003
 BZINTS: Fermi energy:  1.234575; 48.000000 electrons
         Band energy:-276.252035;  BLOECHL correction:  0.000000

 total amount of memory used by VASP on root node   135556. kBytes
========================================================================

   base      :      30000. kBytes
   nonlr-proj:        968. kBytes
   fftplans  :       4548. kBytes
   grid      :       8064. kBytes
   one-center:         27. kBytes
   wavefun   :      91949. kBytes
 
  
  
 General timing and accounting informations for this job:
 ========================================================
  
                  Total CPU time used (sec):      105.896
                            User time (sec):      105.746
                          System time (sec):        0.150
                         Elapsed time (sec):      107.789
  
                   Maximum memory used (kb):      140480.
                   Average memory used (kb):           0.
  
                          Minor page faults:        49981
                          Major page faults:          344
                 Voluntary context switches:         2084
