<?xml version="1.0" encoding="ISO-8859-1"?>
<modeling>
 <generator>
  <i name="program" type="string">vasp </i>
  <i name="version" type="string">5.4.1  </i>
  <i name="subversion" type="string">05Feb16 (build Mar 02 2016 14:09:44) complex                          parallel </i>
  <i name="platform" type="string">Abel-impi-ifc-cuda </i>
  <i name="date" type="string">2019 09 13 </i>
  <i name="time" type="string">12:03:40 </i>
 </generator>
 <incar>
  <i type="string" name="PREC">normal    ! low/normal/accurate</i>
  <i type="string" name="ALGO"> Fast      ! Algorithm for electronic re</i>
  <i type="int" name="ISPIN">     1</i>
  <i type="int" name="NELMIN">     4</i>
  <i name="EDIFF">      0.00001000</i>
  <i type="int" name="NSW">     0</i>
  <i name="ENCUT">    400.00000000</i>
  <i type="string" name="LREAL"> Auto      ! Projection in reciprocal sp</i>
  <i type="int" name="ISMEAR">    -5</i>
  <i name="SIGMA">      0.20000000</i>
  <i type="logical" name="LWAVE"> F  </i>
  <v type="int" name="KPOINT_BSE">    -1     0     0     0</v>
 </incar>
 <kpoints>
  <generation param="Gamma">
   <v type="int" name="divisions">       6        6        5 </v>
   <v name="usershift">      0.00000000       0.00000000       0.00000000 </v>
   <v name="genvec1">      0.16666667       0.00000000       0.00000000 </v>
   <v name="genvec2">      0.00000000       0.16666667       0.00000000 </v>
   <v name="genvec3">      0.00000000       0.00000000       0.20000000 </v>
   <v name="shift">      0.00000000       0.00000000       0.00000000 </v>
  </generation>
  <varray name="kpointlist" >
   <v>       0.00000000       0.00000000       0.00000000 </v>
   <v>       0.16666667       0.00000000       0.00000000 </v>
   <v>       0.33333333       0.00000000       0.00000000 </v>
   <v>       0.50000000       0.00000000       0.00000000 </v>
   <v>       0.00000000       0.16666667       0.00000000 </v>
   <v>       0.16666667       0.16666667       0.00000000 </v>
   <v>       0.33333333       0.16666667       0.00000000 </v>
   <v>       0.50000000       0.16666667       0.00000000 </v>
   <v>      -0.33333333       0.16666667       0.00000000 </v>
   <v>      -0.16666667       0.16666667       0.00000000 </v>
   <v>       0.00000000       0.33333333       0.00000000 </v>
   <v>       0.16666667       0.33333333       0.00000000 </v>
   <v>       0.33333333       0.33333333       0.00000000 </v>
   <v>       0.50000000       0.33333333       0.00000000 </v>
   <v>      -0.33333333       0.33333333       0.00000000 </v>
   <v>      -0.16666667       0.33333333       0.00000000 </v>
   <v>       0.00000000       0.50000000       0.00000000 </v>
   <v>       0.16666667       0.50000000       0.00000000 </v>
   <v>       0.33333333       0.50000000       0.00000000 </v>
   <v>       0.50000000       0.50000000       0.00000000 </v>
   <v>       0.00000000       0.00000000       0.20000000 </v>
   <v>       0.16666667       0.00000000       0.20000000 </v>
   <v>       0.33333333       0.00000000       0.20000000 </v>
   <v>       0.50000000       0.00000000       0.20000000 </v>
   <v>      -0.33333333       0.00000000       0.20000000 </v>
   <v>      -0.16666667       0.00000000       0.20000000 </v>
   <v>       0.00000000       0.16666667       0.20000000 </v>
   <v>       0.16666667       0.16666667       0.20000000 </v>
   <v>       0.33333333       0.16666667       0.20000000 </v>
   <v>       0.50000000       0.16666667       0.20000000 </v>
   <v>      -0.33333333       0.16666667       0.20000000 </v>
   <v>      -0.16666667       0.16666667       0.20000000 </v>
   <v>       0.00000000       0.33333333       0.20000000 </v>
   <v>       0.16666667       0.33333333       0.20000000 </v>
   <v>       0.33333333       0.33333333       0.20000000 </v>
   <v>       0.50000000       0.33333333       0.20000000 </v>
   <v>      -0.33333333       0.33333333       0.20000000 </v>
   <v>      -0.16666667       0.33333333       0.20000000 </v>
   <v>       0.00000000       0.50000000       0.20000000 </v>
   <v>       0.16666667       0.50000000       0.20000000 </v>
   <v>       0.33333333       0.50000000       0.20000000 </v>
   <v>       0.50000000       0.50000000       0.20000000 </v>
   <v>      -0.33333333       0.50000000       0.20000000 </v>
   <v>      -0.16666667       0.50000000       0.20000000 </v>
   <v>       0.00000000      -0.33333333       0.20000000 </v>
   <v>       0.16666667      -0.33333333       0.20000000 </v>
   <v>       0.33333333      -0.33333333       0.20000000 </v>
   <v>       0.50000000      -0.33333333       0.20000000 </v>
   <v>      -0.33333333      -0.33333333       0.20000000 </v>
   <v>      -0.16666667      -0.33333333       0.20000000 </v>
   <v>       0.00000000      -0.16666667       0.20000000 </v>
   <v>       0.16666667      -0.16666667       0.20000000 </v>
   <v>       0.33333333      -0.16666667       0.20000000 </v>
   <v>       0.50000000      -0.16666667       0.20000000 </v>
   <v>      -0.33333333      -0.16666667       0.20000000 </v>
   <v>      -0.16666667      -0.16666667       0.20000000 </v>
   <v>       0.00000000       0.00000000       0.40000000 </v>
   <v>       0.16666667       0.00000000       0.40000000 </v>
   <v>       0.33333333       0.00000000       0.40000000 </v>
   <v>       0.50000000       0.00000000       0.40000000 </v>
   <v>      -0.33333333       0.00000000       0.40000000 </v>
   <v>      -0.16666667       0.00000000       0.40000000 </v>
   <v>       0.00000000       0.16666667       0.40000000 </v>
   <v>       0.16666667       0.16666667       0.40000000 </v>
   <v>       0.33333333       0.16666667       0.40000000 </v>
   <v>       0.50000000       0.16666667       0.40000000 </v>
   <v>      -0.33333333       0.16666667       0.40000000 </v>
   <v>      -0.16666667       0.16666667       0.40000000 </v>
   <v>       0.00000000       0.33333333       0.40000000 </v>
   <v>       0.16666667       0.33333333       0.40000000 </v>
   <v>       0.33333333       0.33333333       0.40000000 </v>
   <v>       0.50000000       0.33333333       0.40000000 </v>
   <v>      -0.33333333       0.33333333       0.40000000 </v>
   <v>      -0.16666667       0.33333333       0.40000000 </v>
   <v>       0.00000000       0.50000000       0.40000000 </v>
   <v>       0.16666667       0.50000000       0.40000000 </v>
   <v>       0.33333333       0.50000000       0.40000000 </v>
   <v>       0.50000000       0.50000000       0.40000000 </v>
   <v>      -0.33333333       0.50000000       0.40000000 </v>
   <v>      -0.16666667       0.50000000       0.40000000 </v>
   <v>       0.00000000      -0.33333333       0.40000000 </v>
   <v>       0.16666667      -0.33333333       0.40000000 </v>
   <v>       0.33333333      -0.33333333       0.40000000 </v>
   <v>       0.50000000      -0.33333333       0.40000000 </v>
   <v>      -0.33333333      -0.33333333       0.40000000 </v>
   <v>      -0.16666667      -0.33333333       0.40000000 </v>
   <v>       0.00000000      -0.16666667       0.40000000 </v>
   <v>       0.16666667      -0.16666667       0.40000000 </v>
   <v>       0.33333333      -0.16666667       0.40000000 </v>
   <v>       0.50000000      -0.16666667       0.40000000 </v>
   <v>      -0.33333333      -0.16666667       0.40000000 </v>
   <v>      -0.16666667      -0.16666667       0.40000000 </v>
  </varray>
  <varray name="weights" >
   <v>       0.00555556 </v>
   <v>       0.01111111 </v>
   <v>       0.01111111 </v>
   <v>       0.00555556 </v>
   <v>       0.01111111 </v>
   <v>       0.01111111 </v>
   <v>       0.01111111 </v>
   <v>       0.01111111 </v>
   <v>       0.01111111 </v>
   <v>       0.01111111 </v>
   <v>       0.01111111 </v>
   <v>       0.01111111 </v>
   <v>       0.01111111 </v>
   <v>       0.01111111 </v>
   <v>       0.01111111 </v>
   <v>       0.01111111 </v>
   <v>       0.00555556 </v>
   <v>       0.01111111 </v>
   <v>       0.01111111 </v>
   <v>       0.00555556 </v>
   <v>       0.01111111 </v>
   <v>       0.01111111 </v>
   <v>       0.01111111 </v>
   <v>       0.01111111 </v>
   <v>       0.01111111 </v>
   <v>       0.01111111 </v>
   <v>       0.01111111 </v>
   <v>       0.01111111 </v>
   <v>       0.01111111 </v>
   <v>       0.01111111 </v>
   <v>       0.01111111 </v>
   <v>       0.01111111 </v>
   <v>       0.01111111 </v>
   <v>       0.01111111 </v>
   <v>       0.01111111 </v>
   <v>       0.01111111 </v>
   <v>       0.01111111 </v>
   <v>       0.01111111 </v>
   <v>       0.01111111 </v>
   <v>       0.01111111 </v>
   <v>       0.01111111 </v>
   <v>       0.01111111 </v>
   <v>       0.01111111 </v>
   <v>       0.01111111 </v>
   <v>       0.01111111 </v>
   <v>       0.01111111 </v>
   <v>       0.01111111 </v>
   <v>       0.01111111 </v>
   <v>       0.01111111 </v>
   <v>       0.01111111 </v>
   <v>       0.01111111 </v>
   <v>       0.01111111 </v>
   <v>       0.01111111 </v>
   <v>       0.01111111 </v>
   <v>       0.01111111 </v>
   <v>       0.01111111 </v>
   <v>       0.01111111 </v>
   <v>       0.01111111 </v>
   <v>       0.01111111 </v>
   <v>       0.01111111 </v>
   <v>       0.01111111 </v>
   <v>       0.01111111 </v>
   <v>       0.01111111 </v>
   <v>       0.01111111 </v>
   <v>       0.01111111 </v>
   <v>       0.01111111 </v>
   <v>       0.01111111 </v>
   <v>       0.01111111 </v>
   <v>       0.01111111 </v>
   <v>       0.01111111 </v>
   <v>       0.01111111 </v>
   <v>       0.01111111 </v>
   <v>       0.01111111 </v>
   <v>       0.01111111 </v>
   <v>       0.01111111 </v>
   <v>       0.01111111 </v>
   <v>       0.01111111 </v>
   <v>       0.01111111 </v>
   <v>       0.01111111 </v>
   <v>       0.01111111 </v>
   <v>       0.01111111 </v>
   <v>       0.01111111 </v>
   <v>       0.01111111 </v>
   <v>       0.01111111 </v>
   <v>       0.01111111 </v>
   <v>       0.01111111 </v>
   <v>       0.01111111 </v>
   <v>       0.01111111 </v>
   <v>       0.01111111 </v>
   <v>       0.01111111 </v>
   <v>       0.01111111 </v>
   <v>       0.01111111 </v>
  </varray>
  <varray name="tetrahedronlist"  type="int" >
   <v type="int" >        2        2        5        6       27 </v>
   <v type="int" >        2        1        2        5       27 </v>
   <v type="int" >        2        1        2       21       27 </v>
   <v type="int" >        2        2        6       27       28 </v>
   <v type="int" >        2        2       22       27       28 </v>
   <v type="int" >        2        2       21       22       27 </v>
   <v type="int" >        2        3        6        7       28 </v>
   <v type="int" >        2        2        3        6       28 </v>
   <v type="int" >        2        2        3       22       28 </v>
   <v type="int" >        2        3        7       28       29 </v>
   <v type="int" >        2        3       23       28       29 </v>
   <v type="int" >        2        3       22       23       28 </v>
   <v type="int" >        2        4        7        8       29 </v>
   <v type="int" >        2        3        4        7       29 </v>
   <v type="int" >        2        3        4       23       29 </v>
   <v type="int" >        2        4        8       29       30 </v>
   <v type="int" >        2        4       24       29       30 </v>
   <v type="int" >        2        4       23       24       29 </v>
   <v type="int" >        2        3        8        9       30 </v>
   <v type="int" >        2        3        4        8       30 </v>
   <v type="int" >        2        3        4       24       30 </v>
   <v type="int" >        2        3        9       30       31 </v>
   <v type="int" >        2        3       25       30       31 </v>
   <v type="int" >        2        3       24       25       30 </v>
   <v type="int" >        2        2        9       10       31 </v>
   <v type="int" >        2        2        3        9       31 </v>
   <v type="int" >        2        2        3       25       31 </v>
   <v type="int" >        2        2       10       31       32 </v>
   <v type="int" >        2        2       26       31       32 </v>
   <v type="int" >        2        2       25       26       31 </v>
   <v type="int" >        2        1        5       10       32 </v>
   <v type="int" >        2        1        2       10       32 </v>
   <v type="int" >        2        1        2       26       32 </v>
   <v type="int" >        2        1        5       27       32 </v>
   <v type="int" >        2        1       21       27       32 </v>
   <v type="int" >        2        1       21       26       32 </v>
   <v type="int" >        2        6       11       12       33 </v>
   <v type="int" >        2        5        6       11       33 </v>
   <v type="int" >        2        5        6       27       33 </v>
   <v type="int" >        2        6       12       33       34 </v>
   <v type="int" >        2        6       28       33       34 </v>
   <v type="int" >        2        6       27       28       33 </v>
   <v type="int" >        2        7       12       13       34 </v>
   <v type="int" >        2        6        7       12       34 </v>
   <v type="int" >        2        6        7       28       34 </v>
   <v type="int" >        2        7       13       34       35 </v>
   <v type="int" >        2        7       29       34       35 </v>
   <v type="int" >        2        7       28       29       34 </v>
   <v type="int" >        2        8       13       14       35 </v>
   <v type="int" >        2        7        8       13       35 </v>
   <v type="int" >        2        7        8       29       35 </v>
   <v type="int" >        2        8       14       35       36 </v>
   <v type="int" >        2        8       30       35       36 </v>
   <v type="int" >        2        8       29       30       35 </v>
   <v type="int" >        2        9       14       15       36 </v>
   <v type="int" >        2        8        9       14       36 </v>
   <v type="int" >        2        8        9       30       36 </v>
   <v type="int" >        2        9       15       36       37 </v>
   <v type="int" >        2        9       31       36       37 </v>
   <v type="int" >        2        9       30       31       36 </v>
   <v type="int" >        2       10       15       16       37 </v>
   <v type="int" >        2        9       10       15       37 </v>
   <v type="int" >        2        9       10       31       37 </v>
   <v type="int" >        2       10       16       37       38 </v>
   <v type="int" >        2       10       32       37       38 </v>
   <v type="int" >        2       10       31       32       37 </v>
   <v type="int" >        2        5       11       16       38 </v>
   <v type="int" >        2        5       10       16       38 </v>
   <v type="int" >        2        5       10       32       38 </v>
   <v type="int" >        2        5       11       33       38 </v>
   <v type="int" >        2        5       27       33       38 </v>
   <v type="int" >        2        5       27       32       38 </v>
   <v type="int" >        2       12       17       18       39 </v>
   <v type="int" >        2       11       12       17       39 </v>
   <v type="int" >        2       11       12       33       39 </v>
   <v type="int" >        2       12       18       39       40 </v>
   <v type="int" >        2       12       34       39       40 </v>
   <v type="int" >        2       12       33       34       39 </v>
   <v type="int" >        2       13       18       19       40 </v>
   <v type="int" >        2       12       13       18       40 </v>
   <v type="int" >        2       12       13       34       40 </v>
   <v type="int" >        2       13       19       40       41 </v>
   <v type="int" >        2       13       35       40       41 </v>
   <v type="int" >        2       13       34       35       40 </v>
   <v type="int" >        2       14       19       20       41 </v>
   <v type="int" >        2       13       14       19       41 </v>
   <v type="int" >        2       13       14       35       41 </v>
   <v type="int" >        2       14       20       41       42 </v>
   <v type="int" >        2       14       36       41       42 </v>
   <v type="int" >        2       14       35       36       41 </v>
   <v type="int" >        2       15       19       20       42 </v>
   <v type="int" >        2       14       15       20       42 </v>
   <v type="int" >        2       14       15       36       42 </v>
   <v type="int" >        2       15       19       42       43 </v>
   <v type="int" >        2       15       37       42       43 </v>
   <v type="int" >        2       15       36       37       42 </v>
   <v type="int" >        2       16       18       19       43 </v>
   <v type="int" >        2       15       16       19       43 </v>
   <v type="int" >        2       15       16       37       43 </v>
   <v type="int" >        2       16       18       43       44 </v>
   <v type="int" >        2       16       38       43       44 </v>
   <v type="int" >        2       16       37       38       43 </v>
   <v type="int" >        2       11       17       18       44 </v>
   <v type="int" >        2       11       16       18       44 </v>
   <v type="int" >        2       11       16       38       44 </v>
   <v type="int" >        2       11       17       39       44 </v>
   <v type="int" >        2       11       33       39       44 </v>
   <v type="int" >        2       11       33       38       44 </v>
   <v type="int" >        2       11       16       18       45 </v>
   <v type="int" >        2       11       17       18       45 </v>
   <v type="int" >        2       17       18       39       45 </v>
   <v type="int" >        2       16       18       45       46 </v>
   <v type="int" >        2       18       40       45       46 </v>
   <v type="int" >        2       18       39       40       45 </v>
   <v type="int" >        2       15       16       19       46 </v>
   <v type="int" >        2       16       18       19       46 </v>
   <v type="int" >        2       18       19       40       46 </v>
   <v type="int" >        2       15       19       46       47 </v>
   <v type="int" >        2       19       41       46       47 </v>
   <v type="int" >        2       19       40       41       46 </v>
   <v type="int" >        2       14       15       20       47 </v>
   <v type="int" >        2       15       19       20       47 </v>
   <v type="int" >        2       19       20       41       47 </v>
   <v type="int" >        2       14       20       47       48 </v>
   <v type="int" >        2       20       42       47       48 </v>
   <v type="int" >        2       20       41       42       47 </v>
   <v type="int" >        2       13       14       19       48 </v>
   <v type="int" >        2       14       19       20       48 </v>
   <v type="int" >        2       19       20       42       48 </v>
   <v type="int" >        2       13       19       48       49 </v>
   <v type="int" >        2       19       43       48       49 </v>
   <v type="int" >        2       19       42       43       48 </v>
   <v type="int" >        2       12       13       18       49 </v>
   <v type="int" >        2       13       18       19       49 </v>
   <v type="int" >        2       18       19       43       49 </v>
   <v type="int" >        2       12       18       49       50 </v>
   <v type="int" >        2       18       44       49       50 </v>
   <v type="int" >        2       18       43       44       49 </v>
   <v type="int" >        2       11       12       17       50 </v>
   <v type="int" >        2       12       17       18       50 </v>
   <v type="int" >        2       17       18       44       50 </v>
   <v type="int" >        2       11       17       45       50 </v>
   <v type="int" >        2       17       39       45       50 </v>
   <v type="int" >        2       17       39       44       50 </v>
   <v type="int" >        2        5       10       16       51 </v>
   <v type="int" >        2        5       11       16       51 </v>
   <v type="int" >        2       11       16       45       51 </v>
   <v type="int" >        2       10       16       51       52 </v>
   <v type="int" >        2       16       46       51       52 </v>
   <v type="int" >        2       16       45       46       51 </v>
   <v type="int" >        2        9       10       15       52 </v>
   <v type="int" >        2       10       15       16       52 </v>
   <v type="int" >        2       15       16       46       52 </v>
   <v type="int" >        2        9       15       52       53 </v>
   <v type="int" >        2       15       47       52       53 </v>
   <v type="int" >        2       15       46       47       52 </v>
   <v type="int" >        2        8        9       14       53 </v>
   <v type="int" >        2        9       14       15       53 </v>
   <v type="int" >        2       14       15       47       53 </v>
   <v type="int" >        2        8       14       53       54 </v>
   <v type="int" >        2       14       48       53       54 </v>
   <v type="int" >        2       14       47       48       53 </v>
   <v type="int" >        2        7        8       13       54 </v>
   <v type="int" >        2        8       13       14       54 </v>
   <v type="int" >        2       13       14       48       54 </v>
   <v type="int" >        2        7       13       54       55 </v>
   <v type="int" >        2       13       49       54       55 </v>
   <v type="int" >        2       13       48       49       54 </v>
   <v type="int" >        2        6        7       12       55 </v>
   <v type="int" >        2        7       12       13       55 </v>
   <v type="int" >        2       12       13       49       55 </v>
   <v type="int" >        2        6       12       55       56 </v>
   <v type="int" >        2       12       50       55       56 </v>
   <v type="int" >        2       12       49       50       55 </v>
   <v type="int" >        2        5        6       11       56 </v>
   <v type="int" >        2        6       11       12       56 </v>
   <v type="int" >        2       11       12       50       56 </v>
   <v type="int" >        2        5       11       51       56 </v>
   <v type="int" >        2       11       45       51       56 </v>
   <v type="int" >        2       11       45       50       56 </v>
   <v type="int" >        2        1        2       10       21 </v>
   <v type="int" >        2        1        5       10       21 </v>
   <v type="int" >        2        5       10       21       51 </v>
   <v type="int" >        2        2       10       21       22 </v>
   <v type="int" >        2       10       21       22       52 </v>
   <v type="int" >        2       10       21       51       52 </v>
   <v type="int" >        2        2        3        9       22 </v>
   <v type="int" >        2        2        9       10       22 </v>
   <v type="int" >        2        9       10       22       52 </v>
   <v type="int" >        2        3        9       22       23 </v>
   <v type="int" >        2        9       22       23       53 </v>
   <v type="int" >        2        9       22       52       53 </v>
   <v type="int" >        2        3        4        8       23 </v>
   <v type="int" >        2        3        8        9       23 </v>
   <v type="int" >        2        8        9       23       53 </v>
   <v type="int" >        2        4        8       23       24 </v>
   <v type="int" >        2        8       23       24       54 </v>
   <v type="int" >        2        8       23       53       54 </v>
   <v type="int" >        2        3        4        7       24 </v>
   <v type="int" >        2        4        7        8       24 </v>
   <v type="int" >        2        7        8       24       54 </v>
   <v type="int" >        2        3        7       24       25 </v>
   <v type="int" >        2        7       24       25       55 </v>
   <v type="int" >        2        7       24       54       55 </v>
   <v type="int" >        2        2        3        6       25 </v>
   <v type="int" >        2        3        6        7       25 </v>
   <v type="int" >        2        6        7       25       55 </v>
   <v type="int" >        2        2        6       25       26 </v>
   <v type="int" >        2        6       25       26       56 </v>
   <v type="int" >        2        6       25       55       56 </v>
   <v type="int" >        2        1        2        5       26 </v>
   <v type="int" >        2        2        5        6       26 </v>
   <v type="int" >        2        5        6       26       56 </v>
   <v type="int" >        2        1        5       21       26 </v>
   <v type="int" >        2        5       21       26       51 </v>
   <v type="int" >        2        5       26       51       56 </v>
   <v type="int" >        2       22       27       28       63 </v>
   <v type="int" >        2       21       22       27       63 </v>
   <v type="int" >        2       21       22       57       63 </v>
   <v type="int" >        2       22       28       63       64 </v>
   <v type="int" >        2       22       58       63       64 </v>
   <v type="int" >        2       22       57       58       63 </v>
   <v type="int" >        2       23       28       29       64 </v>
   <v type="int" >        2       22       23       28       64 </v>
   <v type="int" >        2       22       23       58       64 </v>
   <v type="int" >        2       23       29       64       65 </v>
   <v type="int" >        2       23       59       64       65 </v>
   <v type="int" >        2       23       58       59       64 </v>
   <v type="int" >        2       24       29       30       65 </v>
   <v type="int" >        2       23       24       29       65 </v>
   <v type="int" >        2       23       24       59       65 </v>
   <v type="int" >        2       24       30       65       66 </v>
   <v type="int" >        2       24       60       65       66 </v>
   <v type="int" >        2       24       59       60       65 </v>
   <v type="int" >        2       25       30       31       66 </v>
   <v type="int" >        2       24       25       30       66 </v>
   <v type="int" >        2       24       25       60       66 </v>
   <v type="int" >        2       25       31       66       67 </v>
   <v type="int" >        2       25       61       66       67 </v>
   <v type="int" >        2       25       60       61       66 </v>
   <v type="int" >        2       26       31       32       67 </v>
   <v type="int" >        2       25       26       31       67 </v>
   <v type="int" >        2       25       26       61       67 </v>
   <v type="int" >        2       26       32       67       68 </v>
   <v type="int" >        2       26       62       67       68 </v>
   <v type="int" >        2       26       61       62       67 </v>
   <v type="int" >        2       21       27       32       68 </v>
   <v type="int" >        2       21       26       32       68 </v>
   <v type="int" >        2       21       26       62       68 </v>
   <v type="int" >        2       21       27       63       68 </v>
   <v type="int" >        2       21       57       63       68 </v>
   <v type="int" >        2       21       57       62       68 </v>
   <v type="int" >        2       28       33       34       69 </v>
   <v type="int" >        2       27       28       33       69 </v>
   <v type="int" >        2       27       28       63       69 </v>
   <v type="int" >        2       28       34       69       70 </v>
   <v type="int" >        2       28       64       69       70 </v>
   <v type="int" >        2       28       63       64       69 </v>
   <v type="int" >        2       29       34       35       70 </v>
   <v type="int" >        2       28       29       34       70 </v>
   <v type="int" >        2       28       29       64       70 </v>
   <v type="int" >        2       29       35       70       71 </v>
   <v type="int" >        2       29       65       70       71 </v>
   <v type="int" >        2       29       64       65       70 </v>
   <v type="int" >        2       30       35       36       71 </v>
   <v type="int" >        2       29       30       35       71 </v>
   <v type="int" >        2       29       30       65       71 </v>
   <v type="int" >        2       30       36       71       72 </v>
   <v type="int" >        2       30       66       71       72 </v>
   <v type="int" >        2       30       65       66       71 </v>
   <v type="int" >        2       31       36       37       72 </v>
   <v type="int" >        2       30       31       36       72 </v>
   <v type="int" >        2       30       31       66       72 </v>
   <v type="int" >        2       31       37       72       73 </v>
   <v type="int" >        2       31       67       72       73 </v>
   <v type="int" >        2       31       66       67       72 </v>
   <v type="int" >        2       32       37       38       73 </v>
   <v type="int" >        2       31       32       37       73 </v>
   <v type="int" >        2       31       32       67       73 </v>
   <v type="int" >        2       32       38       73       74 </v>
   <v type="int" >        2       32       68       73       74 </v>
   <v type="int" >        2       32       67       68       73 </v>
   <v type="int" >        2       27       33       38       74 </v>
   <v type="int" >        2       27       32       38       74 </v>
   <v type="int" >        2       27       32       68       74 </v>
   <v type="int" >        2       27       33       69       74 </v>
   <v type="int" >        2       27       63       69       74 </v>
   <v type="int" >        2       27       63       68       74 </v>
   <v type="int" >        2       34       39       40       75 </v>
   <v type="int" >        2       33       34       39       75 </v>
   <v type="int" >        2       33       34       69       75 </v>
   <v type="int" >        2       34       40       75       76 </v>
   <v type="int" >        2       34       70       75       76 </v>
   <v type="int" >        2       34       69       70       75 </v>
   <v type="int" >        2       35       40       41       76 </v>
   <v type="int" >        2       34       35       40       76 </v>
   <v type="int" >        2       34       35       70       76 </v>
   <v type="int" >        2       35       41       76       77 </v>
   <v type="int" >        2       35       71       76       77 </v>
   <v type="int" >        2       35       70       71       76 </v>
   <v type="int" >        2       36       41       42       77 </v>
   <v type="int" >        2       35       36       41       77 </v>
   <v type="int" >        2       35       36       71       77 </v>
   <v type="int" >        2       36       42       77       78 </v>
   <v type="int" >        2       36       72       77       78 </v>
   <v type="int" >        2       36       71       72       77 </v>
   <v type="int" >        2       37       42       43       78 </v>
   <v type="int" >        2       36       37       42       78 </v>
   <v type="int" >        2       36       37       72       78 </v>
   <v type="int" >        2       37       43       78       79 </v>
   <v type="int" >        2       37       73       78       79 </v>
   <v type="int" >        2       37       72       73       78 </v>
   <v type="int" >        2       38       43       44       79 </v>
   <v type="int" >        2       37       38       43       79 </v>
   <v type="int" >        2       37       38       73       79 </v>
   <v type="int" >        2       38       44       79       80 </v>
   <v type="int" >        2       38       74       79       80 </v>
   <v type="int" >        2       38       73       74       79 </v>
   <v type="int" >        2       33       39       44       80 </v>
   <v type="int" >        2       33       38       44       80 </v>
   <v type="int" >        2       33       38       74       80 </v>
   <v type="int" >        2       33       39       75       80 </v>
   <v type="int" >        2       33       69       75       80 </v>
   <v type="int" >        2       33       69       74       80 </v>
   <v type="int" >        2       40       45       46       81 </v>
   <v type="int" >        2       39       40       45       81 </v>
   <v type="int" >        2       39       40       75       81 </v>
   <v type="int" >        2       40       46       81       82 </v>
   <v type="int" >        2       40       76       81       82 </v>
   <v type="int" >        2       40       75       76       81 </v>
   <v type="int" >        2       41       46       47       82 </v>
   <v type="int" >        2       40       41       46       82 </v>
   <v type="int" >        2       40       41       76       82 </v>
   <v type="int" >        2       41       47       82       83 </v>
   <v type="int" >        2       41       77       82       83 </v>
   <v type="int" >        2       41       76       77       82 </v>
   <v type="int" >        2       42       47       48       83 </v>
   <v type="int" >        2       41       42       47       83 </v>
   <v type="int" >        2       41       42       77       83 </v>
   <v type="int" >        2       42       48       83       84 </v>
   <v type="int" >        2       42       78       83       84 </v>
   <v type="int" >        2       42       77       78       83 </v>
   <v type="int" >        2       43       48       49       84 </v>
   <v type="int" >        2       42       43       48       84 </v>
   <v type="int" >        2       42       43       78       84 </v>
   <v type="int" >        2       43       49       84       85 </v>
   <v type="int" >        2       43       79       84       85 </v>
   <v type="int" >        2       43       78       79       84 </v>
   <v type="int" >        2       44       49       50       85 </v>
   <v type="int" >        2       43       44       49       85 </v>
   <v type="int" >        2       43       44       79       85 </v>
   <v type="int" >        2       44       50       85       86 </v>
   <v type="int" >        2       44       80       85       86 </v>
   <v type="int" >        2       44       79       80       85 </v>
   <v type="int" >        2       39       45       50       86 </v>
   <v type="int" >        2       39       44       50       86 </v>
   <v type="int" >        2       39       44       80       86 </v>
   <v type="int" >        2       39       45       81       86 </v>
   <v type="int" >        2       39       75       81       86 </v>
   <v type="int" >        2       39       75       80       86 </v>
   <v type="int" >        2       46       51       52       87 </v>
   <v type="int" >        2       45       46       51       87 </v>
   <v type="int" >        2       45       46       81       87 </v>
   <v type="int" >        2       46       52       87       88 </v>
   <v type="int" >        2       46       82       87       88 </v>
   <v type="int" >        2       46       81       82       87 </v>
   <v type="int" >        2       47       52       53       88 </v>
   <v type="int" >        2       46       47       52       88 </v>
   <v type="int" >        2       46       47       82       88 </v>
   <v type="int" >        2       47       53       88       89 </v>
   <v type="int" >        2       47       83       88       89 </v>
   <v type="int" >        2       47       82       83       88 </v>
   <v type="int" >        2       48       53       54       89 </v>
   <v type="int" >        2       47       48       53       89 </v>
   <v type="int" >        2       47       48       83       89 </v>
   <v type="int" >        2       48       54       89       90 </v>
   <v type="int" >        2       48       84       89       90 </v>
   <v type="int" >        2       48       83       84       89 </v>
   <v type="int" >        2       49       54       55       90 </v>
   <v type="int" >        2       48       49       54       90 </v>
   <v type="int" >        2       48       49       84       90 </v>
   <v type="int" >        2       49       55       90       91 </v>
   <v type="int" >        2       49       85       90       91 </v>
   <v type="int" >        2       49       84       85       90 </v>
   <v type="int" >        2       50       55       56       91 </v>
   <v type="int" >        2       49       50       55       91 </v>
   <v type="int" >        2       49       50       85       91 </v>
   <v type="int" >        2       50       56       91       92 </v>
   <v type="int" >        2       50       86       91       92 </v>
   <v type="int" >        2       50       85       86       91 </v>
   <v type="int" >        2       45       51       56       92 </v>
   <v type="int" >        2       45       50       56       92 </v>
   <v type="int" >        2       45       50       86       92 </v>
   <v type="int" >        2       45       51       87       92 </v>
   <v type="int" >        2       45       81       87       92 </v>
   <v type="int" >        2       45       81       86       92 </v>
   <v type="int" >        2       21       22       52       57 </v>
   <v type="int" >        2       21       51       52       57 </v>
   <v type="int" >        2       51       52       57       87 </v>
   <v type="int" >        2       22       52       57       58 </v>
   <v type="int" >        2       52       57       58       88 </v>
   <v type="int" >        2       52       57       87       88 </v>
   <v type="int" >        2       22       23       53       58 </v>
   <v type="int" >        2       22       52       53       58 </v>
   <v type="int" >        2       52       53       58       88 </v>
   <v type="int" >        2       23       53       58       59 </v>
   <v type="int" >        2       53       58       59       89 </v>
   <v type="int" >        2       53       58       88       89 </v>
   <v type="int" >        2       23       24       54       59 </v>
   <v type="int" >        2       23       53       54       59 </v>
   <v type="int" >        2       53       54       59       89 </v>
   <v type="int" >        2       24       54       59       60 </v>
   <v type="int" >        2       54       59       60       90 </v>
   <v type="int" >        2       54       59       89       90 </v>
   <v type="int" >        2       24       25       55       60 </v>
   <v type="int" >        2       24       54       55       60 </v>
   <v type="int" >        2       54       55       60       90 </v>
   <v type="int" >        2       25       55       60       61 </v>
   <v type="int" >        2       55       60       61       91 </v>
   <v type="int" >        2       55       60       90       91 </v>
   <v type="int" >        2       25       26       56       61 </v>
   <v type="int" >        2       25       55       56       61 </v>
   <v type="int" >        2       55       56       61       91 </v>
   <v type="int" >        2       26       56       61       62 </v>
   <v type="int" >        2       56       61       62       92 </v>
   <v type="int" >        2       56       61       91       92 </v>
   <v type="int" >        2       21       26       51       62 </v>
   <v type="int" >        2       26       51       56       62 </v>
   <v type="int" >        2       51       56       62       92 </v>
   <v type="int" >        2       21       51       57       62 </v>
   <v type="int" >        2       51       57       62       87 </v>
   <v type="int" >        2       51       62       87       92 </v>
   <v type="int" >        2       58       63       64       87 </v>
   <v type="int" >        2       57       58       63       87 </v>
   <v type="int" >        2       57       57       58       87 </v>
   <v type="int" >        2       58       64       87       92 </v>
   <v type="int" >        2       58       62       87       92 </v>
   <v type="int" >        2       57       58       62       87 </v>
   <v type="int" >        2       59       64       65       92 </v>
   <v type="int" >        2       58       59       64       92 </v>
   <v type="int" >        2       58       59       62       92 </v>
   <v type="int" >        2       59       65       91       92 </v>
   <v type="int" >        2       59       61       91       92 </v>
   <v type="int" >        2       59       61       62       92 </v>
   <v type="int" >        2       60       65       66       91 </v>
   <v type="int" >        2       59       60       65       91 </v>
   <v type="int" >        2       59       60       61       91 </v>
   <v type="int" >        2       60       66       90       91 </v>
   <v type="int" >        2       60       60       90       91 </v>
   <v type="int" >        2       60       60       61       91 </v>
   <v type="int" >        2       61       66       67       90 </v>
   <v type="int" >        2       60       61       66       90 </v>
   <v type="int" >        2       60       60       61       90 </v>
   <v type="int" >        2       61       67       89       90 </v>
   <v type="int" >        2       59       61       89       90 </v>
   <v type="int" >        2       59       60       61       90 </v>
   <v type="int" >        2       62       67       68       89 </v>
   <v type="int" >        2       61       62       67       89 </v>
   <v type="int" >        2       59       61       62       89 </v>
   <v type="int" >        2       62       68       88       89 </v>
   <v type="int" >        2       58       62       88       89 </v>
   <v type="int" >        2       58       59       62       89 </v>
   <v type="int" >        2       57       63       68       88 </v>
   <v type="int" >        2       57       62       68       88 </v>
   <v type="int" >        2       57       58       62       88 </v>
   <v type="int" >        2       57       63       87       88 </v>
   <v type="int" >        2       57       57       87       88 </v>
   <v type="int" >        2       57       57       58       88 </v>
   <v type="int" >        2       64       69       70       81 </v>
   <v type="int" >        2       63       64       69       81 </v>
   <v type="int" >        2       63       64       81       87 </v>
   <v type="int" >        2       64       70       81       86 </v>
   <v type="int" >        2       64       81       86       92 </v>
   <v type="int" >        2       64       81       87       92 </v>
   <v type="int" >        2       65       70       71       86 </v>
   <v type="int" >        2       64       65       70       86 </v>
   <v type="int" >        2       64       65       86       92 </v>
   <v type="int" >        2       65       71       85       86 </v>
   <v type="int" >        2       65       85       86       91 </v>
   <v type="int" >        2       65       86       91       92 </v>
   <v type="int" >        2       66       71       72       85 </v>
   <v type="int" >        2       65       66       71       85 </v>
   <v type="int" >        2       65       66       85       91 </v>
   <v type="int" >        2       66       72       84       85 </v>
   <v type="int" >        2       66       84       85       90 </v>
   <v type="int" >        2       66       85       90       91 </v>
   <v type="int" >        2       67       72       73       84 </v>
   <v type="int" >        2       66       67       72       84 </v>
   <v type="int" >        2       66       67       84       90 </v>
   <v type="int" >        2       67       73       83       84 </v>
   <v type="int" >        2       67       83       84       89 </v>
   <v type="int" >        2       67       84       89       90 </v>
   <v type="int" >        2       68       73       74       83 </v>
   <v type="int" >        2       67       68       73       83 </v>
   <v type="int" >        2       67       68       83       89 </v>
   <v type="int" >        2       68       74       82       83 </v>
   <v type="int" >        2       68       82       83       88 </v>
   <v type="int" >        2       68       83       88       89 </v>
   <v type="int" >        2       63       69       74       82 </v>
   <v type="int" >        2       63       68       74       82 </v>
   <v type="int" >        2       63       68       82       88 </v>
   <v type="int" >        2       63       69       81       82 </v>
   <v type="int" >        2       63       81       82       87 </v>
   <v type="int" >        2       63       82       87       88 </v>
   <v type="int" >        2       70       75       75       76 </v>
   <v type="int" >        2       69       70       75       75 </v>
   <v type="int" >        2       69       70       75       81 </v>
   <v type="int" >        2       70       75       76       80 </v>
   <v type="int" >        2       70       75       80       86 </v>
   <v type="int" >        2       70       75       81       86 </v>
   <v type="int" >        2       71       76       77       80 </v>
   <v type="int" >        2       70       71       76       80 </v>
   <v type="int" >        2       70       71       80       86 </v>
   <v type="int" >        2       71       77       79       80 </v>
   <v type="int" >        2       71       79       80       85 </v>
   <v type="int" >        2       71       80       85       86 </v>
   <v type="int" >        2       72       77       78       79 </v>
   <v type="int" >        2       71       72       77       79 </v>
   <v type="int" >        2       71       72       79       85 </v>
   <v type="int" >        2       72       78       78       79 </v>
   <v type="int" >        2       72       78       79       84 </v>
   <v type="int" >        2       72       79       84       85 </v>
   <v type="int" >        2       73       78       78       79 </v>
   <v type="int" >        2       72       73       78       78 </v>
   <v type="int" >        2       72       73       78       84 </v>
   <v type="int" >        2       73       77       78       79 </v>
   <v type="int" >        2       73       77       78       83 </v>
   <v type="int" >        2       73       78       83       84 </v>
   <v type="int" >        2       74       77       79       80 </v>
   <v type="int" >        2       73       74       77       79 </v>
   <v type="int" >        2       73       74       77       83 </v>
   <v type="int" >        2       74       76       77       80 </v>
   <v type="int" >        2       74       76       77       82 </v>
   <v type="int" >        2       74       77       82       83 </v>
   <v type="int" >        2       69       75       76       80 </v>
   <v type="int" >        2       69       74       76       80 </v>
   <v type="int" >        2       69       74       76       82 </v>
   <v type="int" >        2       69       75       75       76 </v>
   <v type="int" >        2       69       75       76       81 </v>
   <v type="int" >        2       69       76       81       82 </v>
  </varray>
  <i name="volumeweight">      0.00092593 </i>
 </kpoints>
 <parameters>
  <separator name="general" >
   <i type="string" name="SYSTEM">unknown system</i>
   <i type="logical" name="LCOMPAT"> F  </i>
  </separator>
  <separator name="electronic" >
   <i type="string" name="PREC">normal</i>
   <i name="ENMAX">    400.00000000</i>
   <i name="ENAUG">    605.39200000</i>
   <i name="EDIFF">      0.00001000</i>
   <i type="int" name="IALGO">    68</i>
   <i type="int" name="IWAVPR">    10</i>
   <i type="int" name="NBANDS">    29</i>
   <i name="NELECT">     48.00000000</i>
   <i type="int" name="TURBO">     0</i>
   <i type="int" name="IRESTART">     0</i>
   <i type="int" name="NREBOOT">     0</i>
   <i type="int" name="NMIN">     0</i>
   <i name="EREF">      0.00000000</i>
   <separator name="electronic smearing" >
    <i type="int" name="ISMEAR">    -5</i>
    <i name="SIGMA">      0.20000000</i>
    <i name="KSPACING">      0.50000000</i>
    <i type="logical" name="KGAMMA"> T  </i>
   </separator>
   <separator name="electronic projectors" >
    <i type="logical" name="LREAL"> T  </i>
    <v name="ROPT">     -0.00050000     -0.00050000</v>
    <i type="int" name="LMAXPAW">  -100</i>
    <i type="int" name="LMAXMIX">     2</i>
    <i type="logical" name="NLSPLINE"> F  </i>
   </separator>
   <separator name="electronic startup" >
    <i type="int" name="ISTART">     0</i>
    <i type="int" name="ICHARG">     2</i>
    <i type="int" name="INIWAV">     1</i>
   </separator>
   <separator name="electronic spin" >
    <i type="int" name="ISPIN">     1</i>
    <i type="logical" name="LNONCOLLINEAR"> F  </i>
    <v name="MAGMOM">      1.00000000      1.00000000      1.00000000      1.00000000      1.00000000      1.00000000      1.00000000      1.00000000      1.00000000</v>
    <i name="NUPDOWN">     -1.00000000</i>
    <i type="logical" name="LSORBIT"> F  </i>
    <v name="SAXIS">      0.00000000      0.00000000      1.00000000</v>
    <i type="logical" name="LSPIRAL"> F  </i>
    <v name="QSPIRAL">      0.00000000      0.00000000      0.00000000</v>
    <i type="logical" name="LZEROZ"> F  </i>
   </separator>
   <separator name="electronic exchange-correlation" >
    <i type="logical" name="LASPH"> F  </i>
    <i type="logical" name="LMETAGGA"> F  </i>
   </separator>
   <separator name="electronic convergence" >
    <i type="int" name="NELM">    60</i>
    <i type="int" name="NELMDL">    -5</i>
    <i type="int" name="NELMIN">     4</i>
    <i name="ENINI">    400.00000000</i>
    <separator name="electronic convergence detail" >
     <i type="logical" name="LDIAG"> T  </i>
     <i type="logical" name="LSUBROT"> F  </i>
     <i name="WEIMIN">      0.00000000</i>
     <i name="EBREAK">      0.00000009</i>
     <i name="DEPER">      0.30000000</i>
     <i type="int" name="NRMM">     4</i>
     <i name="TIME">      0.40000000</i>
    </separator>
   </separator>
   <separator name="electronic mixer" >
    <i name="AMIX">      0.40000000</i>
    <i name="BMIX">      1.00000000</i>
    <i name="AMIN">      0.10000000</i>
    <i name="AMIX_MAG">      1.60000000</i>
    <i name="BMIX_MAG">      1.00000000</i>
    <separator name="electronic mixer details" >
     <i type="int" name="IMIX">     4</i>
     <i type="logical" name="MIXFIRST"> F  </i>
     <i type="int" name="MAXMIX">   -45</i>
     <i name="WC">    100.00000000</i>
     <i type="int" name="INIMIX">     1</i>
     <i type="int" name="MIXPRE">     1</i>
     <i type="int" name="MREMOVE">     5</i>
    </separator>
   </separator>
   <separator name="electronic dipolcorrection" >
    <i type="logical" name="LDIPOL"> F  </i>
    <i type="logical" name="LMONO"> F  </i>
    <i type="int" name="IDIPOL">     0</i>
    <i name="EPSILON">      1.00000000</i>
    <v name="DIPOL">   -100.00000000   -100.00000000   -100.00000000</v>
    <i name="EFIELD">      0.00000000</i>
   </separator>
  </separator>
  <separator name="grids" >
   <i type="int" name="NGX">    24</i>
   <i type="int" name="NGY">    24</i>
   <i type="int" name="NGZ">    28</i>
   <i type="int" name="NGXF">    48</i>
   <i type="int" name="NGYF">    48</i>
   <i type="int" name="NGZF">    56</i>
   <i type="logical" name="ADDGRID"> F  </i>
  </separator>
  <separator name="ionic" >
   <i type="int" name="NSW">     0</i>
   <i type="int" name="IBRION">    -1</i>
   <i type="int" name="ISIF">     2</i>
   <i name="PSTRESS">      0.00000000</i>
   <i name="EDIFFG">      0.00010000</i>
   <i type="int" name="NFREE">     0</i>
   <i name="POTIM">      0.50000000</i>
   <i name="SMASS">     -3.00000000</i>
   <i name="SCALEE">      1.00000000</i>
  </separator>
  <separator name="ionic md" >
   <i name="TEBEG">      0.00010000</i>
   <i name="TEEND">      0.00010000</i>
   <i type="int" name="NBLOCK">     1</i>
   <i type="int" name="KBLOCK">     1</i>
   <i type="int" name="NPACO">   256</i>
   <i name="APACO">     16.00000000</i>
  </separator>
  <separator name="symmetry" >
   <i type="int" name="ISYM">     2</i>
   <i name="SYMPREC">      0.00001000</i>
  </separator>
  <separator name="dos" >
   <i type="logical" name="LORBIT"> F  </i>
   <v name="RWIGS">     -1.00000000     -1.00000000</v>
   <i type="int" name="NEDOS">   301</i>
   <i name="EMIN">     10.00000000</i>
   <i name="EMAX">    -10.00000000</i>
   <i name="EFERMI">      0.00000000</i>
  </separator>
  <separator name="writing" >
   <i type="int" name="NWRITE">     2</i>
   <i type="logical" name="LWAVE"> F  </i>
   <i type="logical" name="LCHARG"> T  </i>
   <i type="logical" name="LPARD"> F  </i>
   <i type="logical" name="LVTOT"> F  </i>
   <i type="logical" name="LVHAR"> F  </i>
   <i type="logical" name="LELF"> F  </i>
   <i type="logical" name="LOPTICS"> F  </i>
   <v name="STM">      0.00000000      0.00000000      0.00000000      0.00000000      0.00000000      0.00000000      0.00000000</v>
  </separator>
  <separator name="performance" >
   <i type="int" name="NPAR">     1</i>
   <i type="int" name="NSIM">     4</i>
   <i type="int" name="NBLK">    -1</i>
   <i type="logical" name="LPLANE"> T  </i>
   <i type="logical" name="LSCALAPACK"> F  </i>
   <i type="logical" name="LSCAAWARE"> F  </i>
   <i type="logical" name="LSCALU"> F  </i>
   <i type="logical" name="LASYNC"> F  </i>
   <i type="logical" name="LORBITALREAL"> F  </i>
  </separator>
  <separator name="miscellaneous" >
   <i type="int" name="IDIOT">     3</i>
   <i type="logical" name="LMUSIC"> F  </i>
   <v name="POMASS">     28.08500000     16.00000000</v>
   <v name="DARWINR">      0.00000000      0.00000000</v>
   <v name="DARWINV">      1.00000000      1.00000000</v>
   <i type="logical" name="LCORR"> T  </i>
  </separator>
  <i type="logical" name="GGA_COMPAT"> T  </i>
  <i type="logical" name="LBERRY"> F  </i>
  <i type="int" name="ICORELEVEL">     0</i>
  <i type="logical" name="LDAU"> F  </i>
  <i type="int" name="I_CONSTRAINED_M">     0</i>
  <separator name="electronic exchange-correlation" >
   <i type="string" name="GGA">--</i>
   <i type="int" name="VOSKOWN">     0</i>
   <i type="logical" name="LHFCALC"> F  </i>
   <i type="string" name="PRECFOCK"></i>
   <i type="logical" name="LSYMGRAD"> F  </i>
   <i type="logical" name="LHFONE"> F  </i>
   <i type="logical" name="LRHFCALC"> F  </i>
   <i type="logical" name="LTHOMAS"> F  </i>
   <i type="logical" name="LMODELHF"> F  </i>
   <i name="ENCUT4O">     -1.00000000</i>
   <i type="int" name="EXXOEP">     0</i>
   <i type="int" name="FOURORBIT">     0</i>
   <i name="AEXX">      0.00000000</i>
   <i name="HFALPHA">      0.00000000</i>
   <i name="MCALPHA">      0.00000000</i>
   <i name="ALDAX">      1.00000000</i>
   <i name="AGGAX">      1.00000000</i>
   <i name="ALDAC">      1.00000000</i>
   <i name="AGGAC">      1.00000000</i>
   <i type="int" name="NKREDX">     1</i>
   <i type="int" name="NKREDY">     1</i>
   <i type="int" name="NKREDZ">     1</i>
   <i type="logical" name="SHIFTRED"> F  </i>
   <i type="logical" name="ODDONLY"> F  </i>
   <i type="logical" name="EVENONLY"> F  </i>
   <i type="int" name="LMAXFOCK">     0</i>
   <i type="int" name="NMAXFOCKAE">     0</i>
   <i type="logical" name="LFOCKAEDFT"> F  </i>
   <i name="HFSCREEN">      0.00000000</i>
   <i name="HFSCREENC">      0.00000000</i>
   <i type="int" name="NBANDSGWLOW">     0</i>
  </separator>
  <separator name="vdW DFT" >
   <i type="logical" name="LUSE_VDW"> F  </i>
   <i name="Zab_VDW">     -0.84910000</i>
   <i name="PARAM1">      0.12340000</i>
   <i name="PARAM2">      1.00000000</i>
   <i name="PARAM3">      0.00000000</i>
  </separator>
  <separator name="model GW" >
   <i type="int" name="MODEL_GW">     0</i>
   <i name="MODEL_EPS0">      7.53464495</i>
   <i name="MODEL_ALPHA">      1.00000000</i>
  </separator>
  <separator name="linear response parameters" >
   <i type="logical" name="LEPSILON"> F  </i>
   <i type="logical" name="LRPA"> F  </i>
   <i type="logical" name="LNABLA"> F  </i>
   <i type="logical" name="LVEL"> F  </i>
   <i type="int" name="KINTER">     0</i>
   <i name="CSHIFT">      0.10000000</i>
   <i name="OMEGAMAX">     -1.00000000</i>
   <i name="DEG_THRESHOLD">      0.00200000</i>
  </separator>
  <separator name="orbital magnetization" >
   <i type="logical" name="NUCIND"> F  </i>
   <v name="MAGPOS">      0.00000000      0.00000000      0.00000000</v>
   <i type="logical" name="LNICSALL"> T  </i>
   <i type="logical" name="ORBITALMAG"> F  </i>
   <i type="logical" name="LMAGBLOCH"> F  </i>
   <i type="logical" name="LCHIMAG"> F  </i>
   <i type="logical" name="LGAUGE"> T  </i>
   <i type="int" name="MAGATOM">     0</i>
   <v name="MAGDIPOL">      0.00000000      0.00000000      0.00000000</v>
   <v name="AVECCONST">      0.00000000      0.00000000      0.00000000</v>
  </separator>
  <separator name="response functions" >
   <i type="logical" name="LADDER"> F  </i>
   <i type="logical" name="LFXC"> F  </i>
   <i type="logical" name="LHARTREE"> T  </i>
   <i type="int" name="IBSE">     0</i>
   <v type="int" name="KPOINT">    -1     0     0     0</v>
   <i type="logical" name="LTCTE"> F  </i>
   <i type="logical" name="LTETE"> F  </i>
   <i type="logical" name="LTRIPLET"> F  </i>
   <i type="logical" name="LFXCEPS"> F  </i>
   <i type="logical" name="LFXHEG"> F  </i>
   <i type="int" name="NATURALO">     0</i>
   <i type="logical" name="L2ORDER"> F  </i>
   <i type="logical" name="LUSEW"> F  </i>
   <i name="ENCUTGW">     -2.00000000</i>
   <i name="ENCUTGWSOFT">     -2.00000000</i>
   <i name="ENCUTLF">     -1.00000000</i>
   <i type="int" name="LMAXMP2">    -1</i>
   <i name="SCISSOR">      0.00000000</i>
   <i type="int" name="NOMEGA">     0</i>
   <i type="int" name="NOMEGAR">     0</i>
   <i type="int" name="NBANDSGW">    -1</i>
   <i type="int" name="NBANDSO">    -1</i>
   <i type="int" name="NBANDSV">    -1</i>
   <i type="int" name="NELM">     1</i>
   <i type="int" name="NELMHF">     1</i>
   <i type="int" name="DIM">     3</i>
   <i type="int" name="ANTIRES">     0</i>
   <i name="OMEGAMAX">    -30.00000000</i>
   <i name="OMEGAMIN">    -30.00000000</i>
   <i name="OMEGATL">   -200.00000000</i>
   <i type="int" name="OMEGAGRID">     0</i>
   <i name="CSHIFT">     -0.10000000</i>
   <i type="logical" name="SELFENERGY"> F  </i>
   <i type="logical" name="LSPECTRAL"> F  </i>
   <i type="logical" name="LSPECTRALGW"> F  </i>
   <i type="logical" name="LSINGLES"> F  </i>
   <i type="logical" name="LFERMIGW"> F  </i>
   <i type="logical" name="ODDONLYGW"> F  </i>
   <i type="logical" name="EVENONLYGW"> F  </i>
   <i type="int" name="NKREDLFX">     1</i>
   <i type="int" name="NKREDLFY">     1</i>
   <i type="int" name="NKREDLFZ">     1</i>
   <i type="int" name="MAXMEM">  1800</i>
   <i type="int" name="TELESCOPE">     0</i>
   <i type="int" name="TAUPAR">     1</i>
   <i type="int" name="OMEGAPAR">    -1</i>
   <i name="LAMBDA">      1.00000000</i>
  </separator>
  <separator name="External order field" >
   <i name="OFIELD_KAPPA">      0.00000000</i>
   <v name="OFIELD_K">      0.00000000      0.00000000      0.00000000</v>
   <i name="OFIELD_Q6_NEAR">      0.00000000</i>
   <i name="OFIELD_Q6_FAR">      0.00000000</i>
   <i name="OFIELD_A">      0.00000000</i>
  </separator>
 </parameters>
 <atominfo>
  <atoms>       9 </atoms>
  <types>       2 </types>
  <array name="atoms" >
   <dimension dim="1">ion</dimension>
   <field type="string">element</field>
   <field type="int">atomtype</field>
   <set>
    <rc><c>Si</c><c>   1</c></rc>
    <rc><c>Si</c><c>   1</c></rc>
    <rc><c>Si</c><c>   1</c></rc>
    <rc><c>O </c><c>   2</c></rc>
    <rc><c>O </c><c>   2</c></rc>
    <rc><c>O </c><c>   2</c></rc>
    <rc><c>O </c><c>   2</c></rc>
    <rc><c>O </c><c>   2</c></rc>
    <rc><c>O </c><c>   2</c></rc>
   </set>
  </array>
  <array name="atomtypes" >
   <dimension dim="1">type</dimension>
   <field type="int">atomspertype</field>
   <field type="string">element</field>
   <field>mass</field>
   <field>valence</field>
   <field type="string">pseudopotential</field>
   <set>
    <rc><c>   3</c><c>Si</c><c>     28.08500000</c><c>      4.00000000</c><c> PAW_PBE Si 05Jan2001                   </c></rc>
    <rc><c>   6</c><c>O </c><c>     16.00000000</c><c>      6.00000000</c><c> PAW_PBE O 08Apr2002                    </c></rc>
   </set>
  </array>
 </atominfo>
 <structure name="initialpos" >
  <crystal>
   <varray name="basis" >
    <v>       4.91370000       0.00000000       0.00000000 </v>
    <v>      -2.45685000       4.25538903       0.00000000 </v>
    <v>       0.00000000       0.00000000       5.40513000 </v>
   </varray>
   <i name="volume">    113.01967420 </i>
   <varray name="rec_basis" >
    <v>       0.20351263       0.11749807       0.00000000 </v>
    <v>       0.00000000       0.23499614       0.00000000 </v>
    <v>       0.00000000       0.00000000       0.18500943 </v>
   </varray>
  </crystal>
  <varray name="positions" >
   <v>       0.46980000       0.02000000       0.66667000 </v>
   <v>       0.00000000       0.46980000       0.33333000 </v>
   <v>       0.53020000       0.53020000       0.00000000 </v>
   <v>       0.41450000       0.26620000       0.78560000 </v>
   <v>       0.73380000       0.14830000       0.45227000 </v>
   <v>       0.85170000       0.58550000       0.11893000 </v>
   <v>       0.14830000       0.73380000       0.54773000 </v>
   <v>       0.26620000       0.41450000       0.21440000 </v>
   <v>       0.58550000       0.85170000       0.88107000 </v>
  </varray>
 </structure>
 <calculation>
  <scstep>
   <time name="dav">    6.86    6.86</time>
   <time name="total">    6.97    7.12</time>
   <energy>
    <i name="alphaZ">     69.72802778 </i>
    <i name="ewald">  -1886.62880430 </i>
    <i name="hartreedc">   -937.03789541 </i>
    <i name="XCdc">    142.00811384 </i>
    <i name="pawpsdc">   1574.92322788 </i>
    <i name="pawaedc">  -1533.24131965 </i>
    <i name="eentropy">      0.00000000 </i>
    <i name="bandstr">    -61.51529074 </i>
    <i name="atom">   2902.77641490 </i>
    <i name="e_fr_energy">    271.01247430 </i>
    <i name="e_wo_entrp">    271.01247430 </i>
    <i name="e_0_energy">    271.01247430 </i>
   </energy>
  </scstep>
  <scstep>
   <time name="dav">    8.42    8.42</time>
   <time name="total">    8.43    8.43</time>
   <energy>
    <i name="e_fr_energy">    -62.97312449 </i>
    <i name="e_wo_entrp">    -62.97312449 </i>
    <i name="e_0_energy">    -62.97312449 </i>
   </energy>
  </scstep>
  <scstep>
   <time name="dav">    7.68    7.68</time>
   <time name="total">    7.69    7.69</time>
   <energy>
    <i name="e_fr_energy">    -80.14399146 </i>
    <i name="e_wo_entrp">    -80.14399146 </i>
    <i name="e_0_energy">    -80.14399146 </i>
   </energy>
  </scstep>
  <scstep>
   <time name="dav">    7.76    7.76</time>
   <time name="total">    7.77    7.79</time>
   <energy>
    <i name="e_fr_energy">    -80.35598013 </i>
    <i name="e_wo_entrp">    -80.35598013 </i>
    <i name="e_0_energy">    -80.35598013 </i>
   </energy>
  </scstep>
  <scstep>
   <time name="dav">    7.76    7.76</time>
   <time name="total">    8.25    8.26</time>
   <energy>
    <i name="e_fr_energy">    -80.36021655 </i>
    <i name="e_wo_entrp">    -80.36021655 </i>
    <i name="e_0_energy">    -80.36021655 </i>
   </energy>
  </scstep>
  <scstep>
   <time name="diag">    1.27    1.27</time>
   <time name="diis">    4.83    4.82</time>
   <time name="orth">    0.14    0.14</time>
   <time name="total">    6.81    6.82</time>
   <energy>
    <i name="e_fr_energy">    -70.89290507 </i>
    <i name="e_wo_entrp">    -70.89290507 </i>
    <i name="e_0_energy">    -70.89290507 </i>
   </energy>
  </scstep>
  <scstep>
   <time name="diag">    1.27    1.27</time>
   <time name="diis">    5.24    5.24</time>
   <time name="orth">    0.14    0.14</time>
   <time name="total">    7.23    7.23</time>
   <energy>
    <i name="e_fr_energy">    -70.86404723 </i>
    <i name="e_wo_entrp">    -70.86404723 </i>
    <i name="e_0_energy">    -70.86404723 </i>
   </energy>
  </scstep>
  <scstep>
   <time name="diag">    1.27    1.27</time>
   <time name="diis">    5.13    5.13</time>
   <time name="orth">    0.14    0.14</time>
   <time name="total">    7.10    7.11</time>
   <energy>
    <i name="e_fr_energy">    -70.87781811 </i>
    <i name="e_wo_entrp">    -70.87781811 </i>
    <i name="e_0_energy">    -70.87781811 </i>
   </energy>
  </scstep>
  <scstep>
   <time name="diag">    1.26    1.26</time>
   <time name="diis">    5.33    5.33</time>
   <time name="orth">    0.14    0.14</time>
   <time name="total">    7.30    7.31</time>
   <energy>
    <i name="e_fr_energy">    -70.86962598 </i>
    <i name="e_wo_entrp">    -70.86962598 </i>
    <i name="e_0_energy">    -70.86962598 </i>
   </energy>
  </scstep>
  <scstep>
   <time name="diag">    1.26    1.26</time>
   <time name="diis">    5.24    5.24</time>
   <time name="orth">    0.14    0.14</time>
   <time name="total">    7.21    7.22</time>
   <energy>
    <i name="e_fr_energy">    -70.87235021 </i>
    <i name="e_wo_entrp">    -70.87235021 </i>
    <i name="e_0_energy">    -70.87235021 </i>
   </energy>
  </scstep>
  <scstep>
   <time name="diag">    1.26    1.26</time>
   <time name="diis">    5.27    5.27</time>
   <time name="orth">    0.14    0.14</time>
   <time name="total">    7.24    7.26</time>
   <energy>
    <i name="e_fr_energy">    -70.87148220 </i>
    <i name="e_wo_entrp">    -70.87148220 </i>
    <i name="e_0_energy">    -70.87148220 </i>
   </energy>
  </scstep>
  <scstep>
   <time name="diag">    1.29    1.29</time>
   <time name="diis">    4.96    4.96</time>
   <time name="orth">    0.14    0.14</time>
   <time name="total">    6.95    6.96</time>
   <energy>
    <i name="e_fr_energy">    -70.87152339 </i>
    <i name="e_wo_entrp">    -70.87152339 </i>
    <i name="e_0_energy">    -70.87152339 </i>
   </energy>
  </scstep>
  <scstep>
   <time name="diag">    1.26    1.26</time>
   <time name="diis">    3.66    3.66</time>
   <time name="orth">    0.14    0.14</time>
   <time name="total">    5.15    5.16</time>
   <energy>
    <i name="alphaZ">     69.72802778 </i>
    <i name="ewald">  -1886.62880430 </i>
    <i name="hartreedc">  -1071.02929011 </i>
    <i name="XCdc">    151.11180171 </i>
    <i name="pawpsdc">   2075.99183133 </i>
    <i name="pawaedc">  -2036.56946969 </i>
    <i name="eentropy">      0.00000000 </i>
    <i name="bandstr">   -276.25203515 </i>
    <i name="atom">   2902.77641490 </i>
    <i name="e_fr_energy">    -70.87152354 </i>
    <i name="e_wo_entrp">    -70.87152354 </i>
    <i name="e_0_energy">    -70.87152354 </i>
   </energy>
  </scstep>
  <structure>
   <crystal>
    <varray name="basis" >
     <v>       4.91370000       0.00000000       0.00000000 </v>
     <v>      -2.45685000       4.25538903       0.00000000 </v>
     <v>       0.00000000       0.00000000       5.40513000 </v>
    </varray>
    <i name="volume">    113.01967420 </i>
    <varray name="rec_basis" >
     <v>       0.20351263       0.11749807       0.00000000 </v>
     <v>       0.00000000       0.23499614       0.00000000 </v>
     <v>       0.00000000       0.00000000       0.18500943 </v>
    </varray>
   </crystal>
   <varray name="positions" >
    <v>       0.46980000       0.02000000       0.66667000 </v>
    <v>       0.00000000       0.46980000       0.33333000 </v>
    <v>       0.53020000       0.53020000       0.00000000 </v>
    <v>       0.41450000       0.26620000       0.78560000 </v>
    <v>       0.73380000       0.14830000       0.45227000 </v>
    <v>       0.85170000       0.58550000       0.11893000 </v>
    <v>       0.14830000       0.73380000       0.54773000 </v>
    <v>       0.26620000       0.41450000       0.21440000 </v>
    <v>       0.58550000       0.85170000       0.88107000 </v>
   </varray>
  </structure>
  <varray name="forces" >
   <v>       3.07100254      -4.70714867      -1.00702046 </v>
   <v>      -0.08199809       0.67345460       0.09646494 </v>
   <v>      -0.56304201       0.55924904       0.19313424 </v>
   <v>      -2.45169483       2.57030399       1.41423174 </v>
   <v>      -0.09184426      -0.41645620       0.08076243 </v>
   <v>       0.43826289       0.19680496      -0.07468598 </v>
   <v>      -0.20970696       0.43525796       0.24271736 </v>
   <v>       0.60012431      -0.46660513      -0.11406720 </v>
   <v>      -0.71110358       1.15513946      -0.83153707 </v>
  </varray>
  <varray name="stress" >
   <v>      44.48167370     -28.53168539     -40.25936029 </v>
   <v>     -28.53168542      53.98862207      27.86250985 </v>
   <v>     -40.25936026      27.86250983      20.07750926 </v>
  </varray>
  <energy>
   <i name="e_fr_energy">    -70.87152354 </i>
   <i name="e_wo_entrp">    -70.87152354 </i>
   <i name="e_0_energy">      0.00000000 </i>
  </energy>
  <time name="totalsc">  103.93  104.23</time>
  <eigenvalues>
   <array>
    <dimension dim="1">band</dimension>
    <dimension dim="2">kpoint</dimension>
    <dimension dim="3">spin</dimension>
    <field>eigene</field>
    <field>occ</field>
    <set>
     <set comment="spin 1">
      <set comment="kpoint 1">
       <r>  -18.4564    1.0000 </r>
       <r>  -17.1545    1.0000 </r>
       <r>  -16.7934    1.0000 </r>
       <r>  -16.1798    1.0000 </r>
       <r>  -16.0485    1.0000 </r>
       <r>  -15.9688    1.0000 </r>
       <r>   -7.2792    1.0000 </r>
       <r>   -7.1195    1.0000 </r>
       <r>   -4.5451    1.0000 </r>
       <r>   -4.2364    1.0000 </r>
       <r>   -4.1397    1.0000 </r>
       <r>   -4.1210    1.0000 </r>
       <r>   -1.9517    1.0000 </r>
       <r>   -1.8453    1.0000 </r>
       <r>   -1.7578    1.0000 </r>
       <r>   -1.2678    1.0000 </r>
       <r>   -0.5564    1.0000 </r>
       <r>   -0.4423    1.0000 </r>
       <r>   -0.3964    1.0000 </r>
       <r>    0.1438    1.0000 </r>
       <r>    0.2263    1.0000 </r>
       <r>    0.4700    1.0000 </r>
       <r>    0.7493    1.0000 </r>
       <r>    0.8569    1.0000 </r>
       <r>    7.0922    0.0000 </r>
       <r>   10.3325    0.0000 </r>
       <r>   10.4333    0.0000 </r>
       <r>   10.8603    0.0000 </r>
       <r>   10.9592    0.0000 </r>
      </set>
      <set comment="kpoint 2">
       <r>  -18.3877    1.0000 </r>
       <r>  -17.1837    1.0000 </r>
       <r>  -16.7850    1.0000 </r>
       <r>  -16.2841    1.0000 </r>
       <r>  -16.0914    1.0000 </r>
       <r>  -15.9189    1.0000 </r>
       <r>   -7.3101    1.0000 </r>
       <r>   -6.9412    1.0000 </r>
       <r>   -4.5711    1.0000 </r>
       <r>   -4.3055    1.0000 </r>
       <r>   -4.1793    1.0000 </r>
       <r>   -3.9922    1.0000 </r>
       <r>   -2.0200    1.0000 </r>
       <r>   -1.8777    1.0000 </r>
       <r>   -1.6411    1.0000 </r>
       <r>   -1.1939    1.0000 </r>
       <r>   -0.7523    1.0000 </r>
       <r>   -0.4714    1.0000 </r>
       <r>   -0.4006    1.0000 </r>
       <r>    0.0867    1.0000 </r>
       <r>    0.1252    1.0000 </r>
       <r>    0.3802    1.0000 </r>
       <r>    0.8329    1.0000 </r>
       <r>    0.9315    1.0000 </r>
       <r>    7.5157    0.0000 </r>
       <r>   10.3531    0.0000 </r>
       <r>   10.4739    0.0000 </r>
       <r>   10.8759    0.0000 </r>
       <r>   11.0886    0.0000 </r>
      </set>
      <set comment="kpoint 3">
       <r>  -18.2173    1.0000 </r>
       <r>  -17.2799    1.0000 </r>
       <r>  -16.7672    1.0000 </r>
       <r>  -16.4653    1.0000 </r>
       <r>  -16.1244    1.0000 </r>
       <r>  -15.8863    1.0000 </r>
       <r>   -7.3751    1.0000 </r>
       <r>   -6.5209    1.0000 </r>
       <r>   -4.6312    1.0000 </r>
       <r>   -4.5472    1.0000 </r>
       <r>   -4.1949    1.0000 </r>
       <r>   -3.6890    1.0000 </r>
       <r>   -2.1391    1.0000 </r>
       <r>   -1.7011    1.0000 </r>
       <r>   -1.6214    1.0000 </r>
       <r>   -1.3084    1.0000 </r>
       <r>   -0.9942    1.0000 </r>
       <r>   -0.5615    1.0000 </r>
       <r>   -0.4571    1.0000 </r>
       <r>    0.0215    1.0000 </r>
       <r>    0.0635    1.0000 </r>
       <r>    0.2845    1.0000 </r>
       <r>    0.9072    1.0000 </r>
       <r>    1.0370    1.0000 </r>
       <r>    8.5148    0.0000 </r>
       <r>   10.3779    0.0000 </r>
       <r>   10.5972    0.0000 </r>
       <r>   11.0548    0.0000 </r>
       <r>   11.4083    0.0000 </r>
      </set>
      <set comment="kpoint 4">
       <r>  -18.1007    1.0000 </r>
       <r>  -17.3657    1.0000 </r>
       <r>  -16.7587    1.0000 </r>
       <r>  -16.5407    1.0000 </r>
       <r>  -16.1379    1.0000 </r>
       <r>  -15.8778    1.0000 </r>
       <r>   -7.4068    1.0000 </r>
       <r>   -6.2578    1.0000 </r>
       <r>   -4.7819    1.0000 </r>
       <r>   -4.5816    1.0000 </r>
       <r>   -4.2037    1.0000 </r>
       <r>   -3.5203    1.0000 </r>
       <r>   -2.1424    1.0000 </r>
       <r>   -1.7808    1.0000 </r>
       <r>   -1.6098    1.0000 </r>
       <r>   -1.3200    1.0000 </r>
       <r>   -1.0619    1.0000 </r>
       <r>   -0.6389    1.0000 </r>
       <r>   -0.5299    1.0000 </r>
       <r>    0.0403    1.0000 </r>
       <r>    0.0609    1.0000 </r>
       <r>    0.2634    1.0000 </r>
       <r>    0.9106    1.0000 </r>
       <r>    1.0868    1.0000 </r>
       <r>    9.3463    0.0000 </r>
       <r>   10.0876    0.0000 </r>
       <r>   10.7774    0.0000 </r>
       <r>   10.9357    0.0000 </r>
       <r>   11.7475    0.0000 </r>
      </set>
      <set comment="kpoint 5">
       <r>  -18.3819    1.0000 </r>
       <r>  -17.1945    1.0000 </r>
       <r>  -16.8182    1.0000 </r>
       <r>  -16.1883    1.0000 </r>
       <r>  -16.1171    1.0000 </r>
       <r>  -15.9500    1.0000 </r>
       <r>   -7.2657    1.0000 </r>
       <r>   -6.9966    1.0000 </r>
       <r>   -4.5547    1.0000 </r>
       <r>   -4.3008    1.0000 </r>
       <r>   -4.2130    1.0000 </r>
       <r>   -3.9612    1.0000 </r>
       <r>   -2.0703    1.0000 </r>
       <r>   -1.8176    1.0000 </r>
       <r>   -1.6954    1.0000 </r>
       <r>   -1.1608    1.0000 </r>
       <r>   -0.6945    1.0000 </r>
       <r>   -0.5096    1.0000 </r>
       <r>   -0.4600    1.0000 </r>
       <r>    0.1009    1.0000 </r>
       <r>    0.1695    1.0000 </r>
       <r>    0.3741    1.0000 </r>
       <r>    0.8354    1.0000 </r>
       <r>    0.9244    1.0000 </r>
       <r>    7.5132    0.0000 </r>
       <r>   10.3485    0.0000 </r>
       <r>   10.4397    0.0000 </r>
       <r>   10.9427    0.0000 </r>
       <r>   11.0594    0.0000 </r>
      </set>
      <set comment="kpoint 6">
       <r>  -18.2589    1.0000 </r>
       <r>  -17.2615    1.0000 </r>
       <r>  -16.8111    1.0000 </r>
       <r>  -16.3337    1.0000 </r>
       <r>  -16.1408    1.0000 </r>
       <r>  -15.9087    1.0000 </r>
       <r>   -7.3548    1.0000 </r>
       <r>   -6.6408    1.0000 </r>
       <r>   -4.7058    1.0000 </r>
       <r>   -4.4221    1.0000 </r>
       <r>   -4.1302    1.0000 </r>
       <r>   -3.7876    1.0000 </r>
       <r>   -2.0985    1.0000 </r>
       <r>   -1.8017    1.0000 </r>
       <r>   -1.6171    1.0000 </r>
       <r>   -1.2017    1.0000 </r>
       <r>   -1.0247    1.0000 </r>
       <r>   -0.5399    1.0000 </r>
       <r>   -0.3399    1.0000 </r>
       <r>   -0.0362    1.0000 </r>
       <r>    0.1363    1.0000 </r>
       <r>    0.2808    1.0000 </r>
       <r>    0.9337    1.0000 </r>
       <r>    0.9691    1.0000 </r>
       <r>    8.2203    0.0000 </r>
       <r>   10.4356    0.0000 </r>
       <r>   10.5503    0.0000 </r>
       <r>   11.0127    0.0000 </r>
       <r>   11.2731    0.0000 </r>
      </set>
      <set comment="kpoint 7">
       <r>  -18.0897    1.0000 </r>
       <r>  -17.3809    1.0000 </r>
       <r>  -16.8164    1.0000 </r>
       <r>  -16.4619    1.0000 </r>
       <r>  -16.1429    1.0000 </r>
       <r>  -15.8889    1.0000 </r>
       <r>   -7.4141    1.0000 </r>
       <r>   -6.1880    1.0000 </r>
       <r>   -5.0493    1.0000 </r>
       <r>   -4.4506    1.0000 </r>
       <r>   -4.1151    1.0000 </r>
       <r>   -3.5392    1.0000 </r>
       <r>   -2.1101    1.0000 </r>
       <r>   -1.7715    1.0000 </r>
       <r>   -1.6851    1.0000 </r>
       <r>   -1.2764    1.0000 </r>
       <r>   -1.0651    1.0000 </r>
       <r>   -0.6727    1.0000 </r>
       <r>   -0.3734    1.0000 </r>
       <r>   -0.1614    1.0000 </r>
       <r>    0.0180    1.0000 </r>
       <r>    0.3929    1.0000 </r>
       <r>    0.9034    1.0000 </r>
       <r>    1.0847    1.0000 </r>
       <r>    9.2280    0.0000 </r>
       <r>   10.3399    0.0000 </r>
       <r>   10.6864    0.0000 </r>
       <r>   11.1209    0.0000 </r>
       <r>   11.5626    0.0000 </r>
      </set>
      <set comment="kpoint 8">
       <r>  -18.0839    1.0000 </r>
       <r>  -17.3879    1.0000 </r>
       <r>  -16.8138    1.0000 </r>
       <r>  -16.4833    1.0000 </r>
       <r>  -16.1229    1.0000 </r>
       <r>  -15.8887    1.0000 </r>
       <r>   -7.4046    1.0000 </r>
       <r>   -6.1961    1.0000 </r>
       <r>   -5.0594    1.0000 </r>
       <r>   -4.4357    1.0000 </r>
       <r>   -4.1316    1.0000 </r>
       <r>   -3.5383    1.0000 </r>
       <r>   -2.1043    1.0000 </r>
       <r>   -1.7851    1.0000 </r>
       <r>   -1.6968    1.0000 </r>
       <r>   -1.2230    1.0000 </r>
       <r>   -1.0003    1.0000 </r>
       <r>   -0.6745    1.0000 </r>
       <r>   -0.5053    1.0000 </r>
       <r>   -0.1888    1.0000 </r>
       <r>    0.0521    1.0000 </r>
       <r>    0.4261    1.0000 </r>
       <r>    0.8745    1.0000 </r>
       <r>    1.1199    1.0000 </r>
       <r>    9.2374    0.0000 </r>
       <r>   10.3199    0.0000 </r>
       <r>   10.6691    0.0000 </r>
       <r>   11.1273    0.0000 </r>
       <r>   11.5244    0.0000 </r>
      </set>
      <set comment="kpoint 9">
       <r>  -18.2519    1.0000 </r>
       <r>  -17.2686    1.0000 </r>
       <r>  -16.8102    1.0000 </r>
       <r>  -16.3894    1.0000 </r>
       <r>  -16.0847    1.0000 </r>
       <r>  -15.9094    1.0000 </r>
       <r>   -7.3233    1.0000 </r>
       <r>   -6.6713    1.0000 </r>
       <r>   -4.7288    1.0000 </r>
       <r>   -4.4001    1.0000 </r>
       <r>   -4.1473    1.0000 </r>
       <r>   -3.7865    1.0000 </r>
       <r>   -2.1037    1.0000 </r>
       <r>   -1.8431    1.0000 </r>
       <r>   -1.5261    1.0000 </r>
       <r>   -1.1652    1.0000 </r>
       <r>   -0.9786    1.0000 </r>
       <r>   -0.6100    1.0000 </r>
       <r>   -0.3942    1.0000 </r>
       <r>   -0.1566    1.0000 </r>
       <r>    0.1845    1.0000 </r>
       <r>    0.3418    1.0000 </r>
       <r>    0.8650    1.0000 </r>
       <r>    1.0662    1.0000 </r>
       <r>    8.2225    0.0000 </r>
       <r>   10.3717    0.0000 </r>
       <r>   10.5823    0.0000 </r>
       <r>   11.0320    0.0000 </r>
       <r>   11.2394    0.0000 </r>
      </set>
      <set comment="kpoint 10">
       <r>  -18.3793    1.0000 </r>
       <r>  -17.1960    1.0000 </r>
       <r>  -16.8197    1.0000 </r>
       <r>  -16.2432    1.0000 </r>
       <r>  -16.0550    1.0000 </r>
       <r>  -15.9563    1.0000 </r>
       <r>   -7.2183    1.0000 </r>
       <r>   -7.0440    1.0000 </r>
       <r>   -4.5626    1.0000 </r>
       <r>   -4.3163    1.0000 </r>
       <r>   -4.1927    1.0000 </r>
       <r>   -3.9651    1.0000 </r>
       <r>   -2.0815    1.0000 </r>
       <r>   -1.8405    1.0000 </r>
       <r>   -1.6302    1.0000 </r>
       <r>   -1.1484    1.0000 </r>
[...]
       <r>    1.0151    1.0000 </r>
       <r>    9.1926    0.0000 </r>
       <r>   10.0791    0.0000 </r>
       <r>   10.4832    0.0000 </r>
       <r>   11.0070    0.0000 </r>
       <r>   11.5124    0.0000 </r>
      </set>
      <set comment="kpoint 90">
       <r>  -18.0306    1.0000 </r>
       <r>  -17.3965    1.0000 </r>
       <r>  -16.8614    1.0000 </r>
       <r>  -16.4642    1.0000 </r>
       <r>  -16.1796    1.0000 </r>
       <r>  -15.8721    1.0000 </r>
       <r>   -7.2486    1.0000 </r>
       <r>   -6.1684    1.0000 </r>
       <r>   -5.3334    1.0000 </r>
       <r>   -4.3780    1.0000 </r>
       <r>   -3.9354    1.0000 </r>
       <r>   -3.8151    1.0000 </r>
       <r>   -2.1848    1.0000 </r>
       <r>   -2.0204    1.0000 </r>
       <r>   -1.4321    1.0000 </r>
       <r>   -1.1946    1.0000 </r>
       <r>   -0.9050    1.0000 </r>
       <r>   -0.6423    1.0000 </r>
       <r>   -0.1887    1.0000 </r>
       <r>   -0.0104    1.0000 </r>
       <r>    0.2231    1.0000 </r>
       <r>    0.3219    1.0000 </r>
       <r>    0.6443    1.0000 </r>
       <r>    0.8832    1.0000 </r>
       <r>    9.8888    0.0000 </r>
       <r>   10.4004    0.0000 </r>
       <r>   10.7070    0.0000 </r>
       <r>   11.1106    0.0000 </r>
       <r>   11.4580    0.0000 </r>
      </set>
      <set comment="kpoint 91">
       <r>  -18.0239    1.0000 </r>
       <r>  -17.4433    1.0000 </r>
       <r>  -16.7632    1.0000 </r>
       <r>  -16.5070    1.0000 </r>
       <r>  -16.1925    1.0000 </r>
       <r>  -15.8747    1.0000 </r>
       <r>   -7.2724    1.0000 </r>
       <r>   -6.1262    1.0000 </r>
       <r>   -5.3482    1.0000 </r>
       <r>   -4.3801    1.0000 </r>
       <r>   -3.9225    1.0000 </r>
       <r>   -3.8214    1.0000 </r>
       <r>   -2.1708    1.0000 </r>
       <r>   -2.0221    1.0000 </r>
       <r>   -1.4573    1.0000 </r>
       <r>   -1.2032    1.0000 </r>
       <r>   -0.9511    1.0000 </r>
       <r>   -0.5966    1.0000 </r>
       <r>   -0.1586    1.0000 </r>
       <r>   -0.0149    1.0000 </r>
       <r>    0.2148    1.0000 </r>
       <r>    0.3715    1.0000 </r>
       <r>    0.5855    1.0000 </r>
       <r>    0.8879    1.0000 </r>
       <r>    9.8107    0.0000 </r>
       <r>   10.5510    0.0000 </r>
       <r>   10.7834    0.0000 </r>
       <r>   11.1314    0.0000 </r>
       <r>   11.3948    0.0000 </r>
      </set>
      <set comment="kpoint 92">
       <r>  -18.0831    1.0000 </r>
       <r>  -17.6202    1.0000 </r>
       <r>  -16.5855    1.0000 </r>
       <r>  -16.4022    1.0000 </r>
       <r>  -16.1611    1.0000 </r>
       <r>  -15.8663    1.0000 </r>
       <r>   -7.7183    1.0000 </r>
       <r>   -5.8916    1.0000 </r>
       <r>   -5.1901    1.0000 </r>
       <r>   -4.3607    1.0000 </r>
       <r>   -4.1429    1.0000 </r>
       <r>   -3.7398    1.0000 </r>
       <r>   -2.0761    1.0000 </r>
       <r>   -1.9165    1.0000 </r>
       <r>   -1.4327    1.0000 </r>
       <r>   -1.3004    1.0000 </r>
       <r>   -0.9499    1.0000 </r>
       <r>   -0.5012    1.0000 </r>
       <r>   -0.3622    1.0000 </r>
       <r>   -0.1842    1.0000 </r>
       <r>    0.1201    1.0000 </r>
       <r>    0.5795    1.0000 </r>
       <r>    0.7582    1.0000 </r>
       <r>    0.9378    1.0000 </r>
       <r>    9.1934    0.0000 </r>
       <r>   10.0713    0.0000 </r>
       <r>   10.6087    0.0000 </r>
       <r>   10.8902    0.0000 </r>
       <r>   11.3086    0.0000 </r>
      </set>
     </set>
    </set>
   </array>
  </eigenvalues>
  <separator name="orbital magnetization" >
   <v name="MAGDIPOLOUT">      0.00000000      0.00000000      0.00000000</v>
  </separator>
  <dos>
   <i name="efermi">      1.23457545 </i>
   <total>
    <array>
     <dimension dim="1">gridpoints</dimension>
     <dimension dim="2">spin</dimension>
     <field>energy</field>
     <field>total</field>
     <field>integrated</field>
     <set>
      <set comment="spin 1">
       <r>   -20.4564     0.0000     0.0000 </r>
       <r>   -20.3424     0.0000     0.0000 </r>
       <r>   -20.2284     0.0000     0.0000 </r>
       <r>   -20.1144     0.0000     0.0000 </r>
       <r>   -20.0004     0.0000     0.0000 </r>
       <r>   -19.8863     0.0000     0.0000 </r>
       <r>   -19.7723     0.0000     0.0000 </r>
       <r>   -19.6583     0.0000     0.0000 </r>
       <r>   -19.5443     0.0000     0.0000 </r>
       <r>   -19.4303     0.0000     0.0000 </r>
       <r>   -19.3163     0.0000     0.0000 </r>
       <r>   -19.2023     0.0000     0.0000 </r>
       <r>   -19.0882     0.0000     0.0000 </r>
       <r>   -18.9742     0.0000     0.0000 </r>
       <r>   -18.8602     0.0000     0.0000 </r>
       <r>   -18.7462     0.0000     0.0000 </r>
       <r>   -18.6322     0.0000     0.0000 </r>
       <r>   -18.5182     0.0000     0.0000 </r>
       <r>   -18.4042     0.4572     0.0080 </r>
       <r>   -18.2902     1.7830     0.1531 </r>
       <r>   -18.1761     4.0470     0.4454 </r>
       <r>   -18.0621     7.6874     1.1040 </r>
       <r>   -17.9481     3.4361     1.9135 </r>
       <r>   -17.8341     0.0000     2.0000 </r>
       <r>   -17.7201     1.4697     2.0602 </r>
       <r>   -17.6061     3.2425     2.3024 </r>
       <r>   -17.4921     6.1335     2.8122 </r>
       <r>   -17.3781     7.8895     3.5438 </r>
       <r>   -17.2640     1.0212     3.9532 </r>
       <r>   -17.1500     0.0000     4.0000 </r>
       <r>   -17.0360     0.4657     4.0083 </r>
       <r>   -16.9220     2.4619     4.1641 </r>
       <r>   -16.8080     7.3985     4.8117 </r>
       <r>   -16.6940     3.8812     5.4994 </r>
       <r>   -16.5800     2.6371     5.8561 </r>
       <r>   -16.4659     6.5647     6.1988 </r>
       <r>   -16.3519     6.8973     7.1838 </r>
       <r>   -16.2379     4.6596     7.8035 </r>
       <r>   -16.1239    12.6992     9.2102 </r>
       <r>   -16.0099     0.0000    10.0000 </r>
       <r>   -15.8959    29.9300    11.0901 </r>
       <r>   -15.7819     0.0000    12.0000 </r>
       <r>   -15.6679     0.0000    12.0000 </r>
       <r>   -15.5538     0.0000    12.0000 </r>
       <r>   -15.4398     0.0000    12.0000 </r>
       <r>   -15.3258     0.0000    12.0000 </r>
       <r>   -15.2118     0.0000    12.0000 </r>
       <r>   -15.0978     0.0000    12.0000 </r>
       <r>   -14.9838     0.0000    12.0000 </r>
       <r>   -14.8698     0.0000    12.0000 </r>
       <r>   -14.7558     0.0000    12.0000 </r>
       <r>   -14.6417     0.0000    12.0000 </r>
       <r>   -14.5277     0.0000    12.0000 </r>
       <r>   -14.4137     0.0000    12.0000 </r>
       <r>   -14.2997     0.0000    12.0000 </r>
       <r>   -14.1857     0.0000    12.0000 </r>
       <r>   -14.0717     0.0000    12.0000 </r>
       <r>   -13.9577     0.0000    12.0000 </r>
       <r>   -13.8436     0.0000    12.0000 </r>
       <r>   -13.7296     0.0000    12.0000 </r>
       <r>   -13.6156     0.0000    12.0000 </r>
       <r>   -13.5016     0.0000    12.0000 </r>
       <r>   -13.3876     0.0000    12.0000 </r>
       <r>   -13.2736     0.0000    12.0000 </r>
       <r>   -13.1596     0.0000    12.0000 </r>
       <r>   -13.0456     0.0000    12.0000 </r>
       <r>   -12.9315     0.0000    12.0000 </r>
       <r>   -12.8175     0.0000    12.0000 </r>
       <r>   -12.7035     0.0000    12.0000 </r>
       <r>   -12.5895     0.0000    12.0000 </r>
       <r>   -12.4755     0.0000    12.0000 </r>
       <r>   -12.3615     0.0000    12.0000 </r>
       <r>   -12.2475     0.0000    12.0000 </r>
       <r>   -12.1335     0.0000    12.0000 </r>
       <r>   -12.0194     0.0000    12.0000 </r>
       <r>   -11.9054     0.0000    12.0000 </r>
       <r>   -11.7914     0.0000    12.0000 </r>
       <r>   -11.6774     0.0000    12.0000 </r>
       <r>   -11.5634     0.0000    12.0000 </r>
       <r>   -11.4494     0.0000    12.0000 </r>
       <r>   -11.3354     0.0000    12.0000 </r>
       <r>   -11.2213     0.0000    12.0000 </r>
       <r>   -11.1073     0.0000    12.0000 </r>
       <r>   -10.9933     0.0000    12.0000 </r>
       <r>   -10.8793     0.0000    12.0000 </r>
       <r>   -10.7653     0.0000    12.0000 </r>
       <r>   -10.6513     0.0000    12.0000 </r>
       <r>   -10.5373     0.0000    12.0000 </r>
       <r>   -10.4233     0.0000    12.0000 </r>
       <r>   -10.3092     0.0000    12.0000 </r>
       <r>   -10.1952     0.0000    12.0000 </r>
       <r>   -10.0812     0.0000    12.0000 </r>
       <r>    -9.9672     0.0000    12.0000 </r>
       <r>    -9.8532     0.0000    12.0000 </r>
       <r>    -9.7392     0.0000    12.0000 </r>
       <r>    -9.6252     0.0000    12.0000 </r>
       <r>    -9.5112     0.0000    12.0000 </r>
       <r>    -9.3971     0.0000    12.0000 </r>
       <r>    -9.2831     0.0000    12.0000 </r>
       <r>    -9.1691     0.0000    12.0000 </r>
       <r>    -9.0551     0.0000    12.0000 </r>
       <r>    -8.9411     0.0000    12.0000 </r>
       <r>    -8.8271     0.0000    12.0000 </r>
       <r>    -8.7131     0.0000    12.0000 </r>
       <r>    -8.5990     0.0000    12.0000 </r>
       <r>    -8.4850     0.0000    12.0000 </r>
       <r>    -8.3710     0.0000    12.0000 </r>
       <r>    -8.2570     0.0000    12.0000 </r>
       <r>    -8.1430     0.2309    12.0110 </r>
       <r>    -8.0290     0.4176    12.0544 </r>
       <r>    -7.9150     0.6269    12.1136 </r>
       <r>    -7.8010     0.8468    12.1981 </r>
       <r>    -7.6869     1.1653    12.3098 </r>
       <r>    -7.5729     1.5990    12.4664 </r>
       <r>    -7.4589     2.7517    12.6972 </r>
       <r>    -7.3449     7.3404    13.3164 </r>
       <r>    -7.2309     2.0173    13.8184 </r>
       <r>    -7.1169     0.5249    13.9569 </r>
       <r>    -7.0029     0.2349    13.9968 </r>
       <r>    -6.8889     0.1971    14.0194 </r>
       <r>    -6.7748     0.3249    14.0487 </r>
       <r>    -6.6608     0.5351    14.0960 </r>
       <r>    -6.5468     1.0416    14.1838 </r>
       <r>    -6.4328     1.8232    14.3393 </r>
       <r>    -6.3188     3.1771    14.6253 </r>
       <r>    -6.2048     4.9611    15.0820 </r>
       <r>    -6.0908     2.2643    15.5290 </r>
       <r>    -5.9767     1.3482    15.7309 </r>
       <r>    -5.8627     0.8261    15.8512 </r>
       <r>    -5.7487     0.6074    15.9308 </r>
       <r>    -5.6347     0.3321    15.9900 </r>
       <r>    -5.5207     0.1265    16.0046 </r>
       <r>    -5.4067     1.7996    16.1029 </r>
       <r>    -5.2927     3.5635    16.4201 </r>
       <r>    -5.1787     3.1486    16.7935 </r>
       <r>    -5.0646     2.9532    17.1365 </r>
       <r>    -4.9506     2.1930    17.4505 </r>
       <r>    -4.8366     1.6593    17.6678 </r>
       <r>    -4.7226     1.3315    17.8367 </r>
       <r>    -4.6086     0.8360    17.9695 </r>
       <r>    -4.4946     2.4596    18.0362 </r>
       <r>    -4.3806    11.3441    18.9822 </r>
       <r>    -4.2666     5.0646    19.8583 </r>
       <r>    -4.1525     8.0728    20.5056 </r>
       <r>    -4.0385     8.7241    21.4444 </r>
       <r>    -3.9245     2.7291    22.0444 </r>
       <r>    -3.8105     6.2035    22.3794 </r>
       <r>    -3.6965     7.2369    23.3099 </r>
       <r>    -3.5825     2.7967    23.8246 </r>
       <r>    -3.4685     0.1745    23.9980 </r>
       <r>    -3.3544     0.0000    24.0000 </r>
       <r>    -3.2404     0.0000    24.0000 </r>
       <r>    -3.1264     0.0000    24.0000 </r>
       <r>    -3.0124     0.0000    24.0000 </r>
       <r>    -2.8984     0.0000    24.0000 </r>
       <r>    -2.7844     0.0000    24.0000 </r>
       <r>    -2.6704     0.0000    24.0000 </r>
       <r>    -2.5564     0.0000    24.0000 </r>
       <r>    -2.4423     0.0000    24.0000 </r>
       <r>    -2.3283     0.0000    24.0000 </r>
       <r>    -2.2143     7.4420    24.1355 </r>
       <r>    -2.1003    11.4934    25.4515 </r>
       <r>    -1.9863     8.1166    26.3248 </r>
       <r>    -1.8723     5.2670    27.0928 </r>
       <r>    -1.7583     4.0516    27.7740 </r>
       <r>    -1.6443     3.9603    28.1082 </r>
       <r>    -1.5302    10.9998    29.1010 </r>
       <r>    -1.4162     3.5717    29.9000 </r>
       <r>    -1.3022     3.6295    30.0892 </r>
       <r>    -1.1882    13.0128    31.1601 </r>
       <r>    -1.0742     1.0053    31.9681 </r>
       <r>    -0.9602    17.8439    32.5599 </r>
       <r>    -0.8462     1.2582    33.8726 </r>
       <r>    -0.7321     4.9483    34.1111 </r>
       <r>    -0.6181     7.7250    34.8585 </r>
       <r>    -0.5041     8.9486    35.9767 </r>
       <r>    -0.3901    12.1642    37.0474 </r>
       <r>    -0.2761     4.9089    37.8108 </r>
       <r>    -0.1621     9.6048    38.5396 </r>
       <r>    -0.0481     7.5858    39.5809 </r>
       <r>     0.0659     5.9523    40.1890 </r>
       <r>     0.1800    15.4369    41.2831 </r>
       <r>     0.2940     0.9067    42.0028 </r>
       <r>     0.4080    13.2893    42.6365 </r>
       <r>     0.5220     3.0637    43.7441 </r>
       <r>     0.6360     4.4660    44.1006 </r>
       <r>     0.7500     6.7157    44.6974 </r>
       <r>     0.8640     7.2223    45.9262 </r>
       <r>     0.9780     7.4146    46.5951 </r>
       <r>     1.0921     5.2293    47.7493 </r>
       <r>     1.2061     0.0000    48.0000 </r>
       <r>     1.3201     0.0000    48.0000 </r>
       <r>     1.4341     0.0000    48.0000 </r>
       <r>     1.5481     0.0000    48.0000 </r>
       <r>     1.6621     0.0000    48.0000 </r>
       <r>     1.7761     0.0000    48.0000 </r>
       <r>     1.8902     0.0000    48.0000 </r>
       <r>     2.0042     0.0000    48.0000 </r>
       <r>     2.1182     0.0000    48.0000 </r>
       <r>     2.2322     0.0000    48.0000 </r>
       <r>     2.3462     0.0000    48.0000 </r>
       <r>     2.4602     0.0000    48.0000 </r>
       <r>     2.5742     0.0000    48.0000 </r>
       <r>     2.6882     0.0000    48.0000 </r>
       <r>     2.8023     0.0000    48.0000 </r>
       <r>     2.9163     0.0000    48.0000 </r>
       <r>     3.0303     0.0000    48.0000 </r>
       <r>     3.1443     0.0000    48.0000 </r>
       <r>     3.2583     0.0000    48.0000 </r>
       <r>     3.3723     0.0000    48.0000 </r>
       <r>     3.4863     0.0000    48.0000 </r>
       <r>     3.6003     0.0000    48.0000 </r>
       <r>     3.7144     0.0000    48.0000 </r>
       <r>     3.8284     0.0000    48.0000 </r>
       <r>     3.9424     0.0000    48.0000 </r>
       <r>     4.0564     0.0000    48.0000 </r>
       <r>     4.1704     0.0000    48.0000 </r>
       <r>     4.2844     0.0000    48.0000 </r>
       <r>     4.3984     0.0000    48.0000 </r>
       <r>     4.5125     0.0000    48.0000 </r>
       <r>     4.6265     0.0000    48.0000 </r>
       <r>     4.7405     0.0000    48.0000 </r>
       <r>     4.8545     0.0000    48.0000 </r>
       <r>     4.9685     0.0000    48.0000 </r>
       <r>     5.0825     0.0000    48.0000 </r>
       <r>     5.1965     0.0000    48.0000 </r>
       <r>     5.3105     0.0000    48.0000 </r>
       <r>     5.4246     0.0000    48.0000 </r>
       <r>     5.5386     0.0000    48.0000 </r>
       <r>     5.6526     0.0000    48.0000 </r>
       <r>     5.7666     0.0000    48.0000 </r>
       <r>     5.8806     0.0000    48.0000 </r>
       <r>     5.9946     0.0000    48.0000 </r>
       <r>     6.1086     0.0000    48.0000 </r>
       <r>     6.2226     0.0000    48.0000 </r>
       <r>     6.3367     0.0000    48.0000 </r>
       <r>     6.4507     0.0000    48.0000 </r>
       <r>     6.5647     0.0000    48.0000 </r>
       <r>     6.6787     0.0000    48.0000 </r>
       <r>     6.7927     0.0000    48.0000 </r>
       <r>     6.9067     0.0000    48.0000 </r>
       <r>     7.0207     0.0000    48.0000 </r>
       <r>     7.1348     0.0018    48.0000 </r>
       <r>     7.2488     0.0246    48.0013 </r>
       <r>     7.3628     0.0736    48.0066 </r>
       <r>     7.4768     0.1487    48.0191 </r>
       <r>     7.5908     0.2236    48.0410 </r>
       <r>     7.7048     0.2638    48.0690 </r>
       <r>     7.8188     0.2863    48.1005 </r>
       <r>     7.9328     0.3198    48.1346 </r>
       <r>     8.0469     0.3666    48.1737 </r>
       <r>     8.1609     0.4161    48.2183 </r>
       <r>     8.2749     0.4681    48.2687 </r>
       <r>     8.3889     0.5224    48.3251 </r>
       <r>     8.5029     0.6112    48.3885 </r>
       <r>     8.6169     0.7685    48.4672 </r>
       <r>     8.7309     0.8487    48.5629 </r>
       <r>     8.8449     0.8618    48.6580 </r>
       <r>     8.9590     0.9247    48.7598 </r>
       <r>     9.0730     0.9898    48.8689 </r>
       <r>     9.1870     1.0570    48.9856 </r>
       <r>     9.3010     1.5146    49.1263 </r>
       <r>     9.4150     1.5404    49.3042 </r>
       <r>     9.5290     1.2963    49.4621 </r>
       <r>     9.6430     1.2886    49.6070 </r>
       <r>     9.7571     1.4992    49.7662 </r>
       <r>     9.8711     2.0522    49.9530 </r>
       <r>     9.9851     1.1487    50.1268 </r>
       <r>    10.0991     1.1414    50.2505 </r>
       <r>    10.2131     3.1663    50.4676 </r>
       <r>    10.3271    10.1981    51.1981 </r>
       <r>    10.4411     4.0710    52.0084 </r>
       <r>    10.5551     6.0447    52.5493 </r>
       <r>    10.6692     7.6909    53.4519 </r>
       <r>    10.7832     4.8329    54.1549 </r>
       <r>    10.8972     2.3042    54.4916 </r>
       <r>    11.0112     4.1646    54.8223 </r>
       <r>    11.1252     6.8446    55.5008 </r>
       <r>    11.2392     3.5438    56.0899 </r>
       <r>    11.3532     5.7490    56.6140 </r>
       <r>    11.4672     7.5921    57.4215 </r>
       <r>    11.5813     2.2207    57.9392 </r>
       <r>    11.6953     0.0497    57.9993 </r>
       <r>    11.8093     0.0000    58.0000 </r>
       <r>    11.9233     0.0000    58.0000 </r>
       <r>    12.0373     0.0000    58.0000 </r>
       <r>    12.1513     0.0000    58.0000 </r>
       <r>    12.2653     0.0000    58.0000 </r>
       <r>    12.3794     0.0000    58.0000 </r>
       <r>    12.4934     0.0000    58.0000 </r>
       <r>    12.6074     0.0000    58.0000 </r>
       <r>    12.7214     0.0000    58.0000 </r>
       <r>    12.8354     0.0000    58.0000 </r>
       <r>    12.9494     0.0000    58.0000 </r>
       <r>    13.0634     0.0000    58.0000 </r>
       <r>    13.1774     0.0000    58.0000 </r>
       <r>    13.2915     0.0000    58.0000 </r>
       <r>    13.4055     0.0000    58.0000 </r>
       <r>    13.5195     0.0000    58.0000 </r>
       <r>    13.6335     0.0000    58.0000 </r>
       <r>    13.7475     0.0000    58.0000 </r>
      </set>
     </set>
    </array>
   </total>
  </dos>
 </calculation>
 <structure name="finalpos" >
  <crystal>
   <varray name="basis" >
    <v>       4.91370000       0.00000000       0.00000000 </v>
    <v>      -2.45685000       4.25538903       0.00000000 </v>
    <v>       0.00000000       0.00000000       5.40513000 </v>
   </varray>
   <i name="volume">    113.01967420 </i>
   <varray name="rec_basis" >
    <v>       0.20351263       0.11749807       0.00000000 </v>
    <v>       0.00000000       0.23499614       0.00000000 </v>
    <v>       0.00000000       0.00000000       0.18500943 </v>
   </varray>
  </crystal>
  <varray name="positions" >
   <v>       0.46980000       0.02000000       0.66667000 </v>
   <v>       0.00000000       0.46980000       0.33333000 </v>
   <v>       0.53020000       0.53020000       0.00000000 </v>
   <v>       0.41450000       0.26620000       0.78560000 </v>
   <v>       0.73380000       0.14830000       0.45227000 </v>
   <v>       0.85170000       0.58550000       0.11893000 </v>
   <v>       0.14830000       0.73380000       0.54773000 </v>
   <v>       0.26620000       0.41450000       0.21440000 </v>
   <v>       0.58550000       0.85170000       0.88107000 </v>
  </varray>
 </structure>
</modeling>
