unknown system                          
   2.80000000000000     
     1.000000    0.000000    0.000000
     0.000000    1.000000    0.000000
     0.000000    0.000000    1.000000
   Pt
     1
Direct
  0.000000  0.000000  0.000000
 
   32   32   32
  84.486      82.728      77.828      70.739      62.606      54.350      46.454      39.032      32.074      25.663    
  20.036      15.460      12.076      9.8082      8.4003      7.6050      7.3485      7.6050      8.4003      9.8082    
  12.076      15.460      20.036      25.663      32.074      39.032      46.454      54.350      62.606      70.739    
  77.828      82.728      82.728      81.068      76.431      69.699      61.924      53.952      46.231      38.883    
  31.934      25.511      19.877      15.314      11.953      9.7090      8.3164      7.5301      7.2768      7.5301    
  8.3164      9.7090      11.953      15.314      19.877      25.511      31.934      38.883      46.231      53.952    
  61.924      69.699      76.431      81.068      77.828      76.431      72.509      66.740      59.930      52.724    
  45.477      38.338      31.430      24.995      19.372      14.864      11.585      9.4170      8.0701      7.3108    
  7.0670      7.3108      8.0701      9.4170      11.585      14.864      19.372      24.995      31.430      38.338    
  45.477      52.724      59.930      66.740      72.509      76.431      70.739      69.699      66.740      62.266    
  56.751      50.574      43.977      37.149      30.355      23.982      18.458      14.099      10.984      8.9487    
  7.6769      6.9628      6.7348      6.9628      7.6769      8.9487      10.984      14.099      18.458      23.982    
  30.355      37.149      43.977      50.574      56.751      62.266      66.740      69.699      62.606      61.924    
  59.930      56.751      52.530      47.393      41.485      35.054      28.505      22.356      17.097      13.030    
  10.181      8.3332      7.1627      6.5108      6.3037      6.5108      7.1627      8.3332      10.181      13.030    
  17.097      22.356      28.505      35.054      41.485      47.393      52.530      56.751      59.930      61.924    
  54.350      53.952      52.724      50.574      47.393      43.125      37.866      31.925      25.811      20.116    
  15.337      11.722      9.2333      7.6076      6.5618      5.9851      5.8027      5.9851      6.5618      7.6076    
  9.2333      11.722      15.337      20.116      25.811      31.925      37.866      43.125      47.393      50.574    
  52.724      53.952      46.454      46.231      45.477      43.977      41.485      37.866      33.212      27.879    
  22.420      17.423      13.324      10.289      8.2126      6.8158      5.9131      5.4187      5.2627      5.4187    
  5.9131      6.8158      8.2126      10.289      13.324      17.423      22.420      27.879      33.212      37.866    
  41.485      43.977      45.477      46.231      39.032      38.883      38.338      37.149      35.054      31.925    
  27.879      23.289      18.683      14.568      11.272      8.8627      7.1825      6.0100      5.2557      4.8431    
  4.7128      4.8431      5.2557      6.0100      7.1825      8.8627      11.272      14.568      18.683      23.289    
  27.879      31.925      35.054      37.149      38.338      38.883      32.074      31.934      31.430      30.355    
  28.505      25.811      22.420      18.683      15.041      11.874      9.3794      7.5405      6.1908      5.2377    
  4.6237      4.2859      4.1788      4.2859      4.6237      5.2377      6.1908      7.5405      9.3794      11.874    
  15.041      18.683      22.420      25.811      28.505      30.355      31.430      31.934      25.663      25.511    
  24.995      23.982      22.356      20.116      17.423      14.568      11.874      9.5780      7.7635      6.3573    
  5.2908      4.5353      4.0434      3.7692      3.6814      3.7692      4.0434      4.5353      5.2908      6.3573    
  7.7635      9.5780      11.874      14.568      17.423      20.116      22.356      23.982      24.995      25.511    
  20.036      19.877      19.372      18.458      17.097      15.337      13.324      11.272      9.3794      7.7635    
  6.4241      5.3416      4.5166      3.9246      3.5318      3.3088      3.2366      3.3088      3.5318      3.9246    
  4.5166      5.3416      6.4241      7.7635      9.3794      11.272      13.324      15.337      17.097      18.458    
  19.372      19.877      15.460      15.314      14.864      14.099      13.030      11.722      10.289      8.8627    
  7.5405      6.3573      5.3416      4.5172      3.8809      3.4147      3.0982      2.9149      2.8548      2.9149    
  3.0982      3.4147      3.8809      4.5172      5.3416      6.3573      7.5405      8.8627      10.289      11.722    
  13.030      14.099      14.864      15.314      12.076      11.953      11.585      10.984      10.181      9.2333    
  8.2126      7.1825      6.1908      5.2908      4.5166      3.8809      3.3807      3.0059      2.7460      2.5929    
  2.5424      2.5929      2.7460      3.0059      3.3807      3.8809      4.5166      5.2908      6.1908      7.1825    
  8.2126      9.2333      10.181      10.984      11.585      11.953      9.8082      9.7090      9.4170      8.9487    
  8.3332      7.6076      6.8158      6.0100      5.2377      4.5353      3.9246      3.4147      3.0059      2.6942    
  2.4750      2.3447      2.3014      2.3447      2.4750      2.6942      3.0059      3.4147      3.9246      4.5353    
  5.2377      6.0100      6.8158      7.6076      8.3332      8.9487      9.4170      9.7090      8.4003      8.3164    
  8.0701      7.6769      7.1627      6.5618      5.9131      5.2557      4.6237      4.0434      3.5318      3.0982    
  2.7460      2.4750      2.2834      2.1694      2.1316      2.1694      2.2834      2.4750      2.7460      3.0982    
  3.5318      4.0434      4.6237      5.2557      5.9131      6.5618      7.1627      7.6769      8.0701      8.3164    
  7.6050      7.5301      7.3108      6.9628      6.5108      5.9851      5.4187      4.8431      4.2859      3.7692    
  3.3088      2.9149      2.5929      2.3447      2.1694      2.0653      2.0308      2.0653      2.1694      2.3447    
  2.5929      2.9149      3.3088      3.7692      4.2859      4.8431      5.4187      5.9851      6.5108      6.9628    
  7.3108      7.5301      7.3485      7.2768      7.0670      6.7348      6.3037      5.8027      5.2627      4.7128    
  4.1788      3.6814      3.2366      2.8548      2.5424      2.3014      2.1316      2.0308      1.9975      2.0308    
  2.1316      2.3014      2.5424      2.8548      3.2366      3.6814      4.1788      4.7128      5.2627      5.8027    
  6.3037      6.7348      7.0670      7.2768      7.6050      7.5301      7.3108      6.9628      6.5108      5.9851    
  5.4187      4.8431      4.2859      3.7692      3.3088      2.9149      2.5929      2.3447      2.1694      2.0653    
  2.0308      2.0653      2.1694      2.3447      2.5929      2.9149      3.3088      3.7692      4.2859      4.8431    
  5.4187      5.9851      6.5108      6.9628      7.3108      7.5301      8.4003      8.3164      8.0701      7.6769    
  7.1627      6.5618      5.9131      5.2557      4.6237      4.0434      3.5318      3.0982      2.7460      2.4750    
  2.2834      2.1694      2.1316      2.1694      2.2834      2.4750      2.7460      3.0982      3.5318      4.0434    
  4.6237      5.2557      5.9131      6.5618      7.1627      7.6769      8.0701      8.3164      9.8082      9.7090    
  9.4170      8.9487      8.3332      7.6076      6.8158      6.0100      5.2377      4.5353      3.9246      3.4147    
  3.0059      2.6942      2.4750      2.3447      2.3014      2.3447      2.4750      2.6942      3.0059      3.4147    
  3.9246      4.5353      5.2377      6.0100      6.8158      7.6076      8.3332      8.9487      9.4170      9.7090    
  12.076      11.953      11.585      10.984      10.181      9.2333      8.2126      7.1825      6.1908      5.2908    
  4.5166      3.8809      3.3807      3.0059      2.7460      2.5929      2.5424      2.5929      2.7460      3.0059    
  3.3807      3.8809      4.5166      5.2908      6.1908      7.1825      8.2126      9.2333      10.181      10.984    
  11.585      11.953      15.460      15.314      14.864      14.099      13.030      11.722      10.289      8.8627    
  7.5405      6.3573      5.3416      4.5172      3.8809      3.4147      3.0982      2.9149      2.8548      2.9149    
  3.0982      3.4147      3.8809      4.5172      5.3416      6.3573      7.5405      8.8627      10.289      11.722    
  13.030      14.099      14.864      15.314      20.036      19.877      19.372      18.458      17.097      15.337    
  13.324      11.272      9.3794      7.7635      6.4241      5.3416      4.5166      3.9246      3.5318      3.3088    
  3.2366      3.3088      3.5318      3.9246      4.5166      5.3416      6.4241      7.7635      9.3794      11.272    
  13.324      15.337      17.097      18.458      19.372      19.877      25.663      25.511      24.995      23.982    
  22.356      20.116      17.423      14.568      11.874      9.5780      7.7635      6.3573      5.2908      4.5353    
  4.0434      3.7692      3.6814      3.7692      4.0434      4.5353      5.2908      6.3573      7.7635      9.5780    
  11.874      14.568      17.423      20.116      22.356      23.982      24.995      25.511      32.074      31.934    
  31.430      30.355      28.505      25.811      22.420      18.683      15.041      11.874      9.3794      7.5405    
  6.1908      5.2377      4.6237      4.2859      4.1788      4.2859      4.6237      5.2377      6.1908      7.5405    
  9.3794      11.874      15.041      18.683      22.420      25.811      28.505      30.355      31.430      31.934    
  39.032      38.883      38.338      37.149      35.054      31.925      27.879      23.289      18.683      14.568    
  11.272      8.8627      7.1825      6.0100      5.2557      4.8431      4.7128      4.8431      5.2557      6.0100    
  7.1825      8.8627      11.272      14.568      18.683      23.289      27.879      31.925      35.054      37.149    
  38.338      38.883      46.454      46.231      45.477      43.977      41.485      37.866      33.212      27.879    
  22.420      17.423      13.324      10.289      8.2126      6.8158      5.9131      5.4187      5.2627      5.4187    
  5.9131      6.8158      8.2126      10.289      13.324      17.423      22.420      27.879      33.212      37.866    
  41.485      43.977      45.477      46.231      54.350      53.952      52.724      50.574      47.393      43.125    
  37.866      31.925      25.811      20.116      15.337      11.722      9.2333      7.6076      6.5618      5.9851    
  5.8027      5.9851      6.5618      7.6076      9.2333      11.722      15.337      20.116      25.811      31.925    
  37.866      43.125      47.393      50.574      52.724      53.952      62.606      61.924      59.930      56.751    
  52.530      47.393      41.485      35.054      28.505      22.356      17.097      13.030      10.181      8.3332    
  7.1627      6.5108      6.3037      6.5108      7.1627      8.3332      10.181      13.030      17.097      22.356    
  28.505      35.054      41.485      47.393      52.530      56.751      59.930      61.924      70.739      69.699    
  66.740      62.266      56.751      50.574      43.977      37.149      30.355      23.982      18.458      14.099    
  10.984      8.9487      7.6769      6.9628      6.7348      6.9628      7.6769      8.9487      10.984      14.099    
  18.458      23.982      30.355      37.149      43.977      50.574      56.751      62.266      66.740      69.699    
  77.828      76.431      72.509      66.740      59.930      52.724      45.477      38.338      31.430      24.995    
  19.372      14.864      11.585      9.4170      8.0701      7.3108      7.0670      7.3108      8.0701      9.4170    
  11.585      14.864      19.372      24.995      31.430      38.338      45.477      52.724      59.930      66.740    
  72.509      76.431      82.728      81.068      76.431      69.699      61.924      53.952      46.231      38.883    
  31.934      25.511      19.877      15.314      11.953      9.7090      8.3164      7.5301      7.2768      7.5301    
  8.3164      9.7090      11.953      15.314      19.877      25.511      31.934      38.883      46.231      53.952    
  61.924      69.699      76.431      81.068      82.728      81.068      76.431      69.699      61.924      53.952    
  46.231      38.883      31.934      25.511      19.877      15.314      11.953      9.7090      8.3164      7.5301    
  7.2768      7.5301      8.3164      9.7090      11.953      15.314      19.877      25.511      31.934      38.883    
  46.231      53.952      61.924      69.699      76.431      81.068      81.068      79.500      75.111      68.713    
  61.272      53.564      46.005      38.725      31.784      25.350      19.715      15.166      11.830      9.6108    
  8.2335      7.4561      7.2059      7.4561      8.2335      9.6108      11.830      15.166      19.715      25.350    
  31.784      38.725      46.005      53.564      61.272      68.713      75.111      79.500      76.431      75.111    
  71.392      65.897      59.357      52.362      45.241      38.153      31.252      24.814      19.200      14.714    
  11.464      9.3216      7.9897      7.2393      6.9987      7.2393      7.9897      9.3216      11.464      14.714    
  19.200      24.814      31.252      38.153      45.241      52.362      59.357      65.897      71.392      75.111    
  69.699      68.713      65.897      61.612      56.281      50.242      43.724      36.928      30.142      23.778    
  18.275      13.948      10.868      8.8582      7.6008      6.8955      6.6704      6.8955      7.6008      8.8582    
  10.868      13.948      18.275      23.778      30.142      36.928      43.724      50.242      56.281      61.612    
  65.897      68.713      61.924      61.272      59.357      56.281      52.154      47.084      41.211      34.796    
  28.260      22.134      16.910      12.884      10.072      8.2492      7.0923      6.4488      6.2445      6.4488    
  7.0923      8.2492      10.072      12.884      16.910      22.134      28.260      34.796      41.211      47.084    
  52.154      56.281      59.357      61.272      53.952      53.564      52.362      50.242      47.084      42.828    
  37.574      31.641      25.548      19.890      15.156      11.588      9.1354      7.5311      6.4982      5.9293    
  5.7494      5.9293      6.4982      7.5311      9.1354      11.588      15.156      19.890      25.548      31.641    
  37.574      42.828      47.084      50.242      52.362      53.564      46.231      46.005      45.241      43.724    
  41.211      37.574      32.911      27.589      22.161      17.210      13.162      10.173      8.1274      6.7482    
  5.8572      5.3694      5.2155      5.3694      5.8572      6.7482      8.1274      10.173      13.162      17.210    
  22.161      27.589      32.911      37.574      41.211      43.724      45.241      46.005      38.883      38.725    
  38.153      36.928      34.796      31.641      27.589      23.017      18.449      14.384      11.136      8.7658    
  7.1094      5.9518      5.2075      4.8003      4.6717      4.8003      5.2075      5.9518      7.1094      8.7658    
  11.136      14.384      18.449      23.017      27.589      31.641      34.796      36.928      38.153      38.725    
  31.934      31.784      31.252      30.142      28.260      25.548      22.161      18.449      14.848      11.726    
  9.2722      7.4619      6.1295      5.1888      4.5829      4.2493      4.1434      4.2493      4.5829      5.1888    
  6.1295      7.4619      9.2722      11.726      14.848      18.449      22.161      25.548      28.260      30.142    
  31.252      31.784      25.511      25.350      24.814      23.778      22.134      19.890      17.210      14.384    
  11.726      9.4667      7.6809      6.2931      5.2405      4.4949      4.0091      3.7381      3.6513      3.7381    
  4.0091      4.4949      5.2405      6.2931      7.6809      9.4667      11.726      14.384      17.210      19.890    
  22.134      23.778      24.814      25.350      19.877      19.715      19.200      18.275      16.910      15.156    
  13.162      11.136      9.2722      7.6809      6.3588      5.2903      4.4760      3.8913      3.5031      3.2824    
  3.2109      3.2824      3.5031      3.8913      4.4760      5.2903      6.3588      7.6809      9.2722      11.136    
  13.162      15.156      16.910      18.275      19.200      19.715      15.314      15.166      14.714      13.948    
  12.884      11.588      10.173      8.7658      7.4619      6.2931      5.2903      4.4765      3.8480      3.3872    
  3.0740      2.8925      2.8330      2.8925      3.0740      3.3872      3.8480      4.4765      5.2903      6.2931    
  7.4619      8.7658      10.173      11.588      12.884      13.948      14.714      15.166      11.953      11.830    
  11.464      10.868      10.072      9.1354      8.1274      7.1094      6.1295      5.2405      4.4760      3.8480    
  3.3535      2.9827      2.7254      2.5738      2.5236      2.5738      2.7254      2.9827      3.3535      3.8480    
  4.4760      5.2405      6.1295      7.1094      8.1274      9.1354      10.072      10.868      11.464      11.830    
  9.7090      9.6108      9.3216      8.8582      8.2492      7.5311      6.7482      5.9518      5.1888      4.4949    
  3.8913      3.3872      2.9827      2.6742      2.4570      2.3280      2.2851      2.3280      2.4570      2.6742    
  2.9827      3.3872      3.8913      4.4949      5.1888      5.9518      6.7482      7.5311      8.2492      8.8582    
  9.3216      9.6108      8.3164      8.2335      7.9897      7.6008      7.0923      6.4982      5.8572      5.2075    
  4.5829      4.0091      3.5031      3.0740      2.7254      2.4570      2.2673      2.1544      2.1169      2.1544    
  2.2673      2.4570      2.7254      3.0740      3.5031      4.0091      4.5829      5.2075      5.8572      6.4982    
  7.0923      7.6008      7.9897      8.2335      7.5301      7.4561      7.2393      6.8955      6.4488      5.9293    
  5.3694      4.8003      4.2493      3.7381      3.2824      2.8925      2.5738      2.3280      2.1544      2.0514    
  2.0172      2.0514      2.1544      2.3280      2.5738      2.8925      3.2824      3.7381      4.2493      4.8003    
  5.3694      5.9293      6.4488      6.8955      7.2393      7.4561      7.2768      7.2059      6.9987      6.6704    
  6.2445      5.7494      5.2155      4.6717      4.1434      3.6513      3.2109      2.8330      2.5236      2.2851    
  2.1169      2.0172      1.9843      2.0172      2.1169      2.2851      2.5236      2.8330      3.2109      3.6513    
  4.1434      4.6717      5.2155      5.7494      6.2445      6.6704      6.9987      7.2059      7.5301      7.4561    
  7.2393      6.8955      6.4488      5.9293      5.3694      4.8003      4.2493      3.7381      3.2824      2.8925    
  2.5738      2.3280      2.1544      2.0514      2.0172      2.0514      2.1544      2.3280      2.5738      2.8925    
  3.2824      3.7381      4.2493      4.8003      5.3694      5.9293      6.4488      6.8955      7.2393      7.4561    
  8.3164      8.2335      7.9897      7.6008      7.0923      6.4982      5.8572      5.2075      4.5829      4.0091    
  3.5031      3.0740      2.7254      2.4570      2.2673      2.1544      2.1169      2.1544      2.2673      2.4570    
  2.7254      3.0740      3.5031      4.0091      4.5829      5.2075      5.8572      6.4982      7.0923      7.6008    
  7.9897      8.2335      9.7090      9.6108      9.3216      8.8582      8.2492      7.5311      6.7482      5.9518    
  5.1888      4.4949      3.8913      3.3872      2.9827      2.6742      2.4570      2.3280      2.2851      2.3280    
  2.4570      2.6742      2.9827      3.3872      3.8913      4.4949      5.1888      5.9518      6.7482      7.5311    
  8.2492      8.8582      9.3216      9.6108      11.953      11.830      11.464      10.868      10.072      9.1354    
  8.1274      7.1094      6.1295      5.2405      4.4760      3.8480      3.3535      2.9827      2.7254      2.5738    
  2.5236      2.5738      2.7254      2.9827      3.3535      3.8480      4.4760      5.2405      6.1295      7.1094    
  8.1274      9.1354      10.072      10.868      11.464      11.830      15.314      15.166      14.714      13.948    
  12.884      11.588      10.173      8.7658      7.4619      6.2931      5.2903      4.4765      3.8480      3.3872    
  3.0740      2.8925      2.8330      2.8925      3.0740      3.3872      3.8480      4.4765      5.2903      6.2931    
  7.4619      8.7658      10.173      11.588      12.884      13.948      14.714      15.166      19.877      19.715    
  19.200      18.275      16.910      15.156      13.162      11.136      9.2722      7.6809      6.3588      5.2903    
  4.4760      3.8913      3.5031      3.2824      3.2109      3.2824      3.5031      3.8913      4.4760      5.2903    
  6.3588      7.6809      9.2722      11.136      13.162      15.156      16.910      18.275      19.200      19.715    
  25.511      25.350      24.814      23.778      22.134      19.890      17.210      14.384      11.726      9.4667    
  7.6809      6.2931      5.2405      4.4949      4.0091      3.7381      3.6513      3.7381      4.0091      4.4949    
  5.2405      6.2931      7.6809      9.4667      11.726      14.384      17.210      19.890      22.134      23.778    
  24.814      25.350      31.934      31.784      31.252      30.142      28.260      25.548      22.161      18.449    
  14.848      11.726      9.2722      7.4619      6.1295      5.1888      4.5829      4.2493      4.1434      4.2493    
  4.5829      5.1888      6.1295      7.4619      9.2722      11.726      14.848      18.449      22.161      25.548    
  28.260      30.142      31.252      31.784      38.883      38.725      38.153      36.928      34.796      31.641    
  27.589      23.017      18.449      14.384      11.136      8.7658      7.1094      5.9518      5.2075      4.8003    
  4.6717      4.8003      5.2075      5.9518      7.1094      8.7658      11.136      14.384      18.449      23.017    
  27.589      31.641      34.796      36.928      38.153      38.725      46.231      46.005      45.241      43.724    
  41.211      37.574      32.911      27.589      22.161      17.210      13.162      10.173      8.1274      6.7482    
  5.8572      5.3694      5.2155      5.3694      5.8572      6.7482      8.1274      10.173      13.162      17.210    
  22.161      27.589      32.911      37.574      41.211      43.724      45.241      46.005      53.952      53.564    
  52.362      50.242      47.084      42.828      37.574      31.641      25.548      19.890      15.156      11.588    
  9.1354      7.5311      6.4982      5.9293      5.7494      5.9293      6.4982      7.5311      9.1354      11.588    
  15.156      19.890      25.548      31.641      37.574      42.828      47.084      50.242      52.362      53.564    
  61.924      61.272      59.357      56.281      52.154      47.084      41.211      34.796      28.260      22.134    
  16.910      12.884      10.072      8.2492      7.0923      6.4488      6.2445      6.4488      7.0923      8.2492    
  10.072      12.884      16.910      22.134      28.260      34.796      41.211      47.084      52.154      56.281    
  59.357      61.272      69.699      68.713      65.897      61.612      56.281      50.242      43.724      36.928    
  30.142      23.778      18.275      13.948      10.868      8.8582      7.6008      6.8955      6.6704      6.8955    
  7.6008      8.8582      10.868      13.948      18.275      23.778      30.142      36.928      43.724      50.242    
  56.281      61.612      65.897      68.713      76.431      75.111      71.392      65.897      59.357      52.362    
  45.241      38.153      31.252      24.814      19.200      14.714      11.464      9.3216      7.9897      7.2393    
  6.9987      7.2393      7.9897      9.3216      11.464      14.714      19.200      24.814      31.252      38.153    
  45.241      52.362      59.357      65.897      71.392      75.111      81.068      79.500      75.111      68.713    
  61.272      53.564      46.005      38.725      31.784      25.350      19.715      15.166      11.830      9.6108    
  8.2335      7.4561      7.2059      7.4561      8.2335      9.6108      11.830      15.166      19.715      25.350    
  31.784      38.725      46.005      53.564      61.272      68.713      75.111      79.500      77.828      76.431    
  72.509      66.740      59.930      52.724      45.477      38.338      31.430      24.995      19.372      14.864    
  11.585      9.4170      8.0701      7.3108      7.0670      7.3108      8.0701      9.4170      11.585      14.864    
  19.372      24.995      31.430      38.338      45.477      52.724      59.930      66.740      72.509      76.431    
  76.431      75.111      71.392      65.897      59.357      52.362      45.241      38.153      31.252      24.814    
  19.200      14.714      11.464      9.3216      7.9897      7.2393      6.9987      7.2393      7.9897      9.3216    
  11.464      14.714      19.200      24.814      31.252      38.153      45.241      52.362      59.357      65.897    
  71.392      75.111      72.509      71.392      68.224      63.465      57.653      51.224      44.447      37.508    
  30.648      24.228      18.662      14.259      11.105      9.0410      7.7536      7.0302      6.7989      7.0302    
  7.7536      9.0410      11.105      14.259      18.662      24.228      30.648      37.508      44.447      51.224    
  57.653      63.465      68.224      71.392      66.740      65.897      63.465      59.687      54.847      49.181    
  42.883      36.186      29.445      23.133      17.715      13.497      10.523      8.5921      7.3773      6.6984    
  6.4822      6.6984      7.3773      8.5921      10.523      13.497      17.715      23.133      29.445      36.186    
  42.883      49.181      54.847      59.687      63.465      65.897      59.930      59.357      57.653      54.847    
  50.972      46.083      40.315      33.960      27.484      21.448      16.345      12.451      9.7520      8.0023    
  6.8858      6.2672      6.0712      6.2672      6.8858      8.0023      9.7520      12.451      16.345      21.448    
  27.484      33.960      40.315      46.083      50.972      54.847      57.653      59.357      52.724      52.362    
  51.224      49.181      46.083      41.863      36.635      30.745      24.736      19.203      14.618      11.192    
  8.8484      7.3065      6.3121      5.7658      5.5932      5.7658      6.3121      7.3065      8.8484      11.192    
  14.618      19.203      24.736      30.745      36.635      41.863      46.083      49.181      51.224      52.362    
  45.477      45.241      44.447      42.883      40.315      36.635      31.967      26.694      21.375      16.573    
  12.683      9.8300      7.8777      6.5498      5.6934      5.2250      5.0773      5.2250      5.6934      6.5498    
  7.8777      9.8300      12.683      16.573      21.375      26.694      31.967      36.635      40.315      42.883    
  44.447      45.241      38.338      38.153      37.508      36.186      33.960      30.745      26.694      22.192    
  17.750      13.837      10.738      8.4825      6.8947      5.7814      5.0663      4.6750      4.5514      4.6750    
  5.0663      5.7814      6.8947      8.4825      10.738      13.837      17.750      22.192      26.694      30.745    
  33.960      36.186      37.508      38.153      31.430      31.252      30.648      29.445      27.484      24.736    
  21.375      17.750      14.276      11.292      8.9593      7.2312      5.9496      5.0458      4.4631      4.1419    
  4.0399      4.1419      4.4631      5.0458      5.9496      7.2312      8.9593      11.292      14.276      17.750    
  21.375      24.736      27.484      29.445      30.648      31.252      24.995      24.814      24.228      23.133    
  21.448      19.203      16.573      13.837      11.292      9.1419      7.4392      6.1050      5.0935      4.3765    
  3.9085      3.6468      3.5629      3.6468      3.9085      4.3765      5.0935      6.1050      7.4392      9.1419    
  11.292      13.837      16.573      19.203      21.448      23.133      24.228      24.814      19.372      19.200    
  18.662      17.715      16.345      14.618      12.683      10.738      8.9593      7.4392      6.1674      5.1401    
  4.3571      3.7938      3.4187      3.2050      3.1357      3.2050      3.4187      3.7938      4.3571      5.1401    
  6.1674      7.4392      8.9593      10.738      12.683      14.618      16.345      17.715      18.662      19.200    
  14.864      14.714      14.259      13.497      12.451      11.192      9.8300      8.4825      7.2312      6.1050    
  5.1401      4.3571      3.7515      3.3064      3.0030      2.8267      2.7689      2.8267      3.0030      3.3064    
  3.7515      4.3571      5.1401      6.1050      7.2312      8.4825      9.8300      11.192      12.451      13.497    
  14.259      14.714      11.585      11.464      11.105      10.523      9.7520      8.8484      7.8777      6.8947    
  5.9496      5.0935      4.3571      3.7515      3.2737      2.9146      2.6648      2.5174      2.4686      2.5174    