unknown system                          
   2.80000000000000     
     1.000000    0.000000    0.000000
     0.000000    1.000000    0.000000
     0.000000    0.000000    1.000000
   Pt
     1
Direct
  0.000000  0.000000  0.000000
 
   32   32   32
 0.84486190108E+02 0.82728422238E+02 0.77827521514E+02 0.70738986387E+02 0.62606278977E+02
 0.54349661322E+02 0.46453592594E+02 0.39032373372E+02 0.32074018012E+02 0.25663429804E+02
 0.20035847473E+02 0.15460476151E+02 0.12076358866E+02 0.98081713563E+01 0.84002773897E+01
 0.76050294064E+01 0.73484809879E+01 0.76050294064E+01 0.84002773897E+01 0.98081713563E+01
 0.12076358866E+02 0.15460476151E+02 0.20035847473E+02 0.25663429804E+02 0.32074018012E+02
 0.39032373372E+02 0.46453592594E+02 0.54349661322E+02 0.62606278977E+02 0.70738986387E+02
 0.77827521514E+02 0.82728422238E+02 0.82728422238E+02 0.81068147301E+02 0.76431272727E+02
 0.69699180320E+02 0.61924217003E+02 0.53951752723E+02 0.46230744101E+02 0.38883303354E+02
 0.31934090543E+02 0.25510511754E+02 0.19877368611E+02 0.15313689429E+02 0.11953127370E+02
 0.97090474911E+01 0.83164384972E+01 0.75301134387E+01 0.72767723072E+01 0.75301134387E+01
 0.83164384972E+01 0.97090474911E+01 0.11953127370E+02 0.15313689429E+02 0.19877368611E+02
 0.25510511754E+02 0.31934090543E+02 0.38883303354E+02 0.46230744101E+02 0.53951752723E+02
 0.61924217003E+02 0.69699180320E+02 0.76431272727E+02 0.81068147301E+02 0.77827521514E+02
 0.76431272727E+02 0.72508874996E+02 0.66739983828E+02 0.59930125090E+02 0.52723765788E+02
 0.45477298938E+02 0.38337518656E+02 0.31429702396E+02 0.24994525526E+02 0.19372495640E+02
 0.14864295661E+02 0.11585350565E+02 0.94169717069E+01 0.80701110686E+01 0.73107942474E+01
 0.70670310599E+01 0.73107942474E+01 0.80701110686E+01 0.94169717069E+01 0.11585350565E+02
 0.14864295661E+02 0.19372495640E+02 0.24994525526E+02 0.31429702396E+02 0.38337518656E+02
 0.45477298938E+02 0.52723765788E+02 0.59930125090E+02 0.66739983828E+02 0.72508874996E+02
 0.76431272727E+02 0.70738986387E+02 0.69699180320E+02 0.66739983828E+02 0.62266385216E+02
 0.56751274190E+02 0.50574074390E+02 0.43976750895E+02 0.37149122994E+02 0.30355182451E+02
 0.23981850262E+02 0.18458061700E+02 0.14098762002E+02 0.10984211670E+02 0.89487391076E+01
 0.76769397432E+01 0.69628498411E+01 0.67347635502E+01 0.69628498411E+01 0.76769397432E+01
 0.89487391076E+01 0.10984211670E+02 0.14098762002E+02 0.18458061700E+02 0.23981850262E+02
 0.30355182451E+02 0.37149122994E+02 0.43976750895E+02 0.50574074390E+02 0.56751274190E+02
 0.62266385216E+02 0.66739983828E+02 0.69699180320E+02 0.62606278977E+02 0.61924217003E+02
 0.59930125090E+02 0.56751274190E+02 0.52530174325E+02 0.47392820636E+02 0.41484827455E+02
 0.35054116082E+02 0.28505245141E+02 0.22356131092E+02 0.17097158439E+02 0.13029930502E+02
 0.10181232862E+02 0.83332294214E+01 0.71627325155E+01 0.65107951797E+01 0.63036839214E+01
 0.65107951797E+01 0.71627325155E+01 0.83332294214E+01 0.10181232862E+02 0.13029930502E+02
 0.17097158439E+02 0.22356131092E+02 0.28505245141E+02 0.35054116082E+02 0.41484827455E+02
 0.47392820636E+02 0.52530174325E+02 0.56751274190E+02 0.59930125090E+02 0.61924217003E+02
 0.54349661322E+02 0.53951752723E+02 0.52723765788E+02 0.50574074390E+02 0.47392820636E+02
 0.43125490615E+02 0.37866188962E+02 0.31924599476E+02 0.25810708825E+02 0.20116237533E+02
 0.15336560892E+02 0.11722126816E+02 0.92333040961E+01 0.76075548435E+01 0.65617522804E+01
 0.59851117920E+01 0.58027456205E+01 0.59851117920E+01 0.65617522804E+01 0.76075548435E+01
 0.92333040961E+01 0.11722126816E+02 0.15336560892E+02 0.20116237533E+02 0.25810708825E+02
 0.31924599476E+02 0.37866188962E+02 0.43125490615E+02 0.47392820636E+02 0.50574074390E+02
 0.52723765788E+02 0.53951752723E+02 0.46453592594E+02 0.46230744101E+02 0.45477298938E+02
 0.43976750895E+02 0.41484827455E+02 0.37866188962E+02 0.33211652518E+02 0.27878504887E+02
 0.22420167742E+02 0.17423375250E+02 0.13324165890E+02 0.10289464267E+02 0.82125838027E+01
 0.68158161131E+01 0.59130809984E+01 0.54186628028E+01 0.52626732215E+01 0.54186628028E+01
 0.59130809984E+01 0.68158161131E+01 0.82125838027E+01 0.10289464267E+02 0.13324165890E+02
 0.17423375250E+02 0.22420167742E+02 0.27878504887E+02 0.33211652518E+02 0.37866188962E+02
 0.41484827455E+02 0.43976750895E+02 0.45477298938E+02 0.46230744101E+02 0.39032373372E+02
 0.38883303354E+02 0.38337518656E+02 0.37149122994E+02 0.35054116082E+02 0.31924599476E+02
 0.27878504887E+02 0.23289322532E+02 0.18683466261E+02 0.14568414871E+02 0.11271624969E+02
 0.88627252039E+01 0.71825087607E+01 0.60099522268E+01 0.52556989217E+01 0.48430764903E+01
 0.47127859448E+01 0.48430764903E+01 0.52556989217E+01 0.60099522268E+01 0.71825087607E+01
 0.88627252039E+01 0.11271624969E+02 0.14568414871E+02 0.18683466261E+02 0.23289322532E+02
 0.27878504887E+02 0.31924599476E+02 0.35054116082E+02 0.37149122994E+02 0.38337518656E+02
 0.38883303354E+02 0.32074018012E+02 0.31934090543E+02 0.31429702396E+02 0.30355182451E+02
 0.28505245141E+02 0.25810708825E+02 0.22420167742E+02 0.18683466261E+02 0.15041293713E+02
 0.11873573209E+02 0.93794292407E+01 0.75404868409E+01 0.61908324322E+01 0.52376881941E+01
 0.46237477263E+01 0.42859331777E+01 0.41787513173E+01 0.42859331777E+01 0.46237477263E+01
 0.52376881941E+01 0.61908324322E+01 0.75404868409E+01 0.93794292407E+01 0.11873573209E+02
 0.15041293713E+02 0.18683466261E+02 0.22420167742E+02 0.25810708825E+02 0.28505245141E+02
 0.30355182451E+02 0.31429702396E+02 0.31934090543E+02 0.25663429804E+02 0.25510511754E+02
 0.24994525526E+02 0.23981850262E+02 0.22356131092E+02 0.20116237533E+02 0.17423375250E+02
 0.14568414871E+02 0.11873573209E+02 0.95780059000E+01 0.77634884549E+01 0.63572859670E+01
 0.52907548806E+01 0.45352577464E+01 0.40433765439E+01 0.37691891253E+01 0.36814312633E+01
 0.37691891253E+01 0.40433765439E+01 0.45352577464E+01 0.52907548806E+01 0.63572859670E+01
 0.77634884549E+01 0.95780059000E+01 0.11873573209E+02 0.14568414871E+02 0.17423375250E+02
 0.20116237533E+02 0.22356131092E+02 0.23981850262E+02 0.24994525526E+02 0.25510511754E+02
 0.20035847473E+02 0.19877368611E+02 0.19372495640E+02 0.18458061700E+02 0.17097158439E+02
 0.15336560892E+02 0.13324165890E+02 0.11271624969E+02 0.93794292407E+01 0.77634884549E+01
 0.64241370151E+01 0.53415557695E+01 0.45166159066E+01 0.39245900644E+01 0.35317882946E+01
 0.33087546011E+01 0.32365510333E+01 0.33087546011E+01 0.35317882946E+01 0.39245900644E+01
 0.45166159066E+01 0.53415557695E+01 0.64241370151E+01 0.77634884549E+01 0.93794292407E+01
 0.11271624969E+02 0.13324165890E+02 0.15336560892E+02 0.17097158439E+02 0.18458061700E+02
 0.19372495640E+02 0.19877368611E+02 0.15460476151E+02 0.15313689429E+02 0.14864295661E+02
 0.14098762002E+02 0.13029930502E+02 0.11722126816E+02 0.10289464267E+02 0.88627252039E+01
 0.75404868409E+01 0.63572859670E+01 0.53415557695E+01 0.45172197040E+01 0.38808820986E+01
 0.34147348228E+01 0.30982125509E+01 0.29148689091E+01 0.28548257009E+01 0.29148689091E+01
 0.30982125509E+01 0.34147348228E+01 0.38808820986E+01 0.45172197040E+01 0.53415557695E+01
 0.63572859670E+01 0.75404868409E+01 0.88627252039E+01 0.10289464267E+02 0.11722126816E+02
 0.13029930502E+02 0.14098762002E+02 0.14864295661E+02 0.15313689429E+02 0.12076358866E+02
 0.11953127370E+02 0.11585350565E+02 0.10984211670E+02 0.10181232862E+02 0.92333040961E+01
 0.82125838027E+01 0.71825087607E+01 0.61908324322E+01 0.52907548806E+01 0.45166159066E+01
 0.38808820986E+01 0.33806678442E+01 0.30059362474E+01 0.27460011172E+01 0.25929430756E+01
 0.25423724789E+01 0.25929430756E+01 0.27460011172E+01 0.30059362474E+01 0.33806678442E+01
 0.38808820986E+01 0.45166159066E+01 0.52907548806E+01 0.61908324322E+01 0.71825087607E+01
 0.82125838027E+01 0.92333040961E+01 0.10181232862E+02 0.10984211670E+02 0.11585350565E+02
 0.11953127370E+02 0.98081713563E+01 0.97090474911E+01 0.94169717069E+01 0.89487391076E+01
 0.83332294214E+01 0.76075548435E+01 0.68158161131E+01 0.60099522268E+01 0.52376881941E+01
 0.45352577464E+01 0.39245900644E+01 0.34147348228E+01 0.30059362474E+01 0.26942316396E+01
 0.24749768617E+01 0.23446845873E+01 0.23014458158E+01 0.23446845873E+01 0.24749768617E+01
 0.26942316396E+01 0.30059362474E+01 0.34147348228E+01 0.39245900644E+01 0.45352577464E+01
 0.52376881941E+01 0.60099522268E+01 0.68158161131E+01 0.76075548435E+01 0.83332294214E+01
 0.89487391076E+01 0.94169717069E+01 0.97090474911E+01 0.84002773897E+01 0.83164384972E+01
 0.80701110686E+01 0.76769397432E+01 0.71627325155E+01 0.65617522804E+01 0.59130809984E+01
 0.52556989217E+01 0.46237477263E+01 0.40433765439E+01 0.35317882946E+01 0.30982125509E+01
 0.27460011172E+01 0.24749768617E+01 0.22834156914E+01 0.21693967119E+01 0.21315520081E+01
 0.21693967119E+01 0.22834156914E+01 0.24749768617E+01 0.27460011172E+01 0.30982125509E+01
 0.35317882946E+01 0.40433765439E+01 0.46237477263E+01 0.52556989217E+01 0.59130809984E+01
 0.65617522804E+01 0.71627325155E+01 0.76769397432E+01 0.80701110686E+01 0.83164384972E+01
 0.76050294064E+01 0.75301134387E+01 0.73107942474E+01 0.69628498411E+01 0.65107951797E+01
 0.59851117920E+01 0.54186628028E+01 0.48430764903E+01 0.42859331777E+01 0.37691891253E+01
 0.33087546011E+01 0.29148689091E+01 0.25929430756E+01 0.23446845873E+01 0.21693967119E+01
 0.20653225387E+01 0.20308444465E+01 0.20653225387E+01 0.21693967119E+01 0.23446845873E+01
 0.25929430756E+01 0.29148689091E+01 0.33087546011E+01 0.37691891253E+01 0.42859331777E+01
 0.48430764903E+01 0.54186628028E+01 0.59851117920E+01 0.65107951797E+01 0.69628498411E+01
 0.73107942474E+01 0.75301134387E+01 0.73484809879E+01 0.72767723072E+01 0.70670310599E+01
 0.67347635502E+01 0.63036839214E+01 0.58027456205E+01 0.52626732215E+01 0.47127859448E+01
 0.41787513173E+01 0.36814312633E+01 0.32365510333E+01 0.28548257009E+01 0.25423724789E+01
 0.23014458158E+01 0.21315520081E+01 0.20308444465E+01 0.19975182296E+01 0.20308444465E+01
 0.21315520081E+01 0.23014458158E+01 0.25423724789E+01 0.28548257009E+01 0.32365510333E+01
 0.36814312633E+01 0.41787513173E+01 0.47127859448E+01 0.52626732215E+01 0.58027456205E+01
 0.63036839214E+01 0.67347635502E+01 0.70670310599E+01 0.72767723072E+01 0.76050294064E+01
 0.75301134387E+01 0.73107942474E+01 0.69628498411E+01 0.65107951797E+01 0.59851117920E+01
 0.54186628028E+01 0.48430764903E+01 0.42859331777E+01 0.37691891253E+01 0.33087546011E+01
 0.29148689091E+01 0.25929430756E+01 0.23446845873E+01 0.21693967119E+01 0.20653225387E+01
 0.20308444465E+01 0.20653225387E+01 0.21693967119E+01 0.23446845873E+01 0.25929430756E+01
 0.29148689091E+01 0.33087546011E+01 0.37691891253E+01 0.42859331777E+01 0.48430764903E+01
 0.54186628028E+01 0.59851117920E+01 0.65107951797E+01 0.69628498411E+01 0.73107942474E+01
 0.75301134387E+01 0.84002773897E+01 0.83164384972E+01 0.80701110686E+01 0.76769397432E+01
 0.71627325155E+01 0.65617522804E+01 0.59130809984E+01 0.52556989217E+01 0.46237477263E+01
 0.40433765439E+01 0.35317882946E+01 0.30982125509E+01 0.27460011172E+01 0.24749768617E+01
 0.22834156914E+01 0.21693967119E+01 0.21315520081E+01 0.21693967119E+01 0.22834156914E+01
 0.24749768617E+01 0.27460011172E+01 0.30982125509E+01 0.35317882946E+01 0.40433765439E+01
 0.46237477263E+01 0.52556989217E+01 0.59130809984E+01 0.65617522804E+01 0.71627325155E+01
 0.76769397432E+01 0.80701110686E+01 0.83164384972E+01 0.98081713563E+01 0.97090474911E+01
 0.94169717069E+01 0.89487391076E+01 0.83332294214E+01 0.76075548435E+01 0.68158161131E+01
 0.60099522268E+01 0.52376881941E+01 0.45352577464E+01 0.39245900644E+01 0.34147348228E+01
 0.30059362474E+01 0.26942316396E+01 0.24749768617E+01 0.23446845873E+01 0.23014458158E+01
 0.23446845873E+01 0.24749768617E+01 0.26942316396E+01 0.30059362474E+01 0.34147348228E+01
 0.39245900644E+01 0.45352577464E+01 0.52376881941E+01 0.60099522268E+01 0.68158161131E+01
 0.76075548435E+01 0.83332294214E+01 0.89487391076E+01 0.94169717069E+01 0.97090474911E+01
 0.12076358866E+02 0.11953127370E+02 0.11585350565E+02 0.10984211670E+02 0.10181232862E+02
 0.92333040961E+01 0.82125838027E+01 0.71825087607E+01 0.61908324322E+01 0.52907548806E+01
 0.45166159066E+01 0.38808820986E+01 0.33806678442E+01 0.30059362474E+01 0.27460011172E+01
 0.25929430756E+01 0.25423724789E+01 0.25929430756E+01 0.27460011172E+01 0.30059362474E+01
 0.33806678442E+01 0.38808820986E+01 0.45166159066E+01 0.52907548806E+01 0.61908324322E+01
 0.71825087607E+01 0.82125838027E+01 0.92333040961E+01 0.10181232862E+02 0.10984211670E+02
 0.11585350565E+02 0.11953127370E+02 0.15460476151E+02 0.15313689429E+02 0.14864295661E+02
 0.14098762002E+02 0.13029930502E+02 0.11722126816E+02 0.10289464267E+02 0.88627252039E+01
 0.75404868409E+01 0.63572859670E+01 0.53415557695E+01 0.45172197040E+01 0.38808820986E+01
 0.34147348228E+01 0.30982125509E+01 0.29148689091E+01 0.28548257009E+01 0.29148689091E+01
 0.30982125509E+01 0.34147348228E+01 0.38808820986E+01 0.45172197040E+01 0.53415557695E+01
 0.63572859670E+01 0.75404868409E+01 0.88627252039E+01 0.10289464267E+02 0.11722126816E+02
 0.13029930502E+02 0.14098762002E+02 0.14864295661E+02 0.15313689429E+02 0.20035847473E+02
 0.19877368611E+02 0.19372495640E+02 0.18458061700E+02 0.17097158439E+02 0.15336560892E+02
 0.13324165890E+02 0.11271624969E+02 0.93794292407E+01 0.77634884549E+01 0.64241370151E+01
 0.53415557695E+01 0.45166159066E+01 0.39245900644E+01 0.35317882946E+01 0.33087546011E+01
 0.32365510333E+01 0.33087546011E+01 0.35317882946E+01 0.39245900644E+01 0.45166159066E+01
 0.53415557695E+01 0.64241370151E+01 0.77634884549E+01 0.93794292407E+01 0.11271624969E+02
 0.13324165890E+02 0.15336560892E+02 0.17097158439E+02 0.18458061700E+02 0.19372495640E+02
 0.19877368611E+02 0.25663429804E+02 0.25510511754E+02 0.24994525526E+02 0.23981850262E+02
 0.22356131092E+02 0.20116237533E+02 0.17423375250E+02 0.14568414871E+02 0.11873573209E+02
 0.95780059000E+01 0.77634884549E+01 0.63572859670E+01 0.52907548806E+01 0.45352577464E+01
 0.40433765439E+01 0.37691891253E+01 0.36814312633E+01 0.37691891253E+01 0.40433765439E+01
 0.45352577464E+01 0.52907548806E+01 0.63572859670E+01 0.77634884549E+01 0.95780059000E+01
 0.11873573209E+02 0.14568414871E+02 0.17423375250E+02 0.20116237533E+02 0.22356131092E+02
 0.23981850262E+02 0.24994525526E+02 0.25510511754E+02 0.32074018012E+02 0.31934090543E+02
 0.31429702396E+02 0.30355182451E+02 0.28505245141E+02 0.25810708825E+02 0.22420167742E+02
 0.18683466261E+02 0.15041293713E+02 0.11873573209E+02 0.93794292407E+01 0.75404868409E+01
 0.61908324322E+01 0.52376881941E+01 0.46237477263E+01 0.42859331777E+01 0.41787513173E+01
 0.42859331777E+01 0.46237477263E+01 0.52376881941E+01 0.61908324322E+01 0.75404868409E+01
 0.93794292407E+01 0.11873573209E+02 0.15041293713E+02 0.18683466261E+02 0.22420167742E+02
 0.25810708825E+02 0.28505245141E+02 0.30355182451E+02 0.31429702396E+02 0.31934090543E+02
 0.39032373372E+02 0.38883303354E+02 0.38337518656E+02 0.37149122994E+02 0.35054116082E+02
 0.31924599476E+02 0.27878504887E+02 0.23289322532E+02 0.18683466261E+02 0.14568414871E+02
 0.11271624969E+02 0.88627252039E+01 0.71825087607E+01 0.60099522268E+01 0.52556989217E+01
 0.48430764903E+01 0.47127859448E+01 0.48430764903E+01 0.52556989217E+01 0.60099522268E+01
 0.71825087607E+01 0.88627252039E+01 0.11271624969E+02 0.14568414871E+02 0.18683466261E+02
 0.23289322532E+02 0.27878504887E+02 0.31924599476E+02 0.35054116082E+02 0.37149122994E+02
 0.38337518656E+02 0.38883303354E+02 0.46453592594E+02 0.46230744101E+02 0.45477298938E+02
 0.43976750895E+02 0.41484827455E+02 0.37866188962E+02 0.33211652518E+02 0.27878504887E+02
 0.22420167742E+02 0.17423375250E+02 0.13324165890E+02 0.10289464267E+02 0.82125838027E+01
 0.68158161131E+01 0.59130809984E+01 0.54186628028E+01 0.52626732215E+01 0.54186628028E+01
 0.59130809984E+01 0.68158161131E+01 0.82125838027E+01 0.10289464267E+02 0.13324165890E+02
 0.17423375250E+02 0.22420167742E+02 0.27878504887E+02 0.33211652518E+02 0.37866188962E+02
 0.41484827455E+02 0.43976750895E+02 0.45477298938E+02 0.46230744101E+02 0.54349661322E+02
 0.53951752723E+02 0.52723765788E+02 0.50574074390E+02 0.47392820636E+02 0.43125490615E+02
 0.37866188962E+02 0.31924599476E+02 0.25810708825E+02 0.20116237533E+02 0.15336560892E+02
 0.11722126816E+02 0.92333040961E+01 0.76075548435E+01 0.65617522804E+01 0.59851117920E+01
 0.58027456205E+01 0.59851117920E+01 0.65617522804E+01 0.76075548435E+01 0.92333040961E+01
 0.11722126816E+02 0.15336560892E+02 0.20116237533E+02 0.25810708825E+02 0.31924599476E+02
 0.37866188962E+02 0.43125490615E+02 0.47392820636E+02 0.50574074390E+02 0.52723765788E+02
 0.53951752723E+02 0.62606278977E+02 0.61924217003E+02 0.59930125090E+02 0.56751274190E+02
 0.52530174325E+02 0.47392820636E+02 0.41484827455E+02 0.35054116082E+02 0.28505245141E+02
 0.22356131092E+02 0.17097158439E+02 0.13029930502E+02 0.10181232862E+02 0.83332294214E+01
 0.71627325155E+01 0.65107951797E+01 0.63036839214E+01 0.65107951797E+01 0.71627325155E+01
 0.83332294214E+01 0.10181232862E+02 0.13029930502E+02 0.17097158439E+02 0.22356131092E+02
 0.28505245141E+02 0.35054116082E+02 0.41484827455E+02 0.47392820636E+02 0.52530174325E+02
 0.56751274190E+02 0.59930125090E+02 0.61924217003E+02 0.70738986387E+02 0.69699180320E+02
 0.66739983828E+02 0.62266385216E+02 0.56751274190E+02 0.50574074390E+02 0.43976750895E+02
 0.37149122994E+02 0.30355182451E+02 0.23981850262E+02 0.18458061700E+02 0.14098762002E+02
 0.10984211670E+02 0.89487391076E+01 0.76769397432E+01 0.69628498411E+01 0.67347635502E+01
 0.69628498411E+01 0.76769397432E+01 0.89487391076E+01 0.10984211670E+02 0.14098762002E+02
 0.18458061700E+02 0.23981850262E+02 0.30355182451E+02 0.37149122994E+02 0.43976750895E+02
 0.50574074390E+02 0.56751274190E+02 0.62266385216E+02 0.66739983828E+02 0.69699180320E+02
 0.77827521514E+02 0.76431272727E+02 0.72508874996E+02 0.66739983828E+02 0.59930125090E+02
 0.52723765788E+02 0.45477298938E+02 0.38337518656E+02 0.31429702396E+02 0.24994525526E+02
 0.19372495640E+02 0.14864295661E+02 0.11585350565E+02 0.94169717069E+01 0.80701110686E+01
 0.73107942474E+01 0.70670310599E+01 0.73107942474E+01 0.80701110686E+01 0.94169717069E+01
 0.11585350565E+02 0.14864295661E+02 0.19372495640E+02 0.24994525526E+02 0.31429702396E+02
 0.38337518656E+02 0.45477298938E+02 0.52723765788E+02 0.59930125090E+02 0.66739983828E+02
 0.72508874996E+02 0.76431272727E+02 0.82728422238E+02 0.81068147301E+02 0.76431272727E+02
 0.69699180320E+02 0.61924217003E+02 0.53951752723E+02 0.46230744101E+02 0.38883303354E+02
 0.31934090543E+02 0.25510511754E+02 0.19877368611E+02 0.15313689429E+02 0.11953127370E+02
 0.97090474911E+01 0.83164384972E+01 0.75301134387E+01 0.72767723072E+01 0.75301134387E+01
 0.83164384972E+01 0.97090474911E+01 0.11953127370E+02 0.15313689429E+02 0.19877368611E+02
 0.25510511754E+02 0.31934090543E+02 0.38883303354E+02 0.46230744101E+02 0.53951752723E+02
 0.61924217003E+02 0.69699180320E+02 0.76431272727E+02 0.81068147301E+02 0.82728422238E+02
 0.81068147301E+02 0.76431272727E+02 0.69699180320E+02 0.61924217003E+02 0.53951752723E+02
 0.46230744101E+02 0.38883303354E+02 0.31934090543E+02 0.25510511754E+02 0.19877368611E+02
 0.15313689429E+02 0.11953127370E+02 0.97090474911E+01 0.83164384972E+01 0.75301134387E+01
 0.72767723072E+01 0.75301134387E+01 0.83164384972E+01 0.97090474911E+01 0.11953127370E+02
 0.15313689429E+02 0.19877368611E+02 0.25510511754E+02 0.31934090543E+02 0.38883303354E+02
 0.46230744101E+02 0.53951752723E+02 0.61924217003E+02 0.69699180320E+02 0.76431272727E+02
 0.81068147301E+02 0.81068147301E+02 0.79499541360E+02 0.75110691216E+02 0.68712786436E+02
 0.61272161344E+02 0.53563980649E+02 0.46004639856E+02 0.38724676259E+02 0.31783997161E+02
 0.25350072683E+02 0.19714895861E+02 0.15165757295E+02 0.11830341997E+02 0.96108468987E+01
 0.82334583850E+01 0.74560774438E+01 0.72059305858E+01 0.74560774438E+01 0.82334583850E+01
 0.96108468987E+01 0.11830341997E+02 0.15165757295E+02 0.19714895861E+02 0.25350072683E+02
 0.31783997161E+02 0.38724676259E+02 0.46004639856E+02 0.53563980649E+02 0.61272161344E+02
 0.68712786436E+02 0.75110691216E+02 0.79499541360E+02 0.76431272727E+02 0.75110691216E+02
 0.71392405820E+02 0.65896789657E+02 0.59357495537E+02 0.52361676823E+02 0.45241124160E+02
 0.38152523413E+02 0.31252339901E+02 0.24814490682E+02 0.19200166285E+02 0.14714130293E+02
 0.11464394268E+02 0.93216124205E+01 0.79897022317E+01 0.72393400221E+01 0.69987197489E+01
 0.72393400221E+01 0.79897022317E+01 0.93216124205E+01 0.11464394268E+02 0.14714130293E+02
 0.19200166285E+02 0.24814490682E+02 0.31252339901E+02 0.38152523413E+02 0.45241124160E+02
 0.52361676823E+02 0.59357495537E+02 0.65896789657E+02 0.71392405820E+02 0.75110691216E+02
 0.69699180320E+02 0.68712786436E+02 0.65896789657E+02 0.61612452035E+02 0.56280791898E+02
 0.50241882450E+02 0.43723783921E+02 0.36927597166E+02 0.30142220689E+02 0.23777978152E+02
 0.18275475079E+02 0.13948257367E+02 0.10867590297E+02 0.88582054432E+01 0.76007670778E+01
 0.68955020317E+01 0.66704400258E+01 0.68955020317E+01 0.76007670778E+01 0.88582054432E+01
 0.10867590297E+02 0.13948257367E+02 0.18275475079E+02 0.23777978152E+02 0.30142220689E+02
 0.36927597166E+02 0.43723783921E+02 0.50241882450E+02 0.56280791898E+02 0.61612452035E+02
 0.65896789657E+02 0.68712786436E+02 0.61924217003E+02 0.61272161344E+02 0.59357495537E+02
 0.56280791898E+02 0.52154304810E+02 0.47083600980E+02 0.41210951597E+02 0.34795864647E+02
 0.28260090572E+02 0.22134022673E+02 0.16910359556E+02 0.12884170996E+02 0.10072359751E+02
 0.82492306881E+01 0.70922989881E+01 0.64487826363E+01 0.62444834027E+01 0.64487826363E+01
 0.70922989881E+01 0.82492306881E+01 0.10072359751E+02 0.12884170996E+02 0.16910359556E+02
 0.22134022673E+02 0.28260090572E+02 0.34795864647E+02 0.41210951597E+02 0.47083600980E+02
 0.52154304810E+02 0.56280791898E+02 0.59357495537E+02 0.61272161344E+02 0.53951752723E+02
 0.53563980649E+02 0.52361676823E+02 0.50241882450E+02 0.47083600980E+02 0.42827935625E+02
 0.37573609571E+02 0.31640531495E+02 0.25547839788E+02 0.19889742759E+02 0.15156249549E+02
 0.11587866057E+02 0.91354401224E+01 0.75311200632E+01 0.64982307755E+01 0.59292692329E+01
 0.57494041549E+01 0.59292692329E+01 0.64982307755E+01 0.75311200632E+01 0.91354401224E+01
 0.11587866057E+02 0.15156249549E+02 0.19889742759E+02 0.25547839788E+02 0.31640531495E+02
 0.37573609571E+02 0.42827935625E+02 0.47083600980E+02 0.50241882450E+02 0.52361676823E+02
 0.53563980649E+02 0.46230744101E+02 0.46004639856E+02 0.45241124160E+02 0.43723783921E+02
 0.41210951597E+02 0.37573609571E+02 0.32911265417E+02 0.27588543245E+02 0.22160864879E+02
 0.17209997369E+02 0.13161915498E+02 0.10172577461E+02 0.81274424863E+01 0.67481832570E+01
 0.58571579127E+01 0.53693808382E+01 0.52155066615E+01 0.53693808382E+01 0.58571579127E+01
 0.67481832570E+01 0.81274424863E+01 0.10172577461E+02 0.13161915498E+02 0.17209997369E+02
 0.22160864879E+02 0.27588543245E+02 0.32911265417E+02 0.37573609571E+02 0.41210951597E+02
 0.43723783921E+02 0.45241124160E+02 0.46004639856E+02 0.38883303354E+02 0.38724676259E+02
 0.38152523413E+02 0.36927597166E+02 0.34795864647E+02 0.31640531495E+02 0.27588543245E+02
 0.23017075521E+02 0.18449277911E+02 0.14383516739E+02 0.11135753818E+02 0.87658381591E+01
 0.71093981897E+01 0.59517956805E+01 0.52075003088E+01 0.48003177799E+01 0.46717280985E+01
 0.48003177799E+01 0.52075003088E+01 0.59517956805E+01 0.71093981897E+01 0.87658381591E+01
 0.11135753818E+02 0.14383516739E+02 0.18449277911E+02 0.23017075521E+02 0.27588543245E+02
 0.31640531495E+02 0.34795864647E+02 0.36927597166E+02 0.38152523413E+02 0.38724676259E+02
 0.31934090543E+02 0.31783997161E+02 0.31252339901E+02 0.30142220689E+02 0.28260090572E+02
 0.25547839788E+02 0.22160864879E+02 0.18449277911E+02 0.14847599612E+02 0.11725643905E+02
 0.92722475984E+01 0.74618643584E+01 0.61294704571E+01 0.51888430384E+01 0.45828809491E+01
 0.42493096553E+01 0.41434366175E+01 0.42493096553E+01 0.45828809491E+01 0.51888430384E+01
 0.61294704571E+01 0.74618643584E+01 0.92722475984E+01 0.11725643905E+02 0.14847599612E+02
 0.18449277911E+02 0.22160864879E+02 0.25547839788E+02 0.28260090572E+02 0.30142220689E+02
 0.31252339901E+02 0.31783997161E+02 0.25510511754E+02 0.25350072683E+02 0.24814490682E+02
 0.23777978152E+02 0.22134022673E+02 0.19889742759E+02 0.17209997369E+02 0.14383516739E+02
 0.11725643905E+02 0.94667142264E+01 0.76809234736E+01 0.62931125681E+01 0.52405469252E+01
 0.44948570247E+01 0.40090671663E+01 0.37380743882E+01 0.36512957454E+01 0.37380743882E+01
 0.40090671663E+01 0.44948570247E+01 0.52405469252E+01 0.62931125681E+01 0.76809234736E+01
 0.94667142264E+01 0.11725643905E+02 0.14383516739E+02 0.17209997369E+02 0.19889742759E+02
 0.22134022673E+02 0.23777978152E+02 0.24814490682E+02 0.25350072683E+02 0.19877368611E+02
 0.19714895861E+02 0.19200166285E+02 0.18275475079E+02 0.16910359556E+02 0.15156249549E+02
 0.13161915498E+02 0.11135753818E+02 0.92722475984E+01 0.76809234736E+01 0.63588431216E+01
 0.52902963987E+01 0.44760372528E+01 0.38913386633E+01 0.35030560784E+01 0.32823977941E+01
 0.32109252586E+01 0.32823977941E+01 0.35030560784E+01 0.38913386633E+01 0.44760372528E+01
 0.52902963987E+01 0.63588431216E+01 0.76809234736E+01 0.92722475984E+01 0.11135753818E+02
 0.13161915498E+02 0.15156249549E+02 0.16910359556E+02 0.18275475079E+02 0.19200166285E+02
 0.19714895861E+02 0.15313689429E+02 0.15165757295E+02 0.14714130293E+02 0.13948257367E+02
 0.12884170996E+02 0.11587866057E+02 0.10172577461E+02 0.87658381591E+01 0.74618643584E+01
 0.62931125681E+01 0.52902963987E+01 0.44764857606E+01 0.38479795107E+01 0.33871960826E+01
 0.30740273770E+01 0.28924830887E+01 0.28330022781E+01 0.28924830887E+01 0.30740273770E+01
 0.33871960826E+01 0.38479795107E+01 0.44764857606E+01 0.52902963987E+01 0.62931125681E+01
 0.74618643584E+01 0.87658381591E+01 0.10172577461E+02 0.11587866057E+02 0.12884170996E+02
 0.13948257367E+02 0.14714130293E+02 0.15165757295E+02 0.11953127370E+02 0.11830341997E+02
 0.11464394268E+02 0.10867590297E+02 0.10072359751E+02 0.91354401224E+01 0.81274424863E+01
 0.71093981897E+01 0.61294704571E+01 0.52405469252E+01 0.44760372528E+01 0.38479795107E+01
 0.33534805957E+01 0.29827404013E+01 0.27253825476E+01 0.25737560337E+01 0.25236432032E+01
 0.25737560337E+01 0.27253825476E+01 0.29827404013E+01 0.33534805957E+01 0.38479795107E+01
 0.44760372528E+01 0.52405469252E+01 0.61294704571E+01 0.71093981897E+01 0.81274424863E+01
 0.91354401224E+01 0.10072359751E+02 0.10867590297E+02 0.11464394268E+02 0.11830341997E+02
 0.97090474911E+01 0.96108468987E+01 0.93216124205E+01 0.88582054432E+01 0.82492306881E+01
 0.75311200632E+01 0.67481832570E+01 0.59517956805E+01 0.51888430384E+01 0.44948570247E+01
 0.38913386633E+01 0.33871960826E+01 0.29827404013E+01 0.26741752760E+01 0.24570316928E+01
 0.23279553847E+01 0.22851138800E+01 0.23279553847E+01 0.24570316928E+01 0.26741752760E+01
 0.29827404013E+01 0.33871960826E+01 0.38913386633E+01 0.44948570247E+01 0.51888430384E+01
 0.59517956805E+01 0.67481832570E+01 0.75311200632E+01 0.82492306881E+01 0.88582054432E+01
 0.93216124205E+01 0.96108468987E+01 0.83164384972E+01 0.82334583850E+01 0.79897022317E+01
 0.76007670778E+01 0.70922989881E+01 0.64982307755E+01 0.58571579127E+01 0.52075003088E+01
 0.45828809491E+01 0.40090671663E+01 0.35030560784E+01 0.30740273770E+01 0.27253825476E+01
 0.24570316928E+01 0.22673305266E+01 0.21544107196E+01 0.21169300400E+01 0.21544107196E+01
 0.22673305266E+01 0.24570316928E+01 0.27253825476E+01 0.30740273770E+01 0.35030560784E+01
 0.40090671663E+01 0.45828809491E+01 0.52075003088E+01 0.58571579127E+01 0.64982307755E+01
 0.70922989881E+01 0.76007670778E+01 0.79897022317E+01 0.82334583850E+01 0.75301134387E+01
 0.74560774438E+01 0.72393400221E+01 0.68955020317E+01 0.64487826363E+01 0.59292692329E+01
 0.53693808382E+01 0.48003177799E+01 0.42493096553E+01 0.37380743882E+01 0.32823977941E+01
 0.28924830887E+01 0.25737560337E+01 0.23279553847E+01 0.21544107196E+01 0.20513793952E+01
 0.20172486524E+01 0.20513793952E+01 0.21544107196E+01 0.23279553847E+01 0.25737560337E+01
 0.28924830887E+01 0.32823977941E+01 0.37380743882E+01 0.42493096553E+01 0.48003177799E+01
 0.53693808382E+01 0.59292692329E+01 0.64487826363E+01 0.68955020317E+01 0.72393400221E+01
 0.74560774438E+01 0.72767723072E+01 0.72059305858E+01 0.69987197489E+01 0.66704400258E+01
 0.62444834027E+01 0.57494041549E+01 0.52155066615E+01 0.46717280985E+01 0.41434366175E+01
 0.36512957454E+01 0.32109252586E+01 0.28330022781E+01 0.25236432032E+01 0.22851138800E+01
 0.21169300400E+01 0.20172486524E+01 0.19842646699E+01 0.20172486524E+01 0.21169300400E+01
 0.22851138800E+01 0.25236432032E+01 0.28330022781E+01 0.32109252586E+01 0.36512957454E+01
 0.41434366175E+01 0.46717280985E+01 0.52155066615E+01 0.57494041549E+01 0.62444834027E+01
 0.66704400258E+01 0.69987197489E+01 0.72059305858E+01 0.75301134387E+01 0.74560774438E+01
 0.72393400221E+01 0.68955020317E+01 0.64487826363E+01 0.59292692329E+01 0.53693808382E+01
 0.48003177799E+01 0.42493096553E+01 0.37380743882E+01 0.32823977941E+01 0.28924830887E+01
 0.25737560337E+01 0.23279553847E+01 0.21544107196E+01 0.20513793952E+01 0.20172486524E+01
 0.20513793952E+01 0.21544107196E+01 0.23279553847E+01 0.25737560337E+01 0.28924830887E+01
 0.32823977941E+01 0.37380743882E+01 0.42493096553E+01 0.48003177799E+01 0.53693808382E+01
 0.59292692329E+01 0.64487826363E+01 0.68955020317E+01 0.72393400221E+01 0.74560774438E+01
 0.83164384972E+01 0.82334583850E+01 0.79897022317E+01 0.76007670778E+01 0.70922989881E+01
 0.64982307755E+01 0.58571579127E+01 0.52075003088E+01 0.45828809491E+01 0.40090671663E+01
 0.35030560784E+01 0.30740273770E+01 0.27253825476E+01 0.24570316928E+01 0.22673305266E+01
 0.21544107196E+01 0.21169300400E+01 0.21544107196E+01 0.22673305266E+01 0.24570316928E+01
 0.27253825476E+01 0.30740273770E+01 0.35030560784E+01 0.40090671663E+01 0.45828809491E+01
 0.52075003088E+01 0.58571579127E+01 0.64982307755E+01 0.70922989881E+01 0.76007670778E+01