   1   1   0   0
  0.2195200E+02  0.2800000E-09  0.2800000E-09  0.2800000E-09  0.5000000E-15
  1.000000000000000E-004
  CAR 
 unknown system                          
     27.09665107     -5.59486738  301      3.17451377      1.00000000
     -5.595  0.0000E+00  0.0000E+00
     -5.486  0.0000E+00  0.0000E+00
     -5.377  0.0000E+00  0.0000E+00
     -5.268  0.0000E+00  0.0000E+00
     -5.159  0.0000E+00  0.0000E+00
     -5.050  0.0000E+00  0.0000E+00
     -4.941  0.0000E+00  0.0000E+00
     -4.832  0.0000E+00  0.0000E+00
     -4.723  0.0000E+00  0.0000E+00
     -4.614  0.0000E+00  0.0000E+00
     -4.505  0.0000E+00  0.0000E+00
     -4.396  0.0000E+00  0.0000E+00
     -4.287  0.0000E+00  0.0000E+00
     -4.178  0.0000E+00  0.0000E+00
     -4.069  0.0000E+00  0.0000E+00
     -3.960  0.0000E+00  0.0000E+00
     -3.851  0.0000E+00  0.0000E+00
     -3.742  0.0000E+00  0.0000E+00
     -3.633  0.0000E+00  0.0000E+00
     -3.524  0.3140E-02  0.7374E-04
     -3.415  0.2036E-01  0.1218E-02
     -3.306  0.4865E-01  0.4979E-02
     -3.197  0.6768E-01  0.1143E-01
     -3.089  0.7581E-01  0.1931E-01
     -2.980  0.8488E-01  0.2803E-01
     -2.871  0.9780E-01  0.3795E-01
     -2.762  0.1126E+00  0.4940E-01
     -2.653  0.1271E+00  0.6247E-01
     -2.544  0.1405E+00  0.7706E-01
     -2.435  0.1542E+00  0.9310E-01
     -2.326  0.1696E+00  0.1107E+00
     -2.217  0.1862E+00  0.1301E+00
     -2.108  0.2034E+00  0.1513E+00
     -1.999  0.2223E+00  0.1745E+00
     -1.890  0.2477E+00  0.2000E+00
     -1.781  0.2824E+00  0.2288E+00
     -1.672  0.3196E+00  0.2616E+00
     -1.563  0.3568E+00  0.2985E+00
     -1.454  0.4103E+00  0.3399E+00
     -1.345  0.5019E+00  0.3893E+00
     -1.236  0.5939E+00  0.4494E+00
     -1.127  0.6426E+00  0.5171E+00
     -1.018  0.7340E+00  0.5900E+00
     -0.909  0.1158E+01  0.6904E+00
     -0.800  0.1883E+01  0.8532E+00
     -0.691  0.2438E+01  0.1092E+01
     -0.582  0.2570E+01  0.1366E+01
     -0.473  0.2599E+01  0.1649E+01
     -0.364  0.3125E+01  0.1950E+01
     -0.255  0.3171E+01  0.2306E+01
     -0.146  0.3828E+01  0.2670E+01
     -0.037  0.2625E+01  0.3011E+01
      0.072  0.2188E+01  0.3272E+01
      0.181  0.1806E+01  0.3487E+01
      0.290  0.1726E+01  0.3679E+01
      0.399  0.1836E+01  0.3873E+01
      0.508  0.2452E+01  0.4099E+01
      0.617  0.2069E+01  0.4361E+01
      0.725  0.2022E+01  0.4567E+01
      0.834  0.2184E+01  0.4829E+01
      0.943  0.1904E+01  0.5054E+01
      1.052  0.1530E+01  0.5241E+01
      1.161  0.1298E+01  0.5393E+01
      1.270  0.1302E+01  0.5533E+01
      1.379  0.1584E+01  0.5686E+01
      1.488  0.1979E+01  0.5883E+01
      1.597  0.2277E+01  0.6114E+01
      1.706  0.2513E+01  0.6373E+01
      1.815  0.3025E+01  0.6676E+01
      1.924  0.3023E+01  0.7016E+01
      2.033  0.2595E+01  0.7319E+01
      2.142  0.1938E+01  0.7572E+01
      2.251  0.1358E+01  0.7740E+01
      2.360  0.2342E+01  0.7919E+01
      2.469  0.3321E+01  0.8287E+01
      2.578  0.2829E+01  0.8621E+01
      2.687  0.2701E+01  0.8917E+01
      2.796  0.2424E+01  0.9201E+01
      2.905  0.2161E+01  0.9455E+01
      3.014  0.2022E+01  0.9682E+01
      3.123  0.1933E+01  0.9897E+01
      3.232  0.1791E+01  0.1011E+02
      3.341  0.1391E+01  0.1029E+02
      3.450  0.8409E+00  0.1040E+02
      3.559  0.7984E+00  0.1049E+02
      3.668  0.8367E+00  0.1058E+02
      3.777  0.7870E+00  0.1067E+02
      3.886  0.7239E+00  0.1075E+02
      3.995  0.6576E+00  0.1083E+02
      4.104  0.5846E+00  0.1089E+02
      4.213  0.5217E+00  0.1095E+02
      4.322  0.4556E+00  0.1101E+02
      4.431  0.3862E+00  0.1105E+02
      4.540  0.3278E+00  0.1109E+02
      4.648  0.2904E+00  0.1112E+02
      4.757  0.2861E+00  0.1116E+02
      4.866  0.2816E+00  0.1119E+02
      4.975  0.2769E+00  0.1122E+02
      5.084  0.2718E+00  0.1125E+02
      5.193  0.2668E+00  0.1128E+02
      5.302  0.2622E+00  0.1131E+02
      5.411  0.2585E+00  0.1133E+02
      5.520  0.2557E+00  0.1136E+02
      5.629  0.2535E+00  0.1139E+02
      5.738  0.2516E+00  0.1142E+02
      5.847  0.2498E+00  0.1144E+02
      5.956  0.2479E+00  0.1147E+02
      6.065  0.2460E+00  0.1150E+02
      6.174  0.2441E+00  0.1153E+02
      6.283  0.2420E+00  0.1155E+02
      6.392  0.2398E+00  0.1158E+02
      6.501  0.2401E+00  0.1160E+02
      6.610  0.3123E+00  0.1163E+02
      6.719  0.3548E+00  0.1167E+02
      6.828  0.3815E+00  0.1171E+02
      6.937  0.3874E+00  0.1175E+02
      7.046  0.3886E+00  0.1180E+02
      7.155  0.3952E+00  0.1184E+02
      7.264  0.4071E+00  0.1188E+02
      7.373  0.4245E+00  0.1193E+02
      7.482  0.4324E+00  0.1197E+02
      7.591  0.4365E+00  0.1202E+02
      7.700  0.4378E+00  0.1207E+02
      7.809  0.4302E+00  0.1212E+02
      7.918  0.4220E+00  0.1216E+02
      8.027  0.4128E+00  0.1221E+02
      8.136  0.4070E+00  0.1225E+02
      8.245  0.4035E+00  0.1230E+02
      8.354  0.4006E+00  0.1234E+02
      8.462  0.3973E+00  0.1238E+02
      8.571  0.3937E+00  0.1243E+02
      8.680  0.3902E+00  0.1247E+02
      8.789  0.3875E+00  0.1251E+02
      8.898  0.3847E+00  0.1255E+02
      9.007  0.3819E+00  0.1260E+02
      9.116  0.3848E+00  0.1264E+02
      9.225  0.4058E+00  0.1268E+02
      9.334  0.3995E+00  0.1273E+02
      9.443  0.3965E+00  0.1277E+02
      9.552  0.3725E+00  0.1281E+02
      9.661  0.3690E+00  0.1285E+02
      9.770  0.3655E+00  0.1289E+02
      9.879  0.3621E+00  0.1293E+02
      9.988  0.3587E+00  0.1297E+02
     10.097  0.3557E+00  0.1301E+02
     10.206  0.3529E+00  0.1305E+02
     10.315  0.3498E+00  0.1309E+02
     10.424  0.3439E+00  0.1312E+02
     10.533  0.3391E+00  0.1316E+02
     10.642  0.3374E+00  0.1320E+02
     10.751  0.3368E+00  0.1323E+02
     10.860  0.3367E+00  0.1327E+02
     10.969  0.3370E+00  0.1331E+02
     11.078  0.3376E+00  0.1334E+02
     11.187  0.3416E+00  0.1338E+02
     11.296  0.3650E+00  0.1342E+02
     11.405  0.3841E+00  0.1346E+02
     11.514  0.3863E+00  0.1350E+02
     11.623  0.3659E+00  0.1354E+02
     11.732  0.3431E+00  0.1358E+02
     11.841  0.3254E+00  0.1362E+02
     11.950  0.3185E+00  0.1365E+02
     12.059  0.3169E+00  0.1369E+02
     12.168  0.3550E+00  0.1373E+02
     12.276  0.3583E+00  0.1376E+02
     12.385  0.3276E+00  0.1380E+02
     12.494  0.3294E+00  0.1384E+02
     12.603  0.3313E+00  0.1387E+02
     12.712  0.3318E+00  0.1391E+02
     12.821  0.3308E+00  0.1395E+02
     12.930  0.3276E+00  0.1398E+02
     13.039  0.3374E+00  0.1402E+02
     13.148  0.3541E+00  0.1406E+02
     13.257  0.3823E+00  0.1409E+02
     13.366  0.4288E+00  0.1414E+02
     13.475  0.4812E+00  0.1419E+02
     13.584  0.4328E+00  0.1424E+02
     13.693  0.4041E+00  0.1428E+02
     13.802  0.4163E+00  0.1433E+02
     13.911  0.4447E+00  0.1438E+02
     14.020  0.4839E+00  0.1443E+02
     14.129  0.4993E+00  0.1448E+02
     14.238  0.5114E+00  0.1453E+02
     14.347  0.5057E+00  0.1459E+02
     14.456  0.5060E+00  0.1465E+02
     14.565  0.5133E+00  0.1470E+02
     14.674  0.5235E+00  0.1476E+02
     14.783  0.5367E+00  0.1482E+02
     14.892  0.5530E+00  0.1487E+02
     15.001  0.5680E+00  0.1494E+02
     15.110  0.5849E+00  0.1500E+02
     15.219  0.6060E+00  0.1506E+02
     15.328  0.6280E+00  0.1513E+02
     15.437  0.6484E+00  0.1520E+02
     15.546  0.6829E+00  0.1527E+02
     15.655  0.6310E+00  0.1534E+02
     15.764  0.6996E+00  0.1542E+02
     15.873  0.5903E+00  0.1549E+02
     15.982  0.5609E+00  0.1555E+02
     16.091  0.5398E+00  0.1561E+02
     16.199  0.5306E+00  0.1567E+02
     16.308  0.5228E+00  0.1573E+02
     16.417  0.5345E+00  0.1578E+02
     16.526  0.5487E+00  0.1584E+02
     16.635  0.5639E+00  0.1590E+02
     16.744  0.5805E+00  0.1596E+02
     16.853  0.5997E+00  0.1603E+02
     16.962  0.6030E+00  0.1610E+02
     17.071  0.5484E+00  0.1616E+02
     17.180  0.5518E+00  0.1622E+02
     17.289  0.5563E+00  0.1628E+02
     17.398  0.5607E+00  0.1634E+02
     17.507  0.5660E+00  0.1640E+02
     17.616  0.6164E+00  0.1646E+02
     17.725  0.6108E+00  0.1653E+02
     17.834  0.6194E+00  0.1660E+02
     17.943  0.6287E+00  0.1666E+02
     18.052  0.6052E+00  0.1673E+02
     18.161  0.5829E+00  0.1680E+02
     18.270  0.5775E+00  0.1686E+02
     18.379  0.5712E+00  0.1692E+02
     18.488  0.5739E+00  0.1698E+02
     18.597  0.5790E+00  0.1705E+02
     18.706  0.5846E+00  0.1711E+02
     18.815  0.5912E+00  0.1717E+02
     18.924  0.6055E+00  0.1724E+02
     19.033  0.6307E+00  0.1731E+02
     19.142  0.6558E+00  0.1738E+02
     19.251  0.6714E+00  0.1745E+02
     19.360  0.6948E+00  0.1752E+02
     19.469  0.7015E+00  0.1760E+02
     19.578  0.7280E+00  0.1768E+02
     19.687  0.7365E+00  0.1776E+02
     19.796  0.7422E+00  0.1784E+02
     19.905  0.7042E+00  0.1792E+02
     20.013  0.6741E+00  0.1799E+02
     20.122  0.6477E+00  0.1807E+02
     20.231  0.6104E+00  0.1813E+02
     20.340  0.6131E+00  0.1820E+02
     20.449  0.6059E+00  0.1827E+02
     20.558  0.5939E+00  0.1833E+02
     20.667  0.5799E+00  0.1840E+02
     20.776  0.6441E+00  0.1846E+02
     20.885  0.6242E+00  0.1853E+02
     20.994  0.5432E+00  0.1859E+02
     21.103  0.5287E+00  0.1865E+02
     21.212  0.5281E+00  0.1871E+02
     21.321  0.5475E+00  0.1877E+02
     21.430  0.5834E+00  0.1883E+02
     21.539  0.6278E+00  0.1890E+02
     21.648  0.6735E+00  0.1897E+02
     21.757  0.7183E+00  0.1904E+02
     21.866  0.7596E+00  0.1912E+02
     21.975  0.7720E+00  0.1921E+02
     22.084  0.7492E+00  0.1929E+02
     22.193  0.6899E+00  0.1937E+02
     22.302  0.6158E+00  0.1944E+02
     22.411  0.5008E+00  0.1950E+02
     22.520  0.4667E+00  0.1955E+02
     22.629  0.4582E+00  0.1960E+02
     22.738  0.4424E+00  0.1965E+02
     22.847  0.4241E+00  0.1970E+02
     22.956  0.3967E+00  0.1974E+02
     23.065  0.3554E+00  0.1979E+02
     23.174  0.3058E+00  0.1982E+02
     23.283  0.2692E+00  0.1985E+02
     23.392  0.2351E+00  0.1988E+02
     23.501  0.2037E+00  0.1990E+02
     23.610  0.1762E+00  0.1993E+02
     23.719  0.1372E+00  0.1995E+02
     23.827  0.1168E+00  0.1996E+02
     23.936  0.8843E-01  0.1997E+02
     24.045  0.6341E-01  0.1998E+02
     24.154  0.4553E-01  0.1999E+02
     24.263  0.3452E-01  0.1999E+02
     24.372  0.2617E-01  0.1999E+02
     24.481  0.1896E-01  0.2000E+02
     24.590  0.1291E-01  0.2000E+02
     24.699  0.8004E-02  0.2000E+02
     24.808  0.4252E-02  0.2000E+02
     24.917  0.1653E-02  0.2000E+02
     25.026  0.2550E-03  0.2000E+02
     25.135  0.0000E+00  0.2000E+02
     25.244  0.0000E+00  0.2000E+02
     25.353  0.0000E+00  0.2000E+02
     25.462  0.0000E+00  0.2000E+02
     25.571  0.0000E+00  0.2000E+02
     25.680  0.0000E+00  0.2000E+02
     25.789  0.0000E+00  0.2000E+02
     25.898  0.0000E+00  0.2000E+02
     26.007  0.0000E+00  0.2000E+02
     26.116  0.0000E+00  0.2000E+02
     26.225  0.0000E+00  0.2000E+02
     26.334  0.0000E+00  0.2000E+02
     26.443  0.0000E+00  0.2000E+02
     26.552  0.0000E+00  0.2000E+02
     26.661  0.0000E+00  0.2000E+02
     26.770  0.0000E+00  0.2000E+02
     26.879  0.0000E+00  0.2000E+02
     26.988  0.0000E+00  0.2000E+02
     27.097  0.0000E+00  0.2000E+02
