    1    1    1    1
  0.2195200E+02  0.2800000E-09  0.2800000E-09  0.2800000E-09  0.5000000E-15
  1.000000000000000E-004
  CAR 
 unknown system                          
     10     56     10
 
  0.0000000E+00  0.0000000E+00  0.0000000E+00  0.1000000E-02
    1       -3.594867   1.000000
    2       -1.046276   1.000000
    3       -1.046276   1.000000
    4        3.332845   0.033906
    5        3.332845  -0.505865
    6        3.332845  -0.034148
    7       17.399188   0.000000
    8       17.399188   0.000000
    9       17.399188   0.000000
   10       21.941182   0.000000
 
  0.1000000E+00  0.0000000E+00  0.0000000E+00  0.6000000E-02
    1       -3.362690   1.000000
    2       -1.008262   1.000000
    3       -0.857450   1.000000
    4        3.165589   0.912565
    5        3.165589   0.879946
    6        3.346394  -0.064364
    7       15.694774   0.000000
    8       17.788780   0.000000
    9       17.788780   0.000000
   10       22.725648   0.000000
 
  0.2000000E+00  0.0000000E+00  0.0000000E+00  0.6000000E-02
    1       -2.764747   1.000000
    2       -0.907167   1.000000
    3       -0.251174   1.000000
    4        2.755537   1.000000
    5        2.755537   1.000000
    6        3.381845  -0.101666
    7       12.912678   0.000000
    8       18.841826   0.000000
    9       18.841826   0.000000
   10       22.405858   0.000000
 
  0.3000000E+00  0.0000000E+00  0.0000000E+00  0.6000000E-02
    1       -2.070942   1.000000
    2       -0.778408   1.000000
    3        0.857707   1.000000
    4        2.294667   1.000000
    5        2.294667   1.000000
    6        3.426068  -0.063364
    7       10.211552   0.000000
    8       20.287174   0.000000
    9       20.287175   0.000000
   10       21.123964   0.000000
 
  0.4000000E+00  0.0000000E+00  0.0000000E+00  0.6000000E-02
    1       -1.556256   1.000000
    2       -0.671061   1.000000
    3        1.951615   1.000000
    4        1.951615   1.000000
    5        2.386472   1.133732
    6        3.462117  -0.013499
    7        7.827217   0.000000
    8       20.249790   0.000000
    9       21.748415   0.000000
   10       21.749190   0.000000
 
  0.5000000E+00  0.0000000E+00  0.0000000E+00  0.3000000E-02
    1       -1.368345   1.000000
    2       -0.629228   1.000000
    3        1.826603   1.000000
    4        1.826603   1.000000
    5        3.470504   0.044955
    6        3.475989   0.000000
    7        6.488654   0.000000
    8       19.942136   0.000000
    9       22.033890   0.000000
   10       22.483288   0.000000
 
  0.1000000E+00  0.1000000E+00  0.0000000E+00  0.1200000E-01
    1       -3.127340   1.000000
    2       -0.892427   1.000000
    3       -0.749782   1.000000
    4        2.989412   1.018544
    5        3.156396   0.967821
    6        3.205320   0.298191
    7       15.802664   0.000000
    8       16.300490   0.000000
    9       18.180555   0.000000
   10       23.174610   0.000000
 
  0.2000000E+00  0.1000000E+00  0.0000000E+00  0.2400000E-01
    1       -2.525948   1.000000
    2       -0.757497   1.000000
    3       -0.186442   1.000000
    4        2.568117   1.000000
    5        2.771502   1.000000
    6        3.224035   0.409467
    7       13.228194   0.000000
    8       16.951088   0.000000
    9       19.241591   0.000000
   10       22.526416   0.000000
 
  0.3000000E+00  0.1000000E+00  0.0000000E+00  0.2400000E-01
    1       -1.839151   1.000000
    2       -0.617388   1.000000
    3        0.824904   1.000000
    4        2.198895   1.000000
    5        2.315818   1.000000
    6        3.272017   0.208591
    7       10.498381   0.000000
    8       18.101865   0.000000
    9       20.706045   0.000000
   10       21.473713   0.000000
 
  0.4000000E+00  0.1000000E+00  0.0000000E+00  0.2400000E-01
    1       -1.332544   1.000000
    2       -0.494418   1.000000
    3        1.313976   1.000000
    4        1.975765   1.000000
    5        2.945136   1.008467
    6        3.311566   0.035513
    7        8.025500   0.000000
    8       19.269542   0.000000
    9       20.733724   0.000000
   10       22.215160   0.000000
 
  0.5000000E+00  0.1000000E+00  0.0000000E+00  0.1200000E-01
    1       -1.146249   1.000000
    2       -0.441440   1.000000
    3        1.245050   1.000000
    4        1.851676   1.000000
    5        3.326754   0.369089
    6        4.122352   0.000000
    7        6.514436   0.000000
    8       19.828559   0.000000
    9       20.808008   0.000000
   10       21.595904   0.000000
 
  0.2000000E+00  0.2000000E+00  0.0000000E+00  0.1200000E-01
    1       -1.946326   1.000000
    2       -0.376362   1.000000
    3        0.122827   1.000000
    4        2.148352   1.000000
    5        2.767380   1.000000
    6        2.881770   1.057118
    7       14.033012   0.000000
    8       14.093472   0.000000
    9       20.326819   0.000000
   10       22.263675   0.000000
 
  0.3000000E+00  0.2000000E+00  0.0000000E+00  0.2400000E-01
    1       -1.355755   1.000000
    2       -0.098270   1.000000
    3        0.796907   1.000000
    4        2.081517   1.000000
    5        2.370478   1.000000
    6        2.892231   0.906976
    7       11.222937   0.000000
    8       15.239276   0.000000
    9       21.427259   0.000000
   10       21.836947   0.000000
 
  0.4000000E+00  0.2000000E+00  0.0000000E+00  0.2400000E-01
    1       -0.956313   1.000000
    2        0.121868   1.000000
    3        0.695174   1.000000
    4        2.039538   1.000000
    5        2.938197   1.005452
    6        3.547167   0.024241
    7        8.555749   0.000000
    8       16.625932   0.000000
    9       20.093026   0.000000
   10       22.317351   0.000000
 
  0.5000000E+00  0.2000000E+00  0.0000000E+00  0.1200000E-01
    1       -0.812524   1.000000
    2        0.359375   1.000000
    3        0.400369   1.000000
    4        1.918143   1.000000
    5        2.956460   1.022270
    6        5.228487   0.000000
    7        6.593526   0.000000
    8       17.884609   0.000000
    9       18.744065   0.000000
   10       21.725565   0.000000
 
  0.3000000E+00  0.3000000E+00  0.0000000E+00  0.1200000E-01
    1       -0.964728   1.000000
    2        0.017604   1.000000
    3        1.512161   1.000000
    4        2.372703   1.000000
    5        2.398659   1.007704
    6        2.500901   0.811963
    7       11.504020   0.000000
    8       13.182043   0.000000
    9       20.191790   0.000000
   10       23.429733   0.000000
 
  0.4000000E+00  0.3000000E+00  0.0000000E+00  0.2400000E-01
    1       -0.704524   1.000000
    2       -0.238820   1.000000
    3        1.867501   1.000000
    4        2.119423   1.000000
    5        2.512408   1.019526
    6        4.102472  -0.023116
    7        9.190398   0.000000
    8       13.991681   0.000000
    9       18.308991   0.000000
   10       22.962237   0.000000
 
  0.5000000E+00  0.3000000E+00  0.0000000E+00  0.1200000E-01
    1       -0.583037   1.000000
    2       -0.379656   1.000000
    3        1.925649   1.000000
    4        2.001731   1.000000
    5        2.533248   1.024649
    6        6.337246   0.000000
    7        6.746564   0.000000
    8       14.861590   0.000000
    9       17.133065   0.000000
   10       22.636524   0.000000
 
  0.4000000E+00  0.4000000E+00  0.0000000E+00  0.1200000E-01
    1       -0.725271   1.000000
    2       -0.468322   1.000000
    3        2.170375   1.000000
    4        2.206598   1.000000
    5        3.252748   0.496825
    6        5.108504  -0.016281
    7        9.062912   0.000000
    8       12.229722   0.000000
    9       16.595630   0.000000
   10       23.701693   0.000000
 
  0.5000000E+00  0.4000000E+00  0.0000000E+00  0.1200000E-01
    1       -0.857422   1.000000
    2       -0.422479   1.000000
    3        2.070611   1.000000
    4        2.214225   1.000000
    5        3.636109   0.087216
    6        7.095044   0.000000
    7        7.238179   0.000000
    8       12.052865   0.000000
    9       15.814805   0.000000
   10       23.691407   0.000000
 
  0.5000000E+00  0.5000000E+00  0.0000000E+00  0.3000000E-02
    1       -1.022097   1.000000
    2       -0.362260   1.000000
    3        2.097215   1.000000
    4        2.097215   1.000000
    5        4.469029   0.000000
    6        7.611285   0.000000
    7        7.611285   0.000000
    8       10.462406   0.000000
    9       15.287932   0.000000
   10       24.231537   0.000000
 
  0.1000000E+00  0.1000000E+00  0.1000000E+00  0.8000000E-02
    1       -2.887130   1.000000
    2       -0.711999   1.000000
    3       -0.711999   1.000000
    4        2.967010   1.008017
    5        3.026635   1.015710
    6        3.026635   1.021388
    7       15.897041   0.000000
    8       16.660956   0.000000
    9       16.660956   0.000000
   10       24.889840   0.000000
 
  0.2000000E+00  0.1000000E+00  0.1000000E+00  0.2400000E-01
    1       -2.276904   1.000000
    2       -0.610242   1.000000
    3       -0.130550   1.000000
    4        2.587019   1.000000
    5        2.589373   1.000000
    6        3.055261   0.972214
    7       13.539179   0.000000
    8       17.009806   0.000000
    9       17.602137   0.000000
   10       23.650102   0.000000
 
  0.3000000E+00  0.1000000E+00  0.1000000E+00  0.2400000E-01
    1       -1.586586   1.000000
    2       -0.477691   1.000000
    3        0.805947   1.000000
    4        2.096647   1.000000
    5        2.333939   1.000000
    6        3.109201   0.638156
    7       10.789912   0.000000
    8       18.090689   0.000000
    9       18.775461   0.000000
   10       22.483241   0.000000
 
  0.4000000E+00  0.1000000E+00  0.1000000E+00  0.2400000E-01
    1       -1.066795   1.000000
    2       -0.362917   1.000000
    3        1.143580   1.000000
    4        1.725962   1.000000
    5        3.142273   0.941374
    6        3.317703   0.068959
    7        8.241890   0.000000
    8       19.358327   0.000000
    9       19.677359   0.000000
   10       21.853902   0.000000
 
  0.5000000E+00  0.1000000E+00  0.1000000E+00  0.1200000E-01
    1       -0.864333   1.000000
    2       -0.316566   1.000000
    3        1.068967   1.000000
    4        1.589053   1.000000
    5        3.167555   0.836542
    6        4.664094   0.000000
    7        6.550583   0.000000
    8       19.932358   0.000000
    9       20.831867   0.000000
   10       20.880712   0.000000
 
  0.2000000E+00  0.2000000E+00  0.1000000E+00  0.2400000E-01
    1       -1.673255   1.000000
    2       -0.238742   1.000000
    3        0.155869   1.000000
    4        2.173676   1.000000
    5        2.614677   1.000000
    6        2.679503   1.032526
    7       14.334820   0.000000
    8       14.405199   0.000000
    9       18.208742   0.000000
   10       23.708157   0.000000
 
  0.3000000E+00  0.2000000E+00  0.1000000E+00  0.4800000E-01
    1       -1.062226   1.000000
    2       -0.004585   1.000000
    3        0.807433   1.000000
    4        1.922025   1.000000
    5        2.416044   1.000000
    6        2.725787   0.930742
    7       11.532892   0.000000
    8       15.514026   0.000000
    9       19.305962   0.000000
   10       22.387977   0.000000
 
  0.4000000E+00  0.2000000E+00  0.1000000E+00  0.4800000E-01
    1       -0.631543   1.000000
    2        0.176939   1.000000
    3        0.710016   1.000000
    4        1.679497   1.000000
    5        2.756548   1.010246
    6        3.845274  -0.031258
    7        8.816649   0.000000
    8       16.888066   0.000000
    9       20.168095   0.000000
   10       20.707099   0.000000
 
  0.5000000E+00  0.2000000E+00  0.1000000E+00  0.2400000E-01
    1       -0.462188   1.000000
    2        0.368736   1.000000
    3        0.440564   1.000000
    4        1.552738   1.000000
    5        2.781484   1.008498
    6        5.707898   0.000000
    7        6.658536   0.000000
    8       18.261231   0.000000
    9       18.844933   0.000000
   10       20.885419   0.000000
 
  0.3000000E+00  0.3000000E+00  0.1000000E+00  0.2400000E-01
    1       -0.668276   1.000000
    2        0.098597   1.000000
    3        1.479486   1.000000
    4        1.922091   1.000000
    5        2.329701   1.008415
    6        2.791389   0.628577
    7       11.896416   0.000000
    8       13.383375   0.000000
    9       20.259888   0.000000
   10       20.580429   0.000000
 
  0.4000000E+00  0.3000000E+00  0.1000000E+00  0.4800000E-01
    1       -0.424201   1.000000
    2       -0.133584   1.000000
    3        1.749676   1.000000
    4        1.769758   1.000000
    5        2.435631   1.021566
    6        4.392459  -0.038730
    7        9.518194   0.000000
    8       14.243288   0.000000
    9       18.399301   0.000000
   10       21.303473   0.000000
 
  0.5000000E+00  0.3000000E+00  0.1000000E+00  0.2400000E-01
    1       -0.331142   1.000000
    2       -0.239613   1.000000
    3        1.640477   1.000000
    4        1.802816   1.000000
    5        2.484034   1.021332
    6        6.802115   0.000000
    7        6.867342   0.000000
    8       15.191142   0.000000
    9       17.111292   0.000000
   10       21.782827   0.000000
 
  0.4000000E+00  0.4000000E+00  0.1000000E+00  0.2400000E-01
    1       -0.658229   1.000000
    2       -0.136722   1.000000
    3        1.823441   1.000000
    4        1.854534   1.000000
    5        3.353835   0.419102
    6        5.441435  -0.011860
    7        9.477166   0.000000
    8       12.413246   0.000000
    9       16.570379   0.000000
   10       22.291564   0.000000
 
  0.5000000E+00  0.4000000E+00  0.1000000E+00  0.2400000E-01
    1       -0.797767   1.000000
    2       -0.076763   1.000000
    3        1.723845   1.000000
    4        1.870991   1.000000
    5        3.727503   0.057427
    6        7.353962   0.000000
    7        7.710168   0.000000
    8       12.271110   0.000000
    9       15.736032   0.000000
   10       22.878320   0.000000
 
  0.5000000E+00  0.5000000E+00  0.1000000E+00  0.6000000E-02
    1       -0.959918   1.000000
    2       -0.012534   1.000000
    3        1.756936   1.000000
    4        1.756936   1.000000
    5        4.478204   0.000000
    6        8.092628   0.000000
    7        8.092628   0.000000
    8       10.511994   0.000000
    9       15.186445   0.000000
   10       23.902799   0.000000
 
  0.2000000E+00  0.2000000E+00  0.2000000E+00  0.8000000E-02
    1       -1.028163   1.000000
    2        0.246675   1.000000
    3        0.246675   1.000000
    4        2.189777   1.000000
    5        2.189777   1.000000
    6        2.358646   1.011593
    7       14.879044   0.000000
    8       15.387696   0.000000
    9       15.387696   0.000000
   10       25.096651   0.000000
 
  0.3000000E+00  0.2000000E+00  0.2000000E+00  0.2400000E-01
    1       -0.442278   1.000000
    2        0.373994   1.000000
    3        0.851364   1.000000
    4        1.638205   1.000000
    5        2.217582   1.000000
    6        2.675845   0.822128
    7       12.327703   0.000000
    8       15.975070   0.000000
    9       16.715520   0.000000
   10       23.170982   0.000000
 
  0.4000000E+00  0.2000000E+00  0.2000000E+00  0.2400000E-01
    1       -0.017242   1.000000
    2        0.512046   1.000000
    3        0.718656   1.000000
    4        1.199494   1.000000
    5        2.353959   1.000000
    6        4.352971  -0.055370
    7        9.496061   0.000000
    8       17.180311   0.000000
    9       18.181155   0.000000
   10       20.903599   0.000000
 
  0.5000000E+00  0.2000000E+00  0.2000000E+00  0.1200000E-01
    1        0.259195   1.000000
    2        0.468090   1.000000
    3        0.598010   1.000000
    4        1.007023   1.000000
    5        2.390482   1.000000
    6        6.724393   0.000000
    7        6.842672   0.000000
    8       18.468689   0.000000
    9       19.124507   0.000000
   10       19.520652   0.000000
 
  0.3000000E+00  0.3000000E+00  0.2000000E+00  0.2400000E-01
    1       -0.140307   1.000000
    2        0.544727   1.000000
    3        1.276339   1.000000
    4        1.508392   1.000000
    5        2.061019   1.013752
    6        3.219860   0.307139
    7       12.916430   0.000000
    8       13.909373   0.000000
    9       17.385887   0.000000
   10       21.057007   0.000000
 
  0.4000000E+00  0.3000000E+00  0.2000000E+00  0.4800000E-01
    1       -0.155908   1.000000
    2        0.577496   1.000000
    3        1.120798   1.000000
    4        1.434119   1.000000
    5        2.411743   1.017628
    6        4.957021  -0.032275
    7       10.345939   0.000000
    8       14.878462   0.000000
    9       17.961107   0.000000
   10       19.544210   0.000000
 
  0.5000000E+00  0.3000000E+00  0.2000000E+00  0.2400000E-01
    1       -0.212374   1.000000
    2        0.682098   1.000000
    3        0.919207   1.000000
    4        1.452488   1.000000
    5        2.504690   0.999610
    6        7.184504   0.000000
    7        7.840957   0.000000
    8       16.052511   0.000000
    9       16.865097   0.000000
   10       20.475824   0.000000
 
  0.4000000E+00  0.4000000E+00  0.2000000E+00  0.2400000E-01
    1       -0.500025   1.000000
    2        0.710573   1.000000
    3        1.156752   1.000000
    4        1.253873   1.000000
    5        3.487196   0.302536
    6        6.143084  -0.003008
    7       10.511778   0.000000
    8       12.885352   0.000000
    9       16.366995   0.000000
   10       20.347842   0.000000
 
  0.5000000E+00  0.4000000E+00  0.2000000E+00  0.2400000E-01
    1       -0.637092   1.000000
    2        0.837300   1.000000
    3        0.996906   1.000000
    4        1.251299   1.000000
    5        3.859055   0.014758
    6        7.956922   0.000000
    7        8.799124   0.000000
    8       12.877391   0.000000
    9       15.459710   0.000000
   10       21.408362   0.000000
 
  0.5000000E+00  0.5000000E+00  0.2000000E+00  0.6000000E-02
    1       -0.791774   1.000000
    2        0.984426   1.000000
    3        1.036274   1.000000
    4        1.036274   1.000000
    5        4.502275   0.000000
    6        9.219363   0.000000
    7        9.219363   0.000000
    8       10.669079   0.000000
    9       14.877194   0.000000
   10       22.301042   0.000000
 
  0.3000000E+00  0.3000000E+00  0.3000000E+00  0.8000000E-02
    1       -0.011547   1.000000
    2        0.853896   1.000000
    3        0.853896   1.000000
    4        1.990376   1.001830
    5        1.990376   1.055074
    6        3.976943  -0.031795
    7       14.263841   0.000000
    8       14.263841   0.000000
    9       14.753803   0.000000
   10       21.180365   0.000000
 
  0.4000000E+00  0.3000000E+00  0.3000000E+00  0.2400000E-01
    1       -0.100120   1.000000
    2        0.489534   1.000000
    3        0.807824   1.000000
    4        2.008019   1.008529
    5        2.667503   0.927872
    6        5.696915  -0.008169
    7       11.369366   0.000000
    8       15.485668   0.000000
    9       15.631257   0.000000
   10       19.347975   0.000000
 
  0.5000000E+00  0.3000000E+00  0.3000000E+00  0.1200000E-01
    1       -0.167665   1.000000
    2        0.353626   1.000000
    3        0.815573   1.000000
    4        2.021277   1.014182
    5        2.844939   0.763168
    6        7.706260   0.000000
    7        9.015697   0.000000
    8       16.025723   0.000000
    9       16.368375   0.000000
   10       18.374074   0.000000
 
  0.4000000E+00  0.4000000E+00  0.3000000E+00  0.2400000E-01
    1       -0.307774   1.000000
    2        0.383422   1.000000
    3        0.487181   1.000000
    4        2.336999   1.010084
    5        3.582144   0.141312
    6        7.016477   0.000000
    7       11.791232   0.000000
    8       13.402557   0.000000
    9       15.486881   0.000000
   10       18.973886   0.000000
 
  0.5000000E+00  0.4000000E+00  0.3000000E+00  0.2400000E-01
    1       -0.430743   1.000000
    2        0.298501   1.000000
    3        0.467537   1.000000
    4        2.383598   1.008830
    5        3.967127  -0.023868
    6        8.724778   0.000000
    7       10.048271   0.000000
    8       13.613366   0.000000
    9       14.935988   0.000000
   10       19.486467   0.000000
 
  0.5000000E+00  0.5000000E+00  0.3000000E+00  0.6000000E-02
    1       -0.572021   1.000000
    2        0.335780   1.000000
    3        0.335780   1.000000
    4        2.439657   0.991976
    5        4.532214   0.000000
    6       10.523498   0.000000
    7       10.523498   0.000000
    8       10.976597   0.000000
    9       14.404483   0.000000
   10       20.982201   0.000000
 
  0.4000000E+00  0.4000000E+00  0.4000000E+00  0.8000000E-02
    1       -0.220298   1.000000
    2        0.029347   1.000000
    3        0.029347   1.000000
    4        3.641222   0.391455
    5        3.641222   0.015243
    6        8.294212   0.000000
    7       12.939178   0.000000
    8       12.939178   0.000000
    9       14.316095   0.000000
   10       18.066861   0.000000
 
  0.5000000E+00  0.4000000E+00  0.4000000E+00  0.1200000E-01
    1       -0.297388   1.000000
    2       -0.131612   1.000000
    3        0.018054   1.000000
    4        3.661689   0.237964
    5        4.161799  -0.018515
    6        9.818797   0.000000
    7       11.130486   0.000000
    8       13.444245   0.000000
    9       14.295935   0.000000
   10       17.688578   0.000000
 
  0.5000000E+00  0.5000000E+00  0.4000000E+00  0.6000000E-02
    1       -0.383233   1.000000
    2       -0.141184   1.000000
    3       -0.141184   1.000000
    4        3.902663   0.037727
    5        4.556589   0.000000
    6       11.541102   0.000000
    7       11.623158   0.000000
    8       11.623158   0.000000
    9       13.952377   0.000000
   10       17.597409   0.000000
 
  0.5000000E+00  0.5000000E+00  0.5000000E+00  0.1000000E-02
    1       -0.308189   1.000000
    2       -0.308189   1.000000
    3       -0.308189   1.000000
    4        4.565937   0.000000
    5        4.565937   0.000000
    6       12.080233   0.000000
    7       12.080233   0.000000
    8       12.080233   0.000000
    9       13.765093   0.000000
   10       15.903719   0.000000
