Starting job 28218119 ("jobfile") on c16-11 at Fri Sep 20 10:34:03 CEST 2019
 running on    4 total cores
 distrk:  each k-point on    4 cores,    1 groups
 distr:  one band on    2 cores,    2 groups
 using from now: INCAR     
 vasp.5.4.1 05Feb16 (build Mar 02 2016 14:09:44) complex                        
  
 POSCAR found type information on POSCAR  Pt
 POSCAR found :  1 types and       1 ions

 ----------------------------------------------------------------------------- 
|                                                                             |
|  ADVICE TO THIS USER RUNNING 'VASP/VAMP'   (HEAR YOUR MASTER'S VOICE ...):  |
|                                                                             |
|      You have a (more or less) 'small supercell' and for smaller cells      |
|      it is recommended  to use the reciprocal-space projection scheme!      |
|      The real space optimization is not  efficient for small cells and it   |
|      is also less accurate ...                                              |
|      Therefore set LREAL=.FALSE. in the  INCAR file                         |
|                                                                             |
 ----------------------------------------------------------------------------- 

 LDA part: xc-table for Pade appr. of Perdew
 POSCAR, INCAR and KPOINTS ok, starting setup
 WARNING: small aliasing (wrap around) errors must be expected
 FFT: planning ...
 WAVECAR not read
 entering main loop
       N       E                     dE             d eps       ncg     rms          rms(c)
DAV:   1     0.583930356470E+02    0.58393E+02   -0.48983E+03  1192   0.896E+02
DAV:   2    -0.396702002467E+01   -0.62360E+02   -0.57247E+02  1138   0.207E+02
DAV:   3    -0.562380018809E+01   -0.16568E+01   -0.16502E+01  1352   0.412E+01
DAV:   4    -0.563895710736E+01   -0.15157E-01   -0.15154E-01  1340   0.402E+00
DAV:   5    -0.563932841239E+01   -0.37131E-03   -0.37007E-03  1332   0.563E-01    0.339E+00
RMM:   6    -0.532032308700E+01    0.31901E+00   -0.53328E-01  1132   0.958E+00    0.837E-01
RMM:   7    -0.531366990964E+01    0.66532E-02   -0.32971E-02  1198   0.143E+00    0.417E-01
RMM:   8    -0.531270316817E+01    0.96674E-03   -0.21826E-03  1211   0.598E-01    0.366E-02
RMM:   9    -0.531254591121E+01    0.15726E-03   -0.11646E-04  1337   0.115E-01    0.101E-02
RMM:  10    -0.531252851709E+01    0.17394E-04   -0.22135E-05   929   0.699E-02    0.860E-03
RMM:  11    -0.531255542252E+01   -0.26905E-04   -0.66928E-06   715   0.442E-02    0.641E-04
RMM:  12    -0.531255393597E+01    0.14865E-05   -0.10237E-06   647   0.114E-02
   1 F= -.53125539E+01 E0= -.53125539E+01  d E =0.000000E+00

Currently Loaded Modulefiles:
  1) intel/2016.1       2) vasp/5.4.1.Feb16

Job script resource usage:
       JobID  MaxVMSize     MaxRSS 
------------ ---------- ---------- 
28218119.ba+    216752K      2534K 

Job step resource usage:
       JobID    JobName  AllocCPUS  MaxVMSize     MaxRSS    Elapsed ExitCode 
------------ ---------- ---------- ---------- ---------- ---------- -------- 
28218119        jobfile          4                         00:00:06      0:0 
28218119.0    pmi_proxy          1    279832K       522K   00:00:05      0:0 

Job 28218119 ("jobfile") completed on c16-11 at Fri Sep 20 10:34:08 CEST 2019
