unknown system                          
   1.00000000000000     
     4.913700    0.000000    0.000000
    -2.456850    4.255389    0.000000
     0.000000    0.000000    5.405130
   Si   O 
     3     6
Direct
  0.469800  0.020000  0.666670
  0.000000  0.469800  0.333330
  0.530200  0.530200  0.000000
  0.414500  0.266200  0.785600
  0.733800  0.148300  0.452270
  0.851700  0.585500  0.118930
  0.148300  0.733800  0.547730
  0.266200  0.414500  0.214400
  0.585500  0.851700  0.881070
 
   48   48   56
  1.4685      1.3824      1.3713      1.4137      1.4919      1.5945      1.7153      1.8522      2.0051      2.1711    
  2.3430      2.5107      2.6674      2.8137      2.9597      3.1245      3.3319      3.6070      3.9829      4.5186    
  5.3156      6.5173      8.2830      10.752      14.017      18.111      22.996      28.533      34.411      40.074    
  44.737      47.555      47.915      45.701      41.354      35.681      29.549      23.632      18.338      13.853    
  10.228      7.4392      5.4013      3.9832      3.0272      2.3847      1.9462      1.6503      1.4014      1.3099    
  1.3017      1.3576      1.4599      1.5964      1.7606      1.9489      2.1590      2.3871      2.6251      2.8595    
  3.0753      3.2611      3.4149      3.5461      3.6751      3.8292      4.0392      4.3432      4.7993      5.4988    
  6.5624      8.1155      10.254      13.020      16.386      20.242      24.377      28.456      32.019      34.546    
  35.587      34.919      32.639      29.133      24.934      20.552      16.378      12.664      9.5483      7.0796    
  5.2279      3.9017      2.9787      2.3401      1.8957      1.5917      1.4067      1.3191      1.3182      1.3884    
  1.5132      1.6802      1.8830      2.1185      2.3846      2.6774      2.9882      3.3014      3.5954      3.8480    
  4.0432      4.1766      4.2587      4.3144      4.3780      4.4872      4.6844      5.0251      5.5860      6.4608    
  7.7403      9.4857      11.703      14.325      17.203      20.113      22.764      24.832      26.015      26.108    
  25.072      23.053      20.336      17.257      14.128      11.199      8.6435      6.5555      4.9480      3.7664    
  2.9199      2.3173      1.8891      1.5928      1.4638      1.3917      1.4061      1.4942      1.6424      1.8394    
  2.0785      2.3583      2.6797      3.0411      3.4344      3.8419      4.2367      4.5868      4.8612      5.0386    
  5.1144      5.1043      5.0419      4.9718      4.9411      4.9964      5.1875      5.5752      6.2297      7.2133    
  8.5545      10.227      12.142      14.155      16.077      17.691      18.783      19.190      18.836      17.757    
  16.088      14.028      11.799      9.6046      7.6113      5.9246      4.5849      3.5733      2.8321      2.2937    
  1.9040      1.6320      1.5562      1.5106      1.5494      1.6620      1.8370      2.0648      2.3403      2.6640    
  3.0408      3.4742      3.9595      4.4788      5.0004      5.4820      5.8772      6.1455      6.2633      6.2306    
  6.0737      5.8406      5.5902      5.3806      5.2622      5.2811      5.4832      5.9125      6.5989      7.5438    
  8.7090      10.013      11.334      12.521      13.419      13.900      13.887      13.369      12.398      11.086    
  9.5745      8.0143      6.5373      5.2394      4.1717      3.3407      2.7181      2.2592      1.9248      1.6931    
  1.6728      1.6641      1.7360      1.8806      2.0875      2.3491      2.6623      3.0308      3.4635      3.9706    
  4.5545      5.2011      5.8754      6.5242      7.0847      7.4956      7.7100      7.7071      7.4996      7.1323    
  6.6732      6.1994      5.7822      5.4762      5.3181      5.3326      5.5386      5.9461      6.5444      7.2908    
  8.1094      8.9011      9.5591      9.9862      10.111      9.9028      9.3747      8.5813      7.6059      6.5471    
  5.5019      4.5500      3.7407      3.0905      2.5894      2.2149      1.9450      1.7660      1.8073      1.8455    
  1.9594      2.1432      2.3887      2.6892      3.0436      3.4579      3.9462      4.5266      5.2112      5.9936    
  6.8400      7.6892      8.4610      9.0698      9.4414      9.5292      9.3263      8.8678      8.2250      7.4921    
  6.7670      6.1308      5.6355      5.3059      5.1497      5.1661      5.3445      5.6597      6.0694      6.5156    
  6.9288      7.2363      7.3769      7.3145      7.0440      6.5870      5.9853      5.2961      4.5853      3.9144    
  3.3261      2.8394      2.4551      2.1666      1.9658      1.8470      1.9568      2.0508      2.2161      2.4481    
  2.7409      3.0888      3.4904      3.9534      4.4969      5.1476      5.9287      6.8454      7.8718      8.9447    
  9.9688      10.832      11.427      11.677      11.545      11.051      10.265      9.2912      8.2529      7.2649    
  6.4148      5.7507      5.2819      4.9909      4.8515      4.8396      4.9317      5.0960      5.2868      5.4503    
  5.5375      5.5152      5.3697      5.1055      4.7410      4.3061      3.8384      3.3774      2.9579      2.6031    
  2.3234      2.1201      1.9914      1.9369      2.1202      2.2764      2.5029      2.7955      3.1488      3.5568    
  4.0172      4.5372      5.1386      5.8551      6.7225      7.7616      8.9608      10.263      11.565      12.731    
  13.620      14.110      14.130      13.673      12.797      11.617      10.276      8.9239      7.6886      6.6558    
  5.8563      5.2741      4.8713      4.6106      4.4640      4.4056      4.4043      4.4234      4.4261      4.3821    
  4.2733      4.0960      3.8585      3.5754      3.2645      2.9471      2.6493      2.3963      2.2048      2.0806    
  2.0241      2.0364      2.2939      2.5174      2.8147      3.1828      3.6149      4.1031      4.6424      5.2370    
  5.9066      6.6888      7.6309      8.7720      10.120      11.634      13.213      14.711      15.951      16.765    
  17.030      16.698      15.808      14.474      12.861      11.150      9.5082      8.0606      6.8772      5.9695    
  5.3041      4.8272      4.4873      4.2475      4.0821      3.9672      3.8753      3.7785      3.6561      3.4991    
  3.3079      3.0894      2.8545      2.6193      2.4037      2.2281      2.1080      2.0521      2.0635      2.1434    
  2.4701      2.7649      3.1415      3.5997      4.1325      4.7285      5.3772      6.0757      6.8374      7.6978    
  8.7106      9.9312      11.391      13.074      14.899      16.719      18.337      19.541      20.147      20.048    
  19.243      17.835      16.002      13.958      11.907      10.018      8.4062      7.1206      6.1481      5.4306    
  4.8978      4.4938      4.1844      3.9459      3.7550      3.5876      3.4236      3.2489      3.0555      2.8442    
  2.6255      2.4178      2.2407      2.1109      2.0407      2.0388      2.1093      2.2528      2.6391      3.0049    
  3.4662      4.0266      4.6812      5.4159      6.2121      7.0562      7.9504      8.9207      10.018      11.306    
  12.840      14.633      16.637      18.724      20.698      22.316      23.338      23.583      22.987      21.615    
  19.646      17.319      14.884      12.556      10.495      8.7888      7.4517      6.4411      5.6851      5.1112    
  4.6628      4.3023      4.0042      3.7487      3.5178      3.2957      3.0708      2.8388      2.6053      2.3855    
  2.2011      2.0743      2.0219      2.0522      2.1659      2.3613      2.7940      3.2223      3.7666      4.4351    
  5.2265      6.1263      7.1088      8.1478      9.2293      10.362      11.582      12.950      14.533      16.377    
  18.471      20.729      22.979      24.973      26.432      27.105      26.843      25.648      23.668      21.155    
  18.396      15.659      13.151      11.002      9.2652      7.9235      6.9137      6.1503      5.5529      5.0633    
  4.6463      4.2811      3.9516      3.6454      3.3544      3.0737      2.8017      2.5443      2.3209      2.1604    
  2.0885      2.1172      2.2459      2.4711      2.9347      3.4056      4.0204      4.7920      5.7238      6.8030    
  8.0011      9.2812      10.610      11.972      13.379      14.872      16.514      18.369      20.467      22.774    
  25.168      27.431      29.274      30.396      30.563      29.688      27.859      25.307      22.340      19.267    
  16.350      13.774      11.640      9.9602      8.6820      7.7127      6.9549      6.3299      5.7849      5.2888    
  4.8254      4.3881      3.9760      3.5900      3.2307      2.9022      2.6179      2.4013      2.2782      2.2661    
  2.3711      2.5932      3.0705      3.5521      4.2112      5.0663      6.1255      7.3805      8.8044      10.355    
  11.982      13.645      15.319      17.013      18.764      20.633      22.678      24.919      27.301      29.669    
  31.767      33.276      33.896      33.446      31.925      29.513      26.510      23.247      20.035      17.114    
  14.634      12.643      11.106      9.9338      9.0186      8.2619      7.5873      6.9465      6.3176      5.6970    
  5.0918      4.5155      3.9849      3.5163      3.1228      2.8165      2.6116      2.5244      2.5670      2.7467    
  3.2194      3.6704      4.3344      5.2364      6.3911      7.7963      9.4301      11.251      13.203      15.221    
  17.245      19.234      21.182      23.123      25.115      27.216      29.442      31.726      33.880      35.615    
  36.614      36.623      35.535      33.441      30.599      27.358      24.053      20.960      18.264      16.050    
  14.313      12.977      11.930      11.058      10.262      9.4749      8.6586      7.8058      6.9321      6.0695    
  5.2579      4.5351      3.9277      3.4500      3.1091      2.9093      2.8555      2.9547      3.4047      3.7801    
  4.3998      5.2977      6.4970      8.0034      9.8029      11.862      14.125      16.519      18.949      21.326    
  23.583      25.700      27.707      29.668      31.649      33.638      35.529      37.155      38.280      38.650    
  38.083      36.547      34.180      31.257      28.122      25.110      22.429      20.184      18.391      16.990    
  15.876      14.927      14.035      13.112      12.102      10.983      9.7747      8.5281      7.3090      6.1832    
  5.2067      4.4189      3.8364      3.4544      3.2582      3.2390      3.6520      3.9086      4.4322      5.2659    
  6.4440      7.9823      9.8769      12.106      14.626      17.364      20.211      23.035      25.705      28.130    
  30.281      32.190      33.894      35.364      36.609      37.648      38.436      38.837      38.675      37.831    
  36.306      34.224      31.789      29.255      26.904      24.919      23.314      22.035      20.984      20.050    
  19.123      18.103      16.914      15.516      13.921      12.194      10.429      8.7337      7.2078      5.9290    
  4.9408      4.2464      3.8193      3.6265      3.9950      4.0873      4.4660      5.1750      6.2592      7.7470    
  9.6472      11.952      14.632      17.631      20.842      24.112      27.257      30.110      32.561      34.571    
  36.048      36.892      37.176      37.117      36.947      36.792      36.631      36.353      35.852      35.079    
  34.036      32.763      31.364      30.021      28.918      28.031      27.273      26.544      25.729      24.715    
  23.404      21.735      19.710      17.403      14.947      12.505      10.232      8.2531      6.6474      5.4475    
  4.6383      4.1712      4.4926      4.3548      4.5400      5.0704      5.9914      7.3439      9.1515      11.420    
  14.141      17.274      20.736      24.375      27.980      31.323      34.210      36.498      37.916      38.211    
  37.416      35.873      34.114      32.649      31.789      31.600      31.983      32.754      33.683      34.509    
  35.008      35.105      34.943      34.778      34.634      34.420      34.008      33.243      31.974      30.100    
  27.609      24.602      21.276      17.871      14.617      11.694      9.2260      7.2850      5.8839      4.9791    
  5.2462      4.7696      4.6974      5.0004      5.7010      6.8430      8.4638      10.586      13.215      16.337    
  19.893      23.757      27.724      31.531      34.916      37.637      39.236      39.244      37.526      34.410    
  30.646      27.158      24.738      23.836      24.548      26.687      29.840      33.405      36.718      39.276    
  40.943      41.984      42.819      43.531      43.977      43.918      43.079      41.236      38.326      34.486    
  30.025      25.328      20.752      16.570      12.958      10.014      7.7738      6.2119      6.3989      5.4229    
  4.9941      5.0125      5.4476      6.3233      7.6812      9.5570      11.974      14.939      18.421      22.331    
  26.492      30.647      34.493      37.721      39.738      39.831      37.602      33.204      27.427      21.521    
  16.799      14.256      14.391      17.218      22.306      28.799      35.557      41.496      46.002      49.125    
  51.423      53.496      55.364      56.688      56.975      55.741      52.727      48.034      42.120      35.633    
  29.199      23.282      18.140      13.883      10.531      8.0607      8.1107      6.4355      5.5072      5.1576    
  5.2832      5.8580      6.9041      8.4606      10.567      13.252      16.509      20.281      24.439      28.761    
  32.944      36.643      39.230      39.784      37.606      32.543      25.221      17.016      9.6651      4.7439    
  3.2990      5.7541      11.900      20.852      31.109      40.962      49.124      55.218      59.747      63.627    
  67.450      70.921      73.286      73.651      71.331      66.175      58.691      49.875      40.832      32.433    
  25.157      19.143      14.353      10.707      10.523      7.9336      6.3303      5.4967      5.2546      5.5034    
  6.2159      7.4146      9.1485      11.464      14.377      17.859      21.828      26.118      30.456      34.499    
  37.684      38.980      37.420      32.488      24.474      14.628      4.8924     -2.6854     -6.4800     -5.5261    
 0.40777      10.688      23.736      37.356      49.523      59.210      66.647      72.892      79.026      85.244    
  90.636      93.835      93.517      88.957      80.410      69.093      56.723      44.881      34.563      26.109    
  19.427      14.297      13.731      10.015      7.5553      6.1004      5.4084      5.2971      5.6701      6.5090    
  7.8497      9.7470      12.238      15.323      18.958      23.035      27.341      31.559      35.247      37.428    
  36.944      32.943      25.288      14.871      3.5416     -6.4009     -12.846     -14.268     -9.8812     0.17182    
  14.591      31.028      46.855      60.260      70.941      79.899      88.546      97.692      106.68      113.78    
  116.97      114.67      106.44      93.327      77.493      61.420      47.018      35.189      25.961      18.946    
  17.769      12.725      9.2453      7.0318      5.7889      5.2643      5.2922      5.7933      6.7588      8.2313    
  10.268      12.898      16.109      19.838      23.948      28.189      32.207      35.261      36.134      33.729    
  27.484      17.774      6.0635     -5.4047     -14.245     -18.464     -16.715     -8.5123      5.4297      23.033    
  41.392      57.977      71.749      83.368      94.413      106.19      118.67      130.10      137.92      139.66    
  133.78      120.62      102.31      82.051      62.886      46.746      34.167      24.736      22.602      16.037    
  11.409      8.3213      6.4268      5.4243      5.0904      5.2771      5.9075      6.9883      8.5842      10.751    
  13.497      16.800      20.601      24.741      28.930      32.699      35.001      34.621      30.653      22.914    
  12.269     0.56837     -9.8499     -16.727     -18.235     -13.228     -1.6568      15.035      34.118      52.639    
  68.784      82.586      95.496      109.18      124.31      139.59      152.30      159.40      158.02      147.07    
  128.28      105.16      81.567      60.702      44.093      31.673      28.091      19.845      13.982      9.9445    
  7.3248      5.7878      5.0642      4.9430      5.2795      6.0293      7.2386      8.9717      11.259      14.117    
  17.554      21.507      25.768      30.016      33.602      35.365      34.194      29.433      21.275      10.900    
 0.23007     -8.5265     -13.247     -12.215     -4.5825      9.0861      26.690      45.313      62.561      77.666    
  91.605      106.17      122.58      140.36      157.04      169.49      173.99      167.78      151.09      127.34    
  100.99      76.053      55.328      39.564      33.922      23.937      16.817      11.816      8.4469      6.3453    
  5.2037      4.7647      4.8362      5.3203      6.2166      7.5755      9.4499      11.893      14.966      18.684    
  22.945      27.514      32.056      35.748      37.441      36.182      31.571      24.008      14.701      5.4442    
 -1.6697     -4.5858     -1.7672      7.1909      21.159      37.756      54.399      69.592      83.572      97.871    
  114.06      132.46      151.24      167.51      177.58      177.55      165.78      144.31      117.76      90.662    
  66.730      47.842      39.541      27.979      19.691      13.792      9.7138      7.0556      5.4844      4.7186    
  4.5404      4.8061      5.4582      6.5175      8.0512      10.144      12.889      16.366      20.577      25.393    
  30.570      35.712      39.900      42.077      41.434      37.678      31.202      23.103      15.063      9.1143    
  7.2213      10.658      19.400      31.984      46.145      59.990      72.979      86.029      100.67      117.82    
  136.56      154.36      168.06      173.71      168.31      151.99      128.23      101.68      76.461      55.481    
  44.164      31.509      22.313      15.686      11.005      7.8443      5.8649      4.7820      4.3642      4.4350    
  4.8912      5.7233      6.9966      8.8113      11.285      14.547      18.686      23.674      29.342      35.421    
  41.455      46.508      49.571      49.868      47.082      41.526      34.207      26.776      21.253      19.471    
  22.381      29.609      39.651      50.707      61.690      72.746      84.979      99.513      116.27      133.51    
  148.39      157.66      158.07      148.22      129.79      106.52      82.477      61.141      46.949      34.010    
  24.359      17.278      12.170      8.6133      6.2882      4.9234      4.2822      4.1697      4.4593      5.1184    
  6.1979      7.8003      10.062      13.149      17.211      22.307      28.354      35.147      42.386      49.538    
  55.609      59.542      60.512      58.157      52.783      45.460      37.922      32.146      29.716      31.241    
  36.197      43.318      51.382      59.912      69.371      80.687      94.225      109.10      123.25      133.89    
  138.19      134.22      122.06      103.94      83.312      63.590      47.287      35.033      25.527      18.358    
  13.055      9.2562      6.6850      5.0973      4.2632      3.9847      4.1279      4.6454      5.5727      7.0102    
  9.1088      12.056      16.041      21.191      27.522      34.921      43.134      51.750      60.067      66.936    
  71.181      71.943      68.957      62.748      54.622      46.390      39.870      36.329      36.124      38.738    
  43.228      48.856      55.512      63.654      73.646      85.162      97.027      107.25      113.45      113.64    
  107.04      94.617      78.731      62.212      45.067      34.358      25.614      18.759      13.530      9.6756    
  6.9829      5.2498      4.2700      3.8558      3.8732      4.2660      5.0614      6.3603      8.3232      11.150    
  15.052      20.210      26.740      34.649      43.785      53.761      63.887      73.130      80.104      83.543    
  82.753      77.859      69.837      60.285      51.013      43.574      38.884      37.096      37.774      40.287    
  44.224      49.560      56.362      64.495      73.390      81.851      88.179      90.640      88.145      80.777    
  69.833      57.299      40.732      32.085      24.582      18.407      13.518      9.7999      7.1203      5.3314    
  4.2652      3.7548      3.6712      3.9545      4.6286      5.7969      7.6273      10.330      14.130      19.249    
  25.888      34.199      44.194      55.596      67.680      79.235      88.720      94.557      95.632      91.772    
  83.803      73.283      62.041      51.726      43.501      37.924      35.008      34.417      35.731      38.627    
  42.836      48.151      54.249      60.480      65.801      68.958      68.910      65.279      58.559      49.920    
  35.087      28.598      22.577      17.340      13.008      9.5972      7.0605      5.3085      4.2180      3.6529    
  3.4970      3.6902      4.2525      5.2879      6.9714      9.5247      13.188      18.206      24.849      33.409    
  44.116      56.912      71.154      85.464      97.876      106.33      109.30      106.30      98.064      86.310    
  73.105      60.305      49.221      40.565      34.565      31.121      29.948      30.627      32.724      35.877    
  39.763      43.979      47.930      50.825      51.866      50.549      46.896      41.460      28.997      24.430    
  19.884      15.690      12.054      9.0808      6.7976      5.1667      4.1097      3.5285      3.3291      3.4540    
  3.9162      4.8160      6.3325      8.6969      12.164      17.002      23.522      32.126      43.268      57.202    
  73.544      90.904      106.93      118.87      124.46      122.71      114.23      100.92      85.323      69.782    
  55.935      44.599      36.007      30.092      26.620      25.230      25.480      26.919      29.154      31.826    
  34.542      36.816      38.109      37.982      36.261      33.119      23.133      20.091      16.839      13.657    
  10.763      8.3040      6.3525      4.9098      3.9358      3.3717      3.1525      3.2289      3.6059      4.3736    
  5.7057      7.8372      11.038      15.596      21.844      30.243      41.421      55.976      73.940      94.169    
  114.13      130.42      139.85      140.57      132.65      118.06      99.847      81.104      64.113      50.005    
  39.004      30.896      25.368      22.080      20.641      20.605      21.539      23.054      24.802      26.435    
  27.597      27.961      27.315      25.644      17.900      15.968      13.752      11.461      9.2781      7.3495    
  5.7660      4.5556      3.7042      3.1829      2.9590      3.0023      3.3126      3.9587      5.0972      6.9596    
  9.8255      13.997      19.816      27.749      38.509      52.965      71.640      93.906      117.42      138.39    
  152.74      157.41      151.56      136.88      116.64      94.666      74.139      56.861      43.292      33.095    
  25.736      20.768      17.810      16.456      16.268      16.835      17.805      18.874      19.773      20.259    
  20.144      19.343      13.479      12.310      10.871      9.3059      7.7483      6.3141      5.0943      4.1330    
  3.4288      2.9682      2.7486      2.7694      3.0303      3.5710      4.5191      6.0952      8.5772      12.269    
  17.507      24.741      34.667      48.272      66.488      89.369      115.19      140.26      160.04      170.09    
  168.03      154.84      133.98      109.60      85.705      65.048      48.674      36.331      27.274      20.843    
  16.570      14.054      12.867      12.599      12.895      13.461      14.054      14.476      14.575      14.253    
  9.9199      9.2518      8.3641      7.3531      6.3033      5.2935      4.4020      3.6783      3.1263      2.7380    
  2.5316      2.5353      2.7566      3.2099      3.9870      5.2826      7.3575      10.504      15.052      21.415    
  30.205      42.353      58.996      80.815      106.97      134.45      158.78      174.79      178.34      168.75    
  149.04      123.88      97.653      74.008      54.835      40.287      29.590      21.867      16.480      12.967    
  10.909      9.9080      9.6139      9.7253      9.9982      10.259      10.390      10.299      7.1920      6.8375    
  6.3233      5.7057      5.0366      4.3653      3.7487      3.2300      2.8173      2.5074      2.3254      2.3146    
  2.4966      2.8783      3.5159      4.5579      6.2306      8.8086      12.611      18.012      25.508      35.861    
  50.166      69.473      93.827      121.27      147.86      168.68      178.48      174.61      158.50      134.67    
  107.99      82.550      61.132      44.566      32.329      23.456      17.128      12.782      9.9919      8.3757    
  7.5782      7.2867      7.2543      7.3180      7.3797      7.3616      5.2086      5.0340      4.7580      4.4016    
  3.9975      3.5778      3.1762      2.8216      2.5267      2.2956      2.1488      2.1278      2.2688      2.5887    
  3.1173      3.9461      5.2507      7.2804      10.338      14.759      20.934      29.425      41.113      57.076    
  77.946      102.90      129.02      151.98      166.76      169.32      159.05      139.11      114.30      88.963    
  66.517      48.572      35.100      25.263      18.162      13.146      9.7669      7.6469      6.4285      5.7948    
  5.4990      5.3765      5.3293      5.2924      3.8365      3.7490      3.6123      3.4207      3.1915      2.9466    
  2.7029      2.4758      2.2791      2.1221      2.0177      1.9966      2.1013      2.3636      2.8019      3.4601    
  4.4555      5.9954      8.3537      11.833      16.751      23.507      32.708      45.216      61.833      82.567    
  105.81      128.13      145.23      152.99      149.25      135.21      114.57      91.492      69.728      51.512    
  37.416      26.942      19.282      13.768      9.9349      7.4116      5.8503      4.9398      4.4328      4.1551    
  3.9994      3.9066      2.9190      2.8603      2.7960      2.7054      2.5902      2.4618      2.3300      2.2030    
  2.0910      2.0022      1.9444      1.9377      2.0198      2.2284      2.5838      3.1058      3.8603      4.9954    
  6.7373      9.3562      13.132      18.361      25.427      34.887      47.405      63.350      82.131      101.67    
  118.57      129.14      130.76      123.04      107.99      89.023      69.708      52.579      38.736      28.134    
  20.217      14.402      10.253      7.4252      5.6002      4.4779      3.8072      3.4052      3.1582      3.0072    
  2.3091      2.2510      2.2192      2.1892      2.1497      2.1017      2.0513      2.0051      1.9684      1.9446    
  1.9376      1.9597      2.0366      2.2013      2.4794      2.8880      3.4603      4.2832      5.5201      7.3988    
  10.174      14.092      19.403      26.421      35.557      47.177      61.207      76.645      91.352      102.46    
  107.38      104.84      95.512      81.632      66.069      51.263      38.616      28.511      20.722      14.850    
  10.546      7.5248      5.5146      4.2374      3.4424      2.9426      2.6232      2.4235      1.8990      1.8325    
  1.8139      1.8193      1.8318      1.8445      1.8592      1.8808      1.9121      1.9525      2.0015      2.0634    
  2.1516      2.2891      2.5020      2.8123      3.2412      3.8330      4.6873      5.9739      7.9105      10.719    
  14.594      19.722      26.310      34.571      44.558      55.859      67.334      77.139      83.222      84.104    
  79.539      70.626      59.309      47.586      36.883      27.862      20.612      14.962      10.696      7.6111    
  5.4953      4.1114      3.2260      2.6544      2.2794      2.0391      1.6282      1.5517      1.5383      1.5652    
  1.6149      1.6770      1.7481      1.8296      1.9233      2.0273      2.1364      2.2470      2.3617      2.4924    
  2.6596      2.8867      3.1955      3.6125      4.1917      5.0393      6.3177      8.2174      10.918      14.565    
  19.269      25.113      32.104      40.048      48.382      56.077      61.790      64.280      62.926      58.013    
  50.610      42.108      33.711      26.172      19.802      14.639      10.611      7.6061      5.4766      4.0400    
  3.0988      2.4799      2.0652      1.7918      1.4785      1.4159      1.4069      1.4316      1.4770      1.5364    
  1.6062      1.6852      1.7734      1.8704      1.9721      2.0724      2.1672      2.2576      2.3524      2.4689    
  2.6291      2.8555      3.1713      3.6128      4.2454      5.1690      6.5053      8.3674      10.826      13.887    
  17.475      21.434      25.508      29.319      32.386      34.212      34.446      33.024      30.195      26.424    
  22.227      18.048      14.205      10.889      8.1815      6.0840      4.5378      3.4474      2.7012      2.1938    
  1.8469      1.6160      1.3964      1.3296      1.3232      1.3600      1.4265      1.5150      1.6222      1.7452    
  1.8810      2.0267      2.1778      2.3269      2.4642      2.5823      2.6807      2.7686      2.8640      2.9904    
  3.1728      3.4383      3.8229      4.3845      5.2064      6.3855      8.0035      10.095      12.626      15.487    
  18.495      21.397      23.882      25.620      26.335      25.890      24.342      21.924      18.968      15.812    
  12.742      9.9720      7.6348      5.7815      4.3866      3.3738      2.6513      2.1394      1.7813      1.5412    
  1.4085      1.3475      1.3491      1.3991      1.4854      1.6002      1.7393      1.8998      2.0776      2.2685    
  2.4671      2.6649      2.8494      3.0072      3.1289      3.2131      3.2689      3.3167      3.3842      3.5005    
  3.6934      3.9960      4.4565      5.1405      6.1190      7.4449      9.1268      11.109      13.269      15.427    