unknown system                          
   1.00000000000000     
     4.913700    0.000000    0.000000
    -2.456850    4.255389    0.000000
     0.000000    0.000000    5.405130
   Si   O 
     3     6
Direct
  0.469800  0.020000  0.666670
  0.000000  0.469800  0.333330
  0.530200  0.530200  0.000000
  0.414500  0.266200  0.785600
  0.733800  0.148300  0.452270
  0.851700  0.585500  0.118930
  0.148300  0.733800  0.547730
  0.266200  0.414500  0.214400
  0.585500  0.851700  0.881070
 
   48   48   56
 0.14684695068E+01 0.13823754295E+01 0.13713398000E+01 0.14136879613E+01 0.14919161685E+01
 0.15945252261E+01 0.17152939529E+01 0.18522261616E+01 0.20050730473E+01 0.21711425254E+01
 0.23429609924E+01 0.25106827721E+01 0.26673944464E+01 0.28136647933E+01 0.29597146035E+01
 0.31245497012E+01 0.33318702335E+01 0.36069620541E+01 0.39829468940E+01 0.45186132143E+01
 0.53156455663E+01 0.65172898185E+01 0.82829928913E+01 0.10752310433E+02 0.14017314820E+02
 0.18110618989E+02 0.22995651270E+02 0.28533075849E+02 0.34410999292E+02 0.40074203380E+02
 0.44737455526E+02 0.47555046191E+02 0.47914701068E+02 0.45700761743E+02 0.41353612287E+02
 0.35681224822E+02 0.29548677190E+02 0.23632263991E+02 0.18338225364E+02 0.13852859833E+02
 0.10228455296E+02 0.74392281080E+01 0.54013479695E+01 0.39831572994E+01 0.30271784049E+01
 0.23846589815E+01 0.19461534889E+01 0.16502608013E+01 0.14013556069E+01 0.13099280271E+01
 0.13016971542E+01 0.13575945077E+01 0.14598759813E+01 0.15964058071E+01 0.17605697177E+01
 0.19489142367E+01 0.21590234894E+01 0.23871107214E+01 0.26250594900E+01 0.28595252554E+01
 0.30752789982E+01 0.32611180800E+01 0.34149283885E+01 0.35461489136E+01 0.36751025739E+01
 0.38291760089E+01 0.40392196877E+01 0.43431713411E+01 0.47992620105E+01 0.54987543196E+01
 0.65623693658E+01 0.81154736372E+01 0.10254360444E+02 0.13020321361E+02 0.16385669290E+02
 0.20241528094E+02 0.24377037250E+02 0.28456041109E+02 0.32019107277E+02 0.34545877880E+02
 0.35586734743E+02 0.34918564024E+02 0.32638827808E+02 0.29133402270E+02 0.24933809823E+02
 0.20551782978E+02 0.16377843248E+02 0.12663853854E+02 0.95483400141E+01 0.70796317463E+01
 0.52278769663E+01 0.39017407781E+01 0.29787153794E+01 0.23400621296E+01 0.18957279200E+01
 0.15916655473E+01 0.14067260857E+01 0.13191450545E+01 0.13182320932E+01 0.13883810766E+01
 0.15131554725E+01 0.16802388012E+01 0.18830220332E+01 0.21185272303E+01 0.23845960484E+01
 0.26773646472E+01 0.29882222916E+01 0.33014442893E+01 0.35954236006E+01 0.38480025327E+01
 0.40431688997E+01 0.41765592229E+01 0.42586844100E+01 0.43144211699E+01 0.43779741549E+01
 0.44871989866E+01 0.46843969373E+01 0.50250987854E+01 0.55860272033E+01 0.64607578457E+01
 0.77402692299E+01 0.94856908758E+01 0.11702872049E+02 0.14324699793E+02 0.17203399949E+02
 0.20113165196E+02 0.22764004586E+02 0.24832171479E+02 0.26015223989E+02 0.26108153014E+02
 0.25071908093E+02 0.23052901988E+02 0.20335776764E+02 0.17256946533E+02 0.14128447908E+02
 0.11199206439E+02 0.86434565477E+01 0.65554677983E+01 0.49480304444E+01 0.37663685690E+01
 0.29198773792E+01 0.23172920071E+01 0.18890766571E+01 0.15927694933E+01 0.14638449812E+01
 0.13916885153E+01 0.14060745232E+01 0.14942215432E+01 0.16424303362E+01 0.18393788616E+01
 0.20785176540E+01 0.23583187814E+01 0.26796582013E+01 0.30411285763E+01 0.34344417621E+01
 0.38418850797E+01 0.42367237329E+01 0.45868146759E+01 0.48612425335E+01 0.50386261389E+01
 0.51144133342E+01 0.51042680288E+01 0.50418658889E+01 0.49717559231E+01 0.49411242154E+01
 0.49963594268E+01 0.51874687127E+01 0.55752206064E+01 0.62296859173E+01 0.72132814284E+01
 0.85544741373E+01 0.10226710324E+02 0.12141810907E+02 0.14155280880E+02 0.16077378422E+02
 0.17691081633E+02 0.18783496173E+02 0.19189934662E+02 0.18835878504E+02 0.17757029311E+02
 0.16088192293E+02 0.14028389164E+02 0.11798512271E+02 0.96046141641E+01 0.76112972339E+01
 0.59245933845E+01 0.45849063101E+01 0.35732822376E+01 0.28320999653E+01 0.22936596867E+01
 0.19040165719E+01 0.16320315489E+01 0.15561882589E+01 0.15105605096E+01 0.15493585093E+01
 0.16620054406E+01 0.18370200543E+01 0.20648426089E+01 0.23402714132E+01 0.26639624575E+01
 0.30407805550E+01 0.34742121061E+01 0.39594604065E+01 0.44787519872E+01 0.50004419005E+01
 0.54820442860E+01 0.58771770627E+01 0.61455439311E+01 0.62633085066E+01 0.62305974256E+01
 0.60737043467E+01 0.58405856851E+01 0.55902256950E+01 0.53805599626E+01 0.52622460305E+01
 0.52811399718E+01 0.54832440237E+01 0.59125035255E+01 0.65989499151E+01 0.75438020928E+01
 0.87089582361E+01 0.10012974720E+02 0.11333735442E+02 0.12520764896E+02 0.13419249954E+02
 0.13900421092E+02 0.13887384966E+02 0.13368643183E+02 0.12398465766E+02 0.11085990355E+02
 0.95744595247E+01 0.80142700079E+01 0.65373438367E+01 0.52394288859E+01 0.41717012236E+01
 0.33407466205E+01 0.27180678056E+01 0.22591591153E+01 0.19248457516E+01 0.16930783191E+01
 0.16727879675E+01 0.16640632949E+01 0.17360343954E+01 0.18805513873E+01 0.20875437825E+01
 0.23490899199E+01 0.26623492457E+01 0.30308198864E+01 0.34635464281E+01 0.39706093924E+01
 0.45545215220E+01 0.52011382545E+01 0.58754050429E+01 0.65242187776E+01 0.70847271649E+01
 0.74956319478E+01 0.77099821855E+01 0.77071033754E+01 0.74996114152E+01 0.71323256704E+01
 0.66732410660E+01 0.61994490704E+01 0.57821771637E+01 0.54761864580E+01 0.53180761708E+01
 0.53325752740E+01 0.55385807356E+01 0.59461238489E+01 0.65444384079E+01 0.72907912604E+01
 0.81093699944E+01 0.89010815472E+01 0.95591240334E+01 0.99861545517E+01 0.10111146248E+02
 0.99027720236E+01 0.93747210681E+01 0.85812546697E+01 0.76059067176E+01 0.65470652770E+01
 0.55018951857E+01 0.45499501898E+01 0.37407470173E+01 0.30905216256E+01 0.25894195244E+01
 0.22149210864E+01 0.19450092437E+01 0.17659629368E+01 0.18072589754E+01 0.18454984523E+01
 0.19594206261E+01 0.21431905024E+01 0.23886579328E+01 0.26892294371E+01 0.30435769894E+01
 0.34579013164E+01 0.39462432340E+01 0.45266293507E+01 0.52112361178E+01 0.59936196798E+01
 0.68399789916E+01 0.76891811784E+01 0.84610104762E+01 0.90698394786E+01 0.94413722851E+01
 0.95292114826E+01 0.93263250216E+01 0.88678318893E+01 0.82250438078E+01 0.74921449031E+01
 0.67669897448E+01 0.61307554367E+01 0.56355279605E+01 0.53059076802E+01 0.51497391723E+01
 0.51661033559E+01 0.53444890485E+01 0.56597088286E+01 0.60694328022E+01 0.65156386358E+01
 0.69287623235E+01 0.72362738872E+01 0.73768507893E+01 0.73144908899E+01 0.70440290591E+01
 0.65870409923E+01 0.59852893150E+01 0.52960694637E+01 0.45853150080E+01 0.39144225121E+01
 0.33261435817E+01 0.28393791841E+01 0.24551482306E+01 0.21665781525E+01 0.19658122207E+01
 0.18470070242E+01 0.19568251517E+01 0.20507705377E+01 0.22160793092E+01 0.24481089470E+01
 0.27408722986E+01 0.30887581209E+01 0.34903548161E+01 0.39533686533E+01 0.44969303078E+01
 0.51476326373E+01 0.59287135174E+01 0.68454160518E+01 0.78718086503E+01 0.89447406468E+01
 0.99687644309E+01 0.10831839748E+02 0.11427400552E+02 0.11676540735E+02 0.11545005138E+02
 0.11051430462E+02 0.10264800573E+02 0.92911993625E+01 0.82528857945E+01 0.72648933820E+01
 0.64147797624E+01 0.57507138092E+01 0.52818606953E+01 0.49909006684E+01 0.48515177998E+01
 0.48395858503E+01 0.49317028748E+01 0.50959885570E+01 0.52867969100E+01 0.54503314659E+01
 0.55375339411E+01 0.55151707729E+01 0.53697200659E+01 0.51054701311E+01 0.47410017880E+01
 0.43061271750E+01 0.38383732872E+01 0.33774408363E+01 0.29579270226E+01 0.26031286916E+01
 0.23234126978E+01 0.21200539234E+01 0.19914087293E+01 0.19368649480E+01 0.21201983690E+01
 0.22764041532E+01 0.25029265343E+01 0.27955327041E+01 0.31487662285E+01 0.35568227476E+01
 0.40172117803E+01 0.45372321550E+01 0.51385869567E+01 0.58551409128E+01 0.67225111594E+01
 0.77616376814E+01 0.89608152568E+01 0.10262932026E+02 0.11564821990E+02 0.12731259908E+02
 0.13619907004E+02 0.14110347383E+02 0.14130360050E+02 0.13672753346E+02 0.12797262833E+02
 0.11617141996E+02 0.10276339069E+02 0.89239303782E+01 0.76885771822E+01 0.66557738639E+01
 0.58562515743E+01 0.52741435569E+01 0.48712847454E+01 0.46106239220E+01 0.44639740151E+01
 0.44055712256E+01 0.44043140990E+01 0.44234227555E+01 0.44260655614E+01 0.43820704377E+01
 0.42732821571E+01 0.40959771667E+01 0.38584695512E+01 0.35754488907E+01 0.32644900276E+01
 0.29470938178E+01 0.26492669026E+01 0.23962861476E+01 0.22048022160E+01 0.20806063285E+01
 0.20240888848E+01 0.20364206433E+01 0.22938699413E+01 0.25174392263E+01 0.28147497501E+01
 0.31827796801E+01 0.36148957187E+01 0.41031177858E+01 0.46424232129E+01 0.52369894582E+01
 0.59066411930E+01 0.66888247335E+01 0.76309087446E+01 0.87720206296E+01 0.10120157776E+02
 0.11633534038E+02 0.13213296917E+02 0.14710968796E+02 0.15950916615E+02 0.16764765903E+02
 0.17029594461E+02 0.16697740967E+02 0.15807816062E+02 0.14474293322E+02 0.12861406753E+02
 0.11150480797E+02 0.95081778685E+01 0.80605663227E+01 0.68772284391E+01 0.59695039332E+01
 0.53041259266E+01 0.48271795369E+01 0.44873409654E+01 0.42475175425E+01 0.40820847553E+01
 0.39672132162E+01 0.38753357623E+01 0.37785262346E+01 0.36561461077E+01 0.34990621862E+01
 0.33079314993E+01 0.30893976512E+01 0.28545229739E+01 0.26192766622E+01 0.24037134387E+01
 0.22280998745E+01 0.21080415675E+01 0.20521235734E+01 0.20634665651E+01 0.21433709430E+01
 0.24700828736E+01 0.27648538000E+01 0.31414595436E+01 0.35997044935E+01 0.41325417392E+01
 0.47285359871E+01 0.53771614385E+01 0.60756838430E+01 0.68374296261E+01 0.76977688756E+01
 0.87105560637E+01 0.99312473567E+01 0.11391418117E+02 0.13074267493E+02 0.14899020592E+02
 0.16719057145E+02 0.18337429340E+02 0.19540890972E+02 0.20146649668E+02 0.20048144140E+02
 0.19243431486E+02 0.17835126876E+02 0.16002457237E+02 0.13958131144E+02 0.11907255314E+02
 0.10018473789E+02 0.84062492512E+01 0.71206136860E+01 0.61481030105E+01 0.54306347709E+01
 0.48977698480E+01 0.44938335220E+01 0.41844083196E+01 0.39459055926E+01 0.37549710380E+01
 0.35876166635E+01 0.34236301660E+01 0.32488553601E+01 0.30555319530E+01 0.28441889363E+01
 0.26255108365E+01 0.24177977423E+01 0.22407434761E+01 0.21108541416E+01 0.20406549094E+01
 0.20387844789E+01 0.21093256317E+01 0.22528206685E+01 0.26391013741E+01 0.30048939841E+01
 0.34661511547E+01 0.40265819492E+01 0.46812311218E+01 0.54158946505E+01 0.62120662240E+01
 0.70561858910E+01 0.79503732803E+01 0.89206854939E+01 0.10017863578E+02 0.11306091903E+02
 0.12839537317E+02 0.14632972221E+02 0.16636678842E+02 0.18724281065E+02 0.20698310046E+02
 0.22316283587E+02 0.23337615917E+02 0.23583127722E+02 0.22986639107E+02 0.21614813149E+02
 0.19645723968E+02 0.17319270851E+02 0.14883893874E+02 0.12556182416E+02 0.10495293503E+02
 0.87888400303E+01 0.74516601976E+01 0.64410843977E+01 0.56851311566E+01 0.51111677208E+01
 0.46628203524E+01 0.43022897672E+01 0.40041843224E+01 0.37486500116E+01 0.35178071571E+01
 0.32957362074E+01 0.30707955051E+01 0.28387863857E+01 0.26052805498E+01 0.23855141838E+01
 0.22010967817E+01 0.20742585837E+01 0.20218783688E+01 0.20521826885E+01 0.21659317948E+01
 0.23612906329E+01 0.27939939897E+01 0.32222656927E+01 0.37665813956E+01 0.44350507427E+01
 0.52265275922E+01 0.61262940674E+01 0.71087976233E+01 0.81478261073E+01 0.92293186740E+01
 0.10361846629E+02 0.11581859175E+02 0.12949896103E+02 0.14533346986E+02 0.16377060990E+02
 0.18471467415E+02 0.20729462201E+02 0.22978540289E+02 0.24972871041E+02 0.26431792301E+02
 0.27104630437E+02 0.26843018606E+02 0.25647955275E+02 0.23668320915E+02 0.21155023152E+02
 0.18396143114E+02 0.15658830277E+02 0.13150763896E+02 0.11002276861E+02 0.92651501703E+01
 0.79235108897E+01 0.69136753772E+01 0.61502972204E+01 0.55529413073E+01 0.50632591734E+01
 0.46463476539E+01 0.42811204326E+01 0.39516349445E+01 0.36454072446E+01 0.33543768021E+01
 0.30737397914E+01 0.28016865384E+01 0.25443020277E+01 0.23209083413E+01 0.21604206337E+01
 0.20885379142E+01 0.21172368213E+01 0.22459492318E+01 0.24710964434E+01 0.29347479528E+01
 0.34055895542E+01 0.40203543046E+01 0.47920323450E+01 0.57237866495E+01 0.68029848328E+01
 0.80011344418E+01 0.92812486405E+01 0.10610314080E+02 0.11972497580E+02 0.13379178684E+02
 0.14871969446E+02 0.16514235207E+02 0.18368946846E+02 0.20466850481E+02 0.22773925648E+02
 0.25167577746E+02 0.27430704614E+02 0.29274374825E+02 0.30396081862E+02 0.30563133006E+02
 0.29688138583E+02 0.27858646763E+02 0.25306814233E+02 0.22339734924E+02 0.19267011945E+02
 0.16349923747E+02 0.13774360171E+02 0.11639674848E+02 0.99602471411E+01 0.86820429472E+01
 0.77127011611E+01 0.69549087595E+01 0.63298905756E+01 0.57848610514E+01 0.52887992658E+01
 0.48254029042E+01 0.43880816823E+01 0.39760202506E+01 0.35900183113E+01 0.32307248858E+01
 0.29022125983E+01 0.26179184654E+01 0.24013425657E+01 0.22782058155E+01 0.22661408267E+01
 0.23711408230E+01 0.25931531298E+01 0.30705286389E+01 0.35521270750E+01 0.42112304218E+01
 0.50662852289E+01 0.61254720323E+01 0.73804929129E+01 0.88044328344E+01 0.10354775090E+02
 0.11982421885E+02 0.13644862511E+02 0.15319428323E+02 0.17012905835E+02 0.18763848563E+02
 0.20632818031E+02 0.22677801738E+02 0.24918717042E+02 0.27300841311E+02 0.29669078825E+02
 0.31767038436E+02 0.33275944489E+02 0.33896254440E+02 0.33445696445E+02 0.31924674420E+02
 0.29513422364E+02 0.26509514815E+02 0.23247479938E+02 0.20035348584E+02 0.17114269201E+02
 0.14633751707E+02 0.12643247860E+02 0.11106396868E+02 0.99338041335E+01 0.90185630932E+01
 0.82618728262E+01 0.75872910934E+01 0.69465295425E+01 0.63175748142E+01 0.56969655282E+01
 0.50918226183E+01 0.45155225153E+01 0.39849098694E+01 0.35163039118E+01 0.31228277847E+01
 0.28164527437E+01 0.26116468096E+01 0.25243821125E+01 0.25670348547E+01 0.27466997925E+01
 0.32193777460E+01 0.36704043085E+01 0.43343909048E+01 0.52363774744E+01 0.63910509293E+01
 0.77962780487E+01 0.94301387432E+01 0.11251388031E+02 0.13203321222E+02 0.15221386917E+02
 0.17245181938E+02 0.19234177558E+02 0.21182300194E+02 0.23122523615E+02 0.25114551173E+02
 0.27215885694E+02 0.29442218266E+02 0.31725570848E+02 0.33880134941E+02 0.35615460191E+02
 0.36614467802E+02 0.36622538124E+02 0.35535323130E+02 0.33441019113E+02 0.30598944932E+02
 0.27357724113E+02 0.24053234411E+02 0.20960050042E+02 0.18263733039E+02 0.16050294309E+02
 0.14313047960E+02 0.12976580046E+02 0.11929985922E+02 0.11057910043E+02 0.10262455311E+02
 0.94748862575E+01 0.86585735088E+01 0.78058290616E+01 0.69321217915E+01 0.60694678942E+01
 0.52579305745E+01 0.45350898978E+01 0.39276542304E+01 0.34500359724E+01 0.31090774238E+01
 0.29093100973E+01 0.28555202730E+01 0.29546778419E+01 0.34046592157E+01 0.37800881612E+01
 0.43998137518E+01 0.52977079431E+01 0.64970084965E+01 0.80034427146E+01 0.98028769485E+01
 0.11861580792E+02 0.14125453127E+02 0.16518790685E+02 0.18949410917E+02 0.21325869820E+02
 0.23582553948E+02 0.25699679491E+02 0.27706978831E+02 0.29668441283E+02 0.31649227124E+02
 0.33637915929E+02 0.35529060495E+02 0.37154566513E+02 0.38279503233E+02 0.38649934315E+02
 0.38083034397E+02 0.36546531350E+02 0.34180022541E+02 0.31256623813E+02 0.28121974856E+02
 0.25110317926E+02 0.22429090577E+02 0.20183683765E+02 0.18390579660E+02 0.16990309430E+02
 0.15875818073E+02 0.14926870308E+02 0.14034550954E+02 0.13112174039E+02 0.12101935071E+02
 0.10982980471E+02 0.97746905557E+01 0.85280679434E+01 0.73089844222E+01 0.61831696767E+01
 0.52067320530E+01 0.44189203637E+01 0.38363938636E+01 0.34543954287E+01 0.32581731169E+01
 0.32389761944E+01 0.36519866460E+01 0.39085789077E+01 0.44321606792E+01 0.52659271694E+01
 0.64440343438E+01 0.79822997270E+01 0.98769199277E+01 0.12105844205E+02 0.14625762499E+02
 0.17363567306E+02 0.20210971146E+02 0.23034616299E+02 0.25704765041E+02 0.28130229523E+02
 0.30281058738E+02 0.32189543796E+02 0.33894398343E+02 0.35364315586E+02 0.36609085723E+02
 0.37648175944E+02 0.38436342986E+02 0.38837114995E+02 0.38675202308E+02 0.37831058633E+02
 0.36306371242E+02 0.34224040033E+02 0.31788796438E+02 0.29254615431E+02 0.26904238541E+02
 0.24919209923E+02 0.23314183363E+02 0.22034550473E+02 0.20984054029E+02 0.20050280008E+02
 0.19122968888E+02 0.18103269488E+02 0.16913857235E+02 0.15515540089E+02 0.13921118771E+02
 0.12193643478E+02 0.10428934337E+02 0.87337285537E+01 0.72077705636E+01 0.59290335621E+01
 0.49407824620E+01 0.42463844478E+01 0.38193246810E+01 0.36264739306E+01 0.39949939078E+01
 0.40872994513E+01 0.44660010315E+01 0.51750197057E+01 0.62591588581E+01 0.77469511735E+01
 0.96471962001E+01 0.11951515458E+02 0.14632242096E+02 0.17630812442E+02 0.20842338203E+02
 0.24111910037E+02 0.27256693369E+02 0.30109588116E+02 0.32560706559E+02 0.34570682473E+02
 0.36048445801E+02 0.36892253839E+02 0.37176367289E+02 0.37116561609E+02 0.36946556099E+02
 0.36792197251E+02 0.36631067252E+02 0.36352772380E+02 0.35852181088E+02 0.35079364096E+02
 0.34035664094E+02 0.32763304658E+02 0.31363593474E+02 0.30021371384E+02 0.28918429089E+02
 0.28030746496E+02 0.27273379330E+02 0.26544128667E+02 0.25729448714E+02 0.24715325311E+02
 0.23403775814E+02 0.21735002804E+02 0.19710189653E+02 0.17402701303E+02 0.14946587351E+02
 0.12504650842E+02 0.10232335361E+02 0.82531297876E+01 0.66474060559E+01 0.54475151766E+01
 0.46382629790E+01 0.41711761437E+01 0.44926150433E+01 0.43548133744E+01 0.45400140339E+01
 0.50703693505E+01 0.59913672161E+01 0.73439084077E+01 0.91514543447E+01 0.11420434539E+02
 0.14140521202E+02 0.17274211072E+02 0.20735967416E+02 0.24374621662E+02 0.27980069385E+02
 0.31323147546E+02 0.34209733690E+02 0.36498427365E+02 0.37915681269E+02 0.38210838571E+02
 0.37415771559E+02 0.35872520742E+02 0.34113808455E+02 0.32649437803E+02 0.31788918727E+02
 0.31600064421E+02 0.31982659009E+02 0.32754021899E+02 0.33683151506E+02 0.34508895136E+02
 0.35007760784E+02 0.35105151178E+02 0.34942948061E+02 0.34777583355E+02 0.34633674603E+02
 0.34419978445E+02 0.34007971703E+02 0.33242561189E+02 0.31973676719E+02 0.30099547558E+02
 0.27608864457E+02 0.24602236095E+02 0.21275917104E+02 0.17871232018E+02 0.14616899889E+02
 0.11693564193E+02 0.92260174314E+01 0.72849924307E+01 0.58838677365E+01 0.49790760165E+01
 0.52462278832E+01 0.47696138222E+01 0.46973683120E+01 0.50003636085E+01 0.57010217235E+01
 0.68430001878E+01 0.84638139579E+01 0.10585554485E+02 0.13214961879E+02 0.16336640024E+02
 0.19892742970E+02 0.23757075534E+02 0.27723904961E+02 0.31531460916E+02 0.34916398207E+02
 0.37636946939E+02 0.39235905083E+02 0.39243892095E+02 0.37525666076E+02 0.34410087770E+02
 0.30645549724E+02 0.27158332492E+02 0.24738181666E+02 0.23836295823E+02 0.24547731876E+02
 0.26686701167E+02 0.29839679628E+02 0.33405376817E+02 0.36718213332E+02 0.39275561507E+02
 0.40943445788E+02 0.41983746805E+02 0.42819169133E+02 0.43531008420E+02 0.43976702932E+02
 0.43918403784E+02 0.43078521217E+02 0.41236208856E+02 0.38325943076E+02 0.34485864685E+02
 0.30024888017E+02 0.25327572781E+02 0.20752173669E+02 0.16570240178E+02 0.12957845269E+02
 0.10013791417E+02 0.77738298022E+01 0.62119189964E+01 0.63988741728E+01 0.54229008284E+01
 0.49941249484E+01 0.50125259217E+01 0.54476133009E+01 0.63232992027E+01 0.76812193577E+01
 0.95569671413E+01 0.11974194859E+02 0.14938789631E+02 0.18421295661E+02 0.22330645267E+02
 0.26491714601E+02 0.30646572773E+02 0.34493438274E+02 0.37720612537E+02 0.39737513621E+02
 0.39830918832E+02 0.37602287335E+02 0.33204075852E+02 0.27426828980E+02 0.21520605256E+02
 0.16799190761E+02 0.14256355899E+02 0.14391173352E+02 0.17218326264E+02 0.22306160904E+02
 0.28799260510E+02 0.35556650252E+02 0.41496067522E+02 0.46002390705E+02 0.49125038806E+02
 0.51422864058E+02 0.53495714788E+02 0.55363724459E+02 0.56688470446E+02 0.56974934858E+02
 0.55741212405E+02 0.52726594805E+02 0.48034378236E+02 0.42120498211E+02 0.35632522618E+02
 0.29198890629E+02 0.23281545097E+02 0.18140473313E+02 0.13882661065E+02 0.10530953854E+02
 0.80607187725E+01 0.81106962398E+01 0.64354891765E+01 0.55071697294E+01 0.51575965817E+01
 0.52832012382E+01 0.58579908217E+01 0.69041139038E+01 0.84605997948E+01 0.10567449859E+02
 0.13251861798E+02 0.16508861758E+02 0.20281393795E+02 0.24439378289E+02 0.28761279496E+02
 0.32943747051E+02 0.36643083278E+02 0.39230130540E+02 0.39783618383E+02 0.37605764175E+02
 0.32542820241E+02 0.25221277466E+02 0.17015533245E+02 0.96650870889E+01 0.47438807130E+01
 0.32990491152E+01 0.57540561759E+01 0.11900499327E+02 0.20851661566E+02 0.31109250707E+02
 0.40961530446E+02 0.49124125605E+02 0.55217577783E+02 0.59746980914E+02 0.63626941929E+02
 0.67450250849E+02 0.70920893013E+02 0.73285887647E+02 0.73651396380E+02 0.71330970481E+02
 0.66174584839E+02 0.58691350603E+02 0.49874800291E+02 0.40831774853E+02 0.32433343636E+02
 0.25157310609E+02 0.19143101183E+02 0.14353455342E+02 0.10706661027E+02 0.10523178525E+02
 0.79335963669E+01 0.63302844271E+01 0.54967174568E+01 0.52546206279E+01 0.55034155108E+01
 0.62158643397E+01 0.74146357881E+01 0.91484911995E+01 0.11463849600E+02 0.14376766826E+02
 0.17859165413E+02 0.21828112761E+02 0.26117544636E+02 0.30456189784E+02 0.34498667917E+02
 0.37683514923E+02 0.38980192694E+02 0.37420440266E+02 0.32488080937E+02 0.24474187560E+02
 0.14628372068E+02 0.48923574131E+01 -.26853792658E+01 -.64799836008E+01 -.55260510737E+01
 0.40777287800E+00 0.10687605943E+02 0.23736136001E+02 0.37355745901E+02 0.49523463688E+02
 0.59209903993E+02 0.66647109854E+02 0.72892077385E+02 0.79026101397E+02 0.85244110997E+02
 0.90635656083E+02 0.93834648765E+02 0.93517495067E+02 0.88956846242E+02 0.80409819717E+02
 0.69093006376E+02 0.56722586793E+02 0.44880569236E+02 0.34563467699E+02 0.26108968140E+02
 0.19427343149E+02 0.14297092365E+02 0.13731034721E+02 0.10015429295E+02 0.75553213282E+01
 0.61003549244E+01 0.54084105592E+01 0.52971257680E+01 0.56700821921E+01 0.65090231894E+01
 0.78496865332E+01 0.97470017260E+01 0.12238092829E+02 0.15322795965E+02 0.18958102127E+02
 0.23035239191E+02 0.27341147480E+02 0.31558988658E+02 0.35246677015E+02 0.37428039986E+02
 0.36943997164E+02 0.32942629188E+02 0.25287675137E+02 0.14870572266E+02 0.35416109834E+01
 -.64008563121E+01 -.12846233055E+02 -.14267881978E+02 -.98811634573E+01 0.17181847114E+00
 0.14590527234E+02 0.31028318465E+02 0.46855131931E+02 0.60260159471E+02 0.70941086468E+02
 0.79898904754E+02 0.88545521758E+02 0.97692312770E+02 0.10668147565E+03 0.11378002923E+03
 0.11696833475E+03 0.11466707994E+03 0.10644277141E+03 0.93326724910E+02 0.77492632969E+02
 0.61419966425E+02 0.47018237209E+02 0.35189110144E+02 0.25961378394E+02 0.18946069749E+02
 0.17769179581E+02 0.12724970171E+02 0.92453344015E+01 0.70318184652E+01 0.57888985806E+01
 0.52643079479E+01 0.52921891440E+01 0.57933078552E+01 0.67588483100E+01 0.82313057557E+01
 0.10267792809E+02 0.12898108019E+02 0.16108501268E+02 0.19837936068E+02 0.23948272508E+02
 0.28188810826E+02 0.32207403121E+02 0.35261107920E+02 0.36133551370E+02 0.33728973273E+02
 0.27484251326E+02 0.17773691635E+02 0.60634628912E+01 -.54046744654E+01 -.14245442155E+02
 -.18464309387E+02 -.16715449372E+02 -.85123215656E+01 0.54297471490E+01 0.23033061184E+02
 0.41392176633E+02 0.57977399810E+02 0.71748553431E+02 0.83368238774E+02 0.94413330555E+02
 0.10618789719E+03 0.11866919398E+03 0.13009989339E+03 0.13791805678E+03 0.13965550011E+03
 0.13378374348E+03 0.12061861350E+03 0.10231473905E+03 0.82050673991E+02 0.62885501105E+02
 0.46745889639E+02 0.34166607269E+02 0.24735984969E+02 0.22602185535E+02 0.16037167095E+02
 0.11408898756E+02 0.83212570355E+01 0.64268271962E+01 0.54242601999E+01 0.50904264659E+01
 0.52770740548E+01 0.59075013891E+01 0.69882713128E+01 0.85842170935E+01 0.10750844935E+02
 0.13496812816E+02 0.16799936230E+02 0.20601092121E+02 0.24741254436E+02 0.28929788906E+02
 0.32699372985E+02 0.35000638185E+02 0.34621116259E+02 0.30653446471E+02 0.22913924799E+02
 0.12269181877E+02 0.56837001881E+00 -.98498535442E+01 -.16727132112E+02 -.18234969749E+02
 -.13227839964E+02 -.16567854581E+01 0.15035341124E+02 0.34118406882E+02 0.52638924763E+02
 0.68783716887E+02 0.82585750010E+02 0.95496001981E+02 0.10918474894E+03 0.12431191137E+03
 0.13959320923E+03 0.15230421298E+03 0.15940480694E+03 0.15801873904E+03 0.14706971706E+03
 0.12827863128E+03 0.10516421076E+03 0.81566585758E+02 0.60701974237E+02 0.44093002383E+02
 0.31673217733E+02 0.28090655693E+02 0.19844822366E+02 0.13981587005E+02 0.99444771276E+01
 0.73248398579E+01 0.57877717365E+01 0.50642394808E+01 0.49429518363E+01 0.52795039668E+01
 0.60293472803E+01 0.72386144727E+01 0.89717338524E+01 0.11259406804E+02 0.14116919963E+02
 0.17554171192E+02 0.21507055733E+02 0.25767734704E+02 0.30015783665E+02 0.33601627694E+02
 0.35364694174E+02 0.34193506732E+02 0.29432757991E+02 0.21274574402E+02 0.10900225263E+02
 0.23006830785E+00 -.85264886824E+01 -.13247427693E+02 -.12215300569E+02 -.45824985925E+01
 0.90861040198E+01 0.26689634596E+02 0.45312914468E+02 0.62561018505E+02 0.77666300213E+02
 0.91605458810E+02 0.10616555988E+03 0.12258449900E+03 0.14036097264E+03 0.15703710763E+03
 0.16949354079E+03 0.17399460043E+03 0.16777947979E+03 0.15109434667E+03 0.12734144762E+03
 0.10098744240E+03 0.76052537783E+02 0.55328379944E+02 0.39563659576E+02 0.33922121820E+02
 0.23937484337E+02 0.16817391235E+02 0.11815770996E+02 0.84469149638E+01 0.63453046333E+01
 0.52036909318E+01 0.47646990532E+01 0.48361932872E+01 0.53203025613E+01 0.62165905609E+01
 0.75755324983E+01 0.94499313688E+01 0.11893258854E+02 0.14965902219E+02 0.18684349224E+02
 0.22944682932E+02 0.27514080650E+02 0.32056216903E+02 0.35747645606E+02 0.37440610254E+02
 0.36182165978E+02 0.31570999870E+02 0.24008330748E+02 0.14700855816E+02 0.54442139668E+01
 -.16696586242E+01 -.45858322120E+01 -.17672280363E+01 0.71909329228E+01 0.21159377120E+02
 0.37755746660E+02 0.54399435969E+02 0.69592151351E+02 0.83572422358E+02 0.97870987932E+02
 0.11406499637E+03 0.13245763862E+03 0.15123649749E+03 0.16750763033E+03 0.17757671234E+03
 0.17754924186E+03 0.16578203960E+03 0.14431468295E+03 0.11776427485E+03 0.90661985432E+02
 0.66730483252E+02 0.47841719413E+02 0.39541321066E+02 0.27978712193E+02 0.19691097487E+02
 0.13792482185E+02 0.97137716984E+01 0.70556234122E+01 0.54843981173E+01 0.47186351571E+01
 0.45404104299E+01 0.48061464374E+01 0.54581628261E+01 0.65175417932E+01 0.80511707437E+01
 0.10143651870E+02 0.12888954930E+02 0.16366180098E+02 0.20576897387E+02 0.25392566180E+02
 0.30569980041E+02 0.35712260525E+02 0.39900474358E+02 0.42076924406E+02 0.41433708523E+02
 0.37677833094E+02 0.31202308194E+02 0.23103424614E+02 0.15063340182E+02 0.91142548762E+01
 0.72212893503E+01 0.10658309493E+02 0.19400225852E+02 0.31984101501E+02 0.46145117082E+02
 0.59990343571E+02 0.72978959152E+02 0.86028788366E+02 0.10067473189E+03 0.11781728085E+03
 0.13655783241E+03 0.15436129725E+03 0.16805888231E+03 0.17370663171E+03 0.16830719580E+03
 0.15198972302E+03 0.12823090870E+03 0.10167722957E+03 0.76461478129E+02 0.55480786293E+02
 0.44164449974E+02 0.31509166870E+02 0.22312677271E+02 0.15685677726E+02 0.11004827837E+02
 0.78443282058E+01 0.58649475492E+01 0.47819870446E+01 0.43642480658E+01 0.44349894754E+01
 0.48912413883E+01 0.57233166470E+01 0.69965648051E+01 0.88113208482E+01 0.11285495230E+02
 0.14547119263E+02 0.18685643750E+02 0.23674287044E+02 0.29341958567E+02 0.35420597507E+02
 0.41454780606E+02 0.46507561224E+02 0.49571314509E+02 0.49868271376E+02 0.47082414240E+02
 0.41525549825E+02 0.34206687735E+02 0.26775806145E+02 0.21252676326E+02 0.19470979772E+02
 0.22381207945E+02 0.29608964664E+02 0.39650503417E+02 0.50707462754E+02 0.61689519135E+02
 0.72745878233E+02 0.84978893282E+02 0.99512646252E+02 0.11626797405E+03 0.13350725356E+03
 0.14839107877E+03 0.15766344628E+03 0.15806949591E+03 0.14822457954E+03 0.12979300102E+03
 0.10651547951E+03 0.82477244382E+02 0.61141067454E+02 0.46949053920E+02 0.34009718505E+02
 0.24358545075E+02 0.17278368167E+02 0.12170199790E+02 0.86133254320E+01 0.62881518104E+01
 0.49233576362E+01 0.42822163409E+01 0.41696867718E+01 0.44593459768E+01 0.51183704104E+01
 0.61978873839E+01 0.78002628872E+01 0.10062349402E+02 0.13148917705E+02 0.17210701407E+02
 0.22306685670E+02 0.28354493630E+02 0.35146683133E+02 0.42385602256E+02 0.49538490904E+02
 0.55608512747E+02 0.59541670625E+02 0.60511750771E+02 0.58157384700E+02 0.52782558597E+02
 0.45459936002E+02 0.37921912836E+02 0.32146484615E+02 0.29716101719E+02 0.31241417794E+02
 0.36196500228E+02 0.43317825348E+02 0.51381828681E+02 0.59912276223E+02 0.69371225834E+02
 0.80686793216E+02 0.94225284404E+02 0.10909552723E+03 0.12325349576E+03 0.13388560474E+03
 0.13819030329E+03 0.13421825039E+03 0.12205774256E+03 0.10394249059E+03 0.83312428919E+02
 0.63590013031E+02 0.47287269989E+02 0.35032990056E+02 0.25527025849E+02 0.18357539070E+02
 0.13054981004E+02 0.92562290030E+01 0.66849739686E+01 0.50972665284E+01 0.42631750395E+01
 0.39846576662E+01 0.41278939330E+01 0.46453520091E+01 0.55726625311E+01 0.70101653125E+01
 0.91087785360E+01 0.12056315785E+02 0.16040978634E+02 0.21190914375E+02 0.27522427093E+02
 0.34920539974E+02 0.43133681768E+02 0.51749968596E+02 0.60067102353E+02 0.66936117805E+02
 0.71181476937E+02 0.71942525823E+02 0.68956554192E+02 0.62748064317E+02 0.54621750600E+02
 0.46389634781E+02 0.39869689146E+02 0.36329206821E+02 0.36124312273E+02 0.38737605193E+02
 0.43227693717E+02 0.48855930188E+02 0.55511806200E+02 0.63653893561E+02 0.73646432028E+02
 0.85161868186E+02 0.97026871412E+02 0.10725045025E+03 0.11345225539E+03 0.11363594490E+03
 0.10704154238E+03 0.94616697394E+02 0.78730581871E+02 0.62212323968E+02 0.45067405424E+02
 0.34358262407E+02 0.25614223019E+02 0.18758631113E+02 0.13530107064E+02 0.96755726824E+01
 0.69829419628E+01 0.52497765042E+01 0.42699727552E+01 0.38558011515E+01 0.38731563742E+01
 0.42660217639E+01 0.50614200730E+01 0.63603467718E+01 0.83231725039E+01 0.11150102825E+02
 0.15051613978E+02 0.20209931451E+02 0.26739783588E+02 0.34648972267E+02 0.43785098706E+02
 0.53761123971E+02 0.63886716119E+02 0.73130130189E+02 0.80103995230E+02 0.83543174588E+02
 0.82752684657E+02 0.77859134237E+02 0.69836879664E+02 0.60284537596E+02 0.51013100859E+02
 0.43573572041E+02 0.38883527849E+02 0.37096145581E+02 0.37773874162E+02 0.40287047912E+02