   9   9   0   0
  0.1255774E+02  0.4913700E-09  0.4913700E-09  0.5405130E-09  0.5000000E-15
  1.000000000000000E-004
  CAR 
 unknown system                          
     13.63780637    -20.45588216  301      1.19361005      1.00000000
    -20.456  0.0000E+00  0.0000E+00
    -20.342  0.0000E+00  0.0000E+00
    -20.229  0.0000E+00  0.0000E+00
    -20.115  0.0000E+00  0.0000E+00
    -20.001  0.0000E+00  0.0000E+00
    -19.888  0.0000E+00  0.0000E+00
    -19.774  0.0000E+00  0.0000E+00
    -19.660  0.0000E+00  0.0000E+00
    -19.547  0.0000E+00  0.0000E+00
    -19.433  0.0000E+00  0.0000E+00
    -19.319  0.0000E+00  0.0000E+00
    -19.206  0.0000E+00  0.0000E+00
    -19.092  0.0000E+00  0.0000E+00
    -18.978  0.0000E+00  0.0000E+00
    -18.865  0.0000E+00  0.0000E+00
    -18.751  0.0000E+00  0.0000E+00
    -18.638  0.0000E+00  0.0000E+00
    -18.524  0.0000E+00  0.0000E+00
    -18.410  0.8656E-01  0.1316E-02
    -18.297  0.1055E+01  0.5600E-01
    -18.183  0.3098E+01  0.2818E+00
    -18.069  0.9600E+01  0.8697E+00
    -17.956  0.3020E+01  0.1971E+01
    -17.842  0.3842E-01  0.2000E+01
    -17.728  0.8760E+00  0.2042E+01
    -17.615  0.2808E+01  0.2241E+01
    -17.501  0.7988E+01  0.2777E+01
    -17.387  0.5128E+01  0.3616E+01
    -17.274  0.1284E+01  0.3949E+01
    -17.160  0.3446E-02  0.4000E+01
    -17.047  0.0000E+00  0.4000E+01
    -16.933  0.3830E-01  0.4000E+01
    -16.819  0.1241E+02  0.4824E+01
    -16.706  0.3995E+01  0.5733E+01
    -16.592  0.7461E+00  0.5978E+01
    -16.478  0.3396E+01  0.6070E+01
    -16.365  0.9163E+01  0.6940E+01
    -16.251  0.5198E+01  0.7784E+01
    -16.137  0.1782E+02  0.8800E+01
    -16.024  0.0000E+00  0.1000E+02
    -15.910  0.2730E+02  0.1079E+02
    -15.796  0.0000E+00  0.1200E+02
    -15.683  0.0000E+00  0.1200E+02
    -15.569  0.0000E+00  0.1200E+02
    -15.455  0.0000E+00  0.1200E+02
    -15.342  0.0000E+00  0.1200E+02
    -15.228  0.0000E+00  0.1200E+02
    -15.115  0.0000E+00  0.1200E+02
    -15.001  0.0000E+00  0.1200E+02
    -14.887  0.0000E+00  0.1200E+02
    -14.774  0.0000E+00  0.1200E+02
    -14.660  0.0000E+00  0.1200E+02
    -14.546  0.0000E+00  0.1200E+02
    -14.433  0.0000E+00  0.1200E+02
    -14.319  0.0000E+00  0.1200E+02
    -14.205  0.0000E+00  0.1200E+02
    -14.092  0.0000E+00  0.1200E+02
    -13.978  0.0000E+00  0.1200E+02
    -13.864  0.0000E+00  0.1200E+02
    -13.751  0.0000E+00  0.1200E+02
    -13.637  0.0000E+00  0.1200E+02
    -13.523  0.0000E+00  0.1200E+02
    -13.410  0.0000E+00  0.1200E+02
    -13.296  0.0000E+00  0.1200E+02
    -13.183  0.0000E+00  0.1200E+02
    -13.069  0.0000E+00  0.1200E+02
    -12.955  0.0000E+00  0.1200E+02
    -12.842  0.0000E+00  0.1200E+02
    -12.728  0.0000E+00  0.1200E+02
    -12.614  0.0000E+00  0.1200E+02
    -12.501  0.0000E+00  0.1200E+02
    -12.387  0.0000E+00  0.1200E+02
    -12.273  0.0000E+00  0.1200E+02
    -12.160  0.0000E+00  0.1200E+02
    -12.046  0.0000E+00  0.1200E+02
    -11.932  0.0000E+00  0.1200E+02
    -11.819  0.0000E+00  0.1200E+02
    -11.705  0.0000E+00  0.1200E+02
    -11.592  0.0000E+00  0.1200E+02
    -11.478  0.0000E+00  0.1200E+02
    -11.364  0.0000E+00  0.1200E+02
    -11.251  0.0000E+00  0.1200E+02
    -11.137  0.0000E+00  0.1200E+02
    -11.023  0.0000E+00  0.1200E+02
    -10.910  0.0000E+00  0.1200E+02
    -10.796  0.0000E+00  0.1200E+02
    -10.682  0.0000E+00  0.1200E+02
    -10.569  0.0000E+00  0.1200E+02
    -10.455  0.0000E+00  0.1200E+02
    -10.341  0.0000E+00  0.1200E+02
    -10.228  0.0000E+00  0.1200E+02
    -10.114  0.0000E+00  0.1200E+02
    -10.000  0.0000E+00  0.1200E+02
     -9.887  0.0000E+00  0.1200E+02
     -9.773  0.0000E+00  0.1200E+02
     -9.660  0.0000E+00  0.1200E+02
     -9.546  0.0000E+00  0.1200E+02
     -9.432  0.0000E+00  0.1200E+02
     -9.319  0.0000E+00  0.1200E+02
     -9.205  0.0000E+00  0.1200E+02
     -9.091  0.0000E+00  0.1200E+02
     -8.978  0.0000E+00  0.1200E+02
     -8.864  0.0000E+00  0.1200E+02
     -8.750  0.0000E+00  0.1200E+02
     -8.637  0.0000E+00  0.1200E+02
     -8.523  0.0000E+00  0.1200E+02
     -8.409  0.0000E+00  0.1200E+02
     -8.296  0.2886E-05  0.1200E+02
     -8.182  0.3803E-01  0.1200E+02
     -8.069  0.1508E+00  0.1201E+02
     -7.955  0.3383E+00  0.1204E+02
     -7.841  0.6006E+00  0.1209E+02
     -7.728  0.9375E+00  0.1218E+02
     -7.614  0.1349E+01  0.1231E+02
     -7.500  0.1836E+01  0.1249E+02
     -7.387  0.2899E+01  0.1273E+02
     -7.273  0.8193E+01  0.1356E+02
     -7.159  0.2118E+00  0.1400E+02
     -7.046  0.2162E-01  0.1400E+02
     -6.932  0.1415E+00  0.1401E+02
     -6.818  0.3664E+00  0.1404E+02
     -6.705  0.6964E+00  0.1410E+02
     -6.591  0.1131E+01  0.1420E+02
     -6.477  0.1671E+01  0.1436E+02
     -6.364  0.3781E+01  0.1461E+02
     -6.250  0.4533E+01  0.1522E+02
     -6.137  0.1775E+01  0.1553E+02
     -6.023  0.1301E+01  0.1571E+02
     -5.909  0.9001E+00  0.1583E+02
     -5.796  0.5730E+00  0.1591E+02
     -5.682  0.3195E+00  0.1596E+02
     -5.568  0.1395E+00  0.1599E+02
     -5.455  0.3305E-01  0.1600E+02
     -5.341  0.2617E+00  0.1600E+02
     -5.227  0.3195E+01  0.1621E+02
     -5.114  0.4025E+01  0.1664E+02
     -5.000  0.3926E+01  0.1710E+02
     -4.886  0.3626E+01  0.1753E+02
     -4.773  0.1871E+01  0.1786E+02
     -4.659  0.4729E+00  0.1798E+02
     -4.545  0.5934E+00  0.1801E+02
     -4.432  0.8811E+01  0.1846E+02
     -4.318  0.9466E+01  0.1962E+02
     -4.205  0.9056E+01  0.2059E+02
     -4.091  0.6369E+01  0.2168E+02
     -3.977  0.1028E+01  0.2202E+02
     -3.864  0.1949E+01  0.2217E+02
     -3.750  0.5466E+01  0.2255E+02
     -3.636  0.7109E+01  0.2333E+02
     -3.523  0.3039E+01  0.2396E+02
     -3.409  0.0000E+00  0.2400E+02
     -3.295  0.0000E+00  0.2400E+02
     -3.182  0.0000E+00  0.2400E+02
     -3.068  0.0000E+00  0.2400E+02
     -2.954  0.0000E+00  0.2400E+02
     -2.841  0.0000E+00  0.2400E+02
     -2.727  0.0000E+00  0.2400E+02
     -2.614  0.0000E+00  0.2400E+02
     -2.500  0.0000E+00  0.2400E+02
     -2.386  0.0000E+00  0.2400E+02
     -2.273  0.0000E+00  0.2400E+02
     -2.159  0.7548E+01  0.2442E+02
     -2.045  0.1319E+02  0.2573E+02
     -1.932  0.9545E+01  0.2707E+02
     -1.818  0.3720E+01  0.2783E+02
     -1.704  0.7453E+00  0.2801E+02
     -1.591  0.6571E+01  0.2836E+02
     -1.477  0.8197E+01  0.2947E+02
     -1.363  0.9044E+00  0.2999E+02
     -1.250  0.9924E+01  0.3030E+02
     -1.136  0.1330E+02  0.3172E+02
     -1.022  0.1360E+02  0.3224E+02
     -0.909  0.4209E+01  0.3350E+02
     -0.795  0.1936E+01  0.3385E+02
     -0.682  0.5305E+01  0.3403E+02
     -0.568  0.1310E+02  0.3525E+02
     -0.454  0.7745E+01  0.3656E+02
     -0.341  0.8159E+01  0.3749E+02
     -0.227  0.4399E+01  0.3825E+02
     -0.113  0.9459E+01  0.3900E+02
      0.000  0.4437E+01  0.3980E+02
      0.114  0.7275E+01  0.4034E+02
      0.228  0.1130E+02  0.4166E+02
      0.341  0.9522E+01  0.4228E+02
      0.455  0.5087E+01  0.4333E+02
      0.569  0.3072E+01  0.4373E+02
      0.682  0.7040E+01  0.4437E+02
      0.796  0.8100E+01  0.4525E+02
      0.909  0.3599E+01  0.4604E+02
      1.023  0.1225E+02  0.4717E+02
      1.137  0.1144E+01  0.4799E+02
      1.250  0.0000E+00  0.4800E+02
      1.364  0.0000E+00  0.4800E+02
      1.478  0.0000E+00  0.4800E+02
      1.591  0.0000E+00  0.4800E+02
      1.705  0.0000E+00  0.4800E+02
      1.819  0.0000E+00  0.4800E+02
      1.932  0.0000E+00  0.4800E+02
      2.046  0.0000E+00  0.4800E+02
      2.160  0.0000E+00  0.4800E+02
      2.273  0.0000E+00  0.4800E+02
      2.387  0.0000E+00  0.4800E+02
      2.501  0.0000E+00  0.4800E+02
      2.614  0.0000E+00  0.4800E+02
      2.728  0.0000E+00  0.4800E+02
      2.841  0.0000E+00  0.4800E+02
      2.955  0.0000E+00  0.4800E+02
      3.069  0.0000E+00  0.4800E+02
      3.182  0.0000E+00  0.4800E+02
      3.296  0.0000E+00  0.4800E+02
      3.410  0.0000E+00  0.4800E+02
      3.523  0.0000E+00  0.4800E+02
      3.637  0.0000E+00  0.4800E+02
      3.751  0.0000E+00  0.4800E+02
      3.864  0.0000E+00  0.4800E+02
      3.978  0.0000E+00  0.4800E+02
      4.092  0.0000E+00  0.4800E+02
      4.205  0.0000E+00  0.4800E+02
      4.319  0.0000E+00  0.4800E+02
      4.433  0.0000E+00  0.4800E+02
      4.546  0.0000E+00  0.4800E+02
      4.660  0.0000E+00  0.4800E+02
      4.773  0.0000E+00  0.4800E+02
      4.887  0.0000E+00  0.4800E+02
      5.001  0.0000E+00  0.4800E+02
      5.114  0.0000E+00  0.4800E+02
      5.228  0.0000E+00  0.4800E+02
      5.342  0.0000E+00  0.4800E+02
      5.455  0.0000E+00  0.4800E+02
      5.569  0.0000E+00  0.4800E+02
      5.683  0.0000E+00  0.4800E+02
      5.796  0.0000E+00  0.4800E+02
      5.910  0.0000E+00  0.4800E+02
      6.024  0.0000E+00  0.4800E+02
      6.137  0.0000E+00  0.4800E+02
      6.251  0.0000E+00  0.4800E+02
      6.364  0.0000E+00  0.4800E+02
      6.478  0.0000E+00  0.4800E+02
      6.592  0.0000E+00  0.4800E+02
      6.705  0.0000E+00  0.4800E+02
      6.819  0.0000E+00  0.4800E+02
      6.933  0.0000E+00  0.4800E+02
      7.046  0.0000E+00  0.4800E+02
      7.160  0.9732E-03  0.4800E+02
      7.274  0.7037E-02  0.4800E+02
      7.387  0.1865E-01  0.4800E+02
      7.501  0.3582E-01  0.4800E+02
      7.615  0.5854E-01  0.4801E+02
      7.728  0.8681E-01  0.4802E+02
      7.842  0.1206E+00  0.4803E+02
      7.956  0.1600E+00  0.4805E+02
      8.069  0.2049E+00  0.4807E+02
      8.183  0.2554E+00  0.4809E+02
      8.296  0.3115E+00  0.4812E+02
      8.410  0.3731E+00  0.4816E+02
      8.524  0.4402E+00  0.4821E+02
      8.637  0.5129E+00  0.4826E+02
      8.751  0.5911E+00  0.4833E+02
      8.865  0.6749E+00  0.4840E+02
      8.978  0.7643E+00  0.4848E+02
      9.092  0.8766E+00  0.4857E+02
      9.206  0.1137E+01  0.4869E+02
      9.319  0.1576E+01  0.4884E+02
      9.433  0.2414E+01  0.4910E+02
      9.547  0.2428E+01  0.4937E+02
      9.660  0.2418E+01  0.4965E+02
      9.774  0.2384E+01  0.4992E+02
      9.888  0.2326E+01  0.5019E+02
     10.001  0.2098E+01  0.5045E+02
     10.115  0.3572E+01  0.5068E+02
     10.228  0.4415E+01  0.5115E+02
     10.342  0.4399E+01  0.5166E+02
     10.456  0.3802E+01  0.5213E+02
     10.569  0.4103E+01  0.5253E+02
     10.683  0.7017E+01  0.5315E+02
     10.797  0.0000E+00  0.5400E+02
     10.910  0.1380E+02  0.5479E+02
     11.024  0.5369E+01  0.5596E+02
     11.138  0.2308E+01  0.5626E+02
     11.251  0.3400E+01  0.5658E+02
     11.365  0.5567E+01  0.5706E+02
     11.479  0.4172E+01  0.5763E+02
     11.592  0.1470E+01  0.5798E+02
     11.706  0.0000E+00  0.5800E+02
     11.819  0.0000E+00  0.5800E+02
     11.933  0.0000E+00  0.5800E+02
     12.047  0.0000E+00  0.5800E+02
     12.160  0.0000E+00  0.5800E+02
     12.274  0.0000E+00  0.5800E+02
     12.388  0.0000E+00  0.5800E+02
     12.501  0.0000E+00  0.5800E+02
     12.615  0.0000E+00  0.5800E+02
     12.729  0.0000E+00  0.5800E+02
     12.842  0.0000E+00  0.5800E+02
     12.956  0.0000E+00  0.5800E+02
     13.070  0.0000E+00  0.5800E+02
     13.183  0.0000E+00  0.5800E+02
     13.297  0.0000E+00  0.5800E+02
     13.411  0.0000E+00  0.5800E+02
     13.524  0.0000E+00  0.5800E+02
     13.638  0.0000E+00  0.5800E+02
