 vasp.5.4.1 05Feb16 (build Mar 02 2016 14:09:44) complex                        
  
 executed on   Abel-impi-ifc-cuda date 2019.09.13  12:03:14
 running on    1 total cores
 distrk:  each k-point on    1 cores,    1 groups
 distr:  one band on NCORES_PER_BAND=   1 cores,    1 groups


--------------------------------------------------------------------------------------------------------


 INCAR:
 POTCAR:   PAW_PBE Si 05Jan2001                   
 POTCAR:   PAW_PBE O 08Apr2002                    
 POTCAR:   PAW_PBE Si 05Jan2001                   
   VRHFIN =Si: s2p2                                                             
   LEXCH  = PE                                                                  
   EATOM  =   103.0669 eV,    7.5752 Ry                                         
                                                                                
   TITEL  = PAW_PBE Si 05Jan2001                                                
   LULTRA =        F    use ultrasoft PP ?                                      
   IUNSCR =        1    unscreen: 0-lin 1-nonlin 2-no                           
   RPACOR =    1.500    partial core radius                                     
   POMASS =   28.085; ZVAL   =    4.000    mass and valenz                      
   RCORE  =    1.900    outmost cutoff radius                                   
   RWIGS  =    2.480; RWIGS  =    1.312    wigner-seitz radius (au A)           
   ENMAX  =  245.345; ENMIN  =  184.009 eV                                      
   ICORE  =        2    local potential                                         
   LCOR   =        T    correct aug charges                                     
   LPAW   =        T    paw PP                                                  
   EAUG   =  322.069                                                            
   DEXC   =    -.007                                                            
   RMAX   =    2.944    core radius for proj-oper                               
   RAUG   =    1.300    factor for augmentation sphere                          
   RDEP   =    1.993    radius for radial grids                                 
   QCUT   =   -4.246; QGAM   =    8.493    optimization parameters              
                                                                                
   Description                                                                  
     l     E      TYP  RCUT    TYP  RCUT                                        
     0   .000     23  1.900                                                     
     0   .000     23  1.900                                                     
     1   .000     23  1.900                                                     
     1   .000     23  1.900                                                     
     2   .000      7  1.900                                                     
  local pseudopotential read in
  partial core-charges read in
  atomic valenz-charges read in
  non local Contribution for L=           0  read in
    real space projection operators read in
  non local Contribution for L=           0  read in
    real space projection operators read in
  non local Contribution for L=           1  read in
    real space projection operators read in
  non local Contribution for L=           1  read in
    real space projection operators read in
    PAW grid and wavefunctions read in
 
   number of l-projection  operators is LMAX  =           4
   number of lm-projection operators is LMMAX =           8
 
 POTCAR:   PAW_PBE O 08Apr2002                    
   VRHFIN =O: s2p4                                                              
   LEXCH  = PE                                                                  
   EATOM  =   432.3788 eV,   31.7789 Ry                                         
                                                                                
   TITEL  = PAW_PBE O 08Apr2002                                                 
   LULTRA =        F    use ultrasoft PP ?                                      
   IUNSCR =        0    unscreen: 0-lin 1-nonlin 2-no                           
   RPACOR =     .000    partial core radius                                     
   POMASS =   16.000; ZVAL   =    6.000    mass and valenz                      
   RCORE  =    1.520    outmost cutoff radius                                   
   RWIGS  =    1.550; RWIGS  =     .820    wigner-seitz radius (au A)           
   ENMAX  =  400.000; ENMIN  =  300.000 eV                                      
   ICORE  =        2    local potential                                         
   LCOR   =        T    correct aug charges                                     
   LPAW   =        T    paw PP                                                  
   EAUG   =  605.392                                                            
   DEXC   =     .000                                                            
   RMAX   =    2.264    core radius for proj-oper                               
   RAUG   =    1.300    factor for augmentation sphere                          
   RDEP   =    1.550    radius for radial grids                                 
   QCUT   =   -5.520; QGAM   =   11.041    optimization parameters              
                                                                                
   Description                                                                  
     l     E      TYP  RCUT    TYP  RCUT                                        
     0   .000     23  1.200                                                     
     0  -.700     23  1.200                                                     
     1   .000     23  1.520                                                     
     1   .600     23  1.520                                                     
     2   .000      7  1.500                                                     
  local pseudopotential read in
  atomic valenz-charges read in
  non local Contribution for L=           0  read in
    real space projection operators read in
  non local Contribution for L=           0  read in
    real space projection operators read in
  non local Contribution for L=           1  read in
    real space projection operators read in
  non local Contribution for L=           1  read in
    real space projection operators read in
    PAW grid and wavefunctions read in
 
   number of l-projection  operators is LMAX  =           4
   number of lm-projection operators is LMMAX =           8
 
 Optimization of the real space projectors (new method)

 maximal supplied QI-value         = 19.84
 optimisation between [QCUT,QGAM] = [ 10.12, 20.44] = [ 28.68,116.96] Ry 
 Optimized for a Real-space Cutoff    1.23 Angstroem

   l    n(q)    QCUT    max X(q) W(low)/X(q) W(high)/X(q)  e(spline) 
   0      7    10.119     8.708    0.24E-04    0.14E-04    0.43E-08
   0      7    10.119   106.241    0.56E-04    0.21E-03    0.45E-07
   1      7    10.119     5.901    0.36E-04    0.73E-05    0.14E-07
   1      7    10.119    73.241    0.33E-03    0.48E-03    0.11E-06
 Optimization of the real space projectors (new method)

 maximal supplied QI-value         = 24.76
 optimisation between [QCUT,QGAM] = [ 10.15, 20.30] = [ 28.85,115.39] Ry 
 Optimized for a Real-space Cutoff    1.30 Angstroem

   l    n(q)    QCUT    max X(q) W(low)/X(q) W(high)/X(q)  e(spline) 
   0      8    10.150     4.192    0.55E-04    0.58E-04    0.78E-07
   0      8    10.150     8.473    0.46E-03    0.68E-03    0.23E-06
   1      7    10.150     2.474    0.11E-03    0.93E-04    0.33E-07
   1      7    10.150     3.912    0.46E-03    0.50E-03    0.15E-06
 PAW_PBE Si 05Jan2001                   :
 energy of atom  1       EATOM= -103.0669
 kinetic energy error for atom=    0.0012 (will be added to EATOM!!)
 PAW_PBE O 08Apr2002                    :
 energy of atom  2       EATOM= -432.3788
 kinetic energy error for atom=    0.1156 (will be added to EATOM!!)
 
 
 POSCAR: SiO2_P3221_icsd_34644                   
  positions in direct lattice
  No initial velocities read in
 exchange correlation table for  LEXCH =        8
   RHO(1)=    0.500       N(1)  =     2000
   RHO(2)=  100.500       N(2)  =     4000
 


--------------------------------------------------------------------------------------------------------


 ion  position               nearest neighbor table
   1  0.470  0.020  0.667-   4 1.51   5 1.61   7 1.63   9 1.68   3 2.98   2 3.03   2 3.11   3 3.14

   2  0.000  0.470  0.333-   8 1.60   5 1.60   6 1.62   7 1.62   1 3.03   3 3.06   3 3.06   1 3.11

   3  0.530  0.530  0.000-   6 1.60   9 1.60   8 1.62   4 1.62   1 2.98   2 3.06   2 3.06   1 3.14

   4  0.414  0.266  0.786-   1 1.51   3 1.62
   5  0.734  0.148  0.452-   2 1.60   1 1.61
   6  0.852  0.586  0.119-   3 1.60   2 1.62
   7  0.148  0.734  0.548-   2 1.62   1 1.63
   8  0.266  0.414  0.214-   2 1.60   3 1.62
   9  0.586  0.852  0.881-   3 1.60   1 1.68
 
  LATTYP: Found a hexagonal cell.
 ALAT       =     4.9137000030
 C/A-ratio  =     1.1000122101
  
  Lattice vectors:
  
 A1 = (   4.9137000000,   0.0000000000,   0.0000000000)
 A2 = (  -2.4568500000,   4.2553890300,   0.0000000000)
 A3 = (   0.0000000000,   0.0000000000,   5.4051300000)


Analysis of symmetry for initial positions (statically):
=====================================================================
 Subroutine PRICEL returns:
 Original cell was already a primitive cell.
 

 Routine SETGRP: Setting up the symmetry group for a 
 hexagonal supercell.


 Subroutine GETGRP returns: Found  1 space group operations
 (whereof  1 operations were pure point group operations)
 out of a pool of 24 trial point group operations.


The static configuration has the point symmetry C_1 .


Analysis of symmetry for dynamics (positions and initial velocities):
=====================================================================
 Subroutine PRICEL returns:
 Original cell was already a primitive cell.
 

 Routine SETGRP: Setting up the symmetry group for a 
 hexagonal supercell.


 Subroutine GETGRP returns: Found  1 space group operations
 (whereof  1 operations were pure point group operations)
 out of a pool of 24 trial point group operations.


The dynamic configuration has the point symmetry C_1 .


 Subroutine INISYM returns: Found  1 space group operations
 (whereof  1 operations are pure point group operations),
 and found     1 'primitive' translations

 
 
 KPOINTS: k-density: 1.0                          

Automatic generation of k-mesh.
Space group operators:
 irot       det(A)        alpha          n_x          n_y          n_z        tau_x        tau_y        tau_z
    1     1.000000     0.000001     1.000000     0.000000     0.000000     0.000000     0.000000     0.000000
 
 Subroutine IBZKPT returns following result:
 ===========================================
 
 Found      8 irreducible k-points:
 
 Following reciprocal coordinates:
            Coordinates               Weight
  0.000000  0.000000  0.000000      1.000000
  0.500000  0.000000  0.000000      1.000000
  0.000000  0.500000  0.000000      1.000000
  0.500000  0.500000  0.000000      1.000000
  0.000000  0.000000  0.500000      1.000000
  0.500000  0.000000  0.500000      1.000000
  0.000000  0.500000  0.500000      1.000000
  0.500000  0.500000  0.500000      1.000000
 
 Following cartesian coordinates:
            Coordinates               Weight
  0.000000  0.000000  0.000000      1.000000
  0.101756  0.058749  0.000000      1.000000
  0.000000  0.117498  0.000000      1.000000
  0.101756  0.176247  0.000000      1.000000
  0.000000  0.000000  0.092505      1.000000
  0.101756  0.058749  0.092505      1.000000
  0.000000  0.117498  0.092505      1.000000
  0.101756  0.176247  0.092505      1.000000
 
 TETIRR: Found     24 inequivalent tetrahedra from       48


--------------------------------------------------------------------------------------------------------




 Dimension of arrays:
   k-points           NKPTS =      8   k-points in BZ     NKDIM =      8   number of bands    NBANDS=     29
   number of dos      NEDOS =    301   number of ions     NIONS =      9
   non local maximal  LDIM  =      4   non local SUM 2l+1 LMDIM =      8
   total plane-waves  NPLWV =  16128
   max r-space proj   IRMAX =   1367   max aug-charges    IRDMAX=   4970
   dimension x,y,z NGX =    24 NGY =   24 NGZ =   28
   dimension x,y,z NGXF=    48 NGYF=   48 NGZF=   56
   support grid    NGXF=    48 NGYF=   48 NGZF=   56
   ions per type =               3   6
 NGX,Y,Z   is equivalent  to a cutoff of   8.12,  8.12,  8.61 a.u.
 NGXF,Y,Z  is equivalent  to a cutoff of  16.24, 16.24, 17.22 a.u.


 I would recommend the setting:
   dimension x,y,z NGX =    24 NGY =   24 NGZ =   26
 SYSTEM =  unknown system                          
 POSCAR =  SiO2_P3221_icsd_34644                   

 Startparameter for this run:
   NWRITE =      2    write-flag & timer
   PREC   = normal    normal or accurate (medium, high low for compatibility)
   ISTART =      0    job   : 0-new  1-cont  2-samecut
   ICHARG =      2    charge: 1-file 2-atom 10-const
   ISPIN  =      1    spin polarized calculation?
   LNONCOLLINEAR =      F non collinear calculations
   LSORBIT =      F    spin-orbit coupling
   INIWAV =      1    electr: 0-lowe 1-rand  2-diag
   LASPH  =      F    aspherical Exc in radial PAW
   METAGGA=      F    non-selfconsistent MetaGGA calc.

 Electronic Relaxation 1
   ENCUT  =  400.0 eV  29.40 Ry    5.42 a.u.   8.01  8.01  8.81*2*pi/ulx,y,z
   ENINI  =  400.0     initial cutoff
   ENAUG  =  605.4 eV  augmentation charge cutoff
   NELM   =     60;   NELMIN=  4; NELMDL= -5     # of ELM steps 
   EDIFF  = 0.1E-04   stopping-criterion for ELM
   LREAL  =      T    real-space projection
   NLSPLINE    = F    spline interpolate recip. space projectors
   LCOMPAT=      F    compatible to vasp.4.4
   GGA_COMPAT  = T    GGA compatible to vasp.4.4-vasp.4.6
   LMAXPAW     = -100 max onsite density
   LMAXMIX     =    2 max onsite mixed and CHGCAR
   VOSKOWN=      0    Vosko Wilk Nusair interpolation
   ROPT   =   -0.00050  -0.00050
 Ionic relaxation
   EDIFFG = 0.1E-03   stopping-criterion for IOM
   NSW    =      0    number of steps for IOM
   NBLOCK =      1;   KBLOCK =      1    inner block; outer block 
   IBRION =     -1    ionic relax: 0-MD 1-quasi-New 2-CG
   NFREE  =      0    steps in history (QN), initial steepest desc. (CG)
   ISIF   =      2    stress and relaxation
   IWAVPR =     10    prediction:  0-non 1-charg 2-wave 3-comb
   ISYM   =      2    0-nonsym 1-usesym 2-fastsym
   LCORR  =      T    Harris-Foulkes like correction to forces

   POTIM  = 0.5000    time-step for ionic-motion
   TEIN   =    0.0    initial temperature
   TEBEG  =    0.0;   TEEND  =   0.0 temperature during run
   SMASS  =  -3.00    Nose mass-parameter (am)
   estimated Nose-frequenzy (Omega)   =  0.10E-29 period in steps =****** mass=  -0.552E-27a.u.
   SCALEE = 1.0000    scale energy and forces
   NPACO  =    256;   APACO  = 16.0  distance and # of slots for P.C.
   PSTRESS=    0.0 pullay stress

  Mass of Ions in am
   POMASS =  28.09 16.00
  Ionic Valenz
   ZVAL   =   4.00  6.00
  Atomic Wigner-Seitz radii
   RWIGS  =  -1.00 -1.00
  virtual crystal weights 
   VCA    =   1.00  1.00
   NELECT =      48.0000    total number of electrons
   NUPDOWN=      -1.0000    fix difference up-down

 DOS related values:
   EMIN   =  10.00;   EMAX   =-10.00  energy-range for DOS
   EFERMI =   0.00
   ISMEAR =    -5;   SIGMA  =   0.20  broadening in eV -4-tet -1-fermi 0-gaus

 Electronic relaxation 2 (details)
   IALGO  =     68    algorithm
   LDIAG  =      T    sub-space diagonalisation (order eigenvalues)
   LSUBROT=      F    optimize rotation matrix (better conditioning)
   TURBO    =      0    0=normal 1=particle mesh
   IRESTART =      0    0=no restart 2=restart with 2 vectors
   NREBOOT  =      0    no. of reboots
   NMIN     =      0    reboot dimension
   EREF     =   0.00    reference energy to select bands
   IMIX   =      4    mixing-type and parameters
     AMIX     =   0.40;   BMIX     =  1.00
     AMIX_MAG =   1.60;   BMIX_MAG =  1.00
     AMIN     =   0.10
     WC   =   100.;   INIMIX=   1;  MIXPRE=   1;  MAXMIX= -45

 Intra band minimization:
   WEIMIN = 0.0000     energy-eigenvalue tresh-hold
   EBREAK =  0.86E-07  absolut break condition
   DEPER  =   0.30     relativ break condition  

   TIME   =   0.40     timestep for ELM

  volume/ion in A,a.u.               =      12.56        84.74
  Fermi-wavevector in a.u.,A,eV,Ry     =   1.230563  2.325427 20.603106  1.514286
  Thomas-Fermi vector in A             =   2.365407
 
 Write flags
   LWAVE  =      F    write WAVECAR
   LCHARG =      T    write CHGCAR
   LVTOT  =      F    write LOCPOT, total local potential
   LVHAR  =      F    write LOCPOT, Hartree potential only
   LELF   =      F    write electronic localiz. function (ELF)
   LORBIT =      0    0 simple, 1 ext, 2 COOP (PROOUT)


 Dipole corrections
   LMONO  =      F    monopole corrections only (constant potential shift)
   LDIPOL =      F    correct potential (dipole corrections)
   IDIPOL =      0    1-x, 2-y, 3-z, 4-all directions 
   EPSILON=  1.0000000 bulk dielectric constant

 Exchange correlation treatment:
   GGA     =    --    GGA type
   LEXCH   =     8    internal setting for exchange type
   VOSKOWN=      0    Vosko Wilk Nusair interpolation
   LHFCALC =     F    Hartree Fock is set to
   LHFONE  =     F    Hartree Fock one center treatment
   AEXX    =    0.0000 exact exchange contribution

 Linear response parameters
   LEPSILON=     F    determine dielectric tensor
   LRPA    =     F    only Hartree local field effects (RPA)
   LNABLA  =     F    use nabla operator in PAW spheres
   LVEL    =     F    velocity operator in full k-point grid
   LINTERFAST=   F  fast interpolation
   KINTER  =     0    interpolate to denser k-point grid
   CSHIFT  =0.1000    complex shift for real part using Kramers Kronig
   OMEGAMAX=  -1.0    maximum frequency
   DEG_THRESHOLD= 0.2000000E-02 threshold for treating states as degnerate
   RTIME   =    0.100 relaxation time in fs

 Orbital magnetization related:
   ORBITALMAG=     F  switch on orbital magnetization
   LCHIMAG   =     F  perturbation theory with respect to B field
   DQ        =  0.001000  dq finite difference perturbation B field



--------------------------------------------------------------------------------------------------------


 Static calculation
 charge density and potential will be updated during run
 non-spin polarized calculation
 RMM-DIIS sequential band-by-band and
  variant of blocked Davidson during initial phase
 perform sub-space diagonalisation
    before iterative eigenvector-optimisation
 modified Broyden-mixing scheme, WC =      100.0
 initial mixing is a Kerker type mixing with AMIX =  0.4000 and BMIX =      1.0000
 Hartree-type preconditioning will be used
 using additional bands            5
 real space projection scheme for non local part
 use partial core corrections
 calculate Harris-corrections to forces 
   (improved forces if not selfconsistent)
 use gradient corrections 
 use of overlap-Matrix (Vanderbilt PP)
 Fermi weights with tetrahedron method with Bloechl corrections


--------------------------------------------------------------------------------------------------------


  energy-cutoff  :      400.00
  volume of cell :      113.02
      direct lattice vectors                 reciprocal lattice vectors
     4.913700000  0.000000000  0.000000000     0.203512628  0.117498070  0.000000000
    -2.456850000  4.255389030  0.000000000     0.000000000  0.234996141  0.000000000
     0.000000000  0.000000000  5.405130000     0.000000000  0.000000000  0.185009426

  length of vectors
     4.913700000  4.913700003  5.405130000     0.234996141  0.234996141  0.185009426


 
 k-points in units of 2pi/SCALE and weight: k-density: 1.0                          
   0.00000000  0.00000000  0.00000000       0.125
   0.10175631  0.05874904  0.00000000       0.125
   0.00000000  0.11749807  0.00000000       0.125
   0.10175631  0.17624711  0.00000000       0.125
   0.00000000  0.00000000  0.09250471       0.125
   0.10175631  0.05874904  0.09250471       0.125
   0.00000000  0.11749807  0.09250471       0.125
   0.10175631  0.17624711  0.09250471       0.125
 
 k-points in reciprocal lattice and weights: k-density: 1.0                          
   0.00000000  0.00000000  0.00000000       0.125
   0.50000000  0.00000000  0.00000000       0.125
   0.00000000  0.50000000  0.00000000       0.125
   0.50000000  0.50000000  0.00000000       0.125
   0.00000000  0.00000000  0.50000000       0.125
   0.50000000  0.00000000  0.50000000       0.125
   0.00000000  0.50000000  0.50000000       0.125
   0.50000000  0.50000000  0.50000000       0.125
 
 position of ions in fractional coordinates (direct lattice) 
   0.46980000  0.02000000  0.66667000
   0.00000000  0.46980000  0.33333000
   0.53020000  0.53020000  0.00000000
   0.41450000  0.26620000  0.78560000
   0.73380000  0.14830000  0.45227000
   0.85170000  0.58550000  0.11893000
   0.14830000  0.73380000  0.54773000
   0.26620000  0.41450000  0.21440000
   0.58550000  0.85170000  0.88107000
 
 position of ions in cartesian coordinates  (Angst):
   2.25931926  0.08510778  3.60343802
  -1.15422813  1.99918177  1.80169198
   1.30262187  2.25620726  0.00000000
   1.38271518  1.13278456  4.24627013
   3.24132221  0.63107419  2.44457815
   2.74651261  2.49153028  0.64283211
  -1.07413482  3.12260447  2.96055185
   0.28966261  1.76385875  1.15885987
   0.78447221  3.62431484  4.76229789
 


--------------------------------------------------------------------------------------------------------


 k-point  1 :   0.0000 0.0000 0.0000  plane waves:    2009
 k-point  2 :   0.5000 0.0000 0.0000  plane waves:    2058
 k-point  3 :   0.0000 0.5000 0.0000  plane waves:    2058
 k-point  4 :   0.5000 0.5000 0.0000  plane waves:    2058
 k-point  5 :   0.0000 0.0000 0.5000  plane waves:    2058
 k-point  6 :   0.5000 0.0000 0.5000  plane waves:    2052
 k-point  7 :   0.0000 0.5000 0.5000  plane waves:    2052
 k-point  8 :   0.5000 0.5000 0.5000  plane waves:    2052

 maximum and minimum number of plane-waves per node :      2058     2009

 maximum number of plane-waves:      2058
 maximum index in each direction: 
   IXMAX=    8   IYMAX=    8   IZMAX=    8
   IXMIN=   -8   IYMIN=   -8   IZMIN=   -9

 WARNING: aliasing errors must be expected set NGX to  34 to avoid them
 WARNING: aliasing errors must be expected set NGY to  34 to avoid them
 WARNING: aliasing errors must be expected set NGZ to  36 to avoid them
 aliasing errors are usually negligible using standard VASP settings
 and one can safely disregard these warnings

 serial   3D FFT for wavefunctions
 parallel 3D FFT for charge:
    minimum data exchange during FFTs selected (reduces bandwidth)


 total amount of memory used by VASP on root node    51513. kBytes
========================================================================

   base      :      30000. kBytes
   nonlr-proj:        968. kBytes
   fftplans  :       4548. kBytes
   grid      :       8064. kBytes
   one-center:         27. kBytes
   wavefun   :       7906. kBytes
 
     INWAV:  cpu time    0.0010: real time    0.0002
 Broyden mixing: mesh for mixing (old mesh)
   NGX = 17   NGY = 17   NGZ = 17
  (NGX  = 48   NGY  = 48   NGZ  = 56)
  gives a total of   4913 points

 initial charge density was supplied:
 charge density of overlapping atoms calculated
 number of electron      48.0000000 magnetization 
 keeping initial charge density in first step


--------------------------------------------------------------------------------------------------------


 Maximum index for non-local projection operator         1282
 Maximum index for augmentation-charges         4640 (set IRDMAX)


--------------------------------------------------------------------------------------------------------


 First call to EWALD:  gamma=   0.367
 Maximum number of real-space cells 3x 3x 3
 Maximum number of reciprocal cells 3x 3x 3

 FEWALD executed in parallel
    FEWALD:  cpu time    0.0020: real time    0.0018


----------------------------------------- Iteration    1(   1)  ---------------------------------------


    POTLOK:  cpu time    0.0680: real time    0.0689
    SETDIJ:  cpu time    0.0120: real time    0.0119
     EDDAV:  cpu time    0.6639: real time    0.6634
 BZINTS: Fermi energy: 16.429438; 48.000000 electrons
         Band energy: -58.093843;  BLOECHL correction: -0.156854
       DOS:  cpu time    0.0020: real time    0.0016
    --------------------------------------------
      LOOP:  cpu time    0.7489: real time    0.7900

 eigenvalue-minimisations  :   464
 total energy-change (2. order) : 0.2744339E+03  (-0.2260631E+04)
 number of electron      48.0000000 magnetization 
 augmentation part       48.0000000 magnetization 

 Free energy of the ion-electron system (eV)
  ---------------------------------------------------
  alpha Z        PSCENC =        69.72802778
  Ewald energy   TEWEN  =     -1886.62880430
  -Hartree energ DENC   =      -937.03789541
  -exchange      EXHF   =         0.00000000
  -V(xc)+E(xc)   XCENC  =       142.00811384
  PAW double counting   =      1574.92322788    -1533.24131965
  entropy T*S    EENTRO =         0.00000000
  eigenvalues    EBANDS =       -58.09384346
  atomic energy  EATOM  =      2902.77641490
  Solvation  Ediel_sol  =         0.00000000
  ---------------------------------------------------
  free energy    TOTEN  =       274.43392157 eV

  energy without entropy =      274.43392157  energy(sigma->0) =      274.43392157


--------------------------------------------------------------------------------------------------------




----------------------------------------- Iteration    1(   2)  ---------------------------------------


     EDDAV:  cpu time    0.8489: real time    0.8498
 BZINTS: Fermi energy: -1.166010; 48.000000 electrons
         Band energy:-396.085067;  BLOECHL correction:  0.000000
       DOS:  cpu time    0.0000: real time    0.0003
    --------------------------------------------
      LOOP:  cpu time    0.8489: real time    0.8543

 eigenvalue-minimisations  :   616
 total energy-change (2. order) :-0.3379912E+03  (-0.3277209E+03)
 number of electron      48.0000000 magnetization 
 augmentation part       48.0000000 magnetization 

 Free energy of the ion-electron system (eV)
  ---------------------------------------------------
  alpha Z        PSCENC =        69.72802778
  Ewald energy   TEWEN  =     -1886.62880430
  -Hartree energ DENC   =      -937.03789541
  -exchange      EXHF   =         0.00000000
  -V(xc)+E(xc)   XCENC  =       142.00811384
  PAW double counting   =      1574.92322788    -1533.24131965
  entropy T*S    EENTRO =         0.00000000
  eigenvalues    EBANDS =      -396.08506697
  atomic energy  EATOM  =      2902.77641490
  Solvation  Ediel_sol  =         0.00000000
  ---------------------------------------------------
  free energy    TOTEN  =       -63.55730193 eV

  energy without entropy =      -63.55730193  energy(sigma->0) =      -63.55730193


--------------------------------------------------------------------------------------------------------




----------------------------------------- Iteration    1(   3)  ---------------------------------------


     EDDAV:  cpu time    0.7729: real time    0.7735
 BZINTS: Fermi energy: -2.000904; 48.000000 electrons
         Band energy:-412.667365;  BLOECHL correction:  0.000000
       DOS:  cpu time    0.0000: real time    0.0003
    --------------------------------------------
      LOOP:  cpu time    0.7749: real time    0.7778

 eigenvalue-minimisations  :   544
 total energy-change (2. order) :-0.1658230E+02  (-0.1653957E+02)
 number of electron      48.0000000 magnetization 
 augmentation part       48.0000000 magnetization 

 Free energy of the ion-electron system (eV)
  ---------------------------------------------------
  alpha Z        PSCENC =        69.72802778
  Ewald energy   TEWEN  =     -1886.62880430
  -Hartree energ DENC   =      -937.03789541
  -exchange      EXHF   =         0.00000000
  -V(xc)+E(xc)   XCENC  =       142.00811384
  PAW double counting   =      1574.92322788    -1533.24131965
  entropy T*S    EENTRO =         0.00000000
  eigenvalues    EBANDS =      -412.66736469
  atomic energy  EATOM  =      2902.77641490
  Solvation  Ediel_sol  =         0.00000000
  ---------------------------------------------------
  free energy    TOTEN  =       -80.13959965 eV

  energy without entropy =      -80.13959965  energy(sigma->0) =      -80.13959965


--------------------------------------------------------------------------------------------------------




----------------------------------------- Iteration    1(   4)  ---------------------------------------


     EDDAV:  cpu time    0.8059: real time    0.8063
 BZINTS: Fermi energy: -2.051371; 48.000000 electrons
         Band energy:-412.873217;  BLOECHL correction:  0.000000
       DOS:  cpu time    0.0000: real time    0.0002
    --------------------------------------------
      LOOP:  cpu time    0.8079: real time    0.8122

 eigenvalue-minimisations  :   544
 total energy-change (2. order) :-0.2058524E+00  (-0.2053792E+00)
 number of electron      48.0000000 magnetization 
 augmentation part       48.0000000 magnetization 

 Free energy of the ion-electron system (eV)
  ---------------------------------------------------
  alpha Z        PSCENC =        69.72802778
  Ewald energy   TEWEN  =     -1886.62880430
  -Hartree energ DENC   =      -937.03789541
  -exchange      EXHF   =         0.00000000
  -V(xc)+E(xc)   XCENC  =       142.00811384
  PAW double counting   =      1574.92322788    -1533.24131965
  entropy T*S    EENTRO =         0.00000000
  eigenvalues    EBANDS =      -412.87321712
  atomic energy  EATOM  =      2902.77641490
  Solvation  Ediel_sol  =         0.00000000
  ---------------------------------------------------
  free energy    TOTEN  =       -80.34545208 eV

  energy without entropy =      -80.34545208  energy(sigma->0) =      -80.34545208


--------------------------------------------------------------------------------------------------------




----------------------------------------- Iteration    1(   5)  ---------------------------------------


     EDDAV:  cpu time    0.7769: real time    0.7766
 BZINTS: Fermi energy: -2.045649; 48.000000 electrons
         Band energy:-412.877316;  BLOECHL correction:  0.000000
       DOS:  cpu time    0.0000: real time    0.0002
    CHARGE:  cpu time    0.0480: real time    0.0478
    MIXING:  cpu time    0.0010: real time    0.0023
    --------------------------------------------
      LOOP:  cpu time    0.8269: real time    0.8350

 eigenvalue-minimisations  :   524
 total energy-change (2. order) :-0.4098882E-02  (-0.4097830E-02)
 number of electron      48.0000146 magnetization 
 augmentation part        4.4359488 magnetization 

 Broyden mixing:
  rms(total) = 0.18498E+01    rms(broyden)= 0.18487E+01
  rms(prec ) = 0.34605E+01
  weight for this iteration     100.00

 Free energy of the ion-electron system (eV)
  ---------------------------------------------------
  alpha Z        PSCENC =        69.72802778
  Ewald energy   TEWEN  =     -1886.62880430
  -Hartree energ DENC   =      -937.03789541
  -exchange      EXHF   =         0.00000000
  -V(xc)+E(xc)   XCENC  =       142.00811384
  PAW double counting   =      1574.92322788    -1533.24131965
  entropy T*S    EENTRO =         0.00000000
  eigenvalues    EBANDS =      -412.87731600
  atomic energy  EATOM  =      2902.77641490
  Solvation  Ediel_sol  =         0.00000000
  ---------------------------------------------------
  free energy    TOTEN  =       -80.34955096 eV

  energy without entropy =      -80.34955096  energy(sigma->0) =      -80.34955096


--------------------------------------------------------------------------------------------------------




----------------------------------------- Iteration    1(   6)  ---------------------------------------


    POTLOK:  cpu time    0.0710: real time    0.0712
    SETDIJ:  cpu time    0.0130: real time    0.0131
    EDDIAG:  cpu time    0.1180: real time    0.1181
  RMM-DIIS:  cpu time    0.4949: real time    0.4944
    ORTHCH:  cpu time    0.0130: real time    0.0129
 BZINTS: Fermi energy:  0.704409; 48.000000 electrons
         Band energy:-300.927753;  BLOECHL correction:  0.000000
       DOS:  cpu time    0.0000: real time    0.0003
    CHARGE:  cpu time    0.0470: real time    0.0472
    MIXING:  cpu time    0.0030: real time    0.0031
    --------------------------------------------
      LOOP:  cpu time    0.7619: real time    0.7657

 eigenvalue-minimisations  :   485
 total energy-change (2. order) : 0.9467666E+01  (-0.3998627E+01)
 number of electron      48.0000126 magnetization 
 augmentation part        3.6531268 magnetization 

 Broyden mixing:
  rms(total) = 0.51833E+00    rms(broyden)= 0.51748E+00
  rms(prec ) = 0.83456E+00
  weight for this iteration     100.00

 eigenvalues of (default mixing * dielectric matrix)
  average eigenvalue GAMMA=   1.0111
  1.0111

 Free energy of the ion-electron system (eV)
  ---------------------------------------------------
  alpha Z        PSCENC =        69.72802778
  Ewald energy   TEWEN  =     -1886.62880430
  -Hartree energ DENC   =     -1044.66394706
  -exchange      EXHF   =         0.00000000
  -V(xc)+E(xc)   XCENC  =       149.23304256
  PAW double counting   =      1892.48221223    -1852.88107841
  entropy T*S    EENTRO =         0.00000000
  eigenvalues    EBANDS =      -300.92775255
  atomic energy  EATOM  =      2902.77641490
  Solvation  Ediel_sol  =         0.00000000
  ---------------------------------------------------
  free energy    TOTEN  =       -70.88188486 eV

  energy without entropy =      -70.88188486  energy(sigma->0) =      -70.88188486


--------------------------------------------------------------------------------------------------------




----------------------------------------- Iteration    1(   7)  ---------------------------------------


    POTLOK:  cpu time    0.0710: real time    0.0707
    SETDIJ:  cpu time    0.0130: real time    0.0133
    EDDIAG:  cpu time    0.1170: real time    0.1175
  RMM-DIIS:  cpu time    0.5429: real time    0.5421
    ORTHCH:  cpu time    0.0130: real time    0.0130
 BZINTS: Fermi energy:  1.077667; 48.000000 electrons
         Band energy:-283.627105;  BLOECHL correction:  0.000000
       DOS:  cpu time    0.0000: real time    0.0003
    CHARGE:  cpu time    0.0470: real time    0.0471
    MIXING:  cpu time    0.0020: real time    0.0024
    --------------------------------------------
      LOOP:  cpu time    0.8069: real time    0.8121

 eigenvalue-minimisations  :   530
 total energy-change (2. order) : 0.3028477E-01  (-0.1776191E+00)
 number of electron      48.0000123 magnetization 
 augmentation part        3.5363930 magnetization 

 Broyden mixing:
  rms(total) = 0.33987E+00    rms(broyden)= 0.33972E+00
  rms(prec ) = 0.48251E+00
  weight for this iteration     100.00

 eigenvalues of (default mixing * dielectric matrix)
  average eigenvalue GAMMA=   1.7536
  1.1681  2.3391

 Free energy of the ion-electron system (eV)
  ---------------------------------------------------
  alpha Z        PSCENC =        69.72802778
  Ewald energy   TEWEN  =     -1886.62880430
  -Hartree energ DENC   =     -1062.96744394
  -exchange      EXHF   =         0.00000000
  -V(xc)+E(xc)   XCENC  =       150.47733220
  PAW double counting   =      1993.40849746    -1954.01851898
  entropy T*S    EENTRO =         0.00000000
  eigenvalues    EBANDS =      -283.62710520
  atomic energy  EATOM  =      2902.77641490
  Solvation  Ediel_sol  =         0.00000000
  ---------------------------------------------------
  free energy    TOTEN  =       -70.85160009 eV

  energy without entropy =      -70.85160009  energy(sigma->0) =      -70.85160009


--------------------------------------------------------------------------------------------------------




----------------------------------------- Iteration    1(   8)  ---------------------------------------


    POTLOK:  cpu time    0.0710: real time    0.0710
    SETDIJ:  cpu time    0.0130: real time    0.0132
    EDDIAG:  cpu time    0.1180: real time    0.1178
  RMM-DIIS:  cpu time    0.5369: real time    0.5376
    ORTHCH:  cpu time    0.0130: real time    0.0131
 BZINTS: Fermi energy:  1.115553; 48.000000 electrons
         Band energy:-281.031753;  BLOECHL correction:  0.000000
       DOS:  cpu time    0.0000: real time    0.0003
    CHARGE:  cpu time    0.0470: real time    0.0472
    MIXING:  cpu time    0.0030: real time    0.0026
    --------------------------------------------
      LOOP:  cpu time    0.8049: real time    0.8084

 eigenvalue-minimisations  :   521
 total energy-change (2. order) :-0.1369823E-01  (-0.2716370E-01)
 number of electron      48.0000124 magnetization 
 augmentation part        3.5752747 magnetization 

 Broyden mixing:
  rms(total) = 0.62788E-01    rms(broyden)= 0.62783E-01
  rms(prec ) = 0.11821E+00
  weight for this iteration     100.00

 eigenvalues of (default mixing * dielectric matrix)
  average eigenvalue GAMMA=   1.5660
  2.5438  1.0771  1.0771

 Free energy of the ion-electron system (eV)
  ---------------------------------------------------
  alpha Z        PSCENC =        69.72802778
  Ewald energy   TEWEN  =     -1886.62880430
  -Hartree energ DENC   =     -1065.96415055
  -exchange      EXHF   =         0.00000000
  -V(xc)+E(xc)   XCENC  =       150.76819295
  PAW double counting   =      2070.81949052    -2031.33271699
  entropy T*S    EENTRO =         0.00000000
  eigenvalues    EBANDS =      -281.03175263
  atomic energy  EATOM  =      2902.77641490
  Solvation  Ediel_sol  =         0.00000000
  ---------------------------------------------------
  free energy    TOTEN  =       -70.86529832 eV

  energy without entropy =      -70.86529832  energy(sigma->0) =      -70.86529832


--------------------------------------------------------------------------------------------------------




----------------------------------------- Iteration    1(   9)  ---------------------------------------


    POTLOK:  cpu time    0.0710: real time    0.0706
    SETDIJ:  cpu time    0.0130: real time    0.0132
    EDDIAG:  cpu time    0.1180: real time    0.1177
  RMM-DIIS:  cpu time    0.5479: real time    0.5488
    ORTHCH:  cpu time    0.0130: real time    0.0130
 BZINTS: Fermi energy:  1.168066; 48.000000 electrons
         Band energy:-276.519757;  BLOECHL correction:  0.000000
       DOS:  cpu time    0.0010: real time    0.0003
    CHARGE:  cpu time    0.0470: real time    0.0471
    MIXING:  cpu time    0.0020: real time    0.0025
    --------------------------------------------
      LOOP:  cpu time    0.8139: real time    0.8186

 eigenvalue-minimisations  :   543
 total energy-change (2. order) : 0.7860844E-02  (-0.4796456E-02)
 number of electron      48.0000123 magnetization 
 augmentation part        3.5532553 magnetization 

 Broyden mixing:
  rms(total) = 0.14600E-01    rms(broyden)= 0.14564E-01
  rms(prec ) = 0.23634E-01
  weight for this iteration     100.00

 eigenvalues of (default mixing * dielectric matrix)
  average eigenvalue GAMMA=   1.6561
  2.6131  1.9540  1.0134  1.0439

 Free energy of the ion-electron system (eV)
  ---------------------------------------------------
  alpha Z        PSCENC =        69.72802778
  Ewald energy   TEWEN  =     -1886.62880430
  -Hartree energ DENC   =     -1070.72473873
  -exchange      EXHF   =         0.00000000
  -V(xc)+E(xc)   XCENC  =       151.09629514
  PAW double counting   =      2083.26997751    -2043.85485280
  entropy T*S    EENTRO =         0.00000000
  eigenvalues    EBANDS =      -276.51975697
  atomic energy  EATOM  =      2902.77641490
  Solvation  Ediel_sol  =         0.00000000
  ---------------------------------------------------
  free energy    TOTEN  =       -70.85743747 eV

  energy without entropy =      -70.85743747  energy(sigma->0) =      -70.85743747


--------------------------------------------------------------------------------------------------------




----------------------------------------- Iteration    1(  10)  ---------------------------------------


    POTLOK:  cpu time    0.0710: real time    0.0714
    SETDIJ:  cpu time    0.0130: real time    0.0132
    EDDIAG:  cpu time    0.1180: real time    0.1177
  RMM-DIIS:  cpu time    0.5539: real time    0.5539
    ORTHCH:  cpu time    0.0130: real time    0.0130
 BZINTS: Fermi energy:  1.214351; 48.000000 electrons
         Band energy:-275.202009;  BLOECHL correction:  0.000000
       DOS:  cpu time    0.0000: real time    0.0002
    CHARGE:  cpu time    0.0470: real time    0.0469
    MIXING:  cpu time    0.0020: real time    0.0027
    --------------------------------------------
      LOOP:  cpu time    0.8199: real time    0.8241

 eigenvalue-minimisations  :   540
 total energy-change (2. order) :-0.2638928E-02  (-0.1558026E-02)
 number of electron      48.0000123 magnetization 
 augmentation part        3.5409631 magnetization 

 Broyden mixing:
  rms(total) = 0.18884E-01    rms(broyden)= 0.18870E-01
  rms(prec ) = 0.32512E-01
  weight for this iteration     100.00

 eigenvalues of (default mixing * dielectric matrix)
  average eigenvalue GAMMA=   1.6629
  2.6319  2.3787  1.0185  1.1427  1.1427

 Free energy of the ion-electron system (eV)
  ---------------------------------------------------
  alpha Z        PSCENC =        69.72802778
  Ewald energy   TEWEN  =     -1886.62880430
  -Hartree energ DENC   =     -1072.12068856
  -exchange      EXHF   =         0.00000000
  -V(xc)+E(xc)   XCENC  =       151.18909037
  PAW double counting   =      2081.04635155    -2041.64845869
  entropy T*S    EENTRO =         0.00000000
  eigenvalues    EBANDS =      -275.20200944
  atomic energy  EATOM  =      2902.77641490
  Solvation  Ediel_sol  =         0.00000000
  ---------------------------------------------------
  free energy    TOTEN  =       -70.86007640 eV

  energy without entropy =      -70.86007640  energy(sigma->0) =      -70.86007640


--------------------------------------------------------------------------------------------------------




----------------------------------------- Iteration    1(  11)  ---------------------------------------


    POTLOK:  cpu time    0.0710: real time    0.0712
    SETDIJ:  cpu time    0.0130: real time    0.0130
    EDDIAG:  cpu time    0.1170: real time    0.1170
  RMM-DIIS:  cpu time    0.5479: real time    0.5475
    ORTHCH:  cpu time    0.0130: real time    0.0130
 BZINTS: Fermi energy:  1.171284; 48.000000 electrons
         Band energy:-276.347271;  BLOECHL correction:  0.000000
       DOS:  cpu time    0.0000: real time    0.0003
    CHARGE:  cpu time    0.0470: real time    0.0464
    MIXING:  cpu time    0.0020: real time    0.0029
    --------------------------------------------
      LOOP:  cpu time    0.8129: real time    0.8170

 eigenvalue-minimisations  :   538
 total energy-change (2. order) : 0.7735078E-03  (-0.3933613E-03)
 number of electron      48.0000123 magnetization 
 augmentation part        3.5478579 magnetization 

 Broyden mixing:
  rms(total) = 0.17283E-02    rms(broyden)= 0.17149E-02
  rms(prec ) = 0.25612E-02
  weight for this iteration     100.00

 eigenvalues of (default mixing * dielectric matrix)
  average eigenvalue GAMMA=   1.6459
  2.9091  2.4686  0.9567  1.2196  1.1607  1.1607

 Free energy of the ion-electron system (eV)
  ---------------------------------------------------
  alpha Z        PSCENC =        69.72802778
  Ewald energy   TEWEN  =     -1886.62880430
  -Hartree energ DENC   =     -1070.91619386
  -exchange      EXHF   =         0.00000000
  -V(xc)+E(xc)   XCENC  =       151.10639377
  PAW double counting   =      2076.55657001    -2037.13444035
  entropy T*S    EENTRO =         0.00000000
  eigenvalues    EBANDS =      -276.34727085
  atomic energy  EATOM  =      2902.77641490
  Solvation  Ediel_sol  =         0.00000000
  ---------------------------------------------------
  free energy    TOTEN  =       -70.85930289 eV

  energy without entropy =      -70.85930289  energy(sigma->0) =      -70.85930289


--------------------------------------------------------------------------------------------------------




----------------------------------------- Iteration    1(  12)  ---------------------------------------


    POTLOK:  cpu time    0.0720: real time    0.0716
    SETDIJ:  cpu time    0.0130: real time    0.0132
    EDDIAG:  cpu time    0.1180: real time    0.1180
  RMM-DIIS:  cpu time    0.5149: real time    0.5155
    ORTHCH:  cpu time    0.0130: real time    0.0128
 BZINTS: Fermi energy:  1.268784; 48.000000 electrons
         Band energy:-276.180570;  BLOECHL correction:  0.000000
       DOS:  cpu time    0.0010: real time    0.0003
    CHARGE:  cpu time    0.0460: real time    0.0462
    MIXING:  cpu time    0.0030: real time    0.0030
    --------------------------------------------
      LOOP:  cpu time    0.7829: real time    0.7863

 eigenvalue-minimisations  :   495
 total energy-change (2. order) :-0.3952047E-04  (-0.1466103E-04)
 number of electron      48.0000123 magnetization 
 augmentation part        3.5474847 magnetization 

 Broyden mixing:
  rms(total) = 0.14413E-02    rms(broyden)= 0.14410E-02
  rms(prec ) = 0.25327E-02
  weight for this iteration     100.00

 eigenvalues of (default mixing * dielectric matrix)
  average eigenvalue GAMMA=   1.7200
  3.0140  2.3687  2.3122  0.9847  1.1355  1.1125  1.1125

 Free energy of the ion-electron system (eV)
  ---------------------------------------------------
  alpha Z        PSCENC =        69.72802778
  Ewald energy   TEWEN  =     -1886.62880430
  -Hartree energ DENC   =     -1071.09057723
  -exchange      EXHF   =         0.00000000
  -V(xc)+E(xc)   XCENC  =       151.11668102
  PAW double counting   =      2076.25340524    -2036.83392003
  entropy T*S    EENTRO =         0.00000000
  eigenvalues    EBANDS =      -276.18056979
  atomic energy  EATOM  =      2902.77641490
  Solvation  Ediel_sol  =         0.00000000
  ---------------------------------------------------
  free energy    TOTEN  =       -70.85934241 eV

  energy without entropy =      -70.85934241  energy(sigma->0) =      -70.85934241


--------------------------------------------------------------------------------------------------------




----------------------------------------- Iteration    1(  13)  ---------------------------------------


    POTLOK:  cpu time    0.0700: real time    0.0710
    SETDIJ:  cpu time    0.0130: real time    0.0131
    EDDIAG:  cpu time    0.1170: real time    0.1169
  RMM-DIIS:  cpu time    0.3789: real time    0.3781
    ORTHCH:  cpu time    0.0130: real time    0.0129
 BZINTS: Fermi energy:  1.193610; 48.000000 electrons
         Band energy:-276.207906;  BLOECHL correction:  0.000000
       DOS:  cpu time    0.0000: real time    0.0002
    --------------------------------------------
      LOOP:  cpu time    0.5929: real time    0.5975

 eigenvalue-minimisations  :   350
 total energy-change (2. order) : 0.4876733E-06  (-0.9659253E-06)
 number of electron      48.0000123 magnetization 
 augmentation part        3.5474847 magnetization 

 Free energy of the ion-electron system (eV)
  ---------------------------------------------------
  alpha Z        PSCENC =        69.72802778
  Ewald energy   TEWEN  =     -1886.62880430
  -Hartree energ DENC   =     -1071.06137061
  -exchange      EXHF   =         0.00000000
  -V(xc)+E(xc)   XCENC  =       151.11415956
  PAW double counting   =      2076.24078623    -2036.82064965
  entropy T*S    EENTRO =         0.00000000
  eigenvalues    EBANDS =      -276.20790584
  atomic energy  EATOM  =      2902.77641490
  Solvation  Ediel_sol  =         0.00000000
  ---------------------------------------------------
  free energy    TOTEN  =       -70.85934193 eV

  energy without entropy =      -70.85934193  energy(sigma->0) =      -70.85934193


--------------------------------------------------------------------------------------------------------




 average (electrostatic) potential at core
  the test charge radii are     0.9892  0.7215
  (the norm of the test charge is              1.0000)
       1 -86.4074       2 -86.3440       3 -86.4311       4 -72.9716       5 -72.4846
       6 -72.4587       7 -72.2525       8 -72.4511       9 -72.1075
 
 
 
 E-fermi :   1.1936     XC(G=0):  -9.2036     alpha+bet :-10.3421


 k-point     1 :       0.0000    0.0000    0.0000
  band No.  band energies     occupation 
      1     -18.4559      2.00000
      2     -17.1540      2.00000
      3     -16.7927      2.00000
      4     -16.1792      2.00000
      5     -16.0479      2.00000
      6     -15.9681      2.00000
      7      -7.2784      2.00000
      8      -7.1186      2.00000
      9      -4.5442      2.00000
     10      -4.2356      2.00000
     11      -4.1390      2.00000
     12      -4.1204      2.00000
     13      -1.9513      2.00000
     14      -1.8447      2.00000
     15      -1.7571      2.00000
     16      -1.2669      2.00000
     17      -0.5557      2.00000
     18      -0.4420      2.00000
     19      -0.3956      2.00000
     20       0.1446      2.00000
     21       0.2271      2.00000
     22       0.4706      2.00000
     23       0.7498      2.00000
     24       0.8575      2.00000
     25       7.0927      0.00000
     26      10.3330      0.00000
     27      10.4339      0.00000
     28      10.8607      0.00000
     29      10.9598      0.00000

 k-point     2 :       0.5000    0.0000    0.0000
  band No.  band energies     occupation 
      1     -18.1003      2.00000
      2     -17.3650      2.00000
      3     -16.7580      2.00000
      4     -16.5402      2.00000
      5     -16.1372      2.00000
      6     -15.8771      2.00000
      7      -7.4061      2.00000
      8      -6.2570      2.00000
      9      -4.7810      2.00000
     10      -4.5809      2.00000
     11      -4.2028      2.00000
     12      -3.5194      2.00000
     13      -2.1416      2.00000
     14      -1.7799      2.00000
     15      -1.6093      2.00000
     16      -1.3196      2.00000
     17      -1.0613      2.00000
     18      -0.6384      2.00000
     19      -0.5293      2.00000
     20       0.0409      2.00000
     21       0.0615      2.00000
     22       0.2640      2.00000
     23       0.9113      2.00000
     24       1.0873      2.00000
     25       9.3466      0.00000
     26      10.0886      0.00000
     27      10.7780      0.00000
     28      10.9377      0.00000
     29      11.6378      0.00000

 k-point     3 :       0.0000    0.5000    0.0000
  band No.  band energies     occupation 
      1     -18.0386      2.00000
      2     -17.4757      2.00000
      3     -16.8802      2.00000
      4     -16.2292      2.00000
      5     -16.1984      2.00000
      6     -15.9521      2.00000
      7      -7.3580      2.00000
      8      -6.3681      2.00000
      9      -4.7942      2.00000
     10      -4.4298      2.00000
     11      -4.2708      2.00000
     12      -3.5111      2.00000
     13      -2.0588      2.00000
     14      -2.0251      2.00000
     15      -1.5448      2.00000
     16      -1.2972      2.00000
     17      -1.0545      2.00000
     18      -0.6758      2.00000
     19      -0.3697      2.00000
     20      -0.1906      2.00000
     21       0.2350      2.00000
     22       0.2866      2.00000
     23       0.9116      2.00000
     24       1.0685      2.00000
     25       9.3348      0.00000
     26      10.0857      0.00000
     27      10.6404      0.00000
     28      11.0937      0.00000
     29      11.5734      0.00000

 k-point     4 :       0.5000    0.5000    0.0000
  band No.  band energies     occupation 
      1     -18.0038      2.00000
      2     -17.5278      2.00000
      3     -16.8481      2.00000
      4     -16.3847      2.00000
      5     -16.0718      2.00000
      6     -15.9368      2.00000
      7      -7.3016      2.00000
      8      -6.4104      2.00000
      9      -4.9420      2.00000
     10      -4.3812      2.00000
     11      -4.2056      2.00000
     12      -3.4959      2.00000
     13      -2.0682      2.00000
     14      -2.0019      2.00000
     15      -1.5468      2.00000
     16      -1.2031      2.00000
     17      -1.0196      2.00000
     18      -0.7036      2.00000
     19      -0.5750      2.00000
     20      -0.2114      2.00000
     21       0.1497      2.00000
     22       0.4650      2.00000
     23       0.8414      2.00000
     24       1.1717      2.00000
     25       9.3318      0.00000
     26      10.1000      0.00000
     27      10.7499      0.00000
     28      10.8797      0.00000
     29      11.5906      0.00000

 k-point     5 :       0.0000    0.0000    0.5000
  band No.  band energies     occupation 
      1     -18.1164      2.00000
      2     -17.8721      2.00000
      3     -16.5054      2.00000
      4     -16.1797      2.00000
      5     -16.0578      2.00000
      6     -15.8283      2.00000
      7      -8.2968      2.00000
      8      -5.3469      2.00000
      9      -5.1243      2.00000
     10      -4.5280      2.00000
     11      -4.4815      2.00000
     12      -3.5927      2.00000
     13      -1.7111      2.00000
     14      -1.6822      2.00000
     15      -1.5660      2.00000
     16      -1.1337      2.00000
     17      -0.9424      2.00000
     18      -0.7056      2.00000
     19      -0.6354      2.00000
     20      -0.4567      2.00000
     21      -0.0304      2.00000
     22       0.8907      2.00000
     23       0.9235      2.00000
     24       1.0699      2.00000
     25       9.0343      0.00000
     26       9.0696      0.00000
     27      10.1856      0.00000
     28      10.8246      0.00000
     29      10.8825      0.00000

 k-point     6 :       0.5000    0.0000    0.5000
  band No.  band energies     occupation 
      1     -18.0465      2.00000
      2     -17.3447      2.00000
      3     -16.8827      2.00000
      4     -16.4681      2.00000
      5     -16.1966      2.00000
      6     -15.8648      2.00000
      7      -7.2757      2.00000
      8      -6.1383      2.00000
      9      -5.2709      2.00000
     10      -4.3974      2.00000
     11      -3.9372      2.00000
     12      -3.8478      2.00000
     13      -2.2106      2.00000
     14      -2.0773      2.00000
     15      -1.3849      2.00000
     16      -1.1175      2.00000
     17      -1.0035      2.00000
     18      -0.4402      2.00000
     19      -0.2505      2.00000
     20      -0.0807      2.00000
     21       0.2029      2.00000
     22       0.3585      2.00000
     23       0.5806      2.00000
     24       0.9268      2.00000
     25      10.0228      0.00000
     26      10.5272      0.00000
     27      10.7917      0.00000
     28      10.9572      0.00000
     29      11.3023      0.00000

 k-point     7 :       0.0000    0.5000    0.5000
  band No.  band energies     occupation 
      1     -17.9296      2.00000
      2     -17.6017      2.00000
      3     -16.7332      2.00000
      4     -16.4498      2.00000
      5     -16.1965      2.00000
      6     -15.8892      2.00000
      7      -7.2197      2.00000
      8      -6.2471      2.00000
      9      -5.3274      2.00000
     10      -4.2632      2.00000
     11      -4.0268      2.00000
     12      -3.7285      2.00000
     13      -2.2427      2.00000
     14      -2.1188      2.00000
     15      -1.4626      2.00000
     16      -1.1241      2.00000
     17      -0.9452      2.00000
     18      -0.4559      2.00000
     19      -0.2000      2.00000
     20      -0.1108      2.00000
     21       0.2088      2.00000
     22       0.4067      2.00000
     23       0.5765      2.00000
     24       0.9332      2.00000
     25      10.0425      0.00000
     26      10.3834      0.00000
     27      10.7430      0.00000
     28      11.0395      0.00000
     29      11.3401      0.00000

 k-point     8 :       0.5000    0.5000    0.5000
  band No.  band energies     occupation 
      1     -17.9466      2.00000
      2     -17.5031      2.00000
      3     -16.9367      2.00000
      4     -16.3995      2.00000
      5     -16.1059      2.00000
      6     -15.9068      2.00000
      7      -7.1411      2.00000
      8      -6.3259      2.00000
      9      -5.3655      2.00000
     10      -4.1806      2.00000
     11      -4.0965      2.00000
     12      -3.7390      2.00000
     13      -2.2384      2.00000
     14      -2.1269      2.00000
     15      -1.3244      2.00000
     16      -1.0868      2.00000
     17      -0.9982      2.00000
     18      -0.6035      2.00000
     19      -0.2499      2.00000
     20      -0.0808      2.00000
     21       0.3169      2.00000
     22       0.3622      2.00000
     23       0.5569      2.00000
     24       0.9817      2.00000
     25       9.9731      0.00000
     26      10.5241      0.00000
     27      10.7309      0.00000
     28      10.8617      0.00000
     29      11.3778      0.00000


--------------------------------------------------------------------------------------------------------


 soft charge-density along one line, spin component           1
         0         1         2         3         4         5         6         7         8         9
 total charge-density along one line
 
 pseudopotential strength for first ion, spin component:           1
 18.764   0.002   0.008   0.002  -0.005  -0.000  -0.000   0.000
  0.002   0.006  -0.000  -0.000   0.000   0.000   0.000  -0.000
  0.008  -0.000   4.222   0.002  -0.002  -0.003  -0.000   0.000
  0.002  -0.000   0.002   4.220  -0.003  -0.000  -0.003   0.000
 -0.005   0.000  -0.002  -0.003   4.221   0.000   0.000  -0.003
 -0.000   0.000  -0.003  -0.000   0.000   0.005   0.000  -0.000
 -0.000   0.000  -0.000  -0.003   0.000   0.000   0.005  -0.000
  0.000  -0.000   0.000   0.000  -0.003  -0.000  -0.000   0.005
 total augmentation occupancy for first ion, spin component:           1
  1.174  -1.654   0.068   0.014  -0.041  -0.128  -0.027   0.103
 -1.654   3.644  -0.174  -0.039   0.152   0.385   0.087  -0.320
  0.068  -0.174   1.065   0.071  -0.056  -1.254  -0.124   0.107
  0.014  -0.039   0.071   0.991  -0.090  -0.124  -1.148   0.156
 -0.041   0.152  -0.056  -0.090   0.985   0.107   0.156  -1.195
 -0.128   0.385  -1.254  -0.124   0.107   1.824   0.250  -0.217
 -0.027   0.087  -0.124  -1.148   0.156   0.250   1.621  -0.308
  0.103  -0.320   0.107   0.156  -1.195  -0.217  -0.308   1.726


------------------------ aborting loop because EDIFF is reached ----------------------------------------


    CHARGE:  cpu time    0.0450: real time    0.0462
    FORLOC:  cpu time    0.0100: real time    0.0097
    FORNL :  cpu time    0.2350: real time    0.2351
    STRESS:  cpu time    0.7109: real time    0.7103
    FORCOR:  cpu time    0.0730: real time    0.0729
    FORHAR:  cpu time    0.0190: real time    0.0187
    MIXING:  cpu time    0.0030: real time    0.0033
    OFIELD:  cpu time    0.0000: real time    0.0000

  FORCE on cell =-STRESS in cart. coord.  units (eV):
  Direction    XX          YY          ZZ          XY          YZ          ZX
  --------------------------------------------------------------------------------------
  Alpha Z    69.72803    69.72803    69.72803
  Ewald    -645.37924  -640.18347  -601.06990   -13.30450    14.70397   -23.87549
  Hartree   347.18496   347.54869   376.20627    -1.08113     1.43182    -2.68403
  E(xc)    -225.68096  -225.70140  -225.58350     0.06515    -0.05476     0.09159
  Local    -421.47123  -426.34016  -494.64704    12.61916   -14.09953    23.67481
  n-local   -52.14859   -51.61434   -52.68393    -1.48938     1.34424    -2.22748
  augment    27.07791    27.03077    27.03892     0.10510    -0.11606     0.19778
  Kinetic   903.69503   903.21205   902.52460     1.07325    -1.24395     1.97970
  Fock        0.00000     0.00000     0.00000     0.00000     0.00000     0.00000
  -------------------------------------------------------------------------------------
  Total       3.00591     3.68017     1.51346    -2.01235     1.96572    -2.84314
  in kB      42.61200    52.17038    21.45491   -28.52727    27.86625   -40.30458
  external pressure =       38.75 kB  Pullay stress =        0.00 kB


 VOLUME and BASIS-vectors are now :
 -----------------------------------------------------------------------------
  energy-cutoff  :      400.00
  volume of cell :      113.02
      direct lattice vectors                 reciprocal lattice vectors
     4.913700000  0.000000000  0.000000000     0.203512628  0.117498070  0.000000000
    -2.456850000  4.255389030  0.000000000     0.000000000  0.234996141  0.000000000
     0.000000000  0.000000000  5.405130000     0.000000000  0.000000000  0.185009426

  length of vectors
     4.913700000  4.913700003  5.405130000     0.234996141  0.234996141  0.185009426


 FORCES acting on ions
    electron-ion (+dipol)            ewald-force                    non-local-force                 convergence-correction
 -----------------------------------------------------------------------------------------------
   -.667E+01 0.123E+02 0.338E+01   0.540E+01 -.106E+02 -.301E+01   0.434E+01 -.635E+01 -.138E+01   0.123E-03 -.576E-03 0.967E-04
   -.212E+00 -.132E+01 0.180E+00   0.352E+00 0.129E+01 0.822E-01   -.221E+00 0.707E+00 -.165E+00   0.144E-03 0.562E-04 0.101E-03
   0.944E+00 0.107E+01 0.377E+00   -.130E+01 0.873E+00 0.899E-01   -.206E+00 -.138E+01 -.273E+00   -.456E-04 0.104E-02 0.177E-03
   0.791E+02 0.358E+00 0.244E+02   -.101E+03 0.477E+01 -.304E+02   0.197E+02 -.256E+01 0.742E+01   -.129E-03 -.161E-02 -.178E-02
   -.446E+02 0.624E+02 0.304E+02   0.543E+02 -.811E+02 -.404E+02   -.977E+01 0.183E+02 0.101E+02   0.910E-03 -.689E-03 -.904E-03
   -.301E+02 -.664E+02 0.303E+02   0.403E+02 0.823E+02 -.400E+02   -.977E+01 -.157E+02 0.958E+01   0.983E-03 0.147E-02 -.560E-03
   0.668E+02 -.794E+01 -.321E+02   -.825E+02 0.688E+01 0.433E+02   0.154E+02 0.150E+01 -.109E+02   -.169E-02 -.132E-03 0.409E-03
   -.294E+02 0.655E+02 -.302E+02   0.394E+02 -.805E+02 0.401E+02   -.939E+01 0.146E+02 -.101E+02   -.305E-03 -.107E-02 0.132E-02
   -.386E+02 -.593E+02 -.237E+02   0.452E+02 0.761E+02 0.302E+02   -.732E+01 -.157E+02 -.735E+01   0.132E-02 0.132E-02 0.152E-02
 -----------------------------------------------------------------------------------------------
   -.278E+01 0.657E+01 0.306E+01   -.355E-13 0.284E-13 0.000E+00   0.279E+01 -.658E+01 -.305E+01   0.132E-02 -.192E-03 0.372E-03
 
 
 POSITION                                       TOTAL-FORCE (eV/Angst)
 -----------------------------------------------------------------------------------
      2.25932      0.08511      3.60344         3.070649     -4.709932     -1.006413
     -1.15423      1.99918      1.80169        -0.081790      0.673261      0.096679
      1.30262      2.25621      0.00000        -0.562983      0.559402      0.193982
      1.38272      1.13278      4.24627        -2.455914      2.566087      1.417365
      3.24132      0.63107      2.44458        -0.083473     -0.417979      0.083405
      2.74651      2.49153      0.64283         0.435597      0.204177     -0.071467
     -1.07413      3.12260      2.96055        -0.214584      0.442229      0.239902
      0.28966      1.76386      1.15886         0.597503     -0.473946     -0.117828
      0.78447      3.62431      4.76230        -0.705005      1.156700     -0.835626
 -----------------------------------------------------------------------------------
    total drift:                                0.014431     -0.008085      0.004791


--------------------------------------------------------------------------------------------------------



  FREE ENERGIE OF THE ION-ELECTRON SYSTEM (eV)
  ---------------------------------------------------
  free  energy   TOTEN  =       -70.85934193 eV

  energy  without entropy=      -70.85934193  energy(sigma->0) =      -70.85934193
 


--------------------------------------------------------------------------------------------------------


    POTLOK:  cpu time    0.0850: real time    0.0849


--------------------------------------------------------------------------------------------------------


     LOOP+:  cpu time   11.5382: real time   11.7177
    4ORBIT:  cpu time    0.0010: real time    0.0003
 BZINTS: Fermi energy:  1.193610; 48.000000 electrons
         Band energy:-276.207906;  BLOECHL correction:  0.000000

 total amount of memory used by VASP on root node    51513. kBytes
========================================================================

   base      :      30000. kBytes
   nonlr-proj:        968. kBytes
   fftplans  :       4548. kBytes
   grid      :       8064. kBytes
   one-center:         27. kBytes
   wavefun   :       7906. kBytes
 
  
  
 General timing and accounting informations for this job:
 ========================================================
  
                  Total CPU time used (sec):       12.323
                            User time (sec):       12.221
                          System time (sec):        0.102
                         Elapsed time (sec):       12.893
  
                   Maximum memory used (kb):       53068.
                   Average memory used (kb):           0.
  
                          Minor page faults:        24505
                          Major page faults:           23
                 Voluntary context switches:         1663
