<?xml version="1.0" encoding="ISO-8859-1"?>
<modeling>
 <generator>
  <i name="program" type="string">vasp </i>
  <i name="version" type="string">5.4.1  </i>
  <i name="subversion" type="string">05Feb16 (build Mar 02 2016 14:09:44) complex                          parallel </i>
  <i name="platform" type="string">Abel-impi-ifc-cuda </i>
  <i name="date" type="string">2019 09 13 </i>
  <i name="time" type="string">12:03:14 </i>
 </generator>
 <incar>
  <i type="string" name="PREC">normal    ! low/normal/accurate</i>
  <i type="string" name="ALGO"> Fast      ! Algorithm for electronic re</i>
  <i type="int" name="ISPIN">     1</i>
  <i type="int" name="NELMIN">     4</i>
  <i name="EDIFF">      0.00001000</i>
  <i type="int" name="NSW">     0</i>
  <i name="ENCUT">    400.00000000</i>
  <i type="string" name="LREAL"> Auto      ! Projection in reciprocal sp</i>
  <i type="int" name="ISMEAR">    -5</i>
  <i name="SIGMA">      0.20000000</i>
  <i type="logical" name="LWAVE"> F  </i>
  <v type="int" name="KPOINT_BSE">    -1     0     0     0</v>
 </incar>
 <kpoints>
  <generation param="Gamma">
   <v type="int" name="divisions">       2        2        2 </v>
   <v name="usershift">      0.00000000       0.00000000       0.00000000 </v>
   <v name="genvec1">      0.50000000      -0.00000000       0.00000000 </v>
   <v name="genvec2">      0.00000000       0.50000000       0.00000000 </v>
   <v name="genvec3">      0.00000000       0.00000000       0.50000000 </v>
   <v name="shift">      0.00000000       0.00000000       0.00000000 </v>
  </generation>
  <varray name="kpointlist" >
   <v>       0.00000000       0.00000000       0.00000000 </v>
   <v>       0.50000000       0.00000000       0.00000000 </v>
   <v>       0.00000000       0.50000000       0.00000000 </v>
   <v>       0.50000000       0.50000000       0.00000000 </v>
   <v>       0.00000000       0.00000000       0.50000000 </v>
   <v>       0.50000000       0.00000000       0.50000000 </v>
   <v>       0.00000000       0.50000000       0.50000000 </v>
   <v>       0.50000000       0.50000000       0.50000000 </v>
  </varray>
  <varray name="weights" >
   <v>       0.12500000 </v>
   <v>       0.12500000 </v>
   <v>       0.12500000 </v>
   <v>       0.12500000 </v>
   <v>       0.12500000 </v>
   <v>       0.12500000 </v>
   <v>       0.12500000 </v>
   <v>       0.12500000 </v>
  </varray>
  <varray name="tetrahedronlist"  type="int" >
   <v type="int" >        2        2        3        4        7 </v>
   <v type="int" >        2        1        2        3        7 </v>
   <v type="int" >        2        1        2        5        7 </v>
   <v type="int" >        2        2        4        7        8 </v>
   <v type="int" >        2        2        6        7        8 </v>
   <v type="int" >        2        2        5        6        7 </v>
   <v type="int" >        2        1        3        4        8 </v>
   <v type="int" >        2        1        2        4        8 </v>
   <v type="int" >        2        1        2        6        8 </v>
   <v type="int" >        2        1        3        7        8 </v>
   <v type="int" >        2        1        5        7        8 </v>
   <v type="int" >        2        1        5        6        8 </v>
   <v type="int" >        2        1        2        4        5 </v>
   <v type="int" >        2        1        3        4        5 </v>
   <v type="int" >        2        3        4        5        7 </v>
   <v type="int" >        2        2        4        5        6 </v>
   <v type="int" >        2        4        5        6        8 </v>
   <v type="int" >        2        4        5        7        8 </v>
   <v type="int" >        2        1        2        3        6 </v>
   <v type="int" >        2        2        3        4        6 </v>
   <v type="int" >        2        3        4        6        8 </v>
   <v type="int" >        2        1        3        5        6 </v>
   <v type="int" >        2        3        5        6        7 </v>
   <v type="int" >        2        3        6        7        8 </v>
  </varray>
  <i name="volumeweight">      0.02083333 </i>
 </kpoints>
 <parameters>
  <separator name="general" >
   <i type="string" name="SYSTEM">unknown system</i>
   <i type="logical" name="LCOMPAT"> F  </i>
  </separator>
  <separator name="electronic" >
   <i type="string" name="PREC">normal</i>
   <i name="ENMAX">    400.00000000</i>
   <i name="ENAUG">    605.39200000</i>
   <i name="EDIFF">      0.00001000</i>
   <i type="int" name="IALGO">    68</i>
   <i type="int" name="IWAVPR">    10</i>
   <i type="int" name="NBANDS">    29</i>
   <i name="NELECT">     48.00000000</i>
   <i type="int" name="TURBO">     0</i>
   <i type="int" name="IRESTART">     0</i>
   <i type="int" name="NREBOOT">     0</i>
   <i type="int" name="NMIN">     0</i>
   <i name="EREF">      0.00000000</i>
   <separator name="electronic smearing" >
    <i type="int" name="ISMEAR">    -5</i>
    <i name="SIGMA">      0.20000000</i>
    <i name="KSPACING">      0.50000000</i>
    <i type="logical" name="KGAMMA"> T  </i>
   </separator>
   <separator name="electronic projectors" >
    <i type="logical" name="LREAL"> T  </i>
    <v name="ROPT">     -0.00050000     -0.00050000</v>
    <i type="int" name="LMAXPAW">  -100</i>
    <i type="int" name="LMAXMIX">     2</i>
    <i type="logical" name="NLSPLINE"> F  </i>
   </separator>
   <separator name="electronic startup" >
    <i type="int" name="ISTART">     0</i>
    <i type="int" name="ICHARG">     2</i>
    <i type="int" name="INIWAV">     1</i>
   </separator>
   <separator name="electronic spin" >
    <i type="int" name="ISPIN">     1</i>
    <i type="logical" name="LNONCOLLINEAR"> F  </i>
    <v name="MAGMOM">      1.00000000      1.00000000      1.00000000      1.00000000      1.00000000      1.00000000      1.00000000      1.00000000      1.00000000</v>
    <i name="NUPDOWN">     -1.00000000</i>
    <i type="logical" name="LSORBIT"> F  </i>
    <v name="SAXIS">      0.00000000      0.00000000      1.00000000</v>
    <i type="logical" name="LSPIRAL"> F  </i>
    <v name="QSPIRAL">      0.00000000      0.00000000      0.00000000</v>
    <i type="logical" name="LZEROZ"> F  </i>
   </separator>
   <separator name="electronic exchange-correlation" >
    <i type="logical" name="LASPH"> F  </i>
    <i type="logical" name="LMETAGGA"> F  </i>
   </separator>
   <separator name="electronic convergence" >
    <i type="int" name="NELM">    60</i>
    <i type="int" name="NELMDL">    -5</i>
    <i type="int" name="NELMIN">     4</i>
    <i name="ENINI">    400.00000000</i>
    <separator name="electronic convergence detail" >
     <i type="logical" name="LDIAG"> T  </i>
     <i type="logical" name="LSUBROT"> F  </i>
     <i name="WEIMIN">      0.00000000</i>
     <i name="EBREAK">      0.00000009</i>
     <i name="DEPER">      0.30000000</i>
     <i type="int" name="NRMM">     4</i>
     <i name="TIME">      0.40000000</i>
    </separator>
   </separator>
   <separator name="electronic mixer" >
    <i name="AMIX">      0.40000000</i>
    <i name="BMIX">      1.00000000</i>
    <i name="AMIN">      0.10000000</i>
    <i name="AMIX_MAG">      1.60000000</i>
    <i name="BMIX_MAG">      1.00000000</i>
    <separator name="electronic mixer details" >
     <i type="int" name="IMIX">     4</i>
     <i type="logical" name="MIXFIRST"> F  </i>
     <i type="int" name="MAXMIX">   -45</i>
     <i name="WC">    100.00000000</i>
     <i type="int" name="INIMIX">     1</i>
     <i type="int" name="MIXPRE">     1</i>
     <i type="int" name="MREMOVE">     5</i>
    </separator>
   </separator>
   <separator name="electronic dipolcorrection" >
    <i type="logical" name="LDIPOL"> F  </i>
    <i type="logical" name="LMONO"> F  </i>
    <i type="int" name="IDIPOL">     0</i>
    <i name="EPSILON">      1.00000000</i>
    <v name="DIPOL">   -100.00000000   -100.00000000   -100.00000000</v>
    <i name="EFIELD">      0.00000000</i>
   </separator>
  </separator>
  <separator name="grids" >
   <i type="int" name="NGX">    24</i>
   <i type="int" name="NGY">    24</i>
   <i type="int" name="NGZ">    28</i>
   <i type="int" name="NGXF">    48</i>
   <i type="int" name="NGYF">    48</i>
   <i type="int" name="NGZF">    56</i>
   <i type="logical" name="ADDGRID"> F  </i>
  </separator>
  <separator name="ionic" >
   <i type="int" name="NSW">     0</i>
   <i type="int" name="IBRION">    -1</i>
   <i type="int" name="ISIF">     2</i>
   <i name="PSTRESS">      0.00000000</i>
   <i name="EDIFFG">      0.00010000</i>
   <i type="int" name="NFREE">     0</i>
   <i name="POTIM">      0.50000000</i>
   <i name="SMASS">     -3.00000000</i>
   <i name="SCALEE">      1.00000000</i>
  </separator>
  <separator name="ionic md" >
   <i name="TEBEG">      0.00010000</i>
   <i name="TEEND">      0.00010000</i>
   <i type="int" name="NBLOCK">     1</i>
   <i type="int" name="KBLOCK">     1</i>
   <i type="int" name="NPACO">   256</i>
   <i name="APACO">     16.00000000</i>
  </separator>
  <separator name="symmetry" >
   <i type="int" name="ISYM">     2</i>
   <i name="SYMPREC">      0.00001000</i>
  </separator>
  <separator name="dos" >
   <i type="logical" name="LORBIT"> F  </i>
   <v name="RWIGS">     -1.00000000     -1.00000000</v>
   <i type="int" name="NEDOS">   301</i>
   <i name="EMIN">     10.00000000</i>
   <i name="EMAX">    -10.00000000</i>
   <i name="EFERMI">      0.00000000</i>
  </separator>
  <separator name="writing" >
   <i type="int" name="NWRITE">     2</i>
   <i type="logical" name="LWAVE"> F  </i>
   <i type="logical" name="LCHARG"> T  </i>
   <i type="logical" name="LPARD"> F  </i>
   <i type="logical" name="LVTOT"> F  </i>
   <i type="logical" name="LVHAR"> F  </i>
   <i type="logical" name="LELF"> F  </i>
   <i type="logical" name="LOPTICS"> F  </i>
   <v name="STM">      0.00000000      0.00000000      0.00000000      0.00000000      0.00000000      0.00000000      0.00000000</v>
  </separator>
  <separator name="performance" >
   <i type="int" name="NPAR">     1</i>
   <i type="int" name="NSIM">     4</i>
   <i type="int" name="NBLK">    -1</i>
   <i type="logical" name="LPLANE"> T  </i>
   <i type="logical" name="LSCALAPACK"> F  </i>
   <i type="logical" name="LSCAAWARE"> F  </i>
   <i type="logical" name="LSCALU"> F  </i>
   <i type="logical" name="LASYNC"> F  </i>
   <i type="logical" name="LORBITALREAL"> F  </i>
  </separator>
  <separator name="miscellaneous" >
   <i type="int" name="IDIOT">     3</i>
   <i type="logical" name="LMUSIC"> F  </i>
   <v name="POMASS">     28.08500000     16.00000000</v>
   <v name="DARWINR">      0.00000000      0.00000000</v>
   <v name="DARWINV">      1.00000000      1.00000000</v>
   <i type="logical" name="LCORR"> T  </i>
  </separator>
  <i type="logical" name="GGA_COMPAT"> T  </i>
  <i type="logical" name="LBERRY"> F  </i>
  <i type="int" name="ICORELEVEL">     0</i>
  <i type="logical" name="LDAU"> F  </i>
  <i type="int" name="I_CONSTRAINED_M">     0</i>
  <separator name="electronic exchange-correlation" >
   <i type="string" name="GGA">--</i>
   <i type="int" name="VOSKOWN">     0</i>
   <i type="logical" name="LHFCALC"> F  </i>
   <i type="string" name="PRECFOCK"></i>
   <i type="logical" name="LSYMGRAD"> F  </i>
   <i type="logical" name="LHFONE"> F  </i>
   <i type="logical" name="LRHFCALC"> F  </i>
   <i type="logical" name="LTHOMAS"> F  </i>
   <i type="logical" name="LMODELHF"> F  </i>
   <i name="ENCUT4O">     -1.00000000</i>
   <i type="int" name="EXXOEP">     0</i>
   <i type="int" name="FOURORBIT">     0</i>
   <i name="AEXX">      0.00000000</i>
   <i name="HFALPHA">      0.00000000</i>
   <i name="MCALPHA">      0.00000000</i>
   <i name="ALDAX">      1.00000000</i>
   <i name="AGGAX">      1.00000000</i>
   <i name="ALDAC">      1.00000000</i>
   <i name="AGGAC">      1.00000000</i>
   <i type="int" name="NKREDX">     1</i>
   <i type="int" name="NKREDY">     1</i>
   <i type="int" name="NKREDZ">     1</i>
   <i type="logical" name="SHIFTRED"> F  </i>
   <i type="logical" name="ODDONLY"> F  </i>
   <i type="logical" name="EVENONLY"> F  </i>
   <i type="int" name="LMAXFOCK">     0</i>
   <i type="int" name="NMAXFOCKAE">     0</i>
   <i type="logical" name="LFOCKAEDFT"> F  </i>
   <i name="HFSCREEN">      0.00000000</i>
   <i name="HFSCREENC">      0.00000000</i>
   <i type="int" name="NBANDSGWLOW">     0</i>
  </separator>
  <separator name="vdW DFT" >
   <i type="logical" name="LUSE_VDW"> F  </i>
   <i name="Zab_VDW">     -0.84910000</i>
   <i name="PARAM1">      0.12340000</i>
   <i name="PARAM2">      1.00000000</i>
   <i name="PARAM3">      0.00000000</i>
  </separator>
  <separator name="model GW" >
   <i type="int" name="MODEL_GW">     0</i>
   <i name="MODEL_EPS0">      7.53464495</i>
   <i name="MODEL_ALPHA">      1.00000000</i>
  </separator>
  <separator name="linear response parameters" >
   <i type="logical" name="LEPSILON"> F  </i>
   <i type="logical" name="LRPA"> F  </i>
   <i type="logical" name="LNABLA"> F  </i>
   <i type="logical" name="LVEL"> F  </i>
   <i type="int" name="KINTER">     0</i>
   <i name="CSHIFT">      0.10000000</i>
   <i name="OMEGAMAX">     -1.00000000</i>
   <i name="DEG_THRESHOLD">      0.00200000</i>
  </separator>
  <separator name="orbital magnetization" >
   <i type="logical" name="NUCIND"> F  </i>
   <v name="MAGPOS">      0.00000000      0.00000000      0.00000000</v>
   <i type="logical" name="LNICSALL"> T  </i>
   <i type="logical" name="ORBITALMAG"> F  </i>
   <i type="logical" name="LMAGBLOCH"> F  </i>
   <i type="logical" name="LCHIMAG"> F  </i>
   <i type="logical" name="LGAUGE"> T  </i>
   <i type="int" name="MAGATOM">     0</i>
   <v name="MAGDIPOL">      0.00000000      0.00000000      0.00000000</v>
   <v name="AVECCONST">      0.00000000      0.00000000      0.00000000</v>
  </separator>
  <separator name="response functions" >
   <i type="logical" name="LADDER"> F  </i>
   <i type="logical" name="LFXC"> F  </i>
   <i type="logical" name="LHARTREE"> T  </i>
   <i type="int" name="IBSE">     0</i>
   <v type="int" name="KPOINT">    -1     0     0     0</v>
   <i type="logical" name="LTCTE"> F  </i>
   <i type="logical" name="LTETE"> F  </i>
   <i type="logical" name="LTRIPLET"> F  </i>
   <i type="logical" name="LFXCEPS"> F  </i>
   <i type="logical" name="LFXHEG"> F  </i>
   <i type="int" name="NATURALO">     0</i>
   <i type="logical" name="L2ORDER"> F  </i>
   <i type="logical" name="LUSEW"> F  </i>
   <i name="ENCUTGW">     -2.00000000</i>
   <i name="ENCUTGWSOFT">     -2.00000000</i>
   <i name="ENCUTLF">     -1.00000000</i>
   <i type="int" name="LMAXMP2">    -1</i>
   <i name="SCISSOR">      0.00000000</i>
   <i type="int" name="NOMEGA">     0</i>
   <i type="int" name="NOMEGAR">     0</i>
   <i type="int" name="NBANDSGW">    -1</i>
   <i type="int" name="NBANDSO">    -1</i>
   <i type="int" name="NBANDSV">    -1</i>
   <i type="int" name="NELM">     1</i>
   <i type="int" name="NELMHF">     1</i>
   <i type="int" name="DIM">     3</i>
   <i type="int" name="ANTIRES">     0</i>
   <i name="OMEGAMAX">    -30.00000000</i>
   <i name="OMEGAMIN">    -30.00000000</i>
   <i name="OMEGATL">   -200.00000000</i>
   <i type="int" name="OMEGAGRID">     0</i>
   <i name="CSHIFT">     -0.10000000</i>
   <i type="logical" name="SELFENERGY"> F  </i>
   <i type="logical" name="LSPECTRAL"> F  </i>
   <i type="logical" name="LSPECTRALGW"> F  </i>
   <i type="logical" name="LSINGLES"> F  </i>
   <i type="logical" name="LFERMIGW"> F  </i>
   <i type="logical" name="ODDONLYGW"> F  </i>
   <i type="logical" name="EVENONLYGW"> F  </i>
   <i type="int" name="NKREDLFX">     1</i>
   <i type="int" name="NKREDLFY">     1</i>
   <i type="int" name="NKREDLFZ">     1</i>
   <i type="int" name="MAXMEM">  1800</i>
   <i type="int" name="TELESCOPE">     0</i>
   <i type="int" name="TAUPAR">     1</i>
   <i type="int" name="OMEGAPAR">    -1</i>
   <i name="LAMBDA">      1.00000000</i>
  </separator>
  <separator name="External order field" >
   <i name="OFIELD_KAPPA">      0.00000000</i>
   <v name="OFIELD_K">      0.00000000      0.00000000      0.00000000</v>
   <i name="OFIELD_Q6_NEAR">      0.00000000</i>
   <i name="OFIELD_Q6_FAR">      0.00000000</i>
   <i name="OFIELD_A">      0.00000000</i>
  </separator>
 </parameters>
 <atominfo>
  <atoms>       9 </atoms>
  <types>       2 </types>
  <array name="atoms" >
   <dimension dim="1">ion</dimension>
   <field type="string">element</field>
   <field type="int">atomtype</field>
   <set>
    <rc><c>Si</c><c>   1</c></rc>
    <rc><c>Si</c><c>   1</c></rc>
    <rc><c>Si</c><c>   1</c></rc>
    <rc><c>O </c><c>   2</c></rc>
    <rc><c>O </c><c>   2</c></rc>
    <rc><c>O </c><c>   2</c></rc>
    <rc><c>O </c><c>   2</c></rc>
    <rc><c>O </c><c>   2</c></rc>
    <rc><c>O </c><c>   2</c></rc>
   </set>
  </array>
  <array name="atomtypes" >
   <dimension dim="1">type</dimension>
   <field type="int">atomspertype</field>
   <field type="string">element</field>
   <field>mass</field>
   <field>valence</field>
   <field type="string">pseudopotential</field>
   <set>
    <rc><c>   3</c><c>Si</c><c>     28.08500000</c><c>      4.00000000</c><c> PAW_PBE Si 05Jan2001                   </c></rc>
    <rc><c>   6</c><c>O </c><c>     16.00000000</c><c>      6.00000000</c><c> PAW_PBE O 08Apr2002                    </c></rc>
   </set>
  </array>
 </atominfo>
 <structure name="initialpos" >
  <crystal>
   <varray name="basis" >
    <v>       4.91370000       0.00000000       0.00000000 </v>
    <v>      -2.45685000       4.25538903       0.00000000 </v>
    <v>       0.00000000       0.00000000       5.40513000 </v>
   </varray>
   <i name="volume">    113.01967420 </i>
   <varray name="rec_basis" >
    <v>       0.20351263       0.11749807       0.00000000 </v>
    <v>       0.00000000       0.23499614       0.00000000 </v>
    <v>       0.00000000       0.00000000       0.18500943 </v>
   </varray>
  </crystal>
  <varray name="positions" >
   <v>       0.46980000       0.02000000       0.66667000 </v>
   <v>       0.00000000       0.46980000       0.33333000 </v>
   <v>       0.53020000       0.53020000       0.00000000 </v>
   <v>       0.41450000       0.26620000       0.78560000 </v>
   <v>       0.73380000       0.14830000       0.45227000 </v>
   <v>       0.85170000       0.58550000       0.11893000 </v>
   <v>       0.14830000       0.73380000       0.54773000 </v>
   <v>       0.26620000       0.41450000       0.21440000 </v>
   <v>       0.58550000       0.85170000       0.88107000 </v>
  </varray>
 </structure>
 <calculation>
  <scstep>
   <time name="dav">    0.66    0.66</time>
   <time name="total">    0.75    0.79</time>
   <energy>
    <i name="alphaZ">     69.72802778 </i>
    <i name="ewald">  -1886.62880430 </i>
    <i name="hartreedc">   -937.03789541 </i>
    <i name="XCdc">    142.00811384 </i>
    <i name="pawpsdc">   1574.92322788 </i>
    <i name="pawaedc">  -1533.24131965 </i>
    <i name="eentropy">      0.00000000 </i>
    <i name="bandstr">    -58.09384346 </i>
    <i name="atom">   2902.77641490 </i>
    <i name="e_fr_energy">    274.43392157 </i>
    <i name="e_wo_entrp">    274.43392157 </i>
    <i name="e_0_energy">    274.43392157 </i>
   </energy>
  </scstep>
  <scstep>
   <time name="dav">    0.85    0.85</time>
   <time name="total">    0.85    0.85</time>
   <energy>
    <i name="e_fr_energy">    -63.55730193 </i>
    <i name="e_wo_entrp">    -63.55730193 </i>
    <i name="e_0_energy">    -63.55730193 </i>
   </energy>
  </scstep>
  <scstep>
   <time name="dav">    0.77    0.77</time>
   <time name="total">    0.77    0.78</time>
   <energy>
    <i name="e_fr_energy">    -80.13959965 </i>
    <i name="e_wo_entrp">    -80.13959965 </i>
    <i name="e_0_energy">    -80.13959965 </i>
   </energy>
  </scstep>
  <scstep>
   <time name="dav">    0.81    0.81</time>
   <time name="total">    0.81    0.81</time>
   <energy>
    <i name="e_fr_energy">    -80.34545208 </i>
    <i name="e_wo_entrp">    -80.34545208 </i>
    <i name="e_0_energy">    -80.34545208 </i>
   </energy>
  </scstep>
  <scstep>
   <time name="dav">    0.78    0.78</time>
   <time name="total">    0.83    0.84</time>
   <energy>
    <i name="e_fr_energy">    -80.34955096 </i>
    <i name="e_wo_entrp">    -80.34955096 </i>
    <i name="e_0_energy">    -80.34955096 </i>
   </energy>
  </scstep>
  <scstep>
   <time name="diag">    0.12    0.12</time>
   <time name="diis">    0.49    0.49</time>
   <time name="orth">    0.01    0.01</time>
   <time name="total">    0.76    0.77</time>
   <energy>
    <i name="e_fr_energy">    -70.88188486 </i>
    <i name="e_wo_entrp">    -70.88188486 </i>
    <i name="e_0_energy">    -70.88188486 </i>
   </energy>
  </scstep>
  <scstep>
   <time name="diag">    0.12    0.12</time>
   <time name="diis">    0.54    0.54</time>
   <time name="orth">    0.01    0.01</time>
   <time name="total">    0.81    0.81</time>
   <energy>
    <i name="e_fr_energy">    -70.85160009 </i>
    <i name="e_wo_entrp">    -70.85160009 </i>
    <i name="e_0_energy">    -70.85160009 </i>
   </energy>
  </scstep>
  <scstep>
   <time name="diag">    0.12    0.12</time>
   <time name="diis">    0.54    0.54</time>
   <time name="orth">    0.01    0.01</time>
   <time name="total">    0.80    0.81</time>
   <energy>
    <i name="e_fr_energy">    -70.86529832 </i>
    <i name="e_wo_entrp">    -70.86529832 </i>
    <i name="e_0_energy">    -70.86529832 </i>
   </energy>
  </scstep>
  <scstep>
   <time name="diag">    0.12    0.12</time>
   <time name="diis">    0.55    0.55</time>
   <time name="orth">    0.01    0.01</time>
   <time name="total">    0.81    0.82</time>
   <energy>
    <i name="e_fr_energy">    -70.85743747 </i>
    <i name="e_wo_entrp">    -70.85743747 </i>
    <i name="e_0_energy">    -70.85743747 </i>
   </energy>
  </scstep>
  <scstep>
   <time name="diag">    0.12    0.12</time>
   <time name="diis">    0.55    0.55</time>
   <time name="orth">    0.01    0.01</time>
   <time name="total">    0.82    0.82</time>
   <energy>
    <i name="e_fr_energy">    -70.86007640 </i>
    <i name="e_wo_entrp">    -70.86007640 </i>
    <i name="e_0_energy">    -70.86007640 </i>
   </energy>
  </scstep>
  <scstep>
   <time name="diag">    0.12    0.12</time>
   <time name="diis">    0.55    0.55</time>
   <time name="orth">    0.01    0.01</time>
   <time name="total">    0.81    0.82</time>
   <energy>
    <i name="e_fr_energy">    -70.85930289 </i>
    <i name="e_wo_entrp">    -70.85930289 </i>
    <i name="e_0_energy">    -70.85930289 </i>
   </energy>
  </scstep>
  <scstep>
   <time name="diag">    0.12    0.12</time>
   <time name="diis">    0.51    0.52</time>
   <time name="orth">    0.01    0.01</time>
   <time name="total">    0.78    0.79</time>
   <energy>
    <i name="e_fr_energy">    -70.85934241 </i>
    <i name="e_wo_entrp">    -70.85934241 </i>
    <i name="e_0_energy">    -70.85934241 </i>
   </energy>
  </scstep>
  <scstep>
   <time name="diag">    0.12    0.12</time>
   <time name="diis">    0.38    0.38</time>
   <time name="orth">    0.01    0.01</time>
   <time name="total">    0.59    0.60</time>
   <energy>
    <i name="alphaZ">     69.72802778 </i>
    <i name="ewald">  -1886.62880430 </i>
    <i name="hartreedc">  -1071.06137061 </i>
    <i name="XCdc">    151.11415956 </i>
    <i name="pawpsdc">   2076.24078623 </i>
    <i name="pawaedc">  -2036.82064965 </i>
    <i name="eentropy">      0.00000000 </i>
    <i name="bandstr">   -276.20790584 </i>
    <i name="atom">   2902.77641490 </i>
    <i name="e_fr_energy">    -70.85934193 </i>
    <i name="e_wo_entrp">    -70.85934193 </i>
    <i name="e_0_energy">    -70.85934193 </i>
   </energy>
  </scstep>
  <structure>
   <crystal>
    <varray name="basis" >
     <v>       4.91370000       0.00000000       0.00000000 </v>
     <v>      -2.45685000       4.25538903       0.00000000 </v>
     <v>       0.00000000       0.00000000       5.40513000 </v>
    </varray>
    <i name="volume">    113.01967420 </i>
    <varray name="rec_basis" >
     <v>       0.20351263       0.11749807       0.00000000 </v>
     <v>       0.00000000       0.23499614       0.00000000 </v>
     <v>       0.00000000       0.00000000       0.18500943 </v>
    </varray>
   </crystal>
   <varray name="positions" >
    <v>       0.46980000       0.02000000       0.66667000 </v>
    <v>       0.00000000       0.46980000       0.33333000 </v>
    <v>       0.53020000       0.53020000       0.00000000 </v>
    <v>       0.41450000       0.26620000       0.78560000 </v>
    <v>       0.73380000       0.14830000       0.45227000 </v>
    <v>       0.85170000       0.58550000       0.11893000 </v>
    <v>       0.14830000       0.73380000       0.54773000 </v>
    <v>       0.26620000       0.41450000       0.21440000 </v>
    <v>       0.58550000       0.85170000       0.88107000 </v>
   </varray>
  </structure>
  <varray name="forces" >
   <v>       3.07064853      -4.70993174      -1.00641268 </v>
   <v>      -0.08179040       0.67326100       0.09667944 </v>
   <v>      -0.56298277       0.55940175       0.19398215 </v>
   <v>      -2.45591416       2.56608741       1.41736550 </v>
   <v>      -0.08347309      -0.41797907       0.08340495 </v>
   <v>       0.43559741       0.20417704      -0.07146674 </v>
   <v>      -0.21458376       0.44222942       0.23990195 </v>
   <v>       0.59750345      -0.47394630      -0.11782837 </v>
   <v>      -0.70500520       1.15670048      -0.83562620 </v>
  </varray>
  <varray name="stress" >
   <v>      42.61199851     -28.52727228     -40.30458049 </v>
   <v>     -28.52727227      52.17038101      27.86624909 </v>
   <v>     -40.30458052      27.86624912      21.45491450 </v>
  </varray>
  <energy>
   <i name="e_fr_energy">    -70.85934193 </i>
   <i name="e_wo_entrp">    -70.85934193 </i>
   <i name="e_0_energy">      0.00000000 </i>
  </energy>
  <time name="totalsc">   11.54   11.72</time>
  <eigenvalues>
   <array>
    <dimension dim="1">band</dimension>
    <dimension dim="2">kpoint</dimension>
    <dimension dim="3">spin</dimension>
    <field>eigene</field>
    <field>occ</field>
    <set>
     <set comment="spin 1">
      <set comment="kpoint 1">
       <r>  -18.4559    1.0000 </r>
       <r>  -17.1540    1.0000 </r>
       <r>  -16.7927    1.0000 </r>
       <r>  -16.1792    1.0000 </r>
       <r>  -16.0479    1.0000 </r>
       <r>  -15.9681    1.0000 </r>
       <r>   -7.2784    1.0000 </r>
       <r>   -7.1186    1.0000 </r>
       <r>   -4.5442    1.0000 </r>
       <r>   -4.2356    1.0000 </r>
       <r>   -4.1390    1.0000 </r>
       <r>   -4.1204    1.0000 </r>
       <r>   -1.9513    1.0000 </r>
       <r>   -1.8447    1.0000 </r>
       <r>   -1.7571    1.0000 </r>
       <r>   -1.2669    1.0000 </r>
       <r>   -0.5557    1.0000 </r>
       <r>   -0.4420    1.0000 </r>
       <r>   -0.3956    1.0000 </r>
       <r>    0.1446    1.0000 </r>
       <r>    0.2271    1.0000 </r>
       <r>    0.4706    1.0000 </r>
       <r>    0.7498    1.0000 </r>
       <r>    0.8575    1.0000 </r>
       <r>    7.0927    0.0000 </r>
       <r>   10.3330    0.0000 </r>
       <r>   10.4339    0.0000 </r>
       <r>   10.8607    0.0000 </r>
       <r>   10.9598    0.0000 </r>
      </set>
      <set comment="kpoint 2">
       <r>  -18.1003    1.0000 </r>
       <r>  -17.3650    1.0000 </r>
       <r>  -16.7580    1.0000 </r>
       <r>  -16.5402    1.0000 </r>
       <r>  -16.1372    1.0000 </r>
       <r>  -15.8771    1.0000 </r>
       <r>   -7.4061    1.0000 </r>
       <r>   -6.2570    1.0000 </r>
       <r>   -4.7810    1.0000 </r>
       <r>   -4.5809    1.0000 </r>
       <r>   -4.2028    1.0000 </r>
       <r>   -3.5194    1.0000 </r>
       <r>   -2.1416    1.0000 </r>
       <r>   -1.7799    1.0000 </r>
       <r>   -1.6093    1.0000 </r>
       <r>   -1.3196    1.0000 </r>
       <r>   -1.0613    1.0000 </r>
       <r>   -0.6384    1.0000 </r>
       <r>   -0.5293    1.0000 </r>
       <r>    0.0409    1.0000 </r>
       <r>    0.0615    1.0000 </r>
       <r>    0.2640    1.0000 </r>
       <r>    0.9113    1.0000 </r>
       <r>    1.0873    1.0000 </r>
       <r>    9.3466    0.0000 </r>
       <r>   10.0886    0.0000 </r>
       <r>   10.7780    0.0000 </r>
       <r>   10.9377    0.0000 </r>
       <r>   11.6378    0.0000 </r>
      </set>
      <set comment="kpoint 3">
       <r>  -18.0386    1.0000 </r>
       <r>  -17.4757    1.0000 </r>
       <r>  -16.8802    1.0000 </r>
       <r>  -16.2292    1.0000 </r>
       <r>  -16.1984    1.0000 </r>
       <r>  -15.9521    1.0000 </r>
       <r>   -7.3580    1.0000 </r>
       <r>   -6.3681    1.0000 </r>
       <r>   -4.7942    1.0000 </r>
       <r>   -4.4298    1.0000 </r>
       <r>   -4.2708    1.0000 </r>
       <r>   -3.5111    1.0000 </r>
       <r>   -2.0588    1.0000 </r>
       <r>   -2.0251    1.0000 </r>
       <r>   -1.5448    1.0000 </r>
       <r>   -1.2972    1.0000 </r>
       <r>   -1.0545    1.0000 </r>
       <r>   -0.6758    1.0000 </r>
       <r>   -0.3697    1.0000 </r>
       <r>   -0.1906    1.0000 </r>
       <r>    0.2350    1.0000 </r>
       <r>    0.2866    1.0000 </r>
       <r>    0.9116    1.0000 </r>
       <r>    1.0685    1.0000 </r>
       <r>    9.3348    0.0000 </r>
       <r>   10.0857    0.0000 </r>
       <r>   10.6404    0.0000 </r>
       <r>   11.0937    0.0000 </r>
       <r>   11.5734    0.0000 </r>
      </set>
      <set comment="kpoint 4">
       <r>  -18.0038    1.0000 </r>
       <r>  -17.5278    1.0000 </r>
       <r>  -16.8481    1.0000 </r>
       <r>  -16.3847    1.0000 </r>
       <r>  -16.0718    1.0000 </r>
       <r>  -15.9368    1.0000 </r>
       <r>   -7.3016    1.0000 </r>
       <r>   -6.4104    1.0000 </r>
       <r>   -4.9420    1.0000 </r>
       <r>   -4.3812    1.0000 </r>
       <r>   -4.2056    1.0000 </r>
       <r>   -3.4959    1.0000 </r>
       <r>   -2.0682    1.0000 </r>
       <r>   -2.0019    1.0000 </r>
       <r>   -1.5468    1.0000 </r>
       <r>   -1.2031    1.0000 </r>
       <r>   -1.0196    1.0000 </r>
       <r>   -0.7036    1.0000 </r>
       <r>   -0.5750    1.0000 </r>
       <r>   -0.2114    1.0000 </r>
       <r>    0.1497    1.0000 </r>
       <r>    0.4650    1.0000 </r>
       <r>    0.8414    1.0000 </r>
       <r>    1.1717    1.0000 </r>
       <r>    9.3318    0.0000 </r>
       <r>   10.1000    0.0000 </r>
       <r>   10.7499    0.0000 </r>
       <r>   10.8797    0.0000 </r>
       <r>   11.5906    0.0000 </r>
      </set>
      <set comment="kpoint 5">
       <r>  -18.1164    1.0000 </r>
       <r>  -17.8721    1.0000 </r>
       <r>  -16.5054    1.0000 </r>
       <r>  -16.1797    1.0000 </r>
       <r>  -16.0578    1.0000 </r>
       <r>  -15.8283    1.0000 </r>
       <r>   -8.2968    1.0000 </r>
       <r>   -5.3469    1.0000 </r>
       <r>   -5.1243    1.0000 </r>
       <r>   -4.5280    1.0000 </r>
       <r>   -4.4815    1.0000 </r>
       <r>   -3.5927    1.0000 </r>
       <r>   -1.7111    1.0000 </r>
       <r>   -1.6822    1.0000 </r>
       <r>   -1.5660    1.0000 </r>
       <r>   -1.1337    1.0000 </r>
       <r>   -0.9424    1.0000 </r>
       <r>   -0.7056    1.0000 </r>
       <r>   -0.6354    1.0000 </r>
       <r>   -0.4567    1.0000 </r>
       <r>   -0.0304    1.0000 </r>
       <r>    0.8907    1.0000 </r>
       <r>    0.9235    1.0000 </r>
       <r>    1.0699    1.0000 </r>
       <r>    9.0343    0.0000 </r>
       <r>    9.0696    0.0000 </r>
       <r>   10.1856    0.0000 </r>
       <r>   10.8246    0.0000 </r>
       <r>   10.8825    0.0000 </r>
      </set>
      <set comment="kpoint 6">
       <r>  -18.0465    1.0000 </r>
       <r>  -17.3447    1.0000 </r>
       <r>  -16.8827    1.0000 </r>
       <r>  -16.4681    1.0000 </r>
       <r>  -16.1966    1.0000 </r>
       <r>  -15.8648    1.0000 </r>
       <r>   -7.2757    1.0000 </r>
       <r>   -6.1383    1.0000 </r>
       <r>   -5.2709    1.0000 </r>
       <r>   -4.3974    1.0000 </r>
       <r>   -3.9372    1.0000 </r>
       <r>   -3.8478    1.0000 </r>
       <r>   -2.2106    1.0000 </r>
       <r>   -2.0773    1.0000 </r>
       <r>   -1.3849    1.0000 </r>
       <r>   -1.1175    1.0000 </r>
       <r>   -1.0035    1.0000 </r>
       <r>   -0.4402    1.0000 </r>
       <r>   -0.2505    1.0000 </r>
       <r>   -0.0807    1.0000 </r>
       <r>    0.2029    1.0000 </r>
       <r>    0.3585    1.0000 </r>
       <r>    0.5806    1.0000 </r>
       <r>    0.9268    1.0000 </r>
       <r>   10.0228    0.0000 </r>
       <r>   10.5272    0.0000 </r>
       <r>   10.7917    0.0000 </r>
       <r>   10.9572    0.0000 </r>
       <r>   11.3023    0.0000 </r>
      </set>
      <set comment="kpoint 7">
       <r>  -17.9296    1.0000 </r>
       <r>  -17.6017    1.0000 </r>
       <r>  -16.7332    1.0000 </r>
       <r>  -16.4498    1.0000 </r>
       <r>  -16.1965    1.0000 </r>
       <r>  -15.8892    1.0000 </r>
       <r>   -7.2197    1.0000 </r>
       <r>   -6.2471    1.0000 </r>
       <r>   -5.3274    1.0000 </r>
       <r>   -4.2632    1.0000 </r>
       <r>   -4.0268    1.0000 </r>
       <r>   -3.7285    1.0000 </r>
       <r>   -2.2427    1.0000 </r>
       <r>   -2.1188    1.0000 </r>
       <r>   -1.4626    1.0000 </r>
       <r>   -1.1241    1.0000 </r>
       <r>   -0.9452    1.0000 </r>
       <r>   -0.4559    1.0000 </r>
       <r>   -0.2000    1.0000 </r>
       <r>   -0.1108    1.0000 </r>
       <r>    0.2088    1.0000 </r>
       <r>    0.4067    1.0000 </r>
       <r>    0.5765    1.0000 </r>
       <r>    0.9332    1.0000 </r>
       <r>   10.0425    0.0000 </r>
       <r>   10.3834    0.0000 </r>
       <r>   10.7430    0.0000 </r>
       <r>   11.0395    0.0000 </r>
       <r>   11.3401    0.0000 </r>
      </set>
      <set comment="kpoint 8">
       <r>  -17.9466    1.0000 </r>
       <r>  -17.5031    1.0000 </r>
       <r>  -16.9367    1.0000 </r>
       <r>  -16.3995    1.0000 </r>
       <r>  -16.1059    1.0000 </r>
       <r>  -15.9068    1.0000 </r>
       <r>   -7.1411    1.0000 </r>
       <r>   -6.3259    1.0000 </r>
       <r>   -5.3655    1.0000 </r>
       <r>   -4.1806    1.0000 </r>
       <r>   -4.0965    1.0000 </r>
       <r>   -3.7390    1.0000 </r>
       <r>   -2.2384    1.0000 </r>
       <r>   -2.1269    1.0000 </r>
       <r>   -1.3244    1.0000 </r>
       <r>   -1.0868    1.0000 </r>
       <r>   -0.9982    1.0000 </r>
       <r>   -0.6035    1.0000 </r>
       <r>   -0.2499    1.0000 </r>
       <r>   -0.0808    1.0000 </r>
       <r>    0.3169    1.0000 </r>
       <r>    0.3622    1.0000 </r>
       <r>    0.5569    1.0000 </r>
       <r>    0.9817    1.0000 </r>
       <r>    9.9731    0.0000 </r>
       <r>   10.5241    0.0000 </r>
       <r>   10.7309    0.0000 </r>
       <r>   10.8617    0.0000 </r>
       <r>   11.3778    0.0000 </r>
      </set>
     </set>
    </set>
   </array>
  </eigenvalues>
  <separator name="orbital magnetization" >
   <v name="MAGDIPOLOUT">      0.00000000      0.00000000      0.00000000</v>
  </separator>
  <dos>
   <i name="efermi">      1.19361005 </i>
   <total>
    <array>
     <dimension dim="1">gridpoints</dimension>
     <dimension dim="2">spin</dimension>
     <field>energy</field>
     <field>total</field>
     <field>integrated</field>
     <set>
      <set comment="spin 1">
       <r>   -20.4559     0.0000     0.0000 </r>
       <r>   -20.3422     0.0000     0.0000 </r>
       <r>   -20.2286     0.0000     0.0000 </r>
       <r>   -20.1149     0.0000     0.0000 </r>
       <r>   -20.0013     0.0000     0.0000 </r>
       <r>   -19.8877     0.0000     0.0000 </r>
       <r>   -19.7740     0.0000     0.0000 </r>
       <r>   -19.6604     0.0000     0.0000 </r>
       <r>   -19.5467     0.0000     0.0000 </r>
       <r>   -19.4331     0.0000     0.0000 </r>
       <r>   -19.3194     0.0000     0.0000 </r>
       <r>   -19.2058     0.0000     0.0000 </r>
       <r>   -19.0921     0.0000     0.0000 </r>
       <r>   -18.9785     0.0000     0.0000 </r>
       <r>   -18.8648     0.0000     0.0000 </r>
       <r>   -18.7512     0.0000     0.0000 </r>
       <r>   -18.6376     0.0000     0.0000 </r>
       <r>   -18.5239     0.0000     0.0000 </r>
       <r>   -18.4103     0.0866     0.0013 </r>
       <r>   -18.2966     1.0549     0.0560 </r>
       <r>   -18.1830     3.0975     0.2818 </r>
       <r>   -18.0693     9.6000     0.8697 </r>
       <r>   -17.9557     3.0205     1.9712 </r>
       <r>   -17.8420     0.0384     2.0004 </r>
       <r>   -17.7284     0.8760     2.0420 </r>
       <r>   -17.6147     2.8084     2.2410 </r>
       <r>   -17.5011     7.9880     2.7766 </r>
       <r>   -17.3875     5.1276     3.6157 </r>
       <r>   -17.2738     1.2845     3.9487 </r>
       <r>   -17.1602     0.0034     4.0000 </r>
       <r>   -17.0465     0.0000     4.0000 </r>
       <r>   -16.9329     0.0383     4.0000 </r>
       <r>   -16.8192    12.4086     4.8238 </r>
       <r>   -16.7056     3.9949     5.7335 </r>
       <r>   -16.5919     0.7461     5.9785 </r>
       <r>   -16.4783     3.3956     6.0701 </r>
       <r>   -16.3646     9.1625     6.9403 </r>
       <r>   -16.2510     5.1983     7.7843 </r>
       <r>   -16.1373    17.8249     8.8002 </r>
       <r>   -16.0237     0.0000    10.0000 </r>
       <r>   -15.9101    27.2997    10.7916 </r>
       <r>   -15.7964     0.0000    12.0000 </r>
       <r>   -15.6828     0.0000    12.0000 </r>
       <r>   -15.5691     0.0000    12.0000 </r>
       <r>   -15.4555     0.0000    12.0000 </r>
       <r>   -15.3418     0.0000    12.0000 </r>
       <r>   -15.2282     0.0000    12.0000 </r>
       <r>   -15.1145     0.0000    12.0000 </r>
       <r>   -15.0009     0.0000    12.0000 </r>
       <r>   -14.8872     0.0000    12.0000 </r>
       <r>   -14.7736     0.0000    12.0000 </r>
       <r>   -14.6600     0.0000    12.0000 </r>
       <r>   -14.5463     0.0000    12.0000 </r>
       <r>   -14.4327     0.0000    12.0000 </r>
       <r>   -14.3190     0.0000    12.0000 </r>
       <r>   -14.2054     0.0000    12.0000 </r>
       <r>   -14.0917     0.0000    12.0000 </r>
       <r>   -13.9781     0.0000    12.0000 </r>
       <r>   -13.8644     0.0000    12.0000 </r>
       <r>   -13.7508     0.0000    12.0000 </r>
       <r>   -13.6371     0.0000    12.0000 </r>
       <r>   -13.5235     0.0000    12.0000 </r>
       <r>   -13.4099     0.0000    12.0000 </r>
       <r>   -13.2962     0.0000    12.0000 </r>
       <r>   -13.1826     0.0000    12.0000 </r>
       <r>   -13.0689     0.0000    12.0000 </r>
       <r>   -12.9553     0.0000    12.0000 </r>
       <r>   -12.8416     0.0000    12.0000 </r>
       <r>   -12.7280     0.0000    12.0000 </r>
       <r>   -12.6143     0.0000    12.0000 </r>
       <r>   -12.5007     0.0000    12.0000 </r>
       <r>   -12.3870     0.0000    12.0000 </r>
       <r>   -12.2734     0.0000    12.0000 </r>
       <r>   -12.1598     0.0000    12.0000 </r>
       <r>   -12.0461     0.0000    12.0000 </r>
       <r>   -11.9325     0.0000    12.0000 </r>
       <r>   -11.8188     0.0000    12.0000 </r>
       <r>   -11.7052     0.0000    12.0000 </r>
       <r>   -11.5915     0.0000    12.0000 </r>
       <r>   -11.4779     0.0000    12.0000 </r>
       <r>   -11.3642     0.0000    12.0000 </r>
       <r>   -11.2506     0.0000    12.0000 </r>
       <r>   -11.1369     0.0000    12.0000 </r>
       <r>   -11.0233     0.0000    12.0000 </r>
       <r>   -10.9096     0.0000    12.0000 </r>
       <r>   -10.7960     0.0000    12.0000 </r>
       <r>   -10.6824     0.0000    12.0000 </r>
       <r>   -10.5687     0.0000    12.0000 </r>
       <r>   -10.4551     0.0000    12.0000 </r>
       <r>   -10.3414     0.0000    12.0000 </r>
       <r>   -10.2278     0.0000    12.0000 </r>
       <r>   -10.1141     0.0000    12.0000 </r>
       <r>   -10.0005     0.0000    12.0000 </r>
       <r>    -9.8868     0.0000    12.0000 </r>
       <r>    -9.7732     0.0000    12.0000 </r>
       <r>    -9.6595     0.0000    12.0000 </r>
       <r>    -9.5459     0.0000    12.0000 </r>
       <r>    -9.4323     0.0000    12.0000 </r>
       <r>    -9.3186     0.0000    12.0000 </r>
       <r>    -9.2050     0.0000    12.0000 </r>
       <r>    -9.0913     0.0000    12.0000 </r>
       <r>    -8.9777     0.0000    12.0000 </r>
       <r>    -8.8640     0.0000    12.0000 </r>
       <r>    -8.7504     0.0000    12.0000 </r>
       <r>    -8.6367     0.0000    12.0000 </r>
       <r>    -8.5231     0.0000    12.0000 </r>
       <r>    -8.4094     0.0000    12.0000 </r>
       <r>    -8.2958     0.0000    12.0000 </r>
       <r>    -8.1822     0.0380    12.0015 </r>
       <r>    -8.0685     0.1508    12.0115 </r>
       <r>    -7.9549     0.3383    12.0386 </r>
       <r>    -7.8412     0.6006    12.0912 </r>
       <r>    -7.7276     0.9375    12.1779 </r>
       <r>    -7.6139     1.3493    12.3071 </r>
       <r>    -7.5003     1.8357    12.4874 </r>
       <r>    -7.3866     2.8991    12.7305 </r>
       <r>    -7.2730     8.1934    13.5637 </r>
       <r>    -7.1593     0.2118    13.9987 </r>
       <r>    -7.0457     0.0216    14.0005 </r>
       <r>    -6.9321     0.1415    14.0088 </r>
       <r>    -6.8184     0.3664    14.0367 </r>
       <r>    -6.7048     0.6964    14.0961 </r>
       <r>    -6.5911     1.1313    14.1989 </r>
       <r>    -6.4775     1.6713    14.3572 </r>
       <r>    -6.3638     3.7807    14.6058 </r>
       <r>    -6.2502     4.5333    15.2186 </r>
       <r>    -6.1365     1.7747    15.5329 </r>
       <r>    -6.0229     1.3006    15.7069 </r>
       <r>    -5.9092     0.9001    15.8313 </r>
       <r>    -5.7956     0.5730    15.9143 </r>
       <r>    -5.6820     0.3195    15.9643 </r>
       <r>    -5.5683     0.1395    15.9897 </r>
       <r>    -5.4547     0.0330    15.9988 </r>
       <r>    -5.3410     0.2617    16.0021 </r>
       <r>    -5.2274     3.1947    16.2127 </r>
       <r>    -5.1137     4.0250    16.6440 </r>
       <r>    -5.0001     3.9259    17.0957 </r>
       <r>    -4.8864     3.6263    17.5329 </r>
       <r>    -4.7728     1.8711    17.8575 </r>
       <r>    -4.6591     0.4729    17.9819 </r>
       <r>    -4.5455     0.5934    18.0070 </r>
       <r>    -4.4318     8.8111    18.4650 </r>
       <r>    -4.3182     9.4657    19.6238 </r>
       <r>    -4.2046     9.0557    20.5902 </r>
       <r>    -4.0909     6.3694    21.6792 </r>
       <r>    -3.9773     1.0278    22.0233 </r>
       <r>    -3.8636     1.9490    22.1668 </r>
       <r>    -3.7500     5.4662    22.5468 </r>
       <r>    -3.6363     7.1086    23.3263 </r>
       <r>    -3.5227     3.0395    23.9626 </r>
       <r>    -3.4090     0.0000    24.0000 </r>
       <r>    -3.2954     0.0000    24.0000 </r>
       <r>    -3.1817     0.0000    24.0000 </r>
       <r>    -3.0681     0.0000    24.0000 </r>
       <r>    -2.9545     0.0000    24.0000 </r>
       <r>    -2.8408     0.0000    24.0000 </r>
       <r>    -2.7272     0.0000    24.0000 </r>
       <r>    -2.6135     0.0000    24.0000 </r>
       <r>    -2.4999     0.0000    24.0000 </r>
       <r>    -2.3862     0.0000    24.0000 </r>
       <r>    -2.2726     0.0000    24.0000 </r>
       <r>    -2.1589     7.5475    24.4187 </r>
       <r>    -2.0453    13.1867    25.7262 </r>
       <r>    -1.9316     9.5448    27.0687 </r>
       <r>    -1.8180     3.7204    27.8312 </r>
       <r>    -1.7044     0.7453    28.0109 </r>
       <r>    -1.5907     6.5713    28.3627 </r>
       <r>    -1.4771     8.1972    29.4694 </r>
       <r>    -1.3634     0.9044    29.9882 </r>
       <r>    -1.2498     9.9241    30.3028 </r>
       <r>    -1.1361    13.3031    31.7174 </r>
       <r>    -1.0225    13.5974    32.2402 </r>
       <r>    -0.9088     4.2087    33.5045 </r>
       <r>    -0.7952     1.9359    33.8454 </r>
       <r>    -0.6815     5.3055    34.0345 </r>
       <r>    -0.5679    13.0974    35.2482 </r>
       <r>    -0.4543     7.7451    36.5644 </r>
       <r>    -0.3406     8.1594    37.4880 </r>
       <r>    -0.2270     4.3993    38.2547 </r>
       <r>    -0.1133     9.4590    38.9979 </r>
       <r>     0.0003     4.4372    39.7958 </r>
       <r>     0.1140     7.2753    40.3442 </r>
       <r>     0.2276    11.2978    41.6584 </r>
       <r>     0.3413     9.5216    42.2838 </r>
       <r>     0.4549     5.0870    43.3317 </r>
       <r>     0.5686     3.0718    43.7336 </r>
       <r>     0.6822     7.0405    44.3715 </r>
       <r>     0.7959     8.1003    45.2522 </r>
       <r>     0.9095     3.5992    46.0369 </r>
       <r>     1.0231    12.2462    47.1654 </r>
       <r>     1.1368     1.1440    47.9867 </r>
       <r>     1.2504     0.0000    48.0000 </r>
       <r>     1.3641     0.0000    48.0000 </r>
       <r>     1.4777     0.0000    48.0000 </r>
       <r>     1.5914     0.0000    48.0000 </r>
       <r>     1.7050     0.0000    48.0000 </r>
       <r>     1.8187     0.0000    48.0000 </r>
       <r>     1.9323     0.0000    48.0000 </r>
       <r>     2.0460     0.0000    48.0000 </r>
       <r>     2.1596     0.0000    48.0000 </r>
       <r>     2.2732     0.0000    48.0000 </r>
       <r>     2.3869     0.0000    48.0000 </r>
       <r>     2.5005     0.0000    48.0000 </r>
       <r>     2.6142     0.0000    48.0000 </r>
       <r>     2.7278     0.0000    48.0000 </r>
       <r>     2.8415     0.0000    48.0000 </r>
       <r>     2.9551     0.0000    48.0000 </r>
       <r>     3.0688     0.0000    48.0000 </r>
       <r>     3.1824     0.0000    48.0000 </r>
       <r>     3.2961     0.0000    48.0000 </r>
       <r>     3.4097     0.0000    48.0000 </r>
       <r>     3.5233     0.0000    48.0000 </r>
       <r>     3.6370     0.0000    48.0000 </r>
       <r>     3.7506     0.0000    48.0000 </r>
       <r>     3.8643     0.0000    48.0000 </r>
       <r>     3.9779     0.0000    48.0000 </r>
       <r>     4.0916     0.0000    48.0000 </r>
       <r>     4.2052     0.0000    48.0000 </r>
       <r>     4.3189     0.0000    48.0000 </r>
       <r>     4.4325     0.0000    48.0000 </r>
       <r>     4.5462     0.0000    48.0000 </r>
       <r>     4.6598     0.0000    48.0000 </r>
       <r>     4.7734     0.0000    48.0000 </r>
       <r>     4.8871     0.0000    48.0000 </r>
       <r>     5.0007     0.0000    48.0000 </r>
       <r>     5.1144     0.0000    48.0000 </r>
       <r>     5.2280     0.0000    48.0000 </r>
       <r>     5.3417     0.0000    48.0000 </r>
       <r>     5.4553     0.0000    48.0000 </r>
       <r>     5.5690     0.0000    48.0000 </r>
       <r>     5.6826     0.0000    48.0000 </r>
       <r>     5.7963     0.0000    48.0000 </r>
       <r>     5.9099     0.0000    48.0000 </r>
       <r>     6.0235     0.0000    48.0000 </r>
       <r>     6.1372     0.0000    48.0000 </r>
       <r>     6.2508     0.0000    48.0000 </r>
       <r>     6.3645     0.0000    48.0000 </r>
       <r>     6.4781     0.0000    48.0000 </r>
       <r>     6.5918     0.0000    48.0000 </r>
       <r>     6.7054     0.0000    48.0000 </r>
       <r>     6.8191     0.0000    48.0000 </r>
       <r>     6.9327     0.0000    48.0000 </r>
       <r>     7.0464     0.0000    48.0000 </r>
       <r>     7.1600     0.0010    48.0000 </r>
       <r>     7.2737     0.0070    48.0004 </r>
       <r>     7.3873     0.0187    48.0018 </r>
       <r>     7.5009     0.0358    48.0049 </r>
       <r>     7.6146     0.0585    48.0102 </r>
       <r>     7.7282     0.0868    48.0184 </r>
       <r>     7.8419     0.1206    48.0301 </r>
       <r>     7.9555     0.1600    48.0460 </r>
       <r>     8.0692     0.2049    48.0667 </r>
       <r>     8.1828     0.2554    48.0928 </r>
       <r>     8.2965     0.3115    48.1250 </r>
       <r>     8.4101     0.3731    48.1638 </r>
       <r>     8.5238     0.4402    48.2100 </r>
       <r>     8.6374     0.5129    48.2641 </r>
       <r>     8.7510     0.5911    48.3268 </r>
       <r>     8.8647     0.6749    48.3986 </r>
       <r>     8.9783     0.7643    48.4804 </r>
       <r>     9.0920     0.8766    48.5729 </r>
       <r>     9.2056     1.1374    48.6856 </r>
       <r>     9.3193     1.5762    48.8382 </r>
       <r>     9.4329     2.4137    49.0964 </r>
       <r>     9.5466     2.4278    49.3718 </r>
       <r>     9.6602     2.4179    49.6473 </r>
       <r>     9.7739     2.3840    49.9204 </r>
       <r>     9.8875     2.3261    50.1883 </r>
       <r>    10.0011     2.0978    50.4469 </r>
       <r>    10.1148     3.5721    50.6839 </r>
       <r>    10.2284     4.4148    51.1493 </r>
       <r>    10.3421     4.3986    51.6569 </r>
       <r>    10.4557     3.8017    52.1262 </r>
       <r>    10.5694     4.1033    52.5346 </r>
       <r>    10.6830     7.0168    53.1473 </r>
       <r>    10.7967     0.0000    54.0000 </r>
       <r>    10.9103    13.7970    54.7904 </r>
       <r>    11.0240     5.3691    55.9591 </r>
       <r>    11.1376     2.3082    56.2576 </r>
       <r>    11.2512     3.3995    56.5828 </r>
       <r>    11.3649     5.5667    57.0609 </r>
       <r>    11.4785     4.1724    57.6276 </r>
       <r>    11.5922     1.4703    57.9776 </r>
       <r>    11.7058     0.0000    58.0000 </r>
       <r>    11.8195     0.0000    58.0000 </r>
       <r>    11.9331     0.0000    58.0000 </r>
       <r>    12.0468     0.0000    58.0000 </r>
       <r>    12.1604     0.0000    58.0000 </r>
       <r>    12.2741     0.0000    58.0000 </r>
       <r>    12.3877     0.0000    58.0000 </r>
       <r>    12.5014     0.0000    58.0000 </r>
       <r>    12.6150     0.0000    58.0000 </r>
       <r>    12.7286     0.0000    58.0000 </r>
       <r>    12.8423     0.0000    58.0000 </r>
       <r>    12.9559     0.0000    58.0000 </r>
       <r>    13.0696     0.0000    58.0000 </r>
       <r>    13.1832     0.0000    58.0000 </r>
       <r>    13.2969     0.0000    58.0000 </r>
       <r>    13.4105     0.0000    58.0000 </r>
       <r>    13.5242     0.0000    58.0000 </r>
       <r>    13.6378     0.0000    58.0000 </r>
      </set>
     </set>
    </array>
   </total>
  </dos>
 </calculation>
 <structure name="finalpos" >
  <crystal>
   <varray name="basis" >
    <v>       4.91370000       0.00000000       0.00000000 </v>
    <v>      -2.45685000       4.25538903       0.00000000 </v>
    <v>       0.00000000       0.00000000       5.40513000 </v>
   </varray>
   <i name="volume">    113.01967420 </i>
   <varray name="rec_basis" >
    <v>       0.20351263       0.11749807       0.00000000 </v>
    <v>       0.00000000       0.23499614       0.00000000 </v>
    <v>       0.00000000       0.00000000       0.18500943 </v>
   </varray>
  </crystal>
  <varray name="positions" >
   <v>       0.46980000       0.02000000       0.66667000 </v>
   <v>       0.00000000       0.46980000       0.33333000 </v>
   <v>       0.53020000       0.53020000       0.00000000 </v>
   <v>       0.41450000       0.26620000       0.78560000 </v>
   <v>       0.73380000       0.14830000       0.45227000 </v>
   <v>       0.85170000       0.58550000       0.11893000 </v>
   <v>       0.14830000       0.73380000       0.54773000 </v>
   <v>       0.26620000       0.41450000       0.21440000 </v>
   <v>       0.58550000       0.85170000       0.88107000 </v>
  </varray>
 </structure>
</modeling>
