  20  20   0   0
  0.2336395E+02  0.5522883E-09  0.3905268E-09  0.2166505E-08  0.5000000E-15
  1.000000000000000E-004
  CAR 
 unknown system                          
      6.50992599    -38.64277292  301     -0.76446209      1.00000000
    -38.643  0.0000E+00  0.0000E+00
    -38.492  0.0000E+00  0.0000E+00
    -38.342  0.0000E+00  0.0000E+00
    -38.191  0.0000E+00  0.0000E+00
    -38.041  0.0000E+00  0.0000E+00
    -37.890  0.0000E+00  0.0000E+00
    -37.740  0.0000E+00  0.0000E+00
    -37.589  0.0000E+00  0.0000E+00
    -37.439  0.0000E+00  0.0000E+00
    -37.288  0.0000E+00  0.0000E+00
    -37.138  0.0000E+00  0.0000E+00
    -36.987  0.0000E+00  0.0000E+00
    -36.837  0.0000E+00  0.0000E+00
    -36.686  0.0000E+00  0.0000E+00
    -36.536  0.0000E+00  0.2000E+01
    -36.385  0.0000E+00  0.2000E+01
    -36.235  0.0000E+00  0.2000E+01
    -36.084  0.0000E+00  0.2000E+01
    -35.934  0.0000E+00  0.2000E+01
    -35.783  0.0000E+00  0.2000E+01
    -35.633  0.0000E+00  0.2000E+01
    -35.482  0.0000E+00  0.2000E+01
    -35.332  0.0000E+00  0.2000E+01
    -35.181  0.0000E+00  0.4000E+01
    -35.031  0.0000E+00  0.4000E+01
    -34.880  0.0000E+00  0.4000E+01
    -34.730  0.0000E+00  0.4000E+01
    -34.579  0.0000E+00  0.4000E+01
    -34.429  0.0000E+00  0.4000E+01
    -34.278  0.0000E+00  0.6000E+01
    -34.128  0.0000E+00  0.6000E+01
    -33.977  0.0000E+00  0.6000E+01
    -33.826  0.0000E+00  0.6000E+01
    -33.676  0.0000E+00  0.6000E+01
    -33.525  0.0000E+00  0.6000E+01
    -33.375  0.0000E+00  0.8000E+01
    -33.224  0.0000E+00  0.8000E+01
    -33.074  0.0000E+00  0.8000E+01
    -32.923  0.0000E+00  0.8000E+01
    -32.773  0.0000E+00  0.8000E+01
    -32.622  0.0000E+00  0.8000E+01
    -32.472  0.0000E+00  0.8000E+01
    -32.321  0.0000E+00  0.8000E+01
    -32.171  0.0000E+00  0.8000E+01
    -32.020  0.0000E+00  0.8000E+01
    -31.870  0.0000E+00  0.8000E+01
    -31.719  0.0000E+00  0.8000E+01
    -31.569  0.0000E+00  0.8000E+01
    -31.418  0.0000E+00  0.8000E+01
    -31.268  0.0000E+00  0.8000E+01
    -31.117  0.0000E+00  0.8000E+01
    -30.967  0.0000E+00  0.8000E+01
    -30.816  0.0000E+00  0.8000E+01
    -30.666  0.0000E+00  0.8000E+01
    -30.515  0.0000E+00  0.8000E+01
    -30.365  0.0000E+00  0.8000E+01
    -30.214  0.0000E+00  0.8000E+01
    -30.064  0.0000E+00  0.8000E+01
    -29.913  0.0000E+00  0.8000E+01
    -29.763  0.0000E+00  0.8000E+01
    -29.612  0.0000E+00  0.8000E+01
    -29.462  0.0000E+00  0.8000E+01
    -29.311  0.0000E+00  0.8000E+01
    -29.161  0.0000E+00  0.8000E+01
    -29.010  0.0000E+00  0.8000E+01
    -28.860  0.0000E+00  0.8000E+01
    -28.709  0.0000E+00  0.8000E+01
    -28.559  0.0000E+00  0.8000E+01
    -28.408  0.0000E+00  0.8000E+01
    -28.258  0.0000E+00  0.8000E+01
    -28.107  0.0000E+00  0.8000E+01
    -27.957  0.0000E+00  0.8000E+01
    -27.806  0.0000E+00  0.8000E+01
    -27.656  0.0000E+00  0.8000E+01
    -27.505  0.0000E+00  0.8000E+01
    -27.355  0.0000E+00  0.8000E+01
    -27.204  0.0000E+00  0.8000E+01
    -27.054  0.0000E+00  0.8000E+01
    -26.903  0.0000E+00  0.8000E+01
    -26.753  0.0000E+00  0.8000E+01
    -26.602  0.0000E+00  0.8000E+01
    -26.452  0.0000E+00  0.8000E+01
    -26.301  0.0000E+00  0.8000E+01
    -26.151  0.0000E+00  0.8000E+01
    -26.000  0.0000E+00  0.8000E+01
    -25.850  0.0000E+00  0.8000E+01
    -25.699  0.0000E+00  0.8000E+01
    -25.548  0.0000E+00  0.8000E+01
    -25.398  0.0000E+00  0.8000E+01
    -25.247  0.0000E+00  0.8000E+01
    -25.097  0.0000E+00  0.8000E+01
    -24.946  0.0000E+00  0.8000E+01
    -24.796  0.0000E+00  0.8000E+01
    -24.645  0.0000E+00  0.8000E+01
    -24.495  0.0000E+00  0.8000E+01
    -24.344  0.0000E+00  0.8000E+01
    -24.194  0.0000E+00  0.8000E+01
    -24.043  0.0000E+00  0.8000E+01
    -23.893  0.0000E+00  0.8000E+01
    -23.742  0.0000E+00  0.8000E+01
    -23.592  0.0000E+00  0.8000E+01
    -23.441  0.0000E+00  0.8000E+01
    -23.291  0.0000E+00  0.8000E+01
    -23.140  0.0000E+00  0.8000E+01
    -22.990  0.0000E+00  0.8000E+01
    -22.839  0.0000E+00  0.8000E+01
    -22.689  0.0000E+00  0.8000E+01
    -22.538  0.0000E+00  0.8000E+01
    -22.388  0.0000E+00  0.8000E+01
    -22.237  0.0000E+00  0.8000E+01
    -22.087  0.0000E+00  0.8000E+01
    -21.936  0.0000E+00  0.8000E+01
    -21.786  0.0000E+00  0.8000E+01
    -21.635  0.0000E+00  0.8000E+01
    -21.485  0.0000E+00  0.8000E+01
    -21.334  0.0000E+00  0.8000E+01
    -21.184  0.0000E+00  0.8000E+01
    -21.033  0.0000E+00  0.8000E+01
    -20.883  0.0000E+00  0.8000E+01
    -20.732  0.0000E+00  0.8000E+01
    -20.582  0.3429E+01  0.8196E+01
    -20.431  0.4166E+01  0.8865E+01
    -20.281  0.5759E+01  0.9794E+01
    -20.130  0.4612E+01  0.1069E+02
    -19.980  0.3382E+01  0.1146E+02
    -19.829  0.2716E+01  0.1185E+02
    -19.679  0.2144E+02  0.1315E+02
    -19.528  0.0000E+00  0.1400E+02
    -19.378  0.0000E+00  0.1400E+02
    -19.227  0.1141E+02  0.1538E+02
    -19.077  0.2129E+02  0.1741E+02
    -18.926  0.0000E+00  0.1800E+02
    -18.776  0.0000E+00  0.1800E+02
    -18.625  0.6440E+01  0.1978E+02
    -18.475  0.1497E+02  0.2285E+02
    -18.324  0.1166E+02  0.2624E+02
    -18.174  0.1710E+02  0.2836E+02
    -18.023  0.0000E+00  0.3000E+02
    -17.873  0.0000E+00  0.3000E+02
    -17.722  0.5466E+01  0.3150E+02
    -17.572  0.0000E+00  0.3200E+02
    -17.421  0.1085E+01  0.3201E+02
    -17.270  0.2981E+02  0.3328E+02
    -17.120  0.1958E+02  0.3691E+02
    -16.969  0.0000E+00  0.4000E+02
    -16.819  0.0000E+00  0.4000E+02
    -16.668  0.0000E+00  0.4000E+02
    -16.518  0.9518E+01  0.4151E+02
    -16.367  0.2786E+01  0.4221E+02
    -16.217  0.2160E+02  0.4516E+02
    -16.066  0.1184E+02  0.4833E+02
    -15.916  0.0000E+00  0.5000E+02
    -15.765  0.0000E+00  0.5000E+02
    -15.615  0.0000E+00  0.5000E+02
    -15.464  0.3390E+01  0.5015E+02
    -15.314  0.3754E+01  0.5245E+02
    -15.163  0.1033E+02  0.5422E+02
    -15.013  0.0000E+00  0.5600E+02
    -14.862  0.0000E+00  0.5600E+02
    -14.712  0.0000E+00  0.5600E+02
    -14.561  0.0000E+00  0.5600E+02
    -14.411  0.0000E+00  0.5600E+02
    -14.260  0.0000E+00  0.5600E+02
    -14.110  0.0000E+00  0.5600E+02
    -13.959  0.0000E+00  0.5600E+02
    -13.809  0.0000E+00  0.5600E+02
    -13.658  0.0000E+00  0.5600E+02
    -13.508  0.0000E+00  0.5600E+02
    -13.357  0.0000E+00  0.5600E+02
    -13.207  0.0000E+00  0.5600E+02
    -13.056  0.0000E+00  0.5600E+02
    -12.906  0.0000E+00  0.5600E+02
    -12.755  0.0000E+00  0.5600E+02
    -12.605  0.0000E+00  0.5600E+02
    -12.454  0.0000E+00  0.5600E+02
    -12.304  0.0000E+00  0.5600E+02
    -12.153  0.0000E+00  0.5600E+02
    -12.003  0.0000E+00  0.5600E+02
    -11.852  0.0000E+00  0.5600E+02
    -11.702  0.0000E+00  0.5600E+02
    -11.551  0.0000E+00  0.5600E+02
    -11.401  0.0000E+00  0.5600E+02
    -11.250  0.0000E+00  0.5600E+02
    -11.100  0.0000E+00  0.5600E+02
    -10.949  0.0000E+00  0.5600E+02
    -10.799  0.0000E+00  0.5600E+02
    -10.648  0.0000E+00  0.5600E+02
    -10.498  0.0000E+00  0.5600E+02
    -10.347  0.0000E+00  0.5600E+02
    -10.197  0.0000E+00  0.5600E+02
    -10.046  0.0000E+00  0.5600E+02
     -9.896  0.0000E+00  0.5600E+02
     -9.745  0.0000E+00  0.5600E+02
     -9.595  0.0000E+00  0.5600E+02
     -9.444  0.0000E+00  0.5600E+02
     -9.294  0.0000E+00  0.5600E+02
     -9.143  0.0000E+00  0.5600E+02
     -8.993  0.0000E+00  0.5600E+02
     -8.842  0.0000E+00  0.5600E+02
     -8.691  0.0000E+00  0.5600E+02
     -8.541  0.0000E+00  0.5600E+02
     -8.390  0.0000E+00  0.5600E+02
     -8.240  0.0000E+00  0.5600E+02
     -8.089  0.0000E+00  0.5600E+02
     -7.939  0.0000E+00  0.5600E+02
     -7.788  0.0000E+00  0.5600E+02
     -7.638  0.0000E+00  0.5600E+02
     -7.487  0.9716E+00  0.5638E+02
     -7.337  0.9711E+00  0.5653E+02
     -7.186  0.9705E+00  0.5668E+02
     -7.036  0.5229E+01  0.5707E+02
     -6.885  0.8554E+01  0.5882E+02
     -6.735  0.1709E+02  0.6041E+02
     -6.584  0.7982E+01  0.6279E+02
     -6.434  0.7054E+01  0.6431E+02
     -6.283  0.6419E+01  0.6538E+02
     -6.133  0.6413E+01  0.6628E+02
     -5.982  0.1633E+02  0.6765E+02
     -5.832  0.1906E+02  0.6962E+02
     -5.681  0.1157E+02  0.7142E+02
     -5.531  0.1045E+02  0.7347E+02
     -5.380  0.1304E+02  0.7543E+02
     -5.230  0.1455E+02  0.7750E+02
     -5.079  0.1347E+02  0.7995E+02
     -4.929  0.1432E+02  0.8213E+02
     -4.778  0.1530E+02  0.8409E+02
     -4.628  0.1537E+02  0.8655E+02
     -4.477  0.8573E+01  0.8803E+02
     -4.327  0.1331E+02  0.8957E+02
     -4.176  0.2090E+02  0.9165E+02
     -4.026  0.1235E+02  0.9458E+02
     -3.875  0.8559E+01  0.9623E+02
     -3.725  0.1626E+02  0.9854E+02
     -3.574  0.9919E+01  0.1001E+03
     -3.424  0.9664E+01  0.1020E+03
     -3.273  0.6441E+01  0.1032E+03
     -3.123  0.8873E+01  0.1044E+03
     -2.972  0.1137E+02  0.1060E+03
     -2.822  0.2900E+02  0.1090E+03
     -2.671  0.9613E+01  0.1108E+03
     -2.521  0.6687E+01  0.1118E+03
     -2.370  0.7310E+01  0.1123E+03
     -2.220  0.5084E+01  0.1137E+03
     -2.069  0.1035E+02  0.1153E+03
     -1.919  0.2030E+02  0.1172E+03
     -1.768  0.1333E+01  0.1180E+03
     -1.618  0.5683E+01  0.1191E+03
     -1.467  0.3056E+01  0.1198E+03
     -1.317  0.7267E+01  0.1205E+03
     -1.166  0.6100E+01  0.1225E+03
     -1.016  0.1145E+02  0.1240E+03
     -0.865  0.2833E+02  0.1262E+03
     -0.715  0.2437E+02  0.1295E+03
     -0.564  0.7431E+01  0.1313E+03
     -0.413  0.7064E+01  0.1324E+03
     -0.263  0.6222E+01  0.1337E+03
     -0.112  0.3912E+01  0.1343E+03
      0.038  0.2740E+01  0.1348E+03
      0.189  0.3191E+01  0.1357E+03
      0.339  0.6221E+01  0.1363E+03
      0.490  0.8545E+01  0.1375E+03
      0.640  0.5472E+01  0.1385E+03
      0.791  0.7956E+01  0.1399E+03
      0.941  0.6408E+01  0.1410E+03
      1.092  0.4087E+01  0.1421E+03
      1.242  0.3470E+01  0.1426E+03
      1.393  0.7040E+01  0.1434E+03
      1.543  0.3162E+01  0.1443E+03
      1.694  0.4145E+01  0.1449E+03
      1.844  0.7826E+01  0.1458E+03
      1.995  0.3628E+01  0.1466E+03
      2.145  0.3097E+01  0.1471E+03
      2.296  0.7256E+00  0.1477E+03
      2.446  0.6229E+00  0.1478E+03
      2.597  0.5202E+00  0.1479E+03
      2.747  0.5058E+01  0.1483E+03
      2.898  0.2719E+01  0.1488E+03
      3.048  0.2880E+01  0.1492E+03
      3.199  0.3568E+01  0.1502E+03
      3.349  0.3126E+01  0.1507E+03
      3.500  0.4543E+01  0.1513E+03
      3.650  0.5561E+00  0.1515E+03
      3.801  0.4961E+00  0.1515E+03
      3.951  0.4362E+00  0.1516E+03
      4.102  0.3971E+00  0.1517E+03
      4.252  0.1416E+01  0.1519E+03
      4.403  0.3775E+00  0.1520E+03
      4.553  0.0000E+00  0.1520E+03
      4.704  0.0000E+00  0.1520E+03
      4.854  0.0000E+00  0.1520E+03
      5.005  0.0000E+00  0.1520E+03
      5.155  0.0000E+00  0.1520E+03
      5.306  0.0000E+00  0.1520E+03
      5.456  0.0000E+00  0.1520E+03
      5.607  0.0000E+00  0.1520E+03
      5.757  0.0000E+00  0.1520E+03
      5.908  0.0000E+00  0.1520E+03
      6.058  0.0000E+00  0.1520E+03
      6.209  0.0000E+00  0.1520E+03
      6.359  0.0000E+00  0.1520E+03
      6.510  0.0000E+00  0.1520E+03
