   20   20    1    1
  0.2336395E+02  0.5522883E-09  0.3905268E-09  0.2166505E-08  0.5000000E-15
  1.000000000000000E-004
  CAR 
 unknown system                          
    128     12     76
 
  0.0000000E+00  0.0000000E+00  0.0000000E+00  0.2857143E-01
    1      -36.590378   1.000000
    2      -35.266033   1.000000
    3      -34.306090   1.000000
    4      -33.417346   1.000000
    5      -20.504943   1.000000
    6      -20.033814   1.000000
    7      -19.847630   1.000000
    8      -19.357463   1.000000
    9      -19.046279   1.000000
   10      -18.679750   1.000000
   11      -18.589200   1.000000
   12      -18.534507   1.000000
   13      -18.517283   1.000000
   14      -18.345159   1.000000
   15      -18.093317   1.000000
   16      -17.827314   1.000000
   17      -17.309115   1.000000
   18      -17.290651   1.000000
   19      -17.132101   1.000000
   20      -17.051012   1.000000
   21      -16.519792   1.000000
   22      -16.344534   1.000000
   23      -16.291745   1.000000
   24      -16.159212   1.000000
   25      -16.091573   1.000000
   26      -15.436689   1.000000
   27      -15.169187   1.000000
   28      -15.118175   1.000000
   29       -7.106044   1.000000
   30       -6.795714   1.000000
   31       -6.631151   1.000000
   32       -6.005666   1.000000
   33       -5.888917   1.000000
   34       -5.536569   1.000000
   35       -5.441960   1.000000
   36       -5.296312   1.000000
   37       -5.140123   1.000000
   38       -5.057758   1.000000
   39       -4.998053   1.000000
   40       -4.857497   1.000000
   41       -4.763092   1.000000
   42       -4.580797   1.000000
   43       -4.246302   1.000000
   44       -4.121895   1.000000
   45       -4.080295   1.000000
   46       -3.992261   1.000000
   47       -3.805563   1.000000
   48       -3.767247   1.000000
   49       -3.543078   1.000000
   50       -3.249708   1.000000
   51       -3.016139   1.000000
   52       -2.923858   1.000000
   53       -2.909118   1.000000
   54       -2.697844   1.000000
   55       -2.664769   1.000000
   56       -2.390136   1.000000
   57       -2.295788   1.000000
   58       -1.953404   1.000000
   59       -1.914739   1.000000
   60       -1.369754   1.000000
   61       -1.342604   1.000000
   62       -1.087033   1.000000
   63       -1.079626   1.000000
   64       -1.035453   1.000000
   65       -0.866137   1.117850
   66       -0.775458   0.185192
   67       -0.750264   0.000000
   68       -0.513831   0.000000
   69        0.072643   0.000000
   70        0.290344   0.000000
   71        0.387233   0.000000
   72        0.651085   0.000000
   73        1.348716   0.000000
   74        2.669881   0.000000
   75        4.007920   0.000000
   76        4.147724   0.000000
 
  0.2000000E+00  0.0000000E+00  0.0000000E+00  0.5714286E-01
    1      -36.590077   1.000000
    2      -35.265701   1.000000
    3      -34.305764   1.000000
    4      -33.417082   1.000000
    5      -20.564730   1.000000
    6      -20.190846   1.000000
    7      -19.719360   1.000000
    8      -19.346021   1.000000
    9      -19.125648   1.000000
   10      -18.715437   1.000000
   11      -18.589534   1.000000
   12      -18.467863   1.000000
   13      -18.400391   1.000000
   14      -18.352395   1.000000
   15      -18.163959   1.000000
   16      -17.793800   1.000000
   17      -17.309751   1.000000
   18      -17.276327   1.000000
   19      -17.091890   1.000000
   20      -17.058600   1.000000
   21      -16.492101   1.000000
   22      -16.345211   1.000000
   23      -16.292546   1.000000
   24      -16.135176   1.000000
   25      -16.031529   1.000000
   26      -15.437607   1.000000
   27      -15.174966   1.000000
   28      -15.099419   1.000000
   29       -6.935885   1.000000
   30       -6.752448   1.000000
   31       -6.660553   1.000000
   32       -5.978178   1.000000
   33       -5.748048   1.000000
   34       -5.608691   1.000000
   35       -5.536384   1.000000
   36       -5.337082   1.000000
   37       -5.173598   1.000000
   38       -5.129153   1.000000
   39       -4.924232   1.000000
   40       -4.772300   1.000000
   41       -4.691205   1.000000
   42       -4.639395   1.000000
   43       -4.368339   1.000000
   44       -4.343832   1.000000
   45       -4.078201   1.000000
   46       -4.035365   1.000000
   47       -3.956158   1.000000
   48       -3.739615   1.000000
   49       -3.505208   1.000000
   50       -3.361633   1.000000
   51       -3.187949   1.000000
   52       -3.028193   1.000000
   53       -2.935378   1.000000
   54       -2.792162   1.000000
   55       -2.612219   1.000000
   56       -2.520961   1.000000
   57       -2.301845   1.000000
   58       -2.202369   1.000000
   59       -1.891170   1.000000
   60       -1.411810   1.000000
   61       -1.388431   1.000000
   62       -1.100723   1.000000
   63       -1.073555   1.000000
   64       -0.960225   1.000000
   65       -0.868029   1.081157
   66       -0.739212   0.039951
   67       -0.722426   0.000000
   68       -0.616616   0.000000
   69        0.091447   0.000000
   70        0.328461   0.000000
   71        0.364940   0.000000
   72        0.815516   0.000000
   73        1.299094   0.000000
   74        2.647600   0.000000
   75        2.725509   0.000000
   76        4.221038   0.000000
 
  0.4000000E+00  0.0000000E+00  0.0000000E+00  0.5714286E-01
    1      -36.589589   1.000000
    2      -35.265164   1.000000
    3      -34.305235   1.000000
    4      -33.416654   1.000000
    5      -20.665578   1.000000
    6      -20.303464   1.000000
    7      -19.669869   1.000000
    8      -19.303315   1.000000
    9      -19.231584   1.000000
   10      -18.726471   1.000000
   11      -18.590076   1.000000
   12      -18.382518   1.000000
   13      -18.346856   1.000000
   14      -18.295228   1.000000
   15      -18.229477   1.000000
   16      -17.770400   1.000000
   17      -17.310780   1.000000
   18      -17.262786   1.000000
   19      -17.063047   1.000000
   20      -17.025147   1.000000
   21      -16.421992   1.000000
   22      -16.346307   1.000000
   23      -16.312798   1.000000
   24      -16.062314   1.000000
   25      -15.986273   1.000000
   26      -15.439092   1.000000
   27      -15.176016   1.000000
   28      -15.062629   1.000000
   29       -6.824355   1.000000
   30       -6.706869   1.000000
   31       -6.300750   1.000000
   32       -5.917907   1.000000
   33       -5.820230   1.000000
   34       -5.668656   1.000000
   35       -5.609479   1.000000
   36       -5.490453   1.000000
   37       -5.306653   1.000000
   38       -5.104246   1.000000
   39       -4.801864   1.000000
   40       -4.781768   1.000000
   41       -4.686970   1.000000
   42       -4.635296   1.000000
   43       -4.569057   1.000000
   44       -4.498254   1.000000
   45       -4.129674   1.000000
   46       -4.111858   1.000000
   47       -3.896639   1.000000
   48       -3.889209   1.000000
   49       -3.673109   1.000000
   50       -3.514579   1.000000
   51       -3.349156   1.000000
   52       -3.107688   1.000000
   53       -3.067922   1.000000
   54       -3.005760   1.000000
   55       -2.762561   1.000000
   56       -2.506502   1.000000
   57       -2.364989   1.000000
   58       -2.316262   1.000000
   59       -1.746360   1.000000
   60       -1.548165   1.000000
   61       -1.458733   1.000000
   62       -1.197451   1.000000
   63       -1.060954   1.000000
   64       -1.026174   1.000000
   65       -0.846434   1.012452
   66       -0.809432   0.589147
   67       -0.738082   0.000000
   68       -0.394415   0.000000
   69        0.051159   0.000000
   70        0.317473   0.000000
   71        0.396597   0.000000
   72        1.278898   0.000000
   73        1.328914   0.000000
   74        1.814145   0.000000
   75        2.612124   0.000000
   76        2.746815   0.000000
 
  0.0000000E+00  0.1428571E+00  0.0000000E+00  0.5714286E-01
    1      -36.586949   1.000000
    2      -35.262121   1.000000
    3      -34.302188   1.000000
    4      -33.413504   1.000000
    5      -20.450711   1.000000
    6      -19.993210   1.000000
    7      -19.800690   1.000000
    8      -19.313464   1.000000
    9      -19.064049   1.000000
   10      -18.634895   1.000000
   11      -18.604238   1.000000
   12      -18.547742   1.000000
   13      -18.496711   1.000000
   14      -18.306390   1.000000
   15      -18.108508   1.000000
   16      -17.786453   1.000000
   17      -17.281814   1.000000
   18      -17.237465   1.000000
   19      -17.181273   1.000000
   20      -17.066411   1.000000
   21      -16.567009   1.000000
   22      -16.303586   1.000000
   23      -16.264241   1.000000
   24      -16.202813   1.000000
   25      -16.109119   1.000000
   26      -15.385997   1.000000
   27      -15.200312   1.000000
   28      -15.183010   1.000000
   29       -7.048053   1.000000
   30       -6.725757   1.000000
   31       -6.625423   1.000000
   32       -6.331860   1.000000
   33       -5.856945   1.000000
   34       -5.830714   1.000000
   35       -5.540738   1.000000
   36       -5.495458   1.000000
   37       -5.282468   1.000000
   38       -5.218838   1.000000
   39       -5.052546   1.000000
   40       -4.979729   1.000000
   41       -4.866938   1.000000
   42       -4.622208   1.000000
   43       -4.423472   1.000000
   44       -4.420625   1.000000
   45       -4.077308   1.000000
   46       -4.066993   1.000000
   47       -4.020909   1.000000
   48       -3.725737   1.000000
   49       -3.705222   1.000000
   50       -3.354584   1.000000
   51       -3.168152   1.000000
   52       -3.069503   1.000000
   53       -2.934505   1.000000
   54       -2.821794   1.000000
   55       -2.702634   1.000000
   56       -2.558681   1.000000
   57       -2.339422   1.000000
   58       -2.002816   1.000000
   59       -1.974566   1.000000
   60       -1.501760   1.000000
   61       -1.311083   1.000000
   62       -1.094787   1.000000
   63       -0.971863   1.000000
   64       -0.964130   1.038368
   65       -0.744752   0.261519
   66       -0.652232  -0.029961
   67       -0.520446   0.000000
   68       -0.463031   0.000000
   69        0.131333   0.000000
   70        0.488380   0.000000
   71        0.568779   0.000000
   72        0.681366   0.000000
   73        1.487710   0.000000
   74        1.702969   0.000000
   75        2.804809   0.000000
   76        4.228528   0.000000
 
  0.2000000E+00  0.1428571E+00  0.0000000E+00  0.1142857E+00
    1      -36.586680   1.000000
    2      -35.261829   1.000000
    3      -34.301901   1.000000
    4      -33.413275   1.000000
    5      -20.491080   1.000000
    6      -20.147381   1.000000
    7      -19.695587   1.000000
    8      -19.311313   1.000000
    9      -19.112729   1.000000
   10      -18.707133   1.000000
   11      -18.587370   1.000000
   12      -18.484578   1.000000
   13      -18.382391   1.000000
   14      -18.319904   1.000000
   15      -18.162193   1.000000
   16      -17.774917   1.000000
   17      -17.277277   1.000000
   18      -17.237306   1.000000
   19      -17.124552   1.000000
   20      -17.082277   1.000000
   21      -16.538945   1.000000
   22      -16.314485   1.000000
   23      -16.260179   1.000000
   24      -16.173539   1.000000
   25      -16.044071   1.000000
   26      -15.381089   1.000000
   27      -15.212461   1.000000
   28      -15.141447   1.000000
   29       -6.912099   1.000000
   30       -6.704150   1.000000
   31       -6.650652   1.000000
   32       -6.313480   1.000000
   33       -5.951363   1.000000
   34       -5.760592   1.000000
   35       -5.602616   1.000000
   36       -5.502736   1.000000
   37       -5.332396   1.000000
   38       -5.172719   1.000000
   39       -5.050901   1.000000
   40       -4.969928   1.000000
   41       -4.819829   1.000000
   42       -4.650790   1.000000
   43       -4.576731   1.000000
   44       -4.413180   1.000000
   45       -4.350483   1.000000
   46       -4.054366   1.000000
   47       -3.930836   1.000000
   48       -3.820009   1.000000
   49       -3.688731   1.000000
   50       -3.478780   1.000000
   51       -3.165053   1.000000
   52       -3.087517   1.000000
   53       -3.023112   1.000000
   54       -2.959590   1.000000
   55       -2.843584   1.000000
   56       -2.536468   1.000000
   57       -2.364936   1.000000
   58       -2.184304   1.000000
   59       -1.938069   1.000000
   60       -1.621896   1.000000
   61       -1.306331   1.000000
   62       -1.098913   1.000000
   63       -0.970205   1.000000
   64       -0.934089   1.017872
   65       -0.727925   0.309641
   66       -0.709443  -0.013540
   67       -0.527460   0.000000
   68       -0.415172   0.000000
   69        0.172724   0.000000
   70        0.519489   0.000000
   71        0.554343   0.000000
   72        0.836886   0.000000
   73        1.447535   0.000000
   74        1.455799   0.000000
   75        2.772145   0.000000
   76        4.457531   0.000000
 
  0.4000000E+00  0.1428571E+00  0.0000000E+00  0.1142857E+00
    1      -36.586246   1.000000
    2      -35.261356   1.000000
    3      -34.301435   1.000000
    4      -33.412905   1.000000
    5      -20.573940   1.000000
    6      -20.251971   1.000000
    7      -19.666559   1.000000
    8      -19.298775   1.000000
    9      -19.181819   1.000000
   10      -18.735264   1.000000
   11      -18.577209   1.000000
   12      -18.372073   1.000000
   13      -18.333427   1.000000
   14      -18.308630   1.000000
   15      -18.215206   1.000000
   16      -17.775570   1.000000
   17      -17.258211   1.000000
   18      -17.243386   1.000000
   19      -17.096236   1.000000
   20      -17.045899   1.000000
   21      -16.473660   1.000000
   22      -16.333474   1.000000
   23      -16.256108   1.000000
   24      -16.099707   1.000000
   25      -15.999668   1.000000
   26      -15.363454   1.000000
   27      -15.203624   1.000000
   28      -15.091950   1.000000
   29       -6.841085   1.000000
   30       -6.714244   1.000000
   31       -6.415793   1.000000
   32       -6.293361   1.000000
   33       -6.021056   1.000000
   34       -5.780440   1.000000
   35       -5.594313   1.000000
   36       -5.527678   1.000000
   37       -5.444665   1.000000
   38       -5.281992   1.000000
   39       -5.067444   1.000000
   40       -4.945890   1.000000
   41       -4.818793   1.000000
   42       -4.720942   1.000000
   43       -4.678133   1.000000
   44       -4.519628   1.000000
   45       -4.343934   1.000000
   46       -4.136376   1.000000
   47       -3.962275   1.000000
   48       -3.816943   1.000000
   49       -3.778767   1.000000
   50       -3.545238   1.000000
   51       -3.474430   1.000000
   52       -3.222943   1.000000
   53       -3.107859   1.000000
   54       -2.987271   1.000000
   55       -2.886258   1.000000
   56       -2.815386   1.000000
   57       -2.426361   1.000000
   58       -2.147248   1.000000
   59       -1.862484   1.000000
   60       -1.698834   1.000000
   61       -1.298051   1.000000
   62       -1.245893   1.000000
   63       -1.104108   1.000000
   64       -0.928814   1.000000
   65       -0.873811   1.062521
   66       -0.615536  -0.058029
   67       -0.367368   0.000000
   68       -0.328616   0.000000
   69        0.166524   0.000000
   70        0.528145   0.000000
   71        0.584804   0.000000
   72        1.001734   0.000000
   73        1.443537   0.000000
   74        1.775692   0.000000
   75        2.719093   0.000000
   76        2.821436   0.000000
 
  0.0000000E+00  0.2857143E+00  0.0000000E+00  0.5714286E-01
    1      -36.579229   1.000000
    2      -35.253311   1.000000
    3      -34.293400   1.000000
    4      -33.404849   1.000000
    5      -20.384934   1.000000
    6      -19.868783   1.000000
    7      -19.681352   1.000000
    8      -19.219716   1.000000
    9      -19.090778   1.000000
   10      -18.633695   1.000000
   11      -18.581045   1.000000
   12      -18.517825   1.000000
   13      -18.446782   1.000000
   14      -18.220400   1.000000
   15      -18.116716   1.000000
   16      -17.682120   1.000000
   17      -17.306851   1.000000
   18      -17.221533   1.000000
   19      -17.170862   1.000000
   20      -17.046042   1.000000
   21      -16.633517   1.000000
   22      -16.358810   1.000000
   23      -16.216065   1.000000
   24      -16.138248   1.000000
   25      -16.134595   1.000000
   26      -15.373911   1.000000
   27      -15.348170   1.000000
   28      -15.197425   1.000000
   29       -6.991130   1.000000
   30       -6.928672   1.000000
   31       -6.610173   1.000000
   32       -6.528287   1.000000
   33       -6.369351   1.000000
   34       -6.274726   1.000000
   35       -6.006201   1.000000
   36       -5.794199   1.000000
   37       -5.561472   1.000000
   38       -5.459497   1.000000
   39       -5.301718   1.000000
   40       -5.172590   1.000000
   41       -5.045936   1.000000
   42       -4.983881   1.000000
   43       -4.739639   1.000000
   44       -4.527880   1.000000
   45       -4.517034   1.000000
   46       -4.247075   1.000000
   47       -4.181208   1.000000
   48       -3.989536   1.000000
   49       -3.904307   1.000000
   50       -3.709872   1.000000
   51       -3.411223   1.000000
   52       -3.368574   1.000000
   53       -2.972966   1.000000
   54       -2.813730   1.000000
   55       -2.768252   1.000000
   56       -2.695663   1.000000
   57       -2.264047   1.000000
   58       -2.141010   1.000000
   59       -1.983833   1.000000
   60       -1.499738   1.000000
   61       -1.294400   1.000000
   62       -0.985069   1.000000
   63       -0.812505   1.038815
   64       -0.739413   0.390932
   65       -0.691628   0.000000
   66       -0.535066   0.000000
   67       -0.304179   0.000000
   68        0.165150   0.000000
   69        0.373802   0.000000
   70        0.734689   0.000000
   71        0.978938   0.000000
   72        1.019444   0.000000
   73        1.838034   0.000000
   74        1.885324   0.000000
   75        3.151982   0.000000
   76        3.166026   0.000000
 
  0.2000000E+00  0.2857143E+00  0.0000000E+00  0.1142857E+00
    1      -36.579033   1.000000
    2      -35.253108   1.000000
    3      -34.293200   1.000000
    4      -33.404702   1.000000
    5      -20.363508   1.000000
    6      -20.029380   1.000000
    7      -19.647790   1.000000
    8      -19.235830   1.000000
    9      -19.090736   1.000000
   10      -18.627145   1.000000
   11      -18.585599   1.000000
   12      -18.506348   1.000000
   13      -18.381301   1.000000
   14      -18.235512   1.000000
   15      -18.145762   1.000000
   16      -17.717783   1.000000
   17      -17.265795   1.000000
   18      -17.175635   1.000000
   19      -17.158715   1.000000
   20      -17.087988   1.000000
   21      -16.609423   1.000000
   22      -16.295792   1.000000
   23      -16.232664   1.000000
   24      -16.175521   1.000000
   25      -16.041909   1.000000
   26      -15.376201   1.000000
   27      -15.298567   1.000000
   28      -15.156361   1.000000
   29       -6.971250   1.000000
   30       -6.894234   1.000000
   31       -6.692644   1.000000
   32       -6.551818   1.000000
   33       -6.415083   1.000000
   34       -6.277809   1.000000
   35       -6.018919   1.000000
   36       -5.798627   1.000000
   37       -5.634331   1.000000
   38       -5.410176   1.000000
   39       -5.354249   1.000000
   40       -5.184086   1.000000
   41       -5.042628   1.000000
   42       -4.963729   1.000000
   43       -4.834915   1.000000
   44       -4.699636   1.000000
   45       -4.384844   1.000000
   46       -4.281898   1.000000
   47       -4.143429   1.000000
   48       -4.061572   1.000000
   49       -3.877112   1.000000
   50       -3.763400   1.000000
   51       -3.542252   1.000000
   52       -3.348756   1.000000
   53       -3.155943   1.000000
   54       -2.893601   1.000000
   55       -2.884887   1.000000
   56       -2.550619   1.000000
   57       -2.325097   1.000000
   58       -2.084586   1.000000
   59       -2.032158   1.000000
   60       -1.658972   1.000000
   61       -1.258946   1.000000
   62       -0.965105   1.000000
   63       -0.829775   1.033082
   64       -0.791804   0.878988
   65       -0.712867   0.022342
   66       -0.548318   0.000000
   67       -0.222726   0.000000
   68        0.198383   0.000000
   69        0.417137   0.000000
   70        0.873146   0.000000
   71        0.992210   0.000000
   72        1.016457   0.000000
   73        1.841542   0.000000
   74        1.864987   0.000000
   75        3.108956   0.000000
   76        3.123714   0.000000
 
  0.4000000E+00  0.2857143E+00  0.0000000E+00  0.1142857E+00
    1      -36.578716   1.000000
    2      -35.252777   1.000000
    3      -34.292876   1.000000
    4      -33.404461   1.000000
    5      -20.350069   1.000000
    6      -20.152410   1.000000
    7      -19.700777   1.000000
    8      -19.283203   1.000000
    9      -19.053675   1.000000
   10      -18.724400   1.000000
   11      -18.550302   1.000000
   12      -18.385350   1.000000
   13      -18.344285   1.000000
   14      -18.279098   1.000000
   15      -18.133012   1.000000
   16      -17.803187   1.000000
   17      -17.226275   1.000000
   18      -17.182803   1.000000
   19      -17.110930   1.000000
   20      -17.064122   1.000000
   21      -16.553581   1.000000
   22      -16.311548   1.000000
   23      -16.172719   1.000000
   24      -16.133459   1.000000
   25      -16.008645   1.000000
   26      -15.379317   1.000000
   27      -15.174145   1.000000
   28      -15.117333   1.000000
   29       -7.033947   1.000000
   30       -6.941283   1.000000
   31       -6.693115   1.000000
   32       -6.620593   1.000000
   33       -6.495885   1.000000
   34       -6.068699   1.000000
   35       -6.018907   1.000000
   36       -5.854819   1.000000
   37       -5.731461   1.000000
   38       -5.469685   1.000000
   39       -5.333016   1.000000
   40       -5.214673   1.000000
   41       -5.193236   1.000000
   42       -5.069606   1.000000
   43       -4.904491   1.000000
   44       -4.737356   1.000000
   45       -4.240843   1.000000
   46       -4.231700   1.000000
   47       -4.148928   1.000000
   48       -4.088069   1.000000
   49       -3.945253   1.000000
   50       -3.812777   1.000000
   51       -3.682584   1.000000
   52       -3.478943   1.000000
   53       -3.438691   1.000000
   54       -2.915953   1.000000
   55       -2.878832   1.000000
   56       -2.838497   1.000000
   57       -2.151364   1.000000
   58       -2.047047   1.000000
   59       -1.994463   1.000000
   60       -1.736162   1.000000
   61       -1.242939   1.000000
   62       -1.202170   1.000000
   63       -0.942811   1.005355
   64       -0.798406   0.993031
   65       -0.777715   0.530344
   66       -0.335864   0.000000
   67       -0.172452   0.000000
   68        0.258407   0.000000
   69        0.464508   0.000000
   70        0.999989   0.000000
   71        1.024678   0.000000
   72        1.052039   0.000000
   73        1.833577   0.000000
   74        1.884368   0.000000
   75        3.068801   0.000000
   76        3.150828   0.000000
 
  0.0000000E+00  0.4285714E+00  0.0000000E+00  0.5714286E-01
    1      -36.573021   1.000000
    2      -35.246223   1.000000
    3      -34.286328   1.000000
    4      -33.397885   1.000000
    5      -20.393003   1.000000
    6      -19.718419   1.000000
    7      -19.563843   1.000000
    8      -19.192337   1.000000
    9      -19.072261   1.000000
   10      -18.723343   1.000000
   11      -18.543629   1.000000
   12      -18.404892   1.000000
   13      -18.397904   1.000000
   14      -18.188119   1.000000
   15      -18.063121   1.000000
   16      -17.577528   1.000000
   17      -17.432743   1.000000
   18      -17.201075   1.000000
   19      -17.156822   1.000000
   20      -16.979672   1.000000
   21      -16.636727   1.000000
   22      -16.482208   1.000000
   23      -16.179906   1.000000
   24      -16.109519   1.000000
   25      -16.003156   1.000000
   26      -15.525244   1.000000
   27      -15.456162   1.000000
   28      -15.131697   1.000000
   29       -7.572520   1.000000
   30       -6.976855   1.000000
   31       -6.709241   1.000000
   32       -6.596614   1.000000
   33       -6.590363   1.000000
   34       -6.525426   1.000000
   35       -6.359272   1.000000
   36       -5.969898   1.000000
   37       -5.829564   1.000000
   38       -5.640582   1.000000
   39       -5.565179   1.000000
   40       -5.475595   1.000000
   41       -5.141381   1.000000
   42       -4.970948   1.000000
   43       -4.911215   1.000000
   44       -4.729332   1.000000
   45       -4.610894   1.000000
   46       -4.579802   1.000000
   47       -4.436607   1.000000
   48       -4.163191   1.000000
   49       -4.068492   1.000000
   50       -3.716047   1.000000
   51       -3.549246   1.000000
   52       -3.491486   1.000000
   53       -3.004205   1.000000
   54       -2.859721   1.000000
   55       -2.763330   1.000000
   56       -2.735739   1.000000
   57       -2.303384   1.000000
   58       -2.142556   1.000000
   59       -1.886648   1.000000
   60       -1.433681   1.000000
   61       -1.282774   1.000000
   62       -0.871553   1.000000
   63       -0.736677   0.137532
   64       -0.711196  -0.035694
   65       -0.551828   0.000000
   66       -0.411623   0.000000
   67       -0.183548   0.000000
   68        0.651530   0.000000
   69        0.718399   0.000000
   70        0.770310   0.000000
   71        1.394440   0.000000
   72        1.437306   0.000000
   73        1.897734   0.000000
   74        3.085221   0.000000
   75        3.511258   0.000000
   76        3.528379   0.000000
 
  0.2000000E+00  0.4285714E+00  0.0000000E+00  0.1142857E+00
    1      -36.572883   1.000000
    2      -35.246090   1.000000
    3      -34.286199   1.000000
    4      -33.397802   1.000000
    5      -20.331049   1.000000
    6      -19.859935   1.000000
    7      -19.633513   1.000000
    8      -19.157070   1.000000
    9      -19.104202   1.000000
   10      -18.569423   1.000000
   11      -18.512858   1.000000
   12      -18.497687   1.000000
   13      -18.418507   1.000000
   14      -18.165276   1.000000
   15      -18.130325   1.000000
   16      -17.661828   1.000000
   17      -17.302503   1.000000
   18      -17.217508   1.000000
   19      -17.109409   1.000000
   20      -17.043745   1.000000
   21      -16.619818   1.000000
   22      -16.350889   1.000000
   23      -16.218603   1.000000
   24      -16.101470   1.000000
   25      -16.016724   1.000000
   26      -15.458097   1.000000
   27      -15.393096   1.000000
   28      -15.092717   1.000000
   29       -7.582786   1.000000
   30       -6.945128   1.000000
   31       -6.794621   1.000000
   32       -6.753632   1.000000
   33       -6.628879   1.000000
   34       -6.577620   1.000000
   35       -6.271800   1.000000
   36       -5.983341   1.000000
   37       -5.849014   1.000000
   38       -5.771632   1.000000
   39       -5.535968   1.000000
   40       -5.441643   1.000000
   41       -5.159580   1.000000
   42       -5.110719   1.000000
   43       -4.957441   1.000000
   44       -4.816590   1.000000
   45       -4.658518   1.000000
   46       -4.412944   1.000000
   47       -4.298897   1.000000
   48       -4.187179   1.000000
   49       -4.129833   1.000000
   50       -3.764212   1.000000
   51       -3.670194   1.000000
   52       -3.498712   1.000000
   53       -3.200807   1.000000
   54       -2.876954   1.000000
   55       -2.807856   1.000000
   56       -2.632366   1.000000
   57       -2.303516   1.000000
   58       -2.050350   1.000000
   59       -1.921115   1.000000
   60       -1.627132   1.000000
   61       -1.218063   1.000000
   62       -0.852508   1.000000
   63       -0.756176   0.556122
   64       -0.733980   0.015870
   65       -0.700573  -0.005891
   66       -0.382627   0.000000
   67       -0.034490   0.000000
   68        0.674248   0.000000
   69        0.724765   0.000000
   70        0.905886   0.000000
   71        1.408735   0.000000
   72        1.772954   0.000000
   73        2.212248   0.000000
   74        2.253555   0.000000
   75        3.163139   0.000000
   76        3.491341   0.000000
 
  0.4000000E+00  0.4285714E+00  0.0000000E+00  0.1142857E+00
    1      -36.572662   1.000000
    2      -35.245876   1.000000
    3      -34.285992   1.000000
    4      -33.397670   1.000000
    5      -20.176279   1.000000
    6      -20.033553   1.000000
    7      -19.805956   1.000000
    8      -19.223598   1.000000
    9      -18.969314   1.000000
   10      -18.708201   1.000000
   11      -18.493051   1.000000
   12      -18.415209   1.000000
   13      -18.352909   1.000000
   14      -18.237371   1.000000
   15      -18.061521   1.000000
   16      -17.838739   1.000000
   17      -17.232653   1.000000
   18      -17.185522   1.000000
   19      -17.084077   1.000000
   20      -17.022871   1.000000
   21      -16.577737   1.000000
   22      -16.267440   1.000000
   23      -16.161363   1.000000
   24      -16.155769   1.000000
   25      -15.987494   1.000000
   26      -15.460827   1.000000
   27      -15.198257   1.000000
   28      -15.039353   1.000000
   29       -7.603477   1.000000
   30       -7.108087   1.000000
   31       -6.968811   1.000000
   32       -6.844688   1.000000
   33       -6.663898   1.000000
   34       -6.557420   1.000000
   35       -6.089433   1.000000
   36       -6.017237   1.000000
   37       -5.918008   1.000000
   38       -5.843828   1.000000
   39       -5.601975   1.000000
   40       -5.367826   1.000000
   41       -5.293485   1.000000
   42       -5.281743   1.000000
   43       -5.145760   1.000000
   44       -4.749479   1.000000