 vasp.5.4.4.18Apr17-6-g9f103f2a35 (build Jun 30 2017 11:15:00) complex          
  
 executed on    STALLO_VASP_5.4.4 date 2019.11.06  13:55:29
 running on    4 total cores
 distrk:  each k-point on    4 cores,    1 groups
 distr:  one band on NCORES_PER_BAND=   2 cores,    2 groups


--------------------------------------------------------------------------------------------------------


 INCAR:
 POTCAR:   PAW_PBE O 08Apr2002                    
 POTCAR:   PAW_PBE Sr_sv 07Sep2000                
 POTCAR:   PAW_PBE Ti 08Apr2002                   
 POTCAR:   PAW_PBE O 08Apr2002                    
   VRHFIN =O: s2p4                                                              
   LEXCH  = PE                                                                  
   EATOM  =   432.3788 eV,   31.7789 Ry                                         
                                                                                
   TITEL  = PAW_PBE O 08Apr2002                                                 
   LULTRA =        F    use ultrasoft PP ?                                      
   IUNSCR =        0    unscreen: 0-lin 1-nonlin 2-no                           
   RPACOR =     .000    partial core radius                                     
   POMASS =   16.000; ZVAL   =    6.000    mass and valenz                      
   RCORE  =    1.520    outmost cutoff radius                                   
   RWIGS  =    1.550; RWIGS  =     .820    wigner-seitz radius (au A)           
   ENMAX  =  400.000; ENMIN  =  300.000 eV                                      
   ICORE  =        2    local potential                                         
   LCOR   =        T    correct aug charges                                     
   LPAW   =        T    paw PP                                                  
   EAUG   =  605.392                                                            
   DEXC   =     .000                                                            
   RMAX   =    2.264    core radius for proj-oper                               
   RAUG   =    1.300    factor for augmentation sphere                          
   RDEP   =    1.550    radius for radial grids                                 
   QCUT   =   -5.520; QGAM   =   11.041    optimization parameters              
                                                                                
   Description                                                                  
     l     E      TYP  RCUT    TYP  RCUT                                        
     0   .000     23  1.200                                                     
     0  -.700     23  1.200                                                     
     1   .000     23  1.520                                                     
     1   .600     23  1.520                                                     
     2   .000      7  1.500                                                     
  local pseudopotential read in
  atomic valenz-charges read in
  non local Contribution for L=           0  read in
    real space projection operators read in
  non local Contribution for L=           0  read in
    real space projection operators read in
  non local Contribution for L=           1  read in
    real space projection operators read in
  non local Contribution for L=           1  read in
    real space projection operators read in
    PAW grid and wavefunctions read in
 
   number of l-projection  operators is LMAX  =           4
   number of lm-projection operators is LMMAX =           8
 
 POTCAR:   PAW_PBE Sr_sv 07Sep2000                
   VRHFIN =Sr: 4s4p5s                                                           
   LEXCH  = PE                                                                  
   EATOM  =   842.4562 eV,   61.9188 Ry                                         
                                                                                
   TITEL  = PAW_PBE Sr_sv 07Sep2000                                             
   LULTRA =        F    use ultrasoft PP ?                                      
   IUNSCR =        1    unscreen: 0-lin 1-nonlin 2-no                           
   RPACOR =    2.200    partial core radius                                     
   POMASS =   87.620; ZVAL   =   10.000    mass and valenz                      
   RCORE  =    2.500    outmost cutoff radius                                   
   RWIGS  =    4.040; RWIGS  =    2.138    wigner-seitz radius (au A)           
   ENMAX  =  229.282; ENMIN  =  171.961 eV                                      
   RCLOC  =    2.201    cutoff for local pot                                    
   LCOR   =        T    correct aug charges                                     
   LPAW   =        T    paw PP                                                  
   EAUG   =  366.804                                                            
   DEXC   =     .000                                                            
   RMAX   =    3.045    core radius for proj-oper                               
   RAUG   =    1.300    factor for augmentation sphere                          
   RDEP   =    2.562    radius for radial grids                                 
   QCUT   =   -4.105; QGAM   =    8.210    optimization parameters              
                                                                                
   Description                                                                  
     l     E      TYP  RCUT    TYP  RCUT                                        
     0   .000     23  2.480                                                     
     0   .000     23  2.480                                                     
     1   .000     23  2.500                                                     
     1   .000     23  2.500                                                     
     2   .000     23  2.500                                                     
     2   .000     23  2.500                                                     
  local pseudopotential read in
  partial core-charges read in
  atomic valenz-charges read in
  non local Contribution for L=           0  read in
    real space projection operators read in
  non local Contribution for L=           0  read in
    real space projection operators read in
  non local Contribution for L=           1  read in
    real space projection operators read in
  non local Contribution for L=           1  read in
    real space projection operators read in
  non local Contribution for L=           2  read in
    real space projection operators read in
  non local Contribution for L=           2  read in
    real space projection operators read in
    PAW grid and wavefunctions read in
 
   number of l-projection  operators is LMAX  =           6
   number of lm-projection operators is LMMAX =          18
 
 POTCAR:   PAW_PBE Ti 08Apr2002                   
   VRHFIN =Ti: d3 s1                                                            
   LEXCH  = PE                                                                  
   EATOM  =    94.7929 eV,    6.9671 Ry                                         
                                                                                
   TITEL  = PAW_PBE Ti 08Apr2002                                                
   LULTRA =        F    use ultrasoft PP ?                                      
   IUNSCR =        1    unscreen: 0-lin 1-nonlin 2-no                           
   RPACOR =    2.200    partial core radius                                     
   POMASS =   47.880; ZVAL   =    4.000    mass and valenz                      
   RCORE  =    2.800    outmost cutoff radius                                   
   RWIGS  =    2.500; RWIGS  =    1.323    wigner-seitz radius (au A)           
   ENMAX  =  178.330; ENMIN  =  133.747 eV                                      
   RCLOC  =    2.215    cutoff for local pot                                    
   LCOR   =        T    correct aug charges                                     
   LPAW   =        T    paw PP                                                  
   EAUG   =  328.883                                                            
   DEXC   =    -.043                                                            
   RMAX   =    3.453    core radius for proj-oper                               
   RAUG   =    1.300    factor for augmentation sphere                          
   RDEP   =    2.885    radius for radial grids                                 
   QCUT   =   -3.620; QGAM   =    7.241    optimization parameters              
                                                                                
   Description                                                                  
     l     E      TYP  RCUT    TYP  RCUT                                        
     2   .000     23  2.800                                                     
     2   .000     23  2.800                                                     
     0   .000     23  2.800                                                     
     0  1.500     23  2.800                                                     
     1  -.400     23  2.800                                                     
     3   .000      7   .000                                                     
  local pseudopotential read in
  partial core-charges read in
  atomic valenz-charges read in
  non local Contribution for L=           2  read in
    real space projection operators read in
  non local Contribution for L=           2  read in
    real space projection operators read in
  non local Contribution for L=           0  read in
    real space projection operators read in
  non local Contribution for L=           0  read in
    real space projection operators read in
  non local Contribution for L=           1  read in
    real space projection operators read in
    PAW grid and wavefunctions read in
 
   number of l-projection  operators is LMAX  =           5
   number of lm-projection operators is LMMAX =          15
 

 ----------------------------------------------------------------------------- 
|                                                                             |
|  ADVICE TO THIS USER RUNNING 'VASP/VAMP'   (HEAR YOUR MASTER'S VOICE ...):  |
|                                                                             |
|      You have a (more or less) 'large supercell' and for larger cells       |
|      it might be more efficient to use real space projection operators      |
|      So try LREAL= Auto  in the INCAR   file.                               |
|      Mind: If you want to do a very accurate calculations keep the          |
|      reciprocal projection scheme          (i.e. LREAL=.FALSE.)             |
|                                                                             |
 ----------------------------------------------------------------------------- 

 PAW_PBE O 08Apr2002                    :
 energy of atom  1       EATOM= -432.3788
 kinetic energy error for atom=    0.0168 (will be added to EATOM!!)
 PAW_PBE Sr_sv 07Sep2000                :
 energy of atom  2       EATOM= -842.4562
 kinetic energy error for atom=    0.0007 (will be added to EATOM!!)
 PAW_PBE Ti 08Apr2002                   :
 energy of atom  3       EATOM=  -94.7929
 kinetic energy error for atom=    0.0001 (will be added to EATOM!!)
 
 
 POSCAR:  O Sr Ti                                
  positions in direct lattice
  No initial velocities read in
 exchange correlation table for  LEXCH =        8
   RHO(1)=    0.500       N(1)  =     2000
   RHO(2)=  100.500       N(2)  =     4000
 


--------------------------------------------------------------------------------------------------------


 ion  position               nearest neighbor table
   1  0.500  0.000  0.277-  17 1.95  17 1.95  14 2.76  13 2.76  13 2.76
   2  0.250  0.500  0.341-  17 1.95  18 1.95  13 2.76  14 2.76  13 2.76  14 2.76
   3  0.750  0.500  0.341-  17 1.95  18 1.95  13 2.76  14 2.76  13 2.76  14 2.76
   4  0.000  0.000  0.404-  18 1.95  18 1.95  13 2.76  14 2.76  14 2.76  15 2.76
   5  0.750  0.500  0.468-  18 1.95  19 1.95  14 2.76  14 2.76  15 2.76  15 2.76
   6  0.250  0.500  0.468-  18 1.95  19 1.95  14 2.76  14 2.76  15 2.76  15 2.76
   7  0.500  0.000  0.532-  19 1.95  19 1.95  16 2.76  15 2.76  15 2.76  14 2.76
   8  0.250  0.500  0.596-  19 1.95  20 1.95  15 2.76  16 2.76  15 2.76  16 2.76
   9  0.750  0.500  0.596-  19 1.95  20 1.95  15 2.76  16 2.76  15 2.76  16 2.76
  10  0.000  0.000  0.659-  20 1.95  20 1.95  15 2.76  16 2.76  16 2.76
  11  0.750  0.500  0.723-  20 1.95  16 2.76  16 2.76
  12  0.250  0.500  0.723-  20 1.95  16 2.76  16 2.76
  13  0.000  0.000  0.277-   4 2.76   3 2.76   2 2.76   2 2.76   3 2.76   1 2.76   1 2.76  18 3.38
                            18 3.38  17 3.38  17 3.38  17 3.38  17 3.38  14 3.91  14 3.91
  14  0.500  0.000  0.404-   1 2.76   2 2.76   3 2.76   5 2.76   6 2.76   2 2.76   3 2.76   5 2.76
                             6 2.76   4 2.76   4 2.76   7 2.76  17 3.38  17 3.38  18 3.38  18 3.38
  15  0.000  0.000  0.532-  10 2.76   9 2.76   8 2.76   8 2.76   9 2.76   7 2.76   7 2.76   6 2.76
                             5 2.76   6 2.76   5 2.76   4 2.76  20 3.38  20 3.38  19 3.38  19 3.38
  16  0.500  0.000  0.659-   7 2.76   8 2.76   9 2.76  11 2.76  12 2.76   8 2.76   9 2.76  11 2.76
                            12 2.76  10 2.76  10 2.76  19 3.38  19 3.38  20 3.38  20 3.38  20 3.38
  17  0.500  0.500  0.277-   2 1.95   3 1.95   1 1.95   1 1.95  14 3.38  14 3.38  13 3.38  13 3.38
                            13 3.38  13 3.38
  18  0.000  0.500  0.404-   2 1.95   3 1.95   5 1.95   6 1.95   4 1.95   4 1.95  13 3.38  13 3.38
                            14 3.38  14 3.38  14 3.38  14 3.38  15 3.38  15 3.38
  19  0.500  0.500  0.532-   8 1.95   9 1.95   7 1.95   7 1.95   5 1.95   6 1.95  16 3.38  16 3.38
                            15 3.38  15 3.38  15 3.38  15 3.38  14 3.38  14 3.38
  20  0.000  0.500  0.659-   8 1.95   9 1.95  11 1.95  12 1.95  10 1.95  10 1.95  15 3.38  15 3.38
                            16 3.38  16 3.38  16 3.38  16 3.38
 
  LATTYP: Found a simple orthorhombic cell.
 ALAT       =     3.9052680000
 B/A-ratio  =     1.4142135624
 C/A-ratio  =     5.5476462046
  
  Lattice vectors:
  
 A1 = (   0.0000000000,  -3.9052680000,   0.0000000000)
 A2 = (  -5.5228829703,   0.0000000000,   0.0000000000)
 A3 = (   0.0000000000,   0.0000000000, -21.6650451980)


Analysis of symmetry for initial positions (statically):
=====================================================================
 Subroutine PRICEL returns:
 Original cell was already a primitive cell.
 

 Routine SETGRP: Setting up the symmetry group for a 
 simple orthorhombic supercell.


 Subroutine GETGRP returns: Found  4 space group operations
 (whereof  4 operations were pure point group operations)
 out of a pool of  8 trial point group operations.


The static configuration has the point symmetry C_2v.


Analysis of symmetry for dynamics (positions and initial velocities):
=====================================================================
 Subroutine PRICEL returns:
 Original cell was already a primitive cell.
 

 Routine SETGRP: Setting up the symmetry group for a 
 simple orthorhombic supercell.


 Subroutine GETGRP returns: Found  4 space group operations
 (whereof  4 operations were pure point group operations)
 out of a pool of  8 trial point group operations.


The dynamic configuration has the point symmetry C_2v.


 Subroutine INISYM returns: Found  4 space group operations
 (whereof  4 operations are pure point group operations),
 and found     1 'primitive' translations

 
 
 KPOINTS: k-density: 4.0                          

Automatic generation of k-mesh.
Space group operators:
 irot       det(A)        alpha          n_x          n_y          n_z        tau_x        tau_y        tau_z
    1     1.000000     0.000000     1.000000     0.000000     0.000000     0.000000     0.000000     0.000000
    2     1.000000   179.999999     0.000000     0.000000     1.000000     0.000000     0.000000     0.000000
    3    -1.000000   180.000000     1.000000     0.000000     0.000000     0.000000     0.000000     0.000000
    4    -1.000000   180.000000     0.000000     1.000000     0.000000     0.000000     0.000000     0.000000
 
 Subroutine IBZKPT returns following result:
 ===========================================
 
 Found     12 irreducible k-points:
 
 Following reciprocal coordinates:
            Coordinates               Weight
  0.000000  0.000000  0.000000      1.000000
  0.200000  0.000000  0.000000      2.000000
  0.400000  0.000000  0.000000      2.000000
  0.000000  0.142857  0.000000      2.000000
  0.200000  0.142857  0.000000      4.000000
  0.400000  0.142857  0.000000      4.000000
  0.000000  0.285714  0.000000      2.000000
  0.200000  0.285714  0.000000      4.000000
  0.400000  0.285714  0.000000      4.000000
  0.000000  0.428571  0.000000      2.000000
  0.200000  0.428571  0.000000      4.000000
  0.400000  0.428571  0.000000      4.000000
 
 Following cartesian coordinates:
            Coordinates               Weight
  0.000000  0.000000  0.000000      1.000000
  0.036213  0.000000  0.000000      2.000000
  0.072426  0.000000  0.000000      2.000000
  0.000000  0.036581  0.000000      2.000000
  0.036213  0.036581  0.000000      4.000000
  0.072426  0.036581  0.000000      4.000000
  0.000000  0.073161  0.000000      2.000000
  0.036213  0.073161  0.000000      4.000000
  0.072426  0.073161  0.000000      4.000000
  0.000000  0.109742  0.000000      2.000000
  0.036213  0.109742  0.000000      4.000000
  0.072426  0.109742  0.000000      4.000000
 
 TETIRR: Found     88 inequivalent tetrahedra from      210


--------------------------------------------------------------------------------------------------------




 Dimension of arrays:
   k-points           NKPTS =     12   k-points in BZ     NKDIM =     12   number of bands    NBANDS=     76
   number of dos      NEDOS =    301   number of ions     NIONS =     20
   non local maximal  LDIM  =      6   non local SUM 2l+1 LMDIM =     18
   total plane-waves  NPLWV = 120960
   max r-space proj   IRMAX =      1   max aug-charges    IRDMAX=  18076
   dimension x,y,z NGX =    36 NGY =   24 NGZ =  140
   dimension x,y,z NGXF=    72 NGYF=   48 NGZF=  280
   support grid    NGXF=    72 NGYF=   48 NGZF=  280
   ions per type =              12   4   4
   NGX,Y,Z   is equivalent  to a cutoff of  10.84, 10.22, 10.74 a.u.
   NGXF,Y,Z  is equivalent  to a cutoff of  21.67, 20.43, 21.49 a.u.

 SYSTEM =  unknown system                          
 POSCAR =   O Sr Ti                                

 Startparameter for this run:
   NWRITE =      2    write-flag & timer
   PREC   = normal    normal or accurate (medium, high low for compatibility)
   ISTART =      0    job   : 0-new  1-cont  2-samecut
   ICHARG =      2    charge: 1-file 2-atom 10-const
   ISPIN  =      1    spin polarized calculation?
   LNONCOLLINEAR =      F non collinear calculations
   LSORBIT =      F    spin-orbit coupling
   INIWAV =      1    electr: 0-lowe 1-rand  2-diag
   LASPH  =      F    aspherical Exc in radial PAW
   METAGGA=      F    non-selfconsistent MetaGGA calc.

 Electronic Relaxation 1
   ENCUT  =  600.0 eV  44.10 Ry    6.64 a.u.  11.03  7.80 43.27*2*pi/ulx,y,z
   ENINI  =  600.0     initial cutoff
   ENAUG  =  605.4 eV  augmentation charge cutoff
   NELM   =     60;   NELMIN=  4; NELMDL= -5     # of ELM steps 
   EDIFF  = 0.1E-04   stopping-criterion for ELM
   LREAL  =      F    real-space projection
   NLSPLINE    = F    spline interpolate recip. space projectors
   LCOMPAT=      F    compatible to vasp.4.4
   GGA_COMPAT  = T    GGA compatible to vasp.4.4-vasp.4.6
   LMAXPAW     = -100 max onsite density
   LMAXMIX     =    2 max onsite mixed and CHGCAR
   VOSKOWN=      0    Vosko Wilk Nusair interpolation
   ROPT   =    0.00000   0.00000   0.00000
 Ionic relaxation
   EDIFFG = 0.1E-03   stopping-criterion for IOM
   NSW    =      0    number of steps for IOM
   NBLOCK =      1;   KBLOCK =      1    inner block; outer block 
   IBRION =     -1    ionic relax: 0-MD 1-quasi-New 2-CG
   NFREE  =      0    steps in history (QN), initial steepest desc. (CG)
   ISIF   =      2    stress and relaxation
   IWAVPR =     10    prediction:  0-non 1-charg 2-wave 3-comb
   ISYM   =      2    0-nonsym 1-usesym 2-fastsym
   LCORR  =      T    Harris-Foulkes like correction to forces

   POTIM  = 0.5000    time-step for ionic-motion
   TEIN   =    0.0    initial temperature
   TEBEG  =    0.0;   TEEND  =   0.0 temperature during run
   SMASS  =  -3.00    Nose mass-parameter (am)
   estimated Nose-frequenzy (Omega)   =  0.10E-29 period in steps =****** mass=  -0.697E-27a.u.
   SCALEE = 1.0000    scale energy and forces
   NPACO  =    256;   APACO  = 16.0  distance and # of slots for P.C.
   PSTRESS=    0.0 pullay stress

  Mass of Ions in am
   POMASS =  16.00 87.62 47.88
  Ionic Valenz
   ZVAL   =   6.00 10.00  4.00
  Atomic Wigner-Seitz radii
   RWIGS  =  -1.00 -1.00 -1.00
  virtual crystal weights 
   VCA    =   1.00  1.00  1.00
   NELECT =     128.0000    total number of electrons
   NUPDOWN=      -1.0000    fix difference up-down

 DOS related values:
   EMIN   =  10.00;   EMAX   =-10.00  energy-range for DOS
   EFERMI =   0.00
   ISMEAR =    -5;   SIGMA  =   0.20  broadening in eV -4-tet -1-fermi 0-gaus

 Electronic relaxation 2 (details)
   IALGO  =     68    algorithm
   LDIAG  =      T    sub-space diagonalisation (order eigenvalues)
   LSUBROT=      F    optimize rotation matrix (better conditioning)
   TURBO    =      0    0=normal 1=particle mesh
   IRESTART =      0    0=no restart 2=restart with 2 vectors
   NREBOOT  =      0    no. of reboots
   NMIN     =      0    reboot dimension
   EREF     =   0.00    reference energy to select bands
   IMIX   =      4    mixing-type and parameters
     AMIX     =   0.40;   BMIX     =  1.00
     AMIX_MAG =   1.60;   BMIX_MAG =  1.00
     AMIN     =   0.10
     WC   =   100.;   INIMIX=   1;  MIXPRE=   1;  MAXMIX= -45

 Intra band minimization:
   WEIMIN = 0.0000     energy-eigenvalue tresh-hold
   EBREAK =  0.33E-07  absolut break condition
   DEPER  =   0.30     relativ break condition  

   TIME   =   0.40     timestep for ELM

  volume/ion in A,a.u.               =      23.36       157.67
  Fermi-wavevector in a.u.,A,eV,Ry     =   1.063211  2.009177 15.380261  1.130417
  Thomas-Fermi vector in A             =   2.198688
 
 Write flags
   LWAVE        =      F    write WAVECAR
   LDOWNSAMPLE  =      F    k-point downsampling of WAVECAR
   LCHARG       =      T    write CHGCAR
   LVTOT        =      F    write LOCPOT, total local potential
   LVHAR        =      F    write LOCPOT, Hartree potential only
   LELF         =      F    write electronic localiz. function (ELF)
   LORBIT       =      0    0 simple, 1 ext, 2 COOP (PROOUT), +10 PAW based schemes


 Dipole corrections
   LMONO  =      F    monopole corrections only (constant potential shift)
   LDIPOL =      F    correct potential (dipole corrections)
   IDIPOL =      0    1-x, 2-y, 3-z, 4-all directions 
   EPSILON=  1.0000000 bulk dielectric constant

 Exchange correlation treatment:
   GGA     =    --    GGA type
   LEXCH   =     8    internal setting for exchange type
   VOSKOWN=      0    Vosko Wilk Nusair interpolation
   LHFCALC =     F    Hartree Fock is set to
   LHFONE  =     F    Hartree Fock one center treatment
   AEXX    =    0.0000 exact exchange contribution

 Linear response parameters
   LEPSILON=     F    determine dielectric tensor
   LRPA    =     F    only Hartree local field effects (RPA)
   LNABLA  =     F    use nabla operator in PAW spheres
   LVEL    =     F    velocity operator in full k-point grid
   LINTERFAST=   F  fast interpolation
   KINTER  =     0    interpolate to denser k-point grid
   CSHIFT  =0.1000    complex shift for real part using Kramers Kronig
   OMEGAMAX=  -1.0    maximum frequency
   DEG_THRESHOLD= 0.2000000E-02 threshold for treating states as degnerate
   RTIME   =   -0.100 relaxation time in fs
  (WPLASMAI=    0.000 imaginary part of plasma frequency in eV, 0.658/RTIME)
   DFIELD  = 0.0000000 0.0000000 0.0000000 field for delta impulse in time
 
 Orbital magnetization related:
   ORBITALMAG=     F  switch on orbital magnetization
   LCHIMAG   =     F  perturbation theory with respect to B field
   DQ        =  0.001000  dq finite difference perturbation B field
   LLRAUG    =     F  two centre corrections for induced B field



--------------------------------------------------------------------------------------------------------


 Static calculation
 charge density and potential will be updated during run
 non-spin polarized calculation
 RMM-DIIS sequential band-by-band and
  variant of blocked Davidson during initial phase
 perform sub-space diagonalisation
    before iterative eigenvector-optimisation
 modified Broyden-mixing scheme, WC =      100.0
 initial mixing is a Kerker type mixing with AMIX =  0.4000 and BMIX =      1.0000
 Hartree-type preconditioning will be used
 using additional bands           12
 reciprocal scheme for non local part
 use partial core corrections
 calculate Harris-corrections to forces 
   (improved forces if not selfconsistent)
 use gradient corrections 
 use of overlap-Matrix (Vanderbilt PP)
 Fermi weights with tetrahedron method with Bloechl corrections


--------------------------------------------------------------------------------------------------------


  energy-cutoff  :      600.00
  volume of cell :      467.28
      direct lattice vectors                 reciprocal lattice vectors
     5.522882970  0.000000000  0.000000000     0.181064854  0.000000000  0.000000000
     0.000000000  3.905268000  0.000000000     0.000000000  0.256064373  0.000000000
     0.000000000  0.000000000 21.665045198     0.000000000  0.000000000  0.046157300

  length of vectors
     5.522882970  3.905268000 21.665045198     0.181064854  0.256064373  0.046157300


 
 k-points in units of 2pi/SCALE and weight: k-density: 4.0                          
   0.00000000  0.00000000  0.00000000       0.029
   0.03621297  0.00000000  0.00000000       0.057
   0.07242594  0.00000000  0.00000000       0.057
   0.00000000  0.03658062  0.00000000       0.057
   0.03621297  0.03658062  0.00000000       0.114
   0.07242594  0.03658062  0.00000000       0.114
   0.00000000  0.07316125  0.00000000       0.057
   0.03621297  0.07316125  0.00000000       0.114
   0.07242594  0.07316125  0.00000000       0.114
   0.00000000  0.10974187  0.00000000       0.057
   0.03621297  0.10974187  0.00000000       0.114
   0.07242594  0.10974187  0.00000000       0.114
 
 k-points in reciprocal lattice and weights: k-density: 4.0                          
   0.00000000  0.00000000  0.00000000       0.029
   0.20000000  0.00000000  0.00000000       0.057
   0.40000000  0.00000000  0.00000000       0.057
   0.00000000  0.14285714  0.00000000       0.057
   0.20000000  0.14285714  0.00000000       0.114
   0.40000000  0.14285714  0.00000000       0.114
   0.00000000  0.28571429  0.00000000       0.057
   0.20000000  0.28571429  0.00000000       0.114
   0.40000000  0.28571429  0.00000000       0.114
   0.00000000  0.42857143  0.00000000       0.057
   0.20000000  0.42857143  0.00000000       0.114
   0.40000000  0.42857143  0.00000000       0.114
 
 position of ions in fractional coordinates (direct lattice) 
   0.50000000  0.00000000  0.27694380
   0.25000000  0.50000000  0.34067414
   0.75000000  0.50000000  0.34067414
   0.00000000  0.00000000  0.40440449
   0.75000000  0.50000000  0.46813483
   0.25000000  0.50000000  0.46813483
   0.50000000  0.00000000  0.53186517
   0.25000000  0.50000000  0.59559551
   0.75000000  0.50000000  0.59559551
   0.00000000  0.00000000  0.65932586
   0.75000000  0.50000000  0.72305620
   0.25000000  0.50000000  0.72305620
   0.00000000  0.00000000  0.27694380
   0.50000000  0.00000000  0.40440449
   0.00000000  0.00000000  0.53186517
   0.50000000  0.00000000  0.65932586
   0.50000000  0.50000000  0.27694380
   0.00000000  0.50000000  0.40440449
   0.50000000  0.50000000  0.53186517
   0.00000000  0.50000000  0.65932586
 
 position of ions in cartesian coordinates  (Angst):
   2.76144149  0.00000000  6.00000000
   1.38072074  1.95263400  7.38072074
   4.14216223  1.95263400  7.38072074
   0.00000000  0.00000000  8.76144149
   4.14216223  1.95263400 10.14216223
   1.38072074  1.95263400 10.14216223
   2.76144149  0.00000000 11.52288297
   1.38072074  1.95263400 12.90360371
   4.14216223  1.95263400 12.90360371
   0.00000000  0.00000000 14.28432446
   4.14216223  1.95263400 15.66504520
   1.38072074  1.95263400 15.66504520
   0.00000000  0.00000000  6.00000000
   2.76144149  0.00000000  8.76144149
   0.00000000  0.00000000 11.52288297
   2.76144149  0.00000000 14.28432446
   2.76144149  1.95263400  6.00000000
   0.00000000  1.95263400  8.76144149
   2.76144149  1.95263400 11.52288297
   0.00000000  1.95263400 14.28432446
 


--------------------------------------------------------------------------------------------------------


 k-point  1 :   0.0000 0.0000 0.0000  plane waves:   15579
 k-point  2 :   0.2000 0.0000 0.0000  plane waves:   15612
 k-point  3 :   0.4000 0.0000 0.0000  plane waves:   15590
 k-point  4 :   0.0000 0.1429 0.0000  plane waves:   15591
 k-point  5 :   0.2000 0.1429 0.0000  plane waves:   15595
 k-point  6 :   0.4000 0.1429 0.0000  plane waves:   15574
 k-point  7 :   0.0000 0.2857 0.0000  plane waves:   15574
 k-point  8 :   0.2000 0.2857 0.0000  plane waves:   15590
 k-point  9 :   0.4000 0.2857 0.0000  plane waves:   15629
 k-point 10 :   0.0000 0.4286 0.0000  plane waves:   15554
 k-point 11 :   0.2000 0.4286 0.0000  plane waves:   15596
 k-point 12 :   0.4000 0.4286 0.0000  plane waves:   15648

 maximum and minimum number of plane-waves per node :      7824     7766

 maximum number of plane-waves:     15648
 maximum index in each direction: 
   IXMAX=   11   IYMAX=    7   IZMAX=   43
   IXMIN=  -11   IYMIN=   -8   IZMIN=  -43


 parallel 3D FFT for wavefunctions:
    minimum data exchange during FFTs selected (reduces bandwidth)
 parallel 3D FFT for charge:
    minimum data exchange during FFTs selected (reduces bandwidth)


 total amount of memory used by VASP MPI-rank0   159134. kBytes
=======================================================================

   base      :      30000. kBytes
   nonl-proj :      43063. kBytes
   fftplans  :      10010. kBytes
   grid      :      17991. kBytes
   one-center:        155. kBytes
   wavefun   :      57915. kBytes
 
     INWAV:  cpu time    0.0000: real time    0.0000
 Broyden mixing: mesh for mixing (old mesh)
   NGX = 23   NGY = 15   NGZ = 87
  (NGX  = 72   NGY  = 48   NGZ  =280)
  gives a total of  30015 points

 initial charge density was supplied:
 charge density of overlapping atoms calculated
 number of electron     128.0000000 magnetization 
 keeping initial charge density in first step


--------------------------------------------------------------------------------------------------------


 Maximum index for augmentation-charges         4332 (set IRDMAX)


--------------------------------------------------------------------------------------------------------


 First call to EWALD:  gamma=   0.228
 Maximum number of real-space cells 4x 5x 1
 Maximum number of reciprocal cells 2x 2x 7

    FEWALD:  cpu time    0.0030: real time    0.0020


--------------------------------------- Iteration      1(   1)  ---------------------------------------


    POTLOK:  cpu time    0.1800: real time    0.1897
    SETDIJ:  cpu time    0.0150: real time    0.0142
     EDDAV:  cpu time   10.2624: real time   10.2612
 BZINTS: Fermi energy: 14.403215;128.000000 electrons
         Band energy: 124.720905;  BLOECHL correction: -0.056364
       DOS:  cpu time    0.0100: real time    0.0098
    --------------------------------------------
      LOOP:  cpu time   10.4674: real time   10.4750

 eigenvalue-minimisations  :  1832
 total energy-change (2. order) : 0.1725221E+04  (-0.6015914E+04)
 number of electron     128.0000000 magnetization 
 augmentation part      128.0000000 magnetization 

 Free energy of the ion-electron system (eV)
  ---------------------------------------------------
  alpha Z        PSCENC =       378.09908315
  Ewald energy   TEWEN  =     22731.27163923
  -Hartree energ DENC   =    -30966.93774878
  -exchange      EXHF   =         0.00000000
  -V(xc)+E(xc)   XCENC  =       325.41603447
  PAW double counting   =      5334.45189010    -5139.13784255
  entropy T*S    EENTRO =         0.00000000
  eigenvalues    EBANDS =       124.72090512
  atomic energy  EATOM  =      8937.33707341
  Solvation  Ediel_sol  =         0.00000000
  ---------------------------------------------------
  free energy    TOTEN  =      1725.22103415 eV

  energy without entropy =     1725.22103415  energy(sigma->0) =     1725.22103415


--------------------------------------------------------------------------------------------------------




--------------------------------------- Iteration      1(   2)  ---------------------------------------


     EDDAV:  cpu time   11.6582: real time   11.6582
 BZINTS: Fermi energy:  3.788296;128.000000 electrons
         Band energy:***********;  BLOECHL correction: -0.039308
       DOS:  cpu time    0.0100: real time    0.0098
    --------------------------------------------
      LOOP:  cpu time   11.6682: real time   11.6680

 eigenvalue-minimisations  :  2184
 total energy-change (2. order) :-0.1495221E+04  (-0.1432812E+04)
 number of electron     128.0000000 magnetization 
 augmentation part      128.0000000 magnetization 

 Free energy of the ion-electron system (eV)
  ---------------------------------------------------
  alpha Z        PSCENC =       378.09908315
  Ewald energy   TEWEN  =     22731.27163923
  -Hartree energ DENC   =    -30966.93774878
  -exchange      EXHF   =         0.00000000
  -V(xc)+E(xc)   XCENC  =       325.41603447
  PAW double counting   =      5334.45189010    -5139.13784255
  entropy T*S    EENTRO =         0.00000000
  eigenvalues    EBANDS =     -1370.50054845
  atomic energy  EATOM  =      8937.33707341
  Solvation  Ediel_sol  =         0.00000000
  ---------------------------------------------------
  free energy    TOTEN  =       229.99958058 eV

  energy without entropy =      229.99958058  energy(sigma->0) =      229.99958058


--------------------------------------------------------------------------------------------------------




--------------------------------------- Iteration      1(   3)  ---------------------------------------


     EDDAV:  cpu time   13.1770: real time   13.1788
 BZINTS: Fermi energy: -2.786055;128.000000 electrons
         Band energy:***********;  BLOECHL correction:  0.000000
       DOS:  cpu time    0.0010: real time    0.0017
    --------------------------------------------
      LOOP:  cpu time   13.1780: real time   13.1805

 eigenvalue-minimisations  :  2520
 total energy-change (2. order) :-0.3958647E+03  (-0.3851147E+03)
 number of electron     128.0000000 magnetization 
 augmentation part      128.0000000 magnetization 

 Free energy of the ion-electron system (eV)
  ---------------------------------------------------
  alpha Z        PSCENC =       378.09908315
  Ewald energy   TEWEN  =     22731.27163923
  -Hartree energ DENC   =    -30966.93774878
  -exchange      EXHF   =         0.00000000
  -V(xc)+E(xc)   XCENC  =       325.41603447
  PAW double counting   =      5334.45189010    -5139.13784255
  entropy T*S    EENTRO =         0.00000000
  eigenvalues    EBANDS =     -1766.36522810
  atomic energy  EATOM  =      8937.33707341
  Solvation  Ediel_sol  =         0.00000000
  ---------------------------------------------------
  free energy    TOTEN  =      -165.86509908 eV

  energy without entropy =     -165.86509908  energy(sigma->0) =     -165.86509908


--------------------------------------------------------------------------------------------------------




--------------------------------------- Iteration      1(   4)  ---------------------------------------


     EDDAV:  cpu time   12.4861: real time   12.4881
 BZINTS: Fermi energy: -4.343803;128.000000 electrons
         Band energy:***********;  BLOECHL correction:  0.000000
       DOS:  cpu time    0.0020: real time    0.0019
    --------------------------------------------
      LOOP:  cpu time   12.4881: real time   12.4900

 eigenvalue-minimisations  :  2360
 total energy-change (2. order) :-0.3122474E+02  (-0.3109842E+02)
 number of electron     128.0000000 magnetization 
 augmentation part      128.0000000 magnetization 

 Free energy of the ion-electron system (eV)
  ---------------------------------------------------
  alpha Z        PSCENC =       378.09908315
  Ewald energy   TEWEN  =     22731.27163923
  -Hartree energ DENC   =    -30966.93774878
  -exchange      EXHF   =         0.00000000
  -V(xc)+E(xc)   XCENC  =       325.41603447
  PAW double counting   =      5334.45189010    -5139.13784255
  entropy T*S    EENTRO =         0.00000000
  eigenvalues    EBANDS =     -1797.58996438
  atomic energy  EATOM  =      8937.33707341
  Solvation  Ediel_sol  =         0.00000000
  ---------------------------------------------------
  free energy    TOTEN  =      -197.08983535 eV

  energy without entropy =     -197.08983535  energy(sigma->0) =     -197.08983535


--------------------------------------------------------------------------------------------------------




--------------------------------------- Iteration      1(   5)  ---------------------------------------


     EDDAV:  cpu time   15.1667: real time   15.1650
 BZINTS: Fermi energy: -4.479600;128.000000 electrons
         Band energy:***********;  BLOECHL correction:  0.000000
       DOS:  cpu time    0.0020: real time    0.0016
    CHARGE:  cpu time    0.4029: real time    0.4034
    MIXING:  cpu time    0.0040: real time    0.0042
    --------------------------------------------
      LOOP:  cpu time   15.5756: real time   15.5742

 eigenvalue-minimisations  :  3016
 total energy-change (2. order) :-0.1616666E+01  (-0.1615832E+01)
 number of electron     127.9999900 magnetization 
 augmentation part       13.8065825 magnetization 

 Broyden mixing:
  rms(total) = 0.37594E+01    rms(broyden)= 0.37591E+01
  rms(prec ) = 0.42680E+01
  weight for this iteration     100.00

 Free energy of the ion-electron system (eV)
  ---------------------------------------------------
  alpha Z        PSCENC =       378.09908315
  Ewald energy   TEWEN  =     22731.27163923
  -Hartree energ DENC   =    -30966.93774878
  -exchange      EXHF   =         0.00000000
  -V(xc)+E(xc)   XCENC  =       325.41603447
  PAW double counting   =      5334.45189010    -5139.13784255
  entropy T*S    EENTRO =         0.00000000
  eigenvalues    EBANDS =     -1799.20663039
  atomic energy  EATOM  =      8937.33707341
  Solvation  Ediel_sol  =         0.00000000
  ---------------------------------------------------
  free energy    TOTEN  =      -198.70650136 eV

  energy without entropy =     -198.70650136  energy(sigma->0) =     -198.70650136


--------------------------------------------------------------------------------------------------------




--------------------------------------- Iteration      1(   6)  ---------------------------------------


    POTLOK:  cpu time    0.1740: real time    0.1772
    SETDIJ:  cpu time    0.0150: real time    0.0137
    EDDIAG:  cpu time    1.1818: real time    1.1837
  RMM-DIIS:  cpu time    9.7135: real time    9.7107
    ORTHCH:  cpu time    0.2160: real time    0.2163
 BZINTS: Fermi energy: -1.020009;128.000000 electrons
         Band energy:***********;  BLOECHL correction: -0.142425
       DOS:  cpu time    0.0100: real time    0.0104
    CHARGE:  cpu time    0.3999: real time    0.4001
    MIXING:  cpu time    0.0050: real time    0.0047
    --------------------------------------------
      LOOP:  cpu time   11.7152: real time   11.7168

 eigenvalue-minimisations  :  2424
 total energy-change (2. order) :-0.7185417E+01  (-0.3977094E+02)
 number of electron     127.9999960 magnetization 
 augmentation part       17.5029497 magnetization 

 Broyden mixing:
  rms(total) = 0.52540E+01    rms(broyden)= 0.52534E+01
  rms(prec ) = 0.81591E+01
  weight for this iteration     100.00

 eigenvalues of (default mixing * dielectric matrix)
  average eigenvalue GAMMA=   0.4079
  0.4079

 Free energy of the ion-electron system (eV)
  ---------------------------------------------------
  alpha Z        PSCENC =       378.09908315
  Ewald energy   TEWEN  =     22731.27163923
  -Hartree energ DENC   =    -31254.98882495
  -exchange      EXHF   =         0.00000000
  -V(xc)+E(xc)   XCENC  =       345.61544307
  PAW double counting   =      5949.68073669    -5767.82309312
  entropy T*S    EENTRO =         0.00000000
  eigenvalues    EBANDS =     -1525.08397547
  atomic energy  EATOM  =      8937.33707341
  Solvation  Ediel_sol  =         0.00000000
  ---------------------------------------------------
  free energy    TOTEN  =      -205.89191798 eV

  energy without entropy =     -205.89191798  energy(sigma->0) =     -205.89191798


--------------------------------------------------------------------------------------------------------




--------------------------------------- Iteration      1(   7)  ---------------------------------------


    POTLOK:  cpu time    0.1690: real time    0.1734
    SETDIJ:  cpu time    0.0140: real time    0.0137
    EDDIAG:  cpu time    1.2648: real time    1.2661
  RMM-DIIS:  cpu time    8.8687: real time    8.8659
    ORTHCH:  cpu time    0.2210: real time    0.2219
 BZINTS: Fermi energy: -0.990466;128.000000 electrons
         Band energy:***********;  BLOECHL correction: -0.150675
       DOS:  cpu time    0.0100: real time    0.0103
    CHARGE:  cpu time    0.4149: real time    0.4144
    MIXING:  cpu time    0.0050: real time    0.0047
    --------------------------------------------
      LOOP:  cpu time   10.9673: real time   10.9703

 eigenvalue-minimisations  :  2163
 total energy-change (2. order) : 0.3346128E+02  (-0.9683390E+01)
 number of electron     127.9999930 magnetization 
 augmentation part       14.3686090 magnetization 

 Broyden mixing:
  rms(total) = 0.21663E+01    rms(broyden)= 0.21655E+01
  rms(prec ) = 0.33604E+01
  weight for this iteration     100.00

 eigenvalues of (default mixing * dielectric matrix)
  average eigenvalue GAMMA=   0.4340
  0.6356  0.2324

 Free energy of the ion-electron system (eV)
  ---------------------------------------------------
  alpha Z        PSCENC =       378.09908315
  Ewald energy   TEWEN  =     22731.27163923
  -Hartree energ DENC   =    -31269.94812878
  -exchange      EXHF   =         0.00000000
  -V(xc)+E(xc)   XCENC  =       340.63838527
  PAW double counting   =      5909.51537973    -5730.68732343
  entropy T*S    EENTRO =         0.00000000
  eigenvalues    EBANDS =     -1468.65674264
  atomic energy  EATOM  =      8937.33707341
  Solvation  Ediel_sol  =         0.00000000
  ---------------------------------------------------
  free energy    TOTEN  =      -172.43063406 eV

  energy without entropy =     -172.43063406  energy(sigma->0) =     -172.43063406


--------------------------------------------------------------------------------------------------------




--------------------------------------- Iteration      1(   8)  ---------------------------------------


    POTLOK:  cpu time    0.1690: real time    0.1726
    SETDIJ:  cpu time    0.0140: real time    0.0137
    EDDIAG:  cpu time    1.2638: real time    1.2660
  RMM-DIIS:  cpu time    8.3727: real time    8.3708
    ORTHCH:  cpu time    0.2220: real time    0.2217
 BZINTS: Fermi energy: -1.962007;128.000000 electrons
         Band energy:***********;  BLOECHL correction:  0.000000
       DOS:  cpu time    0.0010: real time    0.0020
    CHARGE:  cpu time    0.4019: real time    0.4006
    MIXING:  cpu time    0.0050: real time    0.0048
    --------------------------------------------
      LOOP:  cpu time   10.4494: real time   10.4522

 eigenvalue-minimisations  :  2073
 total energy-change (2. order) : 0.1173030E+02  (-0.2322542E+01)
 number of electron     127.9999917 magnetization 
 augmentation part       12.9839406 magnetization 

 Broyden mixing:
  rms(total) = 0.15343E+01    rms(broyden)= 0.15341E+01
  rms(prec ) = 0.20235E+01
  weight for this iteration     100.00

 eigenvalues of (default mixing * dielectric matrix)
  average eigenvalue GAMMA=   0.4456
  0.7515  0.2926  0.2926

 Free energy of the ion-electron system (eV)
  ---------------------------------------------------
  alpha Z        PSCENC =       378.09908315
  Ewald energy   TEWEN  =     22731.27163923
  -Hartree energ DENC   =    -31260.13121174
  -exchange      EXHF   =         0.00000000
  -V(xc)+E(xc)   XCENC  =       338.31835922
  PAW double counting   =      5933.37700803    -5757.71901474
  entropy T*S    EENTRO =         0.00000000
  eigenvalues    EBANDS =     -1461.25327280
  atomic energy  EATOM  =      8937.33707341
  Solvation  Ediel_sol  =         0.00000000
  ---------------------------------------------------
  free energy    TOTEN  =      -160.70033623 eV

  energy without entropy =     -160.70033623  energy(sigma->0) =     -160.70033623


--------------------------------------------------------------------------------------------------------




--------------------------------------- Iteration      1(   9)  ---------------------------------------


    POTLOK:  cpu time    0.1670: real time    0.1717
    SETDIJ:  cpu time    0.0140: real time    0.0137
    EDDIAG:  cpu time    1.2598: real time    1.2600
  RMM-DIIS:  cpu time    9.4676: real time    9.4647
    ORTHCH:  cpu time    0.2210: real time    0.2209
 BZINTS: Fermi energy: -1.680659;128.000000 electrons
         Band energy:***********;  BLOECHL correction:  0.000000
       DOS:  cpu time    0.0010: real time    0.0019
    CHARGE:  cpu time    0.4019: real time    0.4013
    MIXING:  cpu time    0.0050: real time    0.0051
    --------------------------------------------
      LOOP:  cpu time   11.5372: real time   11.5392

 eigenvalue-minimisations  :  2345
 total energy-change (2. order) : 0.4465677E+01  (-0.2100721E+00)
 number of electron     127.9999918 magnetization 
 augmentation part       13.0788154 magnetization 

 Broyden mixing:
  rms(total) = 0.12675E+01    rms(broyden)= 0.12675E+01
  rms(prec ) = 0.17731E+01
  weight for this iteration     100.00

 eigenvalues of (default mixing * dielectric matrix)
  average eigenvalue GAMMA=   0.9055
  1.8525  1.0096  0.2574  0.5025

 Free energy of the ion-electron system (eV)
  ---------------------------------------------------
  alpha Z        PSCENC =       378.09908315
  Ewald energy   TEWEN  =     22731.27163923
  -Hartree energ DENC   =    -31285.10818167
  -exchange      EXHF   =         0.00000000
  -V(xc)+E(xc)   XCENC  =       339.30873481
  PAW double counting   =      5990.33397874    -5816.04172938
  entropy T*S    EENTRO =         0.00000000
  eigenvalues    EBANDS =     -1431.43525744
  atomic energy  EATOM  =      8937.33707341
  Solvation  Ediel_sol  =         0.00000000
  ---------------------------------------------------
  free energy    TOTEN  =      -156.23465914 eV

  energy without entropy =     -156.23465914  energy(sigma->0) =     -156.23465914


--------------------------------------------------------------------------------------------------------




--------------------------------------- Iteration      1(  10)  ---------------------------------------


    POTLOK:  cpu time    0.1670: real time    0.1703
    SETDIJ:  cpu time    0.0140: real time    0.0136
    EDDIAG:  cpu time    1.2598: real time    1.2598
  RMM-DIIS:  cpu time    9.0586: real time    9.0577
    ORTHCH:  cpu time    0.2210: real time    0.2198
 BZINTS: Fermi energy: -0.669367;128.000000 electrons
         Band energy:***********;  BLOECHL correction: -0.061029
       DOS:  cpu time    0.0090: real time    0.0099
    CHARGE:  cpu time    0.4139: real time    0.4127
    MIXING:  cpu time    0.0050: real time    0.0055
    --------------------------------------------
      LOOP:  cpu time   11.1483: real time   11.1494

 eigenvalue-minimisations  :  2202
 total energy-change (2. order) :-0.1526807E+01  (-0.4016833E+01)
 number of electron     127.9999947 magnetization 
 augmentation part       15.2689628 magnetization 

 Broyden mixing:
  rms(total) = 0.30670E+01    rms(broyden)= 0.30665E+01
  rms(prec ) = 0.43091E+01
  weight for this iteration     100.00

 eigenvalues of (default mixing * dielectric matrix)
  average eigenvalue GAMMA=   0.7255
  1.8447  1.0125  0.5045  0.2572  0.0087

 Free energy of the ion-electron system (eV)
  ---------------------------------------------------
  alpha Z        PSCENC =       378.09908315
  Ewald energy   TEWEN  =     22731.27163923
  -Hartree energ DENC   =    -31353.95969480
  -exchange      EXHF   =         0.00000000
  -V(xc)+E(xc)   XCENC  =       342.53149063
  PAW double counting   =      6159.64775230    -5988.86607830
  entropy T*S    EENTRO =         0.00000000
  eigenvalues    EBANDS =     -1363.82273140
  atomic energy  EATOM  =      8937.33707341
  Solvation  Ediel_sol  =         0.00000000
  ---------------------------------------------------
  free energy    TOTEN  =      -157.76146578 eV

  energy without entropy =     -157.76146578  energy(sigma->0) =     -157.76146578


--------------------------------------------------------------------------------------------------------




--------------------------------------- Iteration      1(  11)  ---------------------------------------


    POTLOK:  cpu time    0.1670: real time    0.1701
    SETDIJ:  cpu time    0.0140: real time    0.0136
    EDDIAG:  cpu time    1.2608: real time    1.2604
  RMM-DIIS:  cpu time   11.3053: real time   11.3026
    ORTHCH:  cpu time    0.2230: real time    0.2230
 BZINTS: Fermi energy: -0.608905;128.000000 electrons
         Band energy:***********;  BLOECHL correction: -0.050263
       DOS:  cpu time    0.0100: real time    0.0105
    CHARGE:  cpu time    0.4159: real time    0.4160
    MIXING:  cpu time    0.0070: real time    0.0061
    --------------------------------------------
      LOOP:  cpu time   13.4030: real time   13.4023

 eigenvalue-minimisations  :  2823
 total energy-change (2. order) : 0.1689304E+01  (-0.3379506E+00)
 number of electron     127.9999947 magnetization 
 augmentation part       15.2448534 magnetization 

 Broyden mixing:
  rms(total) = 0.29833E+01    rms(broyden)= 0.29833E+01
  rms(prec ) = 0.41566E+01
  weight for this iteration     100.00

 eigenvalues of (default mixing * dielectric matrix)
  average eigenvalue GAMMA=   0.6618
  1.9900  0.9627  0.5075  0.2582  0.1488  0.1036

 Free energy of the ion-electron system (eV)
  ---------------------------------------------------
  alpha Z        PSCENC =       378.09908315
  Ewald energy   TEWEN  =     22731.27163923
  -Hartree energ DENC   =    -31351.10298617
  -exchange      EXHF   =         0.00000000
  -V(xc)+E(xc)   XCENC  =       342.44346970
  PAW double counting   =      6158.42359365    -5987.68184811
  entropy T*S    EENTRO =         0.00000000
  eigenvalues    EBANDS =     -1364.86218672
  atomic energy  EATOM  =      8937.33707341
  Solvation  Ediel_sol  =         0.00000000
  ---------------------------------------------------
  free energy    TOTEN  =      -156.07216186 eV

  energy without entropy =     -156.07216186  energy(sigma->0) =     -156.07216186


--------------------------------------------------------------------------------------------------------




--------------------------------------- Iteration      1(  12)  ---------------------------------------


    POTLOK:  cpu time    0.1660: real time    0.1719
    SETDIJ:  cpu time    0.0140: real time    0.0137
    EDDIAG:  cpu time    1.2558: real time    1.2557
  RMM-DIIS:  cpu time   11.2823: real time   11.2796
    ORTHCH:  cpu time    0.2140: real time    0.2144
 BZINTS: Fermi energy: -0.619041;128.000000 electrons
         Band energy:***********;  BLOECHL correction: -0.051250
       DOS:  cpu time    0.0090: real time    0.0090
    CHARGE:  cpu time    0.3889: real time    0.3890
    MIXING:  cpu time    0.0060: real time    0.0054
    --------------------------------------------
      LOOP:  cpu time   13.3360: real time   13.3386

 eigenvalue-minimisations  :  2790
 total energy-change (2. order) :-0.2659096E+01  (-0.1382306E+00)
 number of electron     127.9999949 magnetization 
 augmentation part       15.5783225 magnetization 

 Broyden mixing:
  rms(total) = 0.33379E+01    rms(broyden)= 0.33379E+01
  rms(prec ) = 0.46596E+01
  weight for this iteration     100.00

 eigenvalues of (default mixing * dielectric matrix)
  average eigenvalue GAMMA=   0.5880
  2.0106  0.9550  0.5090  0.2586  0.1368  0.1229  0.1229

 Free energy of the ion-electron system (eV)
  ---------------------------------------------------
  alpha Z        PSCENC =       378.09908315
  Ewald energy   TEWEN  =     22731.27163923
  -Hartree energ DENC   =    -31363.99991897
  -exchange      EXHF   =         0.00000000
  -V(xc)+E(xc)   XCENC  =       342.83986349
  PAW double counting   =      6171.72082988    -6001.21812395
  entropy T*S    EENTRO =         0.00000000
  eigenvalues    EBANDS =     -1354.78170450
  atomic energy  EATOM  =      8937.33707341
  Solvation  Ediel_sol  =         0.00000000
  ---------------------------------------------------
  free energy    TOTEN  =      -158.73125826 eV

  energy without entropy =     -158.73125826  energy(sigma->0) =     -158.73125826


--------------------------------------------------------------------------------------------------------




--------------------------------------- Iteration      1(  13)  ---------------------------------------


    POTLOK:  cpu time    0.1530: real time    0.1545
    SETDIJ:  cpu time    0.0130: real time    0.0131
    EDDIAG:  cpu time    1.1738: real time    1.1741
  RMM-DIIS:  cpu time   12.1352: real time   12.1319
    ORTHCH:  cpu time    0.2240: real time    0.2242
 BZINTS: Fermi energy: -0.651421;128.000000 electrons
         Band energy:***********;  BLOECHL correction: -0.044513
       DOS:  cpu time    0.0100: real time    0.0103
    CHARGE:  cpu time    0.4179: real time    0.4175
    MIXING:  cpu time    0.0060: real time    0.0059
    --------------------------------------------
      LOOP:  cpu time   14.1329: real time   14.1314

 eigenvalue-minimisations  :  2996
 total energy-change (2. order) :-0.4397633E+00  (-0.3513824E-01)
 number of electron     127.9999950 magnetization 
 augmentation part       15.6638264 magnetization 

 Broyden mixing:
  rms(total) = 0.34159E+01    rms(broyden)= 0.34159E+01
  rms(prec ) = 0.47994E+01
  weight for this iteration     100.00

 eigenvalues of (default mixing * dielectric matrix)
  average eigenvalue GAMMA=   0.6157
  1.9825  0.9773  0.3993  0.3993  0.5152  0.2580  0.1969  0.1969

 Free energy of the ion-electron system (eV)
  ---------------------------------------------------
  alpha Z        PSCENC =       378.09908315
  Ewald energy   TEWEN  =     22731.27163923
  -Hartree energ DENC   =    -31362.74438812
  -exchange      EXHF   =         0.00000000
  -V(xc)+E(xc)   XCENC  =       342.82653762
  PAW double counting   =      6173.12472475    -6002.62645205
  entropy T*S    EENTRO =         0.00000000
  eigenvalues    EBANDS =     -1356.45923956
  atomic energy  EATOM  =      8937.33707341
  Solvation  Ediel_sol  =         0.00000000
  ---------------------------------------------------
  free energy    TOTEN  =      -159.17102158 eV

  energy without entropy =     -159.17102158  energy(sigma->0) =     -159.17102158


--------------------------------------------------------------------------------------------------------




--------------------------------------- Iteration      1(  14)  ---------------------------------------


    POTLOK:  cpu time    0.1680: real time    0.1724
    SETDIJ:  cpu time    0.0140: real time    0.0142
    EDDIAG:  cpu time    1.2578: real time    1.2572
  RMM-DIIS:  cpu time    9.4926: real time    9.4908
    ORTHCH:  cpu time    0.2250: real time    0.2251
 BZINTS: Fermi energy: -0.709794;128.000000 electrons
         Band energy:***********;  BLOECHL correction: -0.057418
       DOS:  cpu time    0.0110: real time    0.0103
    CHARGE:  cpu time    0.4209: real time    0.4217
    MIXING:  cpu time    0.0070: real time    0.0065
    --------------------------------------------
      LOOP:  cpu time   11.5962: real time   11.5981

 eigenvalue-minimisations  :  2348
 total energy-change (2. order) : 0.2687798E+01  (-0.4112489E-01)
 number of electron     127.9999947 magnetization 
 augmentation part       15.5650324 magnetization 

 Broyden mixing:
  rms(total) = 0.31820E+01    rms(broyden)= 0.31820E+01
  rms(prec ) = 0.43861E+01
  weight for this iteration     100.00

 eigenvalues of (default mixing * dielectric matrix)
  average eigenvalue GAMMA=   0.6612
  2.0009  0.9325  0.7416  0.7416  0.5117  0.2660  0.2660  0.2576  0.2328

 Free energy of the ion-electron system (eV)
  ---------------------------------------------------
  alpha Z        PSCENC =       378.09908315
  Ewald energy   TEWEN  =     22731.27163923
  -Hartree energ DENC   =    -31338.40035388
  -exchange      EXHF   =         0.00000000
  -V(xc)+E(xc)   XCENC  =       342.37940353
  PAW double counting   =      6160.42191099    -5989.58311190
  entropy T*S    EENTRO =         0.00000000
  eigenvalues    EBANDS =     -1378.00886766
  atomic energy  EATOM  =      8937.33707341
  Solvation  Ediel_sol  =         0.00000000
  ---------------------------------------------------
  free energy    TOTEN  =      -156.48322314 eV

  energy without entropy =     -156.48322314  energy(sigma->0) =     -156.48322314


--------------------------------------------------------------------------------------------------------




--------------------------------------- Iteration      1(  15)  ---------------------------------------


    POTLOK:  cpu time    0.1690: real time    0.1734
    SETDIJ:  cpu time    0.0140: real time    0.0136
    EDDIAG:  cpu time    1.2798: real time    1.2801
  RMM-DIIS:  cpu time    8.8667: real time    8.8647
    ORTHCH:  cpu time    0.2230: real time    0.2225
 BZINTS: Fermi energy: -0.732220;128.000238 electrons
         Band energy:***********;  BLOECHL correction: -0.040903
       DOS:  cpu time    0.0130: real time    0.0134
    CHARGE:  cpu time    0.4189: real time    0.4183
    MIXING:  cpu time    0.0070: real time    0.0068
    --------------------------------------------
      LOOP:  cpu time   10.9913: real time   10.9929

 eigenvalue-minimisations  :  2177
 total energy-change (2. order) : 0.4183888E+01  (-0.2573238E+00)
 number of electron     128.0002319 magnetization 
 augmentation part       14.9403493 magnetization 

 Broyden mixing:
  rms(total) = 0.23048E+01    rms(broyden)= 0.23048E+01
  rms(prec ) = 0.31588E+01
  weight for this iteration     100.00

 eigenvalues of (default mixing * dielectric matrix)
  average eigenvalue GAMMA=   0.6278
  2.0030  0.7952  0.7952  0.9423  0.5121  0.2792  0.2792  0.2573  0.2071  0.2071

 Free energy of the ion-electron system (eV)
  ---------------------------------------------------
  alpha Z        PSCENC =       378.09908315
  Ewald energy   TEWEN  =     22731.27163923
  -Hartree energ DENC   =    -31299.78746669
  -exchange      EXHF   =         0.00000000
  -V(xc)+E(xc)   XCENC  =       341.48250246
  PAW double counting   =      6147.89796176    -5976.70336229
  entropy T*S    EENTRO =         0.00000000
  eigenvalues    EBANDS =     -1411.89676665
  atomic energy  EATOM  =      8937.33707341
  Solvation  Ediel_sol  =         0.00000000
  ---------------------------------------------------
  free energy    TOTEN  =      -152.29933563 eV

  energy without entropy =     -152.29933563  energy(sigma->0) =     -152.29933563


--------------------------------------------------------------------------------------------------------




--------------------------------------- Iteration      1(  16)  ---------------------------------------


    POTLOK:  cpu time    0.1690: real time    0.1720
    SETDIJ:  cpu time    0.0140: real time    0.0135
    EDDIAG:  cpu time    1.1838: real time    1.1851
  RMM-DIIS:  cpu time    9.5985: real time    9.5964
    ORTHCH:  cpu time    0.2130: real time    0.2127
 BZINTS: Fermi energy: -0.771245;128.000000 electrons
         Band energy:***********;  BLOECHL correction: -0.035592
       DOS:  cpu time    0.0090: real time    0.0097
    CHARGE:  cpu time    0.3969: real time    0.3965
    MIXING:  cpu time    0.0070: real time    0.0069
    --------------------------------------------
      LOOP:  cpu time   11.5912: real time   11.5927

 eigenvalue-minimisations  :  2336
 total energy-change (2. order) : 0.1572297E+01  (-0.1487369E+00)
 number of electron     127.9999934 magnetization 
 augmentation part       14.4598052 magnetization 

 Broyden mixing:
  rms(total) = 0.16234E+01    rms(broyden)= 0.16232E+01
  rms(prec ) = 0.21920E+01
  weight for this iteration     100.00

 eigenvalues of (default mixing * dielectric matrix)
  average eigenvalue GAMMA=   0.5716
  2.0028  0.7951  0.7951  0.9428  0.5117  0.2749  0.2749  0.2573  0.1952  0.1952
  0.0426

 Free energy of the ion-electron system (eV)
  ---------------------------------------------------
  alpha Z        PSCENC =       378.09908315
  Ewald energy   TEWEN  =     22731.27163923
  -Hartree energ DENC   =    -31285.35347693
  -exchange      EXHF   =         0.00000000
  -V(xc)+E(xc)   XCENC  =       341.03166009
  PAW double counting   =      6142.16688226    -5970.82813023
  entropy T*S    EENTRO =         0.00000000
  eigenvalues    EBANDS =     -1424.45176938
  atomic energy  EATOM  =      8937.33707341
  Solvation  Ediel_sol  =         0.00000000
  ---------------------------------------------------
  free energy    TOTEN  =      -150.72703840 eV

  energy without entropy =     -150.72703840  energy(sigma->0) =     -150.72703840


--------------------------------------------------------------------------------------------------------




--------------------------------------- Iteration      1(  17)  ---------------------------------------


    POTLOK:  cpu time    0.1630: real time    0.1635
    SETDIJ:  cpu time    0.0130: real time    0.0134
    EDDIAG:  cpu time    1.2178: real time    1.2176
  RMM-DIIS:  cpu time   11.1223: real time   11.1191
    ORTHCH:  cpu time    0.2200: real time    0.2207
 BZINTS: Fermi energy: -0.776403;128.000000 electrons
         Band energy:***********;  BLOECHL correction: -0.035682
       DOS:  cpu time    0.0100: real time    0.0105
    CHARGE:  cpu time    0.4109: real time    0.4103
    MIXING:  cpu time    0.0080: real time    0.0075
    --------------------------------------------
      LOOP:  cpu time   13.1650: real time   13.1626

 eigenvalue-minimisations  :  2734
 total energy-change (2. order) : 0.2241353E+00  (-0.2316123E-01)
 number of electron     127.9999934 magnetization 
 augmentation part       14.4213604 magnetization 

 Broyden mixing:
  rms(total) = 0.15495E+01    rms(broyden)= 0.15495E+01
  rms(prec ) = 0.21181E+01
  weight for this iteration     100.00

 eigenvalues of (default mixing * dielectric matrix)
  average eigenvalue GAMMA=   0.6896
  2.0235  1.0182  1.0182  0.8982  0.6293  0.6293  0.5476  0.3338  0.3338  0.2574
  0.2931  0.2931

 Free energy of the ion-electron system (eV)
  ---------------------------------------------------
  alpha Z        PSCENC =       378.09908315
  Ewald energy   TEWEN  =     22731.27163923
  -Hartree energ DENC   =    -31284.82376688
  -exchange      EXHF   =         0.00000000
  -V(xc)+E(xc)   XCENC  =       340.95896826
  PAW double counting   =      6141.47953278    -5970.12155794
  entropy T*S    EENTRO =         0.00000000
  eigenvalues    EBANDS =     -1424.70387509
  atomic energy  EATOM  =      8937.33707341
  Solvation  Ediel_sol  =         0.00000000
  ---------------------------------------------------
  free energy    TOTEN  =      -150.50290308 eV

  energy without entropy =     -150.50290308  energy(sigma->0) =     -150.50290308


--------------------------------------------------------------------------------------------------------




--------------------------------------- Iteration      1(  18)  ---------------------------------------


    POTLOK:  cpu time    0.1680: real time    0.1719
    SETDIJ:  cpu time    0.0140: real time    0.0137
    EDDIAG:  cpu time    1.2568: real time    1.2569
  RMM-DIIS:  cpu time    8.9776: real time    8.9756
    ORTHCH:  cpu time    0.2220: real time    0.2220
 BZINTS: Fermi energy: -0.843023;128.000000 electrons
         Band energy:***********;  BLOECHL correction: -0.018920
       DOS:  cpu time    0.0090: real time    0.0102
    CHARGE:  cpu time    0.4149: real time    0.4139
    MIXING:  cpu time    0.0080: real time    0.0079
    --------------------------------------------
      LOOP:  cpu time   11.0703: real time   11.0722

 eigenvalue-minimisations  :  2184
 total energy-change (2. order) : 0.1230792E+01  (-0.9100813E-01)
 number of electron     127.9999924 magnetization 
 augmentation part       13.6286486 magnetization 

 Broyden mixing:
  rms(total) = 0.52106E+00    rms(broyden)= 0.52064E+00
  rms(prec ) = 0.60226E+00
  weight for this iteration     100.00

 eigenvalues of (default mixing * dielectric matrix)
  average eigenvalue GAMMA=   0.7050
  2.0366  1.1537  1.1537  0.9185  0.7533  0.7533  0.5140  0.3569  0.3569  0.3002
  0.3002  0.2579  0.3099

 Free energy of the ion-electron system (eV)
  ---------------------------------------------------
  alpha Z        PSCENC =       378.09908315
  Ewald energy   TEWEN  =     22731.27163923
  -Hartree energ DENC   =    -31279.16663353
  -exchange      EXHF   =         0.00000000
  -V(xc)+E(xc)   XCENC  =       340.63440715
  PAW double counting   =      6145.95018711    -5974.65030449
  entropy T*S    EENTRO =         0.00000000
  eigenvalues    EBANDS =     -1428.74756328
  atomic energy  EATOM  =      8937.33707341
  Solvation  Ediel_sol  =         0.00000000
  ---------------------------------------------------
  free energy    TOTEN  =      -149.27211125 eV

  energy without entropy =     -149.27211125  energy(sigma->0) =     -149.27211125


--------------------------------------------------------------------------------------------------------




--------------------------------------- Iteration      1(  19)  ---------------------------------------


    POTLOK:  cpu time    0.1690: real time    0.1725
    SETDIJ:  cpu time    0.0130: real time    0.0135
    EDDIAG:  cpu time    1.2378: real time    1.2381
  RMM-DIIS:  cpu time    8.6087: real time    8.6064
    ORTHCH:  cpu time    0.2210: real time    0.2215
 BZINTS: Fermi energy: -0.843355;128.000000 electrons
         Band energy:***********;  BLOECHL correction: -0.041827
       DOS:  cpu time    0.0100: real time    0.0098
    CHARGE:  cpu time    0.4179: real time    0.4179
    MIXING:  cpu time    0.0080: real time    0.0077
    --------------------------------------------
      LOOP:  cpu time   10.6854: real time   10.6874

 eigenvalue-minimisations  :  2113
 total energy-change (2. order) :-0.7753392E-01  (-0.4778584E-01)
 number of electron     127.9999933 magnetization 
 augmentation part       14.1566984 magnetization 

 Broyden mixing:
  rms(total) = 0.10246E+01    rms(broyden)= 0.10243E+01
  rms(prec ) = 0.14205E+01
  weight for this iteration     100.00

 eigenvalues of (default mixing * dielectric matrix)
  average eigenvalue GAMMA=   0.7168
  2.2290  0.9942  0.9942  1.0268  1.0268  0.8331  0.4935  0.4935  0.3480  0.3480
  0.3441  0.3441  0.2582  0.3020

 Free energy of the ion-electron system (eV)
  ---------------------------------------------------
  alpha Z        PSCENC =       378.09908315
  Ewald energy   TEWEN  =     22731.27163923
  -Hartree energ DENC   =    -31288.45273168
  -exchange      EXHF   =         0.00000000
  -V(xc)+E(xc)   XCENC  =       340.74783602
  PAW double counting   =      6151.73542586    -5980.62789953
  entropy T*S    EENTRO =         0.00000000
  eigenvalues    EBANDS =     -1419.46007163
  atomic energy  EATOM  =      8937.33707341
  Solvation  Ediel_sol  =         0.00000000
  ---------------------------------------------------
  free energy    TOTEN  =      -149.34964517 eV

  energy without entropy =     -149.34964517  energy(sigma->0) =     -149.34964517


--------------------------------------------------------------------------------------------------------




--------------------------------------- Iteration      1(  20)  ---------------------------------------


    POTLOK:  cpu time    0.1710: real time    0.1757
    SETDIJ:  cpu time    0.0140: real time    0.0137
    EDDIAG:  cpu time    1.1738: real time    1.1735
  RMM-DIIS:  cpu time    8.9136: real time    8.9117
    ORTHCH:  cpu time    0.2230: real time    0.2230
 BZINTS: Fermi energy: -0.943565;128.000000 electrons
         Band energy:***********;  BLOECHL correction: -0.017280
       DOS:  cpu time    0.0100: real time    0.0102
    CHARGE:  cpu time    0.4129: real time    0.4122
    MIXING:  cpu time    0.0080: real time    0.0082
    --------------------------------------------
      LOOP:  cpu time   10.9263: real time   10.9283

 eigenvalue-minimisations  :  2151
 total energy-change (2. order) : 0.2061557E+00  (-0.3435816E+00)
 number of electron     127.9999921 magnetization 
 augmentation part       13.5088611 magnetization 

 Broyden mixing:
  rms(total) = 0.68021E+00    rms(broyden)= 0.67969E+00
  rms(prec ) = 0.10093E+01
  weight for this iteration     100.00

 eigenvalues of (default mixing * dielectric matrix)
  average eigenvalue GAMMA=   0.6746
  2.0857  1.0032  1.0032  0.7431  0.7431  0.7593  0.7593  0.5641  0.5641  0.3655
  0.3655  0.3209  0.3209  0.2602  0.2602

 Free energy of the ion-electron system (eV)
  ---------------------------------------------------
  alpha Z        PSCENC =       378.09908315
  Ewald energy   TEWEN  =     22731.27163923
  -Hartree energ DENC   =    -31249.40219941
  -exchange      EXHF   =         0.00000000
  -V(xc)+E(xc)   XCENC  =       339.58865395
  PAW double counting   =      6141.28135704    -5969.90364677
  entropy T*S    EENTRO =         0.00000000
  eigenvalues    EBANDS =     -1457.41545010
  atomic energy  EATOM  =      8937.33707341
  Solvation  Ediel_sol  =         0.00000000
  ---------------------------------------------------
  free energy    TOTEN  =      -149.14348950 eV

  energy without entropy =     -149.14348950  energy(sigma->0) =     -149.14348950


--------------------------------------------------------------------------------------------------------




--------------------------------------- Iteration      1(  21)  ---------------------------------------


    POTLOK:  cpu time    0.1720: real time    0.1764
    SETDIJ:  cpu time    0.0140: real time    0.0138
    EDDIAG:  cpu time    1.1848: real time    1.1851
  RMM-DIIS:  cpu time    9.5845: real time    9.5818
    ORTHCH:  cpu time    0.2280: real time    0.2276
 BZINTS: Fermi energy: -0.900349;128.000000 electrons
         Band energy:***********;  BLOECHL correction: -0.013960
       DOS:  cpu time    0.0090: real time    0.0099
    CHARGE:  cpu time    0.3929: real time    0.3922
    MIXING:  cpu time    0.0080: real time    0.0084
    --------------------------------------------
      LOOP:  cpu time   11.5932: real time   11.5952

 eigenvalue-minimisations  :  2359
 total energy-change (2. order) : 0.1002559E+00  (-0.4581891E-01)
 number of electron     127.9999919 magnetization 
 augmentation part       13.4453488 magnetization 

 Broyden mixing:
  rms(total) = 0.49929E+00    rms(broyden)= 0.49914E+00
  rms(prec ) = 0.65382E+00
  weight for this iteration     100.00

 eigenvalues of (default mixing * dielectric matrix)
  average eigenvalue GAMMA=   0.6608
  2.1167  1.0210  1.0210  0.9532  0.9532  0.8036  0.5425  0.5425  0.5299  0.3517
  0.3517  0.2576  0.2850  0.2850  0.2789  0.2789

 Free energy of the ion-electron system (eV)
  ---------------------------------------------------
  alpha Z        PSCENC =       378.09908315
  Ewald energy   TEWEN  =     22731.27163923
  -Hartree energ DENC   =    -31252.98340429
  -exchange      EXHF   =         0.00000000
  -V(xc)+E(xc)   XCENC  =       339.60344742
  PAW double counting   =      6143.31869916    -5972.15729651
  entropy T*S    EENTRO =         0.00000000
  eigenvalues    EBANDS =     -1453.53247521
  atomic energy  EATOM  =      8937.33707341
  Solvation  Ediel_sol  =         0.00000000
  ---------------------------------------------------
  free energy    TOTEN  =      -149.04323364 eV

  energy without entropy =     -149.04323364  energy(sigma->0) =     -149.04323364


--------------------------------------------------------------------------------------------------------




--------------------------------------- Iteration      1(  22)  ---------------------------------------


    POTLOK:  cpu time    0.1670: real time    0.1684
    SETDIJ:  cpu time    0.0140: real time    0.0134
    EDDIAG:  cpu time    1.2478: real time    1.2482
  RMM-DIIS:  cpu time   11.2423: real time   11.2389
    ORTHCH:  cpu time    0.2300: real time    0.2306
 BZINTS: Fermi energy: -0.881040;128.000000 electrons
         Band energy:***********;  BLOECHL correction: -0.014693
       DOS:  cpu time    0.0100: real time    0.0102
    CHARGE:  cpu time    0.4159: real time    0.4164
    MIXING:  cpu time    0.0090: real time    0.0088
    --------------------------------------------
      LOOP:  cpu time   13.3360: real time   13.3350

 eigenvalue-minimisations  :  2757
 total energy-change (2. order) : 0.5412124E-01  (-0.3919371E-02)
 number of electron     127.9999919 magnetization 
 augmentation part       13.4443865 magnetization 

 Broyden mixing:
  rms(total) = 0.46273E+00    rms(broyden)= 0.46272E+00
  rms(prec ) = 0.59817E+00
  weight for this iteration     100.00

 eigenvalues of (default mixing * dielectric matrix)
  average eigenvalue GAMMA=   0.7410
  2.2596  1.3687  1.3687  1.0341  1.0341  0.9844  0.5360  0.5360  0.6263  0.4093
  0.4093  0.4190  0.4190  0.3257  0.3257  0.2588  0.2825

 Free energy of the ion-electron system (eV)
  ---------------------------------------------------
  alpha Z        PSCENC =       378.09908315
  Ewald energy   TEWEN  =     22731.27163923
  -Hartree energ DENC   =    -31256.95921740
  -exchange      EXHF   =         0.00000000
  -V(xc)+E(xc)   XCENC  =       339.69442339
  PAW double counting   =      6147.03696362    -5976.01422670
  entropy T*S    EENTRO =         0.00000000
  eigenvalues    EBANDS =     -1449.45485111
  atomic energy  EATOM  =      8937.33707341
  Solvation  Ediel_sol  =         0.00000000
  ---------------------------------------------------
  free energy    TOTEN  =      -148.98911240 eV

  energy without entropy =     -148.98911240  energy(sigma->0) =     -148.98911240


--------------------------------------------------------------------------------------------------------




--------------------------------------- Iteration      1(  23)  ---------------------------------------


    POTLOK:  cpu time    0.1760: real time    0.1796
    SETDIJ:  cpu time    0.0140: real time    0.0138
    EDDIAG:  cpu time    1.2488: real time    1.2501
  RMM-DIIS:  cpu time    8.4197: real time    8.4172
    ORTHCH:  cpu time    0.2300: real time    0.2309
 BZINTS: Fermi energy: -0.840523;128.000000 electrons
         Band energy:***********;  BLOECHL correction: -0.014651
       DOS:  cpu time    0.0100: real time    0.0099
    CHARGE:  cpu time    0.4099: real time    0.4099
    MIXING:  cpu time    0.0090: real time    0.0093
    --------------------------------------------
      LOOP:  cpu time   10.5174: real time   10.5207

 eigenvalue-minimisations  :  2062
 total energy-change (2. order) : 0.1942836E+00  (-0.1662114E-01)
 number of electron     127.9999920 magnetization 
 augmentation part       13.4761874 magnetization 

 Broyden mixing:
  rms(total) = 0.30967E+00    rms(broyden)= 0.30966E+00
  rms(prec ) = 0.41942E+00
  weight for this iteration     100.00

 eigenvalues of (default mixing * dielectric matrix)
  average eigenvalue GAMMA=   0.7161
  2.3742  1.0320  1.0320  1.2642  1.2642  0.9234  0.5830  0.5830  0.3961  0.3961
  0.5058  0.5058  0.4771  0.3226  0.3226  0.3593  0.2586  0.2896

 Free energy of the ion-electron system (eV)
  ---------------------------------------------------
  alpha Z        PSCENC =       378.09908315
  Ewald energy   TEWEN  =     22731.27163923
  -Hartree energ DENC   =    -31273.67478207
  -exchange      EXHF   =         0.00000000
  -V(xc)+E(xc)   XCENC  =       340.01324476
  PAW double counting   =      6156.27408198    -5985.61760920
  entropy T*S    EENTRO =         0.00000000
  eigenvalues    EBANDS =     -1432.49756002
  atomic energy  EATOM  =      8937.33707341
  Solvation  Ediel_sol  =         0.00000000
  ---------------------------------------------------
  free energy    TOTEN  =      -148.79482877 eV

  energy without entropy =     -148.79482877  energy(sigma->0) =     -148.79482877


--------------------------------------------------------------------------------------------------------




--------------------------------------- Iteration      1(  24)  ---------------------------------------


    POTLOK:  cpu time    0.1760: real time    0.1791
    SETDIJ:  cpu time    0.0140: real time    0.0137
    EDDIAG:  cpu time    1.2638: real time    1.2645
  RMM-DIIS:  cpu time    9.1646: real time    9.1625
    ORTHCH:  cpu time    0.2320: real time    0.2314
 BZINTS: Fermi energy: -0.820332;128.000000 electrons
         Band energy:***********;  BLOECHL correction: -0.017816
       DOS:  cpu time    0.0090: real time    0.0099
    CHARGE:  cpu time    0.4119: real time    0.4116
    MIXING:  cpu time    0.0100: real time    0.0097
    --------------------------------------------
      LOOP:  cpu time   11.2813: real time   11.2822

 eigenvalue-minimisations  :  2241
 total energy-change (2. order) : 0.4104184E-01  (-0.4519207E-02)
 number of electron     127.9999922 magnetization 
 augmentation part       13.5202942 magnetization 

 Broyden mixing:
  rms(total) = 0.14993E+00    rms(broyden)= 0.14977E+00
  rms(prec ) = 0.18027E+00
  weight for this iteration     100.00

 eigenvalues of (default mixing * dielectric matrix)
  average eigenvalue GAMMA=   0.6805
  2.3408  1.2818  1.2818  1.0351  1.0351  0.9451  0.5685  0.5685  0.5812  0.4599
  0.4599  0.3969  0.3969  0.3228  0.3228  0.2575  0.2678  0.2678  0.1398

 Free energy of the ion-electron system (eV)
  ---------------------------------------------------
  alpha Z        PSCENC =       378.09908315
  Ewald energy   TEWEN  =     22731.27163923
  -Hartree energ DENC   =    -31277.34760011
  -exchange      EXHF   =         0.00000000
  -V(xc)+E(xc)   XCENC  =       340.07459552
  PAW double counting   =      6158.03711362    -5987.41699123
  entropy T*S    EENTRO =         0.00000000
  eigenvalues    EBANDS =     -1428.80870051
  atomic energy  EATOM  =      8937.33707341
  Solvation  Ediel_sol  =         0.00000000
  ---------------------------------------------------
  free energy    TOTEN  =      -148.75378693 eV

  energy without entropy =     -148.75378693  energy(sigma->0) =     -148.75378693


[...]
     43      -4.9045      2.00000
     44      -4.7374      2.00000
     45      -4.2408      2.00000
     46      -4.2317      2.00000
     47      -4.1489      2.00000
     48      -4.0881      2.00000
     49      -3.9453      2.00000
     50      -3.8128      2.00000
     51      -3.6826      2.00000
     52      -3.4789      2.00000
     53      -3.4387      2.00000
     54      -2.9160      2.00000
     55      -2.8788      2.00000
     56      -2.8385      2.00000
     57      -2.1514      2.00000
     58      -2.0470      2.00000
     59      -1.9945      2.00000
     60      -1.7362      2.00000
     61      -1.2429      2.00000
     62      -1.2022      2.00000
     63      -0.9428      2.01071
     64      -0.7984      1.98606
     65      -0.7777      1.06069
     66      -0.3359      0.00000
     67      -0.1725      0.00000
     68       0.2584      0.00000
     69       0.4645      0.00000
     70       1.0000      0.00000
     71       1.0247      0.00000
     72       1.0520      0.00000
     73       1.8336      0.00000
     74       1.8844      0.00000
     75       3.0688      0.00000
     76       3.1508      0.00000

 k-point    10 :       0.0000    0.4286    0.0000
  band No.  band energies     occupation 
      1     -36.5730      2.00000
      2     -35.2462      2.00000
      3     -34.2863      2.00000
      4     -33.3979      2.00000
      5     -20.3930      2.00000
      6     -19.7184      2.00000
      7     -19.5638      2.00000
      8     -19.1923      2.00000
      9     -19.0723      2.00000
     10     -18.7233      2.00000
     11     -18.5436      2.00000
     12     -18.4049      2.00000
     13     -18.3979      2.00000
     14     -18.1881      2.00000
     15     -18.0631      2.00000
     16     -17.5775      2.00000
     17     -17.4327      2.00000
     18     -17.2011      2.00000
     19     -17.1568      2.00000
     20     -16.9797      2.00000
     21     -16.6367      2.00000
     22     -16.4822      2.00000
     23     -16.1799      2.00000
     24     -16.1095      2.00000
     25     -16.0032      2.00000
     26     -15.5252      2.00000
     27     -15.4562      2.00000
     28     -15.1317      2.00000
     29      -7.5725      2.00000
     30      -6.9769      2.00000
     31      -6.7092      2.00000
     32      -6.5966      2.00000
     33      -6.5904      2.00000
     34      -6.5254      2.00000
     35      -6.3593      2.00000
     36      -5.9699      2.00000
     37      -5.8296      2.00000
     38      -5.6406      2.00000
     39      -5.5652      2.00000
     40      -5.4756      2.00000
     41      -5.1414      2.00000
     42      -4.9709      2.00000
     43      -4.9112      2.00000
     44      -4.7293      2.00000
     45      -4.6109      2.00000
     46      -4.5798      2.00000
     47      -4.4366      2.00000
     48      -4.1632      2.00000
     49      -4.0685      2.00000
     50      -3.7160      2.00000
     51      -3.5492      2.00000
     52      -3.4915      2.00000
     53      -3.0042      2.00000
     54      -2.8597      2.00000
     55      -2.7633      2.00000
     56      -2.7357      2.00000
     57      -2.3034      2.00000
     58      -2.1426      2.00000
     59      -1.8866      2.00000
     60      -1.4337      2.00000
     61      -1.2828      2.00000
     62      -0.8716      2.00000
     63      -0.7367      0.27506
     64      -0.7112     -0.07139
     65      -0.5518      0.00000
     66      -0.4116      0.00000
     67      -0.1835      0.00000
     68       0.6515      0.00000
     69       0.7184      0.00000
     70       0.7703      0.00000
     71       1.3944      0.00000
     72       1.4373      0.00000
     73       1.8977      0.00000
     74       3.0852      0.00000
     75       3.5113      0.00000
     76       3.5284      0.00000

 k-point    11 :       0.2000    0.4286    0.0000
  band No.  band energies     occupation 
      1     -36.5729      2.00000
      2     -35.2461      2.00000
      3     -34.2862      2.00000
      4     -33.3978      2.00000
      5     -20.3310      2.00000
      6     -19.8599      2.00000
      7     -19.6335      2.00000
      8     -19.1571      2.00000
      9     -19.1042      2.00000
     10     -18.5694      2.00000
     11     -18.5129      2.00000
     12     -18.4977      2.00000
     13     -18.4185      2.00000
     14     -18.1653      2.00000
     15     -18.1303      2.00000
     16     -17.6618      2.00000
     17     -17.3025      2.00000
     18     -17.2175      2.00000
     19     -17.1094      2.00000
     20     -17.0437      2.00000
     21     -16.6198      2.00000
     22     -16.3509      2.00000
     23     -16.2186      2.00000
     24     -16.1015      2.00000
     25     -16.0167      2.00000
     26     -15.4581      2.00000
     27     -15.3931      2.00000
     28     -15.0927      2.00000
     29      -7.5828      2.00000
     30      -6.9451      2.00000
     31      -6.7946      2.00000
     32      -6.7536      2.00000
     33      -6.6289      2.00000
     34      -6.5776      2.00000
     35      -6.2718      2.00000
     36      -5.9833      2.00000
     37      -5.8490      2.00000
     38      -5.7716      2.00000
     39      -5.5360      2.00000
     40      -5.4416      2.00000
     41      -5.1596      2.00000
     42      -5.1107      2.00000
     43      -4.9574      2.00000
     44      -4.8166      2.00000
     45      -4.6585      2.00000
     46      -4.4129      2.00000
     47      -4.2989      2.00000
     48      -4.1872      2.00000
     49      -4.1298      2.00000
     50      -3.7642      2.00000
     51      -3.6702      2.00000
     52      -3.4987      2.00000
     53      -3.2008      2.00000
     54      -2.8770      2.00000
     55      -2.8079      2.00000
     56      -2.6324      2.00000
     57      -2.3035      2.00000
     58      -2.0504      2.00000
     59      -1.9211      2.00000
     60      -1.6271      2.00000
     61      -1.2181      2.00000
     62      -0.8525      2.00000
     63      -0.7562      1.11224
     64      -0.7340      0.03174
     65      -0.7006     -0.01178
     66      -0.3826      0.00000
     67      -0.0345      0.00000
     68       0.6742      0.00000
     69       0.7248      0.00000
     70       0.9059      0.00000
     71       1.4087      0.00000
     72       1.7730      0.00000
     73       2.2122      0.00000
     74       2.2536      0.00000
     75       3.1631      0.00000
     76       3.4913      0.00000

 k-point    12 :       0.4000    0.4286    0.0000
  band No.  band energies     occupation 
      1     -36.5727      2.00000
      2     -35.2459      2.00000
      3     -34.2860      2.00000
      4     -33.3977      2.00000
      5     -20.1763      2.00000
      6     -20.0336      2.00000
      7     -19.8060      2.00000
      8     -19.2236      2.00000
      9     -18.9693      2.00000
     10     -18.7082      2.00000
     11     -18.4931      2.00000
     12     -18.4152      2.00000
     13     -18.3529      2.00000
     14     -18.2374      2.00000
     15     -18.0615      2.00000
     16     -17.8387      2.00000
     17     -17.2327      2.00000
     18     -17.1855      2.00000
     19     -17.0841      2.00000
     20     -17.0229      2.00000
     21     -16.5777      2.00000
     22     -16.2674      2.00000
     23     -16.1614      2.00000
     24     -16.1558      2.00000
     25     -15.9875      2.00000
     26     -15.4608      2.00000
     27     -15.1983      2.00000
     28     -15.0394      2.00000
     29      -7.6035      2.00000
     30      -7.1081      2.00000
     31      -6.9688      2.00000
     32      -6.8447      2.00000
     33      -6.6639      2.00000
     34      -6.5574      2.00000
     35      -6.0894      2.00000
     36      -6.0172      2.00000
     37      -5.9180      2.00000
     38      -5.8438      2.00000
     39      -5.6020      2.00000
     40      -5.3678      2.00000
     41      -5.2935      2.00000
     42      -5.2817      2.00000
     43      -5.1458      2.00000
     44      -4.7495      2.00000
     45      -4.6907      2.00000
     46      -4.2985      2.00000
     47      -4.1994      2.00000
     48      -4.1391      2.00000
     49      -4.0497      2.00000
     50      -3.8541      2.00000
     51      -3.7617      2.00000
     52      -3.6657      2.00000
     53      -3.5641      2.00000
     54      -2.8352      2.00000
     55      -2.8229      2.00000
     56      -2.7533      2.00000
     57      -2.0838      2.00000
     58      -1.9935      2.00000
     59      -1.8929      2.00000
     60      -1.7279      2.00000
     61      -1.2193      2.00000
     62      -1.1534      2.00000
     63      -0.8915      2.08452
     64      -0.7392      0.14156
     65      -0.6409     -0.09723
     66      -0.2565      0.00000
     67       0.0838      0.00000
     68       0.7245      0.00000
     69       1.0821      0.00000
     70       1.3958      0.00000
     71       1.4252      0.00000
     72       1.9175      0.00000
     73       2.2201      0.00000
     74       2.2322      0.00000
     75       3.1614      0.00000
     76       3.4413      0.00000


--------------------------------------------------------------------------------------------------------


 soft charge-density along one line, spin component           1
         0         1         2         3         4         5         6         7         8         9
 total charge-density along one line
 
 pseudopotential strength for first ion, spin component:           1
 13.304  -0.447   0.000   0.001   0.000  -0.000   0.000  -0.000
 -0.447   0.104  -0.000  -0.000  -0.000   0.000   0.000   0.000
  0.000  -0.000  -9.833   0.000   0.000   0.121  -0.000  -0.000
  0.001  -0.000   0.000  -9.789  -0.000  -0.000   0.115   0.000
  0.000  -0.000   0.000  -0.000  -9.797  -0.000   0.000   0.116
 -0.000   0.000   0.121  -0.000  -0.000   0.180   0.000   0.000
  0.000   0.000  -0.000   0.115   0.000   0.000   0.182  -0.000
 -0.000   0.000  -0.000   0.000   0.116   0.000  -0.000   0.182
 total augmentation occupancy for first ion, spin component:           1
  1.866   0.128   0.000   0.018   0.000   0.000   0.002   0.000
  0.128   0.014   0.000  -0.005   0.000   0.000   0.001   0.000
  0.000   0.000   1.580   0.000   0.000   0.157   0.000   0.000
  0.018  -0.005   0.000   1.526   0.000   0.000   0.121   0.000
  0.000   0.000   0.000   0.000   1.514   0.000   0.000   0.129
  0.000   0.000   0.157   0.000   0.000   0.017   0.000   0.000
  0.002   0.001   0.000   0.121   0.000   0.000   0.011   0.000
  0.000   0.000   0.000   0.000   0.129   0.000   0.000   0.013


------------------------ aborting loop because EDIFF is reached ----------------------------------------


    CHARGE:  cpu time    0.3589: real time    0.3592
    FORLOC:  cpu time    0.0310: real time    0.0305
    FORNL :  cpu time    3.7174: real time    3.7167
    STRESS:  cpu time    7.8518: real time    7.8488
    FORCOR:  cpu time    0.1620: real time    0.1625
    FORHAR:  cpu time    0.0560: real time    0.0553
    MIXING:  cpu time    0.0200: real time    0.0201
    OFIELD:  cpu time    0.0000: real time    0.0000

  FORCE on cell =-STRESS in cart. coord.  units (eV):
  Direction    XX          YY          ZZ          XY          YZ          ZX
  --------------------------------------------------------------------------------------
  Alpha Z   378.09908   378.09908   378.09908
  Ewald   27809.53423 27749.52952-32827.80614    -0.00000    -0.00000    -0.00000
  Hartree 30093.66475 30021.68080-28826.03970    -0.00000    -0.00000    -0.00000
  E(xc)    -577.33757  -577.42078  -577.14938     0.00000     0.00000    -0.00000
  Local  -59558.13548-59437.79472 59987.22245     0.00000     0.00000     0.00000
  n-local  -476.01261  -478.01477  -478.90537     0.75754    -0.00000    -0.00001
  augment   113.97771   115.44750   114.49412     0.00000     0.00000    -0.00000
  Kinetic  2220.02483  2237.30531  2232.49986    -1.30353     0.00000    -0.00000
  Fock        0.00000     0.00000     0.00000     0.00000     0.00000     0.00000
  -------------------------------------------------------------------------------------
  Total       3.81493     8.83194     2.41492     0.00000     0.00000     0.00000
  in kB      13.08040    30.28239     8.28011     0.00000     0.00000     0.00000
  external pressure =       17.21 kB  Pullay stress =        0.00 kB


 VOLUME and BASIS-vectors are now :
 -----------------------------------------------------------------------------
  energy-cutoff  :      600.00
  volume of cell :      467.28
      direct lattice vectors                 reciprocal lattice vectors
     5.522882970  0.000000000  0.000000000     0.181064854  0.000000000  0.000000000
     0.000000000  3.905268000  0.000000000     0.000000000  0.256064373  0.000000000
     0.000000000  0.000000000 21.665045198     0.000000000  0.000000000  0.046157300

  length of vectors
     5.522882970  3.905268000 21.665045198     0.181064854  0.256064373  0.046157300


 FORCES acting on ions
    electron-ion (+dipol)            ewald-force                    non-local-force                 convergence-correction
 -----------------------------------------------------------------------------------------------
   0.216E-12 -.111E-12 0.128E+04   -.677E-14 0.936E-15 -.128E+04   0.000E+00 0.000E+00 -.179E+01   0.173E-14 -.859E-14 0.934E-02
   0.187E+00 0.509E-13 0.948E+03   -.132E+00 -.110E-13 -.946E+03   0.640E+00 0.000E+00 -.442E+01   0.101E-01 -.158E-13 0.132E-01
   -.187E+00 0.178E-11 0.948E+03   0.132E+00 -.115E-13 -.946E+03   -.640E+00 0.000E+00 -.442E+01   -.101E-01 -.611E-13 0.132E-01
   0.131E-14 0.191E-12 0.544E+03   -.628E-14 -.372E-14 -.542E+03   0.000E+00 0.000E+00 -.263E+01   0.276E-13 -.274E-13 0.162E-01
   0.175E+00 -.360E-12 0.150E+03   0.246E-13 -.106E-13 -.148E+03   0.380E+00 0.000E+00 -.268E+01   -.236E-02 0.290E-13 0.197E-01
   -.175E+00 0.429E-12 0.150E+03   -.125E-12 -.112E-13 -.148E+03   -.380E+00 0.000E+00 -.268E+01   0.236E-02 0.276E-13 0.197E-01
   0.232E-12 0.983E-13 -.245E+03   -.187E-14 -.940E-15 0.247E+03   0.000E+00 0.000E+00 -.199E+01   0.414E-13 -.170E-13 0.210E-01
   -.374E+00 0.233E-12 -.640E+03   0.132E+00 -.870E-15 0.641E+03   0.105E+01 -.694E-17 -.264E+01   -.301E-02 0.452E-13 0.231E-01
   0.374E+00 -.130E-12 -.640E+03   -.132E+00 0.195E-17 0.641E+03   -.105E+01 0.694E-17 -.264E+01   0.301E-02 0.318E-13 0.231E-01
   -.234E-14 0.437E-13 -.104E+04   -.158E-13 -.726E-14 0.105E+04   0.000E+00 0.000E+00 -.584E+01   0.276E-13 0.468E-13 0.146E-01
   0.204E+02 -.499E-12 -.134E+04   -.268E+02 0.747E-16 0.136E+04   0.655E+01 -.694E-17 -.167E+02   0.316E-02 0.612E-13 -.241E-02
   -.204E+02 0.517E-12 -.134E+04   0.268E+02 -.841E-15 0.136E+04   -.655E+01 0.694E-17 -.167E+02   -.316E-02 0.181E-13 -.241E-02
   -.569E-14 0.544E-13 0.213E+04   0.588E-13 0.130E-13 -.212E+04   0.000E+00 0.000E+00 -.229E+01   -.586E-14 0.338E-14 0.216E-01
   0.964E-13 -.854E-13 0.906E+03   0.105E-12 0.220E-13 -.904E+03   0.000E+00 0.000E+00 -.158E+01   -.150E-13 -.206E-13 0.218E-01
   -.614E-14 0.868E-13 -.409E+03   0.102E-12 0.196E-13 0.411E+03   0.000E+00 0.000E+00 -.136E+01   0.372E-13 0.843E-14 0.392E-01
   0.864E-13 -.733E-13 -.173E+04   -.674E-14 -.509E-14 0.174E+04   0.000E+00 0.000E+00 -.115E+01   0.133E-13 0.474E-13 0.246E-01
   0.105E-13 -.267E-12 0.900E+03   -.162E-13 0.219E-14 -.895E+03   0.000E+00 0.000E+00 -.263E+01   0.271E-14 -.374E-14 0.612E-02
   -.832E-14 -.691E-13 0.364E+03   -.108E-13 0.545E-15 -.362E+03   0.000E+00 0.000E+00 0.505E+00   0.750E-14 0.618E-14 0.103E-01
   0.958E-14 -.319E-12 -.163E+03   -.935E-14 0.336E-14 0.164E+03   0.000E+00 0.000E+00 0.733E+00   0.611E-14 0.118E-13 0.141E-01
   -.624E-16 -.955E-13 -.682E+03   -.243E-13 0.323E-14 0.685E+03   0.000E+00 0.000E+00 0.113E+01   -.122E-14 -.744E-14 0.112E-01
 -----------------------------------------------------------------------------------------------
   0.248E-11 0.147E-11 0.715E+02   -.390E-13 0.210E-14 -.182E-11   0.000E+00 0.000E+00 -.718E+02   0.148E-12 0.175E-12 0.317E+00
 
 
 POSITION                                       TOTAL-FORCE (eV/Angst)
 -----------------------------------------------------------------------------------
      2.76144      0.00000      6.00000        -0.000000     -0.000000     -1.515579
      1.38072      1.95263      7.38072         0.704921      0.000000     -2.073923
      4.14216      1.95263      7.38072        -0.704921     -0.000000     -2.073923
      0.00000      0.00000      8.76144        -0.000000     -0.000000     -0.759435
      4.14216      1.95263     10.14216         0.552878     -0.000000     -1.266446
      1.38072      1.95263     10.14216        -0.552878      0.000000     -1.266446
      2.76144      0.00000     11.52288        -0.000000     -0.000000     -0.590355
      1.38072      1.95263     12.90360         0.808256     -0.000000     -1.453732
      4.14216      1.95263     12.90360        -0.808256      0.000000     -1.453732
      0.00000      0.00000     14.28432        -0.000000     -0.000000     -1.128688
      4.14216      1.95263     15.66505         0.194937     -0.000000     -0.997360
      1.38072      1.95263     15.66505        -0.194937      0.000000     -0.997360
      0.00000      0.00000      6.00000        -0.000000     -0.000000      0.991866
      2.76144      0.00000      8.76144        -0.000000     -0.000000      0.962110
      0.00000      0.00000     11.52288        -0.000000     -0.000000      0.747736
      2.76144      0.00000     14.28432        -0.000000     -0.000000      1.594489
      2.76144      1.95263      6.00000        -0.000000     -0.000000      2.287165
      0.00000      1.95263      8.76144        -0.000000     -0.000000      2.596147
      2.76144      1.95263     11.52288        -0.000000     -0.000000      2.346616
      0.00000      1.95263     14.28432        -0.000000     -0.000000      4.050850
 -----------------------------------------------------------------------------------
    total drift:                                0.000000      0.000000     -0.005049


--------------------------------------------------------------------------------------------------------



  FREE ENERGIE OF THE ION-ELECTRON SYSTEM (eV)
  ---------------------------------------------------
  free  energy   TOTEN  =      -148.73477700 eV

  energy  without entropy=     -148.73477700  energy(sigma->0) =     -148.73477700
 


--------------------------------------------------------------------------------------------------------


    POTLOK:  cpu time    0.1620: real time    0.1619


--------------------------------------------------------------------------------------------------------


     LOOP+:  cpu time  525.1682: real time  525.3124
    4ORBIT:  cpu time    0.0000: real time    0.0000
 BZINTS: Fermi energy: -0.764462;128.000000 electrons
         Band energy:***********;  BLOECHL correction: -0.020375

 total amount of memory used by VASP MPI-rank0   159134. kBytes
=======================================================================

   base      :      30000. kBytes
   nonl-proj :      43063. kBytes
   fftplans  :      10010. kBytes
   grid      :      17991. kBytes
   one-center:        155. kBytes
   wavefun   :      57915. kBytes
 
  
  
 General timing and accounting informations for this job:
 ========================================================
  
                  Total CPU time used (sec):      528.908
                            User time (sec):      520.875
                          System time (sec):        8.033
                         Elapsed time (sec):      529.793
  
                   Maximum memory used (kb):      177948.
                   Average memory used (kb):           0.
  
                          Minor page faults:        54323
                          Major page faults:           56
                 Voluntary context switches:         4452
