Starting job 28514173 ("jobname") on c14-32 at Wed Nov 6 13:55:27 CET 2019
 running on    4 total cores
 distrk:  each k-point on    4 cores,    1 groups
 distr:  one band on    2 cores,    2 groups
 using from now: INCAR     
 vasp.5.4.4.18Apr17-6-g9f103f2a35 (build Jun 30 2017 11:15:00) complex          
  
 POSCAR found type information on POSCAR  O  Sr Ti
 POSCAR found :  3 types and      20 ions
 scaLAPACK will be used

 ----------------------------------------------------------------------------- 
|                                                                             |
|  ADVICE TO THIS USER RUNNING 'VASP/VAMP'   (HEAR YOUR MASTER'S VOICE ...):  |
|                                                                             |
|      You have a (more or less) 'large supercell' and for larger cells       |
|      it might be more efficient to use real space projection operators      |
|      So try LREAL= Auto  in the INCAR   file.                               |
|      Mind: If you want to do a very accurate calculations keep the          |
|      reciprocal projection scheme          (i.e. LREAL=.FALSE.)             |
|                                                                             |
 ----------------------------------------------------------------------------- 

 LDA part: xc-table for Pade appr. of Perdew
 POSCAR, INCAR and KPOINTS ok, starting setup
 FFT: planning ...
 WAVECAR not read
 entering main loop
       N       E                     dE             d eps       ncg     rms          rms(c)
DAV:   1     0.172522103415E+04    0.17252E+04   -0.60159E+04  1832   0.169E+03
DAV:   2     0.229999580581E+03   -0.14952E+04   -0.14328E+04  2184   0.407E+02
DAV:   3    -0.165865099076E+03   -0.39586E+03   -0.38511E+03  2520   0.201E+02
DAV:   4    -0.197089835354E+03   -0.31225E+02   -0.31098E+02  2360   0.635E+01
DAV:   5    -0.198706501359E+03   -0.16167E+01   -0.16158E+01  3016   0.143E+01    0.376E+01
RMM:   6    -0.205891917981E+03   -0.71854E+01   -0.39771E+02  2424   0.586E+01    0.525E+01
RMM:   7    -0.172430634062E+03    0.33461E+02   -0.96834E+01  2163   0.319E+01    0.217E+01
RMM:   8    -0.160700336232E+03    0.11730E+02   -0.23225E+01  2073   0.168E+01    0.153E+01
RMM:   9    -0.156234659144E+03    0.44657E+01   -0.21007E+00  2345   0.559E+00    0.127E+01
RMM:  10    -0.157761465782E+03   -0.15268E+01   -0.40168E+01  2202   0.167E+01    0.307E+01
RMM:  11    -0.156072161861E+03    0.16893E+01   -0.33795E+00  2823   0.380E+00    0.298E+01
RMM:  12    -0.158731258261E+03   -0.26591E+01   -0.13823E+00  2790   0.243E+00    0.334E+01
RMM:  13    -0.159171021576E+03   -0.43976E+00   -0.35138E-01  2996   0.997E-01    0.342E+01
RMM:  14    -0.156483223136E+03    0.26878E+01   -0.41125E-01  2348   0.161E+00    0.318E+01
  WARNING: DENTET: can't reach specified precision
  Number of Electrons is NELECT =   128.000237843108     
RMM:  15    -0.152299335631E+03    0.41839E+01   -0.25732E+00  2177   0.418E+00    0.230E+01
RMM:  16    -0.150727038400E+03    0.15723E+01   -0.14874E+00  2336   0.307E+00    0.162E+01
RMM:  17    -0.150502903081E+03    0.22414E+00   -0.23161E-01  2734   0.108E+00    0.155E+01
RMM:  18    -0.149272111245E+03    0.12308E+01   -0.91008E-01  2184   0.243E+00    0.521E+00
RMM:  19    -0.149349645165E+03   -0.77534E-01   -0.47786E-01  2113   0.206E+00    0.102E+01
RMM:  20    -0.149143489497E+03    0.20616E+00   -0.34358E+00  2151   0.523E+00    0.680E+00
RMM:  21    -0.149043233643E+03    0.10026E+00   -0.45819E-01  2359   0.200E+00    0.499E+00
RMM:  22    -0.148989112404E+03    0.54121E-01   -0.39194E-02  2757   0.483E-01    0.463E+00
RMM:  23    -0.148794828768E+03    0.19428E+00   -0.16621E-01  2062   0.121E+00    0.310E+00
RMM:  24    -0.148753786928E+03    0.41042E-01   -0.45192E-02  2241   0.671E-01    0.150E+00
RMM:  25    -0.148773642879E+03   -0.19856E-01   -0.31713E-03  2268   0.174E-01    0.255E+00
RMM:  26    -0.148760366979E+03    0.13276E-01   -0.89304E-03  2178   0.271E-01    0.196E+00
RMM:  27    -0.148765671723E+03   -0.53047E-02   -0.68732E-02  2096   0.750E-01    0.249E+00
RMM:  28    -0.148738505093E+03    0.27167E-01   -0.78280E-03  2220   0.316E-01    0.556E-01
RMM:  29    -0.148737028841E+03    0.14763E-02   -0.89977E-03  2216   0.276E-01    0.587E-01
RMM:  30    -0.148736046984E+03    0.98186E-03   -0.11983E-02  2153   0.320E-01    0.554E-01
RMM:  31    -0.148736298128E+03   -0.25114E-03   -0.71705E-03  2167   0.225E-01    0.110E+00
RMM:  32    -0.148734599800E+03    0.16983E-02   -0.52242E-04  2198   0.103E-01    0.826E-01
RMM:  33    -0.148733469947E+03    0.11299E-02   -0.87370E-04  2031   0.970E-02    0.462E-01
RMM:  34    -0.148733467620E+03    0.23267E-05   -0.65805E-04  2091   0.704E-02    0.524E-01
RMM:  35    -0.148735088378E+03   -0.16208E-02   -0.10555E-03  2077   0.103E-01    0.103E+00
RMM:  36    -0.148733915426E+03    0.11730E-02   -0.10986E-03  2173   0.944E-02    0.288E-01
RMM:  37    -0.148734189377E+03   -0.27395E-03   -0.20033E-04  1812   0.573E-02    0.177E-01
RMM:  38    -0.148734327044E+03   -0.13767E-03   -0.17915E-04  1824   0.425E-02    0.148E-01
RMM:  39    -0.148735515793E+03   -0.11887E-02   -0.67076E-04  2030   0.743E-02    0.293E-01
RMM:  40    -0.148735008347E+03    0.50745E-03   -0.13266E-04  1765   0.424E-02    0.194E-01
RMM:  41    -0.148734852448E+03    0.15590E-03   -0.68524E-05  1679   0.269E-02    0.877E-02
RMM:  42    -0.148735068325E+03   -0.21588E-03   -0.17689E-05  1317   0.152E-02    0.148E-01
RMM:  43    -0.148734862533E+03    0.20579E-03   -0.33402E-05  1413   0.199E-02    0.838E-02
RMM:  44    -0.148734816279E+03    0.46254E-04   -0.37645E-05  1426   0.176E-02    0.617E-02
RMM:  45    -0.148734722475E+03    0.93804E-04   -0.55183E-05  1562   0.214E-02    0.250E-02
RMM:  46    -0.148734753499E+03   -0.31024E-04   -0.15058E-05  1214   0.145E-02    0.129E-02
RMM:  47    -0.148734768559E+03   -0.15060E-04   -0.44491E-06  1064   0.103E-02    0.814E-03
RMM:  48    -0.148734776999E+03   -0.84396E-05   -0.22044E-06   961   0.518E-03
   1 F= -.14873478E+03 E0= -.14873478E+03  d E =0.000000E+00

Currently Loaded Modulefiles:
  1) intel/2017.4         2) perf-reports/7.0.6

Job script resource usage:
       JobID  MaxVMSize     MaxRSS 
------------ ---------- ---------- 
28514173.ba+    499232K      5719K 

Job step resource usage:
       JobID    JobName  AllocCPUS  MaxVMSize     MaxRSS    Elapsed ExitCode 
------------ ---------- ---------- ---------- ---------- ---------- -------- 
28514173        jobname          4                         00:08:53      0:0 
28514173.0    pmi_proxy          1   1871616K    655199K   00:08:50      0:0 

Job 28514173 ("jobname") completed on c14-32 at Wed Nov 6 14:04:18 CET 2019
