<?xml version="1.0" encoding="ISO-8859-1"?>
<modeling>
 <generator>
  <i name="program" type="string">vasp </i>
  <i name="version" type="string">5.4.4.18Apr17-6-g9f103f2a35  </i>
  <i name="subversion" type="string">(build Jun 30 2017 11:15:00) complex            parallel </i>
  <i name="platform" type="string">STALLO_VASP_5.4.4 </i>
  <i name="date" type="string">2019 11 06 </i>
  <i name="time" type="string">13:55:29 </i>
 </generator>
 <incar>
  <i type="string" name="PREC">normal    ! low/normal/accurate</i>
  <i type="string" name="ALGO"> Fast      ! Algorithm for electronic re</i>
  <i type="int" name="ISPIN">     1</i>
  <i type="int" name="NELMIN">     4</i>
  <i name="EDIFF">      0.00001000</i>
  <i type="int" name="NSW">     0</i>
  <i name="ENCUT">    600.00000000</i>
  <i type="logical" name="LREAL"> F  </i>
  <i type="int" name="ISMEAR">    -5</i>
  <i name="SIGMA">      0.20000000</i>
  <i type="logical" name="LWAVE"> F  </i>
  <v type="int" name="KPOINT_BSE">    -1     0     0     0</v>
 </incar>
 <structure name="primitive_cell" >
  <crystal>
   <varray name="basis" >
    <v>       5.52288297       0.00000000       0.00000000 </v>
    <v>       0.00000000       3.90526800       0.00000000 </v>
    <v>       0.00000000       0.00000000      21.66504520 </v>
   </varray>
   <i name="volume">    467.27902047 </i>
   <varray name="rec_basis" >
    <v>       0.18106485       0.00000000       0.00000000 </v>
    <v>       0.00000000       0.25606437       0.00000000 </v>
    <v>       0.00000000       0.00000000       0.04615730 </v>
   </varray>
  </crystal>
  <varray name="positions" >
   <v>      -0.50000000       0.00000000       0.27694380 </v>
   <v>      -0.50000000      -0.50000000       0.27694380 </v>
   <v>      -0.50000000       0.00000000       0.40440449 </v>
   <v>       0.25000000      -0.50000000       0.34067414 </v>
   <v>      -0.25000000      -0.50000000       0.34067414 </v>
   <v>       0.00000000       0.00000000       0.27694380 </v>
   <v>       0.00000000       0.00000000       0.40440449 </v>
   <v>       0.00000000      -0.50000000       0.40440449 </v>
   <v>      -0.25000000      -0.50000000       0.46813483 </v>
   <v>       0.25000000      -0.50000000       0.46813483 </v>
   <v>      -0.50000000       0.00000000      -0.46813483 </v>
   <v>      -0.50000000      -0.50000000      -0.46813483 </v>
   <v>       0.00000000       0.00000000      -0.46813483 </v>
   <v>       0.25000000      -0.50000000      -0.40440449 </v>
   <v>      -0.25000000      -0.50000000      -0.40440449 </v>
   <v>      -0.50000000       0.00000000      -0.34067414 </v>
   <v>       0.00000000       0.00000000      -0.34067414 </v>
   <v>       0.00000000      -0.50000000      -0.34067414 </v>
   <v>      -0.25000000      -0.50000000      -0.27694380 </v>
   <v>       0.25000000      -0.50000000      -0.27694380 </v>
  </varray>
 </structure>
 <varray name="primitive_index" >
  <v type="int" >        1 </v>
  <v type="int" >       17 </v>
  <v type="int" >       14 </v>
  <v type="int" >        2 </v>
  <v type="int" >        3 </v>
  <v type="int" >       13 </v>
  <v type="int" >        4 </v>
  <v type="int" >       18 </v>
  <v type="int" >        5 </v>
  <v type="int" >        6 </v>
  <v type="int" >        7 </v>
  <v type="int" >       19 </v>
  <v type="int" >       15 </v>
  <v type="int" >        8 </v>
  <v type="int" >        9 </v>
  <v type="int" >       16 </v>
  <v type="int" >       10 </v>
  <v type="int" >       20 </v>
  <v type="int" >       11 </v>
  <v type="int" >       12 </v>
 </varray>
 <kpoints>
  <generation param="Gamma">
   <v type="int" name="divisions">       5        7        1 </v>
   <v name="usershift">      0.00000000       0.00000000       0.00000000 </v>
   <v name="genvec1">      0.20000000       0.00000000       0.00000000 </v>
   <v name="genvec2">      0.00000000       0.14285714       0.00000000 </v>
   <v name="genvec3">      0.00000000       0.00000000       1.00000000 </v>
   <v name="shift">      0.00000000       0.00000000       0.00000000 </v>
  </generation>
  <varray name="kpointlist" >
   <v>       0.00000000       0.00000000       0.00000000 </v>
   <v>       0.20000000       0.00000000       0.00000000 </v>
   <v>       0.40000000       0.00000000       0.00000000 </v>
   <v>       0.00000000       0.14285714       0.00000000 </v>
   <v>       0.20000000       0.14285714       0.00000000 </v>
   <v>       0.40000000       0.14285714       0.00000000 </v>
   <v>       0.00000000       0.28571429       0.00000000 </v>
   <v>       0.20000000       0.28571429       0.00000000 </v>
   <v>       0.40000000       0.28571429       0.00000000 </v>
   <v>       0.00000000       0.42857143       0.00000000 </v>
   <v>       0.20000000       0.42857143       0.00000000 </v>
   <v>       0.40000000       0.42857143       0.00000000 </v>
  </varray>
  <varray name="weights" >
   <v>       0.02857143 </v>
   <v>       0.05714286 </v>
   <v>       0.05714286 </v>
   <v>       0.05714286 </v>
   <v>       0.11428571 </v>
   <v>       0.11428571 </v>
   <v>       0.05714286 </v>
   <v>       0.11428571 </v>
   <v>       0.11428571 </v>
   <v>       0.05714286 </v>
   <v>       0.11428571 </v>
   <v>       0.11428571 </v>
  </varray>
  <varray name="tetrahedronlist"  type="int" >
   <v type="int" >        2        1        1        2        5 </v>
   <v type="int" >        2        1        1        4        5 </v>
   <v type="int" >        2        1        4        4        5 </v>
   <v type="int" >        2        1        2        2        5 </v>
   <v type="int" >        2        1        2        5        5 </v>
   <v type="int" >        2        1        4        5        5 </v>
   <v type="int" >        2        2        2        3        6 </v>
   <v type="int" >        2        2        2        5        6 </v>
   <v type="int" >        2        2        5        5        6 </v>
   <v type="int" >        2        2        3        3        6 </v>
   <v type="int" >        2        2        3        6        6 </v>
   <v type="int" >        2        2        5        6        6 </v>
   <v type="int" >        4        3        3        3        6 </v>
   <v type="int" >        4        3        3        6        6 </v>
   <v type="int" >        4        3        6        6        6 </v>
   <v type="int" >        2        2        3        3        5 </v>
   <v type="int" >        2        3        3        5        6 </v>
   <v type="int" >        2        3        5        6        6 </v>
   <v type="int" >        2        2        2        3        5 </v>
   <v type="int" >        2        2        3        5        5 </v>
   <v type="int" >        2        3        5        5        6 </v>
   <v type="int" >        2        1        2        2        4 </v>
   <v type="int" >        2        2        2        4        5 </v>
   <v type="int" >        2        2        4        5        5 </v>
   <v type="int" >        2        1        1        2        4 </v>
   <v type="int" >        2        1        2        4        4 </v>
   <v type="int" >        2        2        4        4        5 </v>
   <v type="int" >        2        4        4        5        8 </v>
   <v type="int" >        2        4        4        7        8 </v>
   <v type="int" >        2        4        7        7        8 </v>
   <v type="int" >        2        4        5        5        8 </v>
   <v type="int" >        2        4        5        8        8 </v>
   <v type="int" >        2        4        7        8        8 </v>
   <v type="int" >        2        5        5        6        9 </v>
   <v type="int" >        2        5        5        8        9 </v>
   <v type="int" >        2        5        8        8        9 </v>
   <v type="int" >        2        5        6        6        9 </v>
   <v type="int" >        2        5        6        9        9 </v>
   <v type="int" >        2        5        8        9        9 </v>
   <v type="int" >        4        6        6        6        9 </v>
   <v type="int" >        4        6        6        9        9 </v>
   <v type="int" >        4        6        9        9        9 </v>
   <v type="int" >        2        5        6        6        8 </v>
   <v type="int" >        2        6        6        8        9 </v>
   <v type="int" >        2        6        8        9        9 </v>
   <v type="int" >        2        5        5        6        8 </v>
   <v type="int" >        2        5        6        8        8 </v>
   <v type="int" >        2        6        8        8        9 </v>
   <v type="int" >        2        4        5        5        7 </v>
   <v type="int" >        2        5        5        7        8 </v>
   <v type="int" >        2        5        7        8        8 </v>
   <v type="int" >        2        4        4        5        7 </v>
   <v type="int" >        2        4        5        7        7 </v>
   <v type="int" >        2        5        7        7        8 </v>
   <v type="int" >        2        7        7        8       11 </v>
   <v type="int" >        2        7        7       10       11 </v>
   <v type="int" >        2        7       10       10       11 </v>
   <v type="int" >        2        7        8        8       11 </v>
   <v type="int" >        2        7        8       11       11 </v>
   <v type="int" >        2        7       10       11       11 </v>
   <v type="int" >        2        8        8        9       12 </v>
   <v type="int" >        2        8        8       11       12 </v>
   <v type="int" >        2        8       11       11       12 </v>
   <v type="int" >        2        8        9        9       12 </v>
   <v type="int" >        2        8        9       12       12 </v>
   <v type="int" >        2        8       11       12       12 </v>
   <v type="int" >        4        9        9        9       12 </v>
   <v type="int" >        4        9        9       12       12 </v>
   <v type="int" >        4        9       12       12       12 </v>
   <v type="int" >        2        8        9        9       11 </v>
   <v type="int" >        2        9        9       11       12 </v>
   <v type="int" >        2        9       11       12       12 </v>
   <v type="int" >        2        8        8        9       11 </v>
   <v type="int" >        2        8        9       11       11 </v>
   <v type="int" >        2        9       11       11       12 </v>
   <v type="int" >        2        7        8        8       10 </v>
   <v type="int" >        2        8        8       10       11 </v>
   <v type="int" >        2        8       10       11       11 </v>
   <v type="int" >        2        7        7        8       10 </v>
   <v type="int" >        2        7        8       10       10 </v>
   <v type="int" >        2        8       10       10       11 </v>
   <v type="int" >        4       10       10       11       11 </v>
   <v type="int" >        4       10       10       10       11 </v>
   <v type="int" >        4       10       11       11       11 </v>
   <v type="int" >        4       11       11       12       12 </v>
   <v type="int" >        4       11       11       11       12 </v>
   <v type="int" >        4       11       12       12       12 </v>
   <v type="int" >        6       12       12       12       12 </v>
  </varray>
  <i name="volumeweight">      0.00476190 </i>
 </kpoints>
 <parameters>
  <separator name="general" >
   <i type="string" name="SYSTEM">unknown system</i>
   <i type="logical" name="LCOMPAT"> F  </i>
  </separator>
  <separator name="electronic" >
   <i type="string" name="PREC">normal</i>
   <i name="ENMAX">    600.00000000</i>
   <i name="ENAUG">    605.39200000</i>
   <i name="EDIFF">      0.00001000</i>
   <i type="int" name="IALGO">    68</i>
   <i type="int" name="IWAVPR">    10</i>
   <i type="int" name="NBANDS">    76</i>
   <i name="NELECT">    128.00000000</i>
   <i type="int" name="TURBO">     0</i>
   <i type="int" name="IRESTART">     0</i>
   <i type="int" name="NREBOOT">     0</i>
   <i type="int" name="NMIN">     0</i>
   <i name="EREF">      0.00000000</i>
   <separator name="electronic smearing" >
    <i type="int" name="ISMEAR">    -5</i>
    <i name="SIGMA">      0.20000000</i>
    <i name="KSPACING">      0.50000000</i>
    <i type="logical" name="KGAMMA"> T  </i>
   </separator>
   <separator name="electronic projectors" >
    <i type="logical" name="LREAL"> F  </i>
    <v name="ROPT">      0.00000000      0.00000000      0.00000000</v>
    <i type="int" name="LMAXPAW">  -100</i>
    <i type="int" name="LMAXMIX">     2</i>
    <i type="logical" name="NLSPLINE"> F  </i>
   </separator>
   <separator name="electronic startup" >
    <i type="int" name="ISTART">     0</i>
    <i type="int" name="ICHARG">     2</i>
    <i type="int" name="INIWAV">     1</i>
   </separator>
   <separator name="electronic spin" >
    <i type="int" name="ISPIN">     1</i>
    <i type="logical" name="LNONCOLLINEAR"> F  </i>
    <v name="MAGMOM">      1.00000000      1.00000000      1.00000000      1.00000000      1.00000000      1.00000000      1.00000000      1.00000000      1.00000000      1.00000000      1.00000000      1.00000000      1.00000000      1.00000000      1.00000000      1.00000000      1.00000000      1.00000000      1.00000000      1.00000000
</v>
    <i name="NUPDOWN">     -1.00000000</i>
    <i type="logical" name="LSORBIT"> F  </i>
    <v name="SAXIS">      0.00000000      0.00000000      1.00000000</v>
    <i type="logical" name="LSPIRAL"> F  </i>
    <v name="QSPIRAL">      0.00000000      0.00000000      0.00000000</v>
    <i type="logical" name="LZEROZ"> F  </i>
   </separator>
   <separator name="electronic exchange-correlation" >
    <i type="logical" name="LASPH"> F  </i>
    <i type="logical" name="LMETAGGA"> F  </i>
   </separator>
   <separator name="electronic convergence" >
    <i type="int" name="NELM">    60</i>
    <i type="int" name="NELMDL">    -5</i>
    <i type="int" name="NELMIN">     4</i>
    <i name="ENINI">    600.00000000</i>
    <separator name="electronic convergence detail" >
     <i type="logical" name="LDIAG"> T  </i>
     <i type="logical" name="LSUBROT"> F  </i>
     <i name="WEIMIN">      0.00000000</i>
     <i name="EBREAK">      0.00000003</i>
     <i name="DEPER">      0.30000000</i>
     <i type="int" name="NRMM">     4</i>
     <i name="TIME">      0.40000000</i>
    </separator>
   </separator>
   <separator name="electronic mixer" >
    <i name="AMIX">      0.40000000</i>
    <i name="BMIX">      1.00000000</i>
    <i name="AMIN">      0.10000000</i>
    <i name="AMIX_MAG">      1.60000000</i>
    <i name="BMIX_MAG">      1.00000000</i>
    <separator name="electronic mixer details" >
     <i type="int" name="IMIX">     4</i>
     <i type="logical" name="MIXFIRST"> F  </i>
     <i type="int" name="MAXMIX">   -45</i>
     <i name="WC">    100.00000000</i>
     <i type="int" name="INIMIX">     1</i>
     <i type="int" name="MIXPRE">     1</i>
     <i type="int" name="MREMOVE">     5</i>
    </separator>
   </separator>
   <separator name="electronic dipolcorrection" >
    <i type="logical" name="LDIPOL"> F  </i>
    <i type="logical" name="LMONO"> F  </i>
    <i type="int" name="IDIPOL">     0</i>
    <i name="EPSILON">      1.00000000</i>
    <v name="DIPOL">   -100.00000000   -100.00000000   -100.00000000</v>
    <i name="EFIELD">      0.00000000</i>
   </separator>
  </separator>
  <separator name="grids" >
   <i type="int" name="NGX">    36</i>
   <i type="int" name="NGY">    24</i>
   <i type="int" name="NGZ">   140</i>
   <i type="int" name="NGXF">    72</i>
   <i type="int" name="NGYF">    48</i>
   <i type="int" name="NGZF">   280</i>
   <i type="logical" name="ADDGRID"> F  </i>
  </separator>
  <separator name="ionic" >
   <i type="int" name="NSW">     0</i>
   <i type="int" name="IBRION">    -1</i>
   <i type="int" name="MDALGO">     0</i>
   <i type="int" name="ISIF">     2</i>
   <i name="PSTRESS">      0.00000000</i>
   <i name="EDIFFG">      0.00010000</i>
   <i type="int" name="NFREE">     0</i>
   <i name="POTIM">      0.50000000</i>
   <i name="SMASS">     -3.00000000</i>
   <i name="SCALEE">      1.00000000</i>
  </separator>
  <separator name="ionic md" >
   <i name="TEBEG">      0.00010000</i>
   <i name="TEEND">      0.00010000</i>
   <i type="int" name="NBLOCK">     1</i>
   <i type="int" name="KBLOCK">     1</i>
   <i type="int" name="NPACO">   256</i>
   <i name="APACO">     16.00000000</i>
  </separator>
  <separator name="symmetry" >
   <i type="int" name="ISYM">     2</i>
   <i name="SYMPREC">      0.00001000</i>
  </separator>
  <separator name="dos" >
   <i type="int" name="LORBIT">     0</i>
   <v name="RWIGS">     -1.00000000     -1.00000000     -1.00000000</v>
   <i type="int" name="NEDOS">   301</i>
   <i name="EMIN">     10.00000000</i>
   <i name="EMAX">    -10.00000000</i>
   <i name="EFERMI">      0.00000000</i>
  </separator>
  <separator name="writing" >
   <i type="int" name="NWRITE">     2</i>
   <i type="logical" name="LWAVE"> F  </i>
   <i type="logical" name="LDOWNSAMPLE"> F  </i>
   <i type="logical" name="LCHARG"> T  </i>
   <i type="logical" name="LPARD"> F  </i>
   <i type="logical" name="LVTOT"> F  </i>
   <i type="logical" name="LVHAR"> F  </i>
   <i type="logical" name="LELF"> F  </i>
   <i type="logical" name="LOPTICS"> F  </i>
   <v name="STM">      0.00000000      0.00000000      0.00000000      0.00000000      0.00000000      0.00000000      0.00000000</v>
  </separator>
  <separator name="performance" >
   <i type="int" name="NPAR">     2</i>
   <i type="int" name="NSIM">     4</i>
   <i type="int" name="NBLK">    -1</i>
   <i type="logical" name="LPLANE"> T  </i>
   <i type="logical" name="LSCALAPACK"> T  </i>
   <i type="logical" name="LSCAAWARE"> F  </i>
   <i type="logical" name="LSCALU"> F  </i>
   <i type="logical" name="LASYNC"> F  </i>
   <i type="logical" name="LORBITALREAL"> F  </i>
  </separator>
  <separator name="miscellaneous" >
   <i type="int" name="IDIOT">     3</i>
   <i type="int" name="ISPECIAL">     0</i>
   <i type="logical" name="LMUSIC"> F  </i>
   <v name="POMASS">     16.00000000     87.62000000     47.88000000</v>
   <v name="DARWINR">      0.00000000      0.00000000      0.00000000</v>
   <v name="DARWINV">      1.00000000      1.00000000      1.00000000</v>
   <i type="logical" name="LCORR"> T  </i>
  </separator>
  <i type="logical" name="GGA_COMPAT"> T  </i>
  <i type="logical" name="LBERRY"> F  </i>
  <i type="int" name="ICORELEVEL">     0</i>
  <i type="logical" name="LDAU"> F  </i>
  <i type="int" name="I_CONSTRAINED_M">     0</i>
  <separator name="electronic exchange-correlation" >
   <i type="string" name="GGA">--</i>
   <i type="int" name="VOSKOWN">     0</i>
   <i type="logical" name="LHFCALC"> F  </i>
   <i type="string" name="PRECFOCK"></i>
   <i type="logical" name="LSYMGRAD"> F  </i>
   <i type="logical" name="LHFONE"> F  </i>
   <i type="logical" name="LRHFCALC"> F  </i>
   <i type="logical" name="LTHOMAS"> F  </i>
   <i type="logical" name="LMODELHF"> F  </i>
   <i name="ENCUT4O">     -1.00000000</i>
   <i type="int" name="EXXOEP">     0</i>
   <i type="int" name="FOURORBIT">     0</i>
   <i name="AEXX">      0.00000000</i>
   <i name="HFALPHA">      0.00000000</i>
   <i name="MCALPHA">      0.00000000</i>
   <i name="ALDAX">      1.00000000</i>
   <i name="AGGAX">      1.00000000</i>
   <i name="ALDAC">      1.00000000</i>
   <i name="AGGAC">      1.00000000</i>
   <i type="int" name="NKREDX">     1</i>
   <i type="int" name="NKREDY">     1</i>
   <i type="int" name="NKREDZ">     1</i>
   <i type="logical" name="SHIFTRED"> F  </i>
   <i type="logical" name="ODDONLY"> F  </i>
   <i type="logical" name="EVENONLY"> F  </i>
   <i type="int" name="LMAXFOCK">     0</i>
   <i type="int" name="NMAXFOCKAE">     0</i>
   <i type="logical" name="LFOCKAEDFT"> F  </i>
   <i name="HFSCREEN">      0.00000000</i>
   <i name="HFSCREENC">      0.00000000</i>
   <i type="int" name="NBANDSGWLOW">     0</i>
  </separator>
  <separator name="vdW DFT" >
   <i type="logical" name="LUSE_VDW"> F  </i>
   <i name="Zab_VDW">     -0.84910000</i>
   <i name="PARAM1">      0.12340000</i>
   <i name="PARAM2">      1.00000000</i>
   <i name="PARAM3">      0.00000000</i>
  </separator>
  <separator name="model GW" >
   <i type="int" name="MODEL_GW">     0</i>
   <i name="MODEL_EPS0">     14.01837061</i>
   <i name="MODEL_ALPHA">      1.00000000</i>
  </separator>
  <separator name="linear response parameters" >
   <i type="logical" name="LEPSILON"> F  </i>
   <i type="logical" name="LRPA"> F  </i>
   <i type="logical" name="LNABLA"> F  </i>
   <i type="logical" name="LVEL"> F  </i>
   <i type="int" name="KINTER">     0</i>
   <i name="CSHIFT">      0.10000000</i>
   <i name="OMEGAMAX">     -1.00000000</i>
   <i name="DEG_THRESHOLD">      0.00200000</i>
   <i name="RTIME">     -0.10000000</i>
   <i name="WPLASMAI">      0.00000000</i>
   <v name="DFIELD">      0.00000000      0.00000000      0.00000000</v>
   <v name="WPLASMA">      0.00000000      0.00000000      0.00000000      0.00000000      0.00000000      0.00000000      0.00000000      0.00000000      0.00000000</v>
  </separator>
  <separator name="orbital magnetization" >
   <i type="logical" name="NUCIND"> F  </i>
   <v name="MAGPOS">      0.00000000      0.00000000      0.00000000</v>
   <i type="logical" name="LNICSALL"> T  </i>
   <i type="logical" name="ORBITALMAG"> F  </i>
   <i type="logical" name="LMAGBLOCH"> F  </i>
   <i type="logical" name="LCHIMAG"> F  </i>
   <i type="logical" name="LGAUGE"> T  </i>
   <i type="int" name="MAGATOM">     0</i>
   <v name="MAGDIPOL">      0.00000000      0.00000000      0.00000000</v>
   <v name="AVECCONST">      0.00000000      0.00000000      0.00000000</v>
  </separator>
  <separator name="response functions" >
   <i type="logical" name="LADDER"> F  </i>
   <i type="logical" name="LRPAFORCE"> F  </i>
   <i type="logical" name="LFXC"> F  </i>
   <i type="logical" name="LHARTREE"> T  </i>
   <i type="int" name="IBSE">     0</i>
   <v type="int" name="KPOINT">    -1     0     0     0</v>
   <i type="logical" name="LTCTE"> F  </i>
   <i type="logical" name="LTETE"> F  </i>
   <i type="logical" name="LTRIPLET"> F  </i>
   <i type="logical" name="LFXCEPS"> F  </i>
   <i type="logical" name="LFXHEG"> F  </i>
   <i type="int" name="NATURALO">     2</i>
   <i type="logical" name="L2ORDER"> F  </i>
   <i type="logical" name="LMP2LT"> F  </i>
   <i type="logical" name="LUSEW"> F  </i>
   <i name="ENCUTGW">     -2.00000000</i>
   <i name="ENCUTGWSOFT">     -2.00000000</i>
   <i name="ENCUTLF">     -1.00000000</i>
   <i type="int" name="LMAXMP2">    -1</i>
   <i name="SCISSOR">      0.00000000</i>
   <i type="int" name="NOMEGA">     0</i>
   <i type="int" name="NOMEGAR">     0</i>
   <i type="int" name="NBANDSGW">    -1</i>
   <i type="int" name="NBANDSO">    -1</i>
   <i type="int" name="NBANDSV">    -1</i>
   <i type="int" name="NELM">     1</i>
   <i type="int" name="NELMHF">     1</i>
   <i type="int" name="DIM">     3</i>
   <i type="int" name="ANTIRES">     0</i>
   <i name="OMEGAMAX">    -30.00000000</i>
   <i name="OMEGAMIN">    -30.00000000</i>
   <i name="OMEGATL">   -200.00000000</i>
   <i type="int" name="OMEGAGRID">   140</i>
   <i name="CSHIFT">     -0.10000000</i>
   <i type="logical" name="SELFENERGY"> F  </i>
   <i type="logical" name="LSPECTRAL"> F  </i>
   <i type="logical" name="LSPECTRALGW"> F  </i>
   <i type="logical" name="LSINGLES"> F  </i>
   <i type="logical" name="LFERMIGW"> F  </i>
   <i type="logical" name="ODDONLYGW"> F  </i>
   <i type="logical" name="EVENONLYGW"> F  </i>
   <i type="int" name="NKREDLFX">     1</i>
   <i type="int" name="NKREDLFY">     1</i>
   <i type="int" name="NKREDLFZ">     1</i>
   <i type="int" name="MAXMEM">  2800</i>
   <i type="int" name="TELESCOPE">     0</i>
   <i type="int" name="TAUPAR">     1</i>
   <i type="int" name="OMEGAPAR">    -1</i>
   <i name="LAMBDA">      1.00000000</i>
  </separator>
  <separator name="External order field" >
   <i name="OFIELD_KAPPA">      0.00000000</i>
   <v name="OFIELD_K">      0.00000000      0.00000000      0.00000000</v>
   <i name="OFIELD_Q6_NEAR">      0.00000000</i>
   <i name="OFIELD_Q6_FAR">      0.00000000</i>
   <i name="OFIELD_A">      0.00000000</i>
  </separator>
 </parameters>
 <atominfo>
  <atoms>      20 </atoms>
  <types>       3 </types>
  <array name="atoms" >
   <dimension dim="1">ion</dimension>
   <field type="string">element</field>
   <field type="int">atomtype</field>
   <set>
    <rc><c>O </c><c>   1</c></rc>
    <rc><c>O </c><c>   1</c></rc>
    <rc><c>O </c><c>   1</c></rc>
    <rc><c>O </c><c>   1</c></rc>
    <rc><c>O </c><c>   1</c></rc>
    <rc><c>O </c><c>   1</c></rc>
    <rc><c>O </c><c>   1</c></rc>
    <rc><c>O </c><c>   1</c></rc>
    <rc><c>O </c><c>   1</c></rc>
    <rc><c>O </c><c>   1</c></rc>
    <rc><c>O </c><c>   1</c></rc>
    <rc><c>O </c><c>   1</c></rc>
    <rc><c>Sr</c><c>   2</c></rc>
    <rc><c>Sr</c><c>   2</c></rc>
    <rc><c>Sr</c><c>   2</c></rc>
    <rc><c>Sr</c><c>   2</c></rc>
    <rc><c>Ti</c><c>   3</c></rc>
    <rc><c>Ti</c><c>   3</c></rc>
    <rc><c>Ti</c><c>   3</c></rc>
    <rc><c>Ti</c><c>   3</c></rc>
   </set>
  </array>
  <array name="atomtypes" >
   <dimension dim="1">type</dimension>
   <field type="int">atomspertype</field>
   <field type="string">element</field>
   <field>mass</field>
   <field>valence</field>
   <field type="string">pseudopotential</field>
   <set>
    <rc><c>  12</c><c>O </c><c>     16.00000000</c><c>      6.00000000</c><c> PAW_PBE O 08Apr2002                    </c></rc>
    <rc><c>   4</c><c>Sr</c><c>     87.62000000</c><c>     10.00000000</c><c> PAW_PBE Sr_sv 07Sep2000                </c></rc>
    <rc><c>   4</c><c>Ti</c><c>     47.88000000</c><c>      4.00000000</c><c> PAW_PBE Ti 08Apr2002                   </c></rc>
   </set>
  </array>
 </atominfo>
 <structure name="initialpos" >
  <crystal>
   <varray name="basis" >
    <v>       5.52288297       0.00000000       0.00000000 </v>
    <v>       0.00000000       3.90526800       0.00000000 </v>
    <v>       0.00000000       0.00000000      21.66504520 </v>
   </varray>
   <i name="volume">    467.27902047 </i>
   <varray name="rec_basis" >
    <v>       0.18106485       0.00000000       0.00000000 </v>
    <v>       0.00000000       0.25606437       0.00000000 </v>
    <v>       0.00000000       0.00000000       0.04615730 </v>
   </varray>
  </crystal>
  <varray name="positions" >
   <v>       0.50000000       0.00000000       0.27694380 </v>
   <v>       0.25000000       0.50000000       0.34067414 </v>
   <v>       0.75000000       0.50000000       0.34067414 </v>
   <v>       0.00000000       0.00000000       0.40440449 </v>
   <v>       0.75000000       0.50000000       0.46813483 </v>
   <v>       0.25000000       0.50000000       0.46813483 </v>
   <v>       0.50000000       0.00000000       0.53186517 </v>
   <v>       0.25000000       0.50000000       0.59559551 </v>
   <v>       0.75000000       0.50000000       0.59559551 </v>
   <v>       0.00000000       0.00000000       0.65932586 </v>
   <v>       0.75000000       0.50000000       0.72305620 </v>
   <v>       0.25000000       0.50000000       0.72305620 </v>
   <v>       0.00000000       0.00000000       0.27694380 </v>
   <v>       0.50000000       0.00000000       0.40440449 </v>
   <v>       0.00000000       0.00000000       0.53186517 </v>
   <v>       0.50000000       0.00000000       0.65932586 </v>
   <v>       0.50000000       0.50000000       0.27694380 </v>
   <v>       0.00000000       0.50000000       0.40440449 </v>
   <v>       0.50000000       0.50000000       0.53186517 </v>
   <v>       0.00000000       0.50000000       0.65932586 </v>
  </varray>
 </structure>
 <calculation>
  <scstep>
   <time name="dav">   10.26   10.26</time>
   <time name="total">   10.47   10.48</time>
   <energy>
    <i name="alphaZ">    378.09908315 </i>
    <i name="ewald">  22731.27163923 </i>
    <i name="hartreedc"> -30966.93774878 </i>
    <i name="XCdc">    325.41603447 </i>
    <i name="pawpsdc">   5334.45189010 </i>
    <i name="pawaedc">  -5139.13784255 </i>
    <i name="eentropy">      0.00000000 </i>
    <i name="bandstr">    124.72090512 </i>
    <i name="atom">   8937.33707341 </i>
    <i name="e_fr_energy">   1725.22103415 </i>
    <i name="e_wo_entrp">   1725.22103415 </i>
    <i name="e_0_energy">   1725.22103415 </i>
   </energy>
  </scstep>
  <scstep>
   <time name="dav">   11.66   11.66</time>
   <time name="total">   11.67   11.67</time>
   <energy>
    <i name="e_fr_energy">    229.99958058 </i>
    <i name="e_wo_entrp">    229.99958058 </i>
    <i name="e_0_energy">    229.99958058 </i>
   </energy>
  </scstep>
  <scstep>
   <time name="dav">   13.18   13.18</time>
   <time name="total">   13.18   13.18</time>
   <energy>
    <i name="e_fr_energy">   -165.86509908 </i>
    <i name="e_wo_entrp">   -165.86509908 </i>
    <i name="e_0_energy">   -165.86509908 </i>
   </energy>
  </scstep>
  <scstep>
   <time name="dav">   12.49   12.49</time>
   <time name="total">   12.49   12.49</time>
   <energy>
    <i name="e_fr_energy">   -197.08983535 </i>
    <i name="e_wo_entrp">   -197.08983535 </i>
    <i name="e_0_energy">   -197.08983535 </i>
   </energy>
  </scstep>
  <scstep>
   <time name="dav">   15.17   15.16</time>
   <time name="total">   15.58   15.57</time>
   <energy>
    <i name="e_fr_energy">   -198.70650136 </i>
    <i name="e_wo_entrp">   -198.70650136 </i>
    <i name="e_0_energy">   -198.70650136 </i>
   </energy>
  </scstep>
  <scstep>
   <time name="diag">    1.18    1.18</time>
   <time name="diis">    9.71    9.71</time>
   <time name="orth">    0.22    0.22</time>
   <time name="total">   11.72   11.72</time>
   <energy>
    <i name="e_fr_energy">   -205.89191798 </i>
    <i name="e_wo_entrp">   -205.89191798 </i>
    <i name="e_0_energy">   -205.89191798 </i>
   </energy>
  </scstep>
  <scstep>
   <time name="diag">    1.26    1.27</time>
   <time name="diis">    8.87    8.87</time>
   <time name="orth">    0.22    0.22</time>
   <time name="total">   10.97   10.97</time>
   <energy>
    <i name="e_fr_energy">   -172.43063406 </i>
    <i name="e_wo_entrp">   -172.43063406 </i>
    <i name="e_0_energy">   -172.43063406 </i>
   </energy>
  </scstep>
  <scstep>
   <time name="diag">    1.26    1.27</time>
   <time name="diis">    8.37    8.37</time>
   <time name="orth">    0.22    0.22</time>
   <time name="total">   10.45   10.45</time>
   <energy>
    <i name="e_fr_energy">   -160.70033623 </i>
    <i name="e_wo_entrp">   -160.70033623 </i>
    <i name="e_0_energy">   -160.70033623 </i>
   </energy>
  </scstep>
  <scstep>
   <time name="diag">    1.26    1.26</time>
   <time name="diis">    9.47    9.46</time>
   <time name="orth">    0.22    0.22</time>
   <time name="total">   11.54   11.54</time>
   <energy>
    <i name="e_fr_energy">   -156.23465914 </i>
    <i name="e_wo_entrp">   -156.23465914 </i>
    <i name="e_0_energy">   -156.23465914 </i>
   </energy>
  </scstep>
  <scstep>
   <time name="diag">    1.26    1.26</time>
   <time name="diis">    9.06    9.06</time>
   <time name="orth">    0.22    0.22</time>
   <time name="total">   11.15   11.15</time>
   <energy>
    <i name="e_fr_energy">   -157.76146578 </i>
    <i name="e_wo_entrp">   -157.76146578 </i>
    <i name="e_0_energy">   -157.76146578 </i>
   </energy>
  </scstep>
  <scstep>
   <time name="diag">    1.26    1.26</time>
   <time name="diis">   11.31   11.30</time>
   <time name="orth">    0.22    0.22</time>
   <time name="total">   13.40   13.40</time>
   <energy>
    <i name="e_fr_energy">   -156.07216186 </i>
    <i name="e_wo_entrp">   -156.07216186 </i>
    <i name="e_0_energy">   -156.07216186 </i>
   </energy>
  </scstep>
  <scstep>
   <time name="diag">    1.26    1.26</time>
   <time name="diis">   11.28   11.28</time>
   <time name="orth">    0.21    0.21</time>
   <time name="total">   13.34   13.34</time>
   <energy>
    <i name="e_fr_energy">   -158.73125826 </i>
    <i name="e_wo_entrp">   -158.73125826 </i>
    <i name="e_0_energy">   -158.73125826 </i>
   </energy>
  </scstep>
  <scstep>
   <time name="diag">    1.17    1.17</time>
   <time name="diis">   12.14   12.13</time>
   <time name="orth">    0.22    0.22</time>
   <time name="total">   14.13   14.13</time>
   <energy>
    <i name="e_fr_energy">   -159.17102158 </i>
    <i name="e_wo_entrp">   -159.17102158 </i>
    <i name="e_0_energy">   -159.17102158 </i>
   </energy>
  </scstep>
  <scstep>
   <time name="diag">    1.26    1.26</time>
   <time name="diis">    9.49    9.49</time>
   <time name="orth">    0.22    0.23</time>
   <time name="total">   11.60   11.60</time>
   <energy>
    <i name="e_fr_energy">   -156.48322314 </i>
    <i name="e_wo_entrp">   -156.48322314 </i>
    <i name="e_0_energy">   -156.48322314 </i>
   </energy>
  </scstep>
  <scstep>
   <time name="diag">    1.28    1.28</time>
   <time name="diis">    8.87    8.86</time>
   <time name="orth">    0.22    0.22</time>
   <time name="total">   10.99   10.99</time>
   <energy>
    <i name="e_fr_energy">   -152.29933563 </i>
    <i name="e_wo_entrp">   -152.29933563 </i>
    <i name="e_0_energy">   -152.29933563 </i>
   </energy>
  </scstep>
  <scstep>
   <time name="diag">    1.18    1.19</time>
   <time name="diis">    9.60    9.60</time>
   <time name="orth">    0.21    0.21</time>
   <time name="total">   11.59   11.59</time>
   <energy>
    <i name="e_fr_energy">   -150.72703840 </i>
    <i name="e_wo_entrp">   -150.72703840 </i>
    <i name="e_0_energy">   -150.72703840 </i>
   </energy>
  </scstep>
  <scstep>
   <time name="diag">    1.22    1.22</time>
   <time name="diis">   11.12   11.12</time>
   <time name="orth">    0.22    0.22</time>
   <time name="total">   13.16   13.16</time>
   <energy>
    <i name="e_fr_energy">   -150.50290308 </i>
    <i name="e_wo_entrp">   -150.50290308 </i>
    <i name="e_0_energy">   -150.50290308 </i>
   </energy>
  </scstep>
  <scstep>
   <time name="diag">    1.26    1.26</time>
   <time name="diis">    8.98    8.98</time>
   <time name="orth">    0.22    0.22</time>
   <time name="total">   11.07   11.07</time>
   <energy>
    <i name="e_fr_energy">   -149.27211125 </i>
    <i name="e_wo_entrp">   -149.27211125 </i>
    <i name="e_0_energy">   -149.27211125 </i>
   </energy>
  </scstep>
  <scstep>
   <time name="diag">    1.24    1.24</time>
   <time name="diis">    8.61    8.61</time>
   <time name="orth">    0.22    0.22</time>
   <time name="total">   10.69   10.69</time>
   <energy>
    <i name="e_fr_energy">   -149.34964517 </i>
    <i name="e_wo_entrp">   -149.34964517 </i>
    <i name="e_0_energy">   -149.34964517 </i>
   </energy>
  </scstep>
  <scstep>
   <time name="diag">    1.17    1.17</time>
   <time name="diis">    8.91    8.91</time>
   <time name="orth">    0.22    0.22</time>
   <time name="total">   10.93   10.93</time>
   <energy>
    <i name="e_fr_energy">   -149.14348950 </i>
    <i name="e_wo_entrp">   -149.14348950 </i>
    <i name="e_0_energy">   -149.14348950 </i>
   </energy>
  </scstep>
  <scstep>
   <time name="diag">    1.18    1.19</time>
   <time name="diis">    9.58    9.58</time>
   <time name="orth">    0.23    0.23</time>
   <time name="total">   11.59   11.60</time>
   <energy>
    <i name="e_fr_energy">   -149.04323364 </i>
    <i name="e_wo_entrp">   -149.04323364 </i>
    <i name="e_0_energy">   -149.04323364 </i>
   </energy>
  </scstep>
  <scstep>
   <time name="diag">    1.25    1.25</time>
   <time name="diis">   11.24   11.24</time>
   <time name="orth">    0.23    0.23</time>
   <time name="total">   13.34   13.34</time>
   <energy>
    <i name="e_fr_energy">   -148.98911240 </i>
    <i name="e_wo_entrp">   -148.98911240 </i>
    <i name="e_0_energy">   -148.98911240 </i>
   </energy>
  </scstep>
  <scstep>
   <time name="diag">    1.25    1.25</time>
   <time name="diis">    8.42    8.42</time>
   <time name="orth">    0.23    0.23</time>
   <time name="total">   10.52   10.52</time>
   <energy>
    <i name="e_fr_energy">   -148.79482877 </i>
    <i name="e_wo_entrp">   -148.79482877 </i>
    <i name="e_0_energy">   -148.79482877 </i>
   </energy>
  </scstep>
  <scstep>
   <time name="diag">    1.26    1.26</time>
   <time name="diis">    9.16    9.16</time>
   <time name="orth">    0.23    0.23</time>
   <time name="total">   11.28   11.28</time>
   <energy>
    <i name="e_fr_energy">   -148.75378693 </i>
    <i name="e_wo_entrp">   -148.75378693 </i>
    <i name="e_0_energy">   -148.75378693 </i>
   </energy>
  </scstep>
  <scstep>
   <time name="diag">    1.14    1.14</time>
   <time name="diis">    9.29    9.28</time>
   <time name="orth">    0.22    0.22</time>
   <time name="total">   11.25   11.25</time>
   <energy>
    <i name="e_fr_energy">   -148.77364288 </i>
    <i name="e_wo_entrp">   -148.77364288 </i>
    <i name="e_0_energy">   -148.77364288 </i>
   </energy>
  </scstep>
  <scstep>
   <time name="diag">    1.24    1.24</time>
   <time name="diis">    8.85    8.85</time>
   <time name="orth">    0.22    0.22</time>
   <time name="total">   10.93   10.93</time>
   <energy>
    <i name="e_fr_energy">   -148.76036698 </i>
    <i name="e_wo_entrp">   -148.76036698 </i>
    <i name="e_0_energy">   -148.76036698 </i>
   </energy>
  </scstep>
  <scstep>
   <time name="diag">    1.26    1.27</time>
   <time name="diis">    8.62    8.61</time>
   <time name="orth">    0.22    0.22</time>
   <time name="total">   10.73   10.74</time>
   <energy>
    <i name="e_fr_energy">   -148.76567172 </i>
    <i name="e_wo_entrp">   -148.76567172 </i>
    <i name="e_0_energy">   -148.76567172 </i>
   </energy>
  </scstep>
  <scstep>
   <time name="diag">    1.26    1.26</time>
   <time name="diis">    8.97    8.97</time>
   <time name="orth">    0.22    0.23</time>
   <time name="total">   11.08   11.08</time>
   <energy>
    <i name="e_fr_energy">   -148.73850509 </i>
    <i name="e_wo_entrp">   -148.73850509 </i>
    <i name="e_0_energy">   -148.73850509 </i>
   </energy>
  </scstep>
  <scstep>
   <time name="diag">    1.26    1.26</time>
   <time name="diis">    9.02    9.02</time>
   <time name="orth">    0.22    0.22</time>
   <time name="total">   11.12   11.12</time>
   <energy>
    <i name="e_fr_energy">   -148.73702884 </i>
    <i name="e_wo_entrp">   -148.73702884 </i>
    <i name="e_0_energy">   -148.73702884 </i>
   </energy>
  </scstep>
  <scstep>
   <time name="diag">    1.16    1.16</time>
   <time name="diis">    8.98    8.98</time>
   <time name="orth">    0.22    0.22</time>
   <time name="total">   10.96   10.96</time>
   <energy>
    <i name="e_fr_energy">   -148.73604698 </i>
    <i name="e_wo_entrp">   -148.73604698 </i>
    <i name="e_0_energy">   -148.73604698 </i>
   </energy>
  </scstep>
  <scstep>
   <time name="diag">    1.21    1.21</time>
   <time name="diis">    8.76    8.76</time>
   <time name="orth">    0.22    0.22</time>
   <time name="total">   10.80   10.80</time>
   <energy>
    <i name="e_fr_energy">   -148.73629813 </i>
    <i name="e_wo_entrp">   -148.73629813 </i>
    <i name="e_0_energy">   -148.73629813 </i>
   </energy>
  </scstep>
  <scstep>
   <time name="diag">    1.26    1.26</time>
   <time name="diis">    9.08    9.08</time>
   <time name="orth">    0.22    0.22</time>
   <time name="total">   11.19   11.19</time>
   <energy>
    <i name="e_fr_energy">   -148.73459980 </i>
    <i name="e_wo_entrp">   -148.73459980 </i>
    <i name="e_0_energy">   -148.73459980 </i>
   </energy>
  </scstep>
  <scstep>
   <time name="diag">    1.26    1.26</time>
   <time name="diis">    8.39    8.39</time>
   <time name="orth">    0.22    0.22</time>
   <time name="total">   10.50   10.50</time>
   <energy>
    <i name="e_fr_energy">   -148.73346995 </i>
    <i name="e_wo_entrp">   -148.73346995 </i>
    <i name="e_0_energy">   -148.73346995 </i>
   </energy>
  </scstep>
  <scstep>
   <time name="diag">    1.26    1.26</time>
   <time name="diis">    8.63    8.63</time>
   <time name="orth">    0.22    0.22</time>
   <time name="total">   10.74   10.74</time>
   <energy>
    <i name="e_fr_energy">   -148.73346762 </i>
    <i name="e_wo_entrp">   -148.73346762 </i>
    <i name="e_0_energy">   -148.73346762 </i>
   </energy>
  </scstep>
  <scstep>
   <time name="diag">    1.16    1.16</time>
   <time name="diis">    8.46    8.46</time>
   <time name="orth">    0.22    0.22</time>
   <time name="total">   10.46   10.47</time>
   <energy>
    <i name="e_fr_energy">   -148.73508838 </i>
    <i name="e_wo_entrp">   -148.73508838 </i>
    <i name="e_0_energy">   -148.73508838 </i>
   </energy>
  </scstep>
  <scstep>
   <time name="diag">    1.24    1.24</time>
   <time name="diis">    8.86    8.86</time>
   <time name="orth">    0.22    0.22</time>
   <time name="total">   10.95   10.95</time>
   <energy>
    <i name="e_fr_energy">   -148.73391543 </i>
    <i name="e_wo_entrp">   -148.73391543 </i>
    <i name="e_0_energy">   -148.73391543 </i>
   </energy>
  </scstep>
  <scstep>
   <time name="diag">    1.26    1.26</time>
   <time name="diis">    7.51    7.50</time>
   <time name="orth">    0.22    0.22</time>
   <time name="total">    9.61    9.61</time>
   <energy>
    <i name="e_fr_energy">   -148.73418938 </i>
    <i name="e_wo_entrp">   -148.73418938 </i>
    <i name="e_0_energy">   -148.73418938 </i>
   </energy>
  </scstep>
  <scstep>
   <time name="diag">    1.18    1.19</time>
   <time name="diis">    7.50    7.50</time>
   <time name="orth">    0.22    0.22</time>
   <time name="total">    9.50    9.51</time>
   <energy>
    <i name="e_fr_energy">   -148.73432704 </i>
    <i name="e_wo_entrp">   -148.73432704 </i>
    <i name="e_0_energy">   -148.73432704 </i>
   </energy>
  </scstep>
  <scstep>
   <time name="diag">    1.19    1.19</time>
   <time name="diis">    8.27    8.27</time>
   <time name="orth">    0.22    0.22</time>
   <time name="total">   10.30   10.30</time>
   <energy>
    <i name="e_fr_energy">   -148.73551579 </i>
    <i name="e_wo_entrp">   -148.73551579 </i>
    <i name="e_0_energy">   -148.73551579 </i>
   </energy>
  </scstep>
  <scstep>
   <time name="diag">    1.25    1.25</time>
   <time name="diis">    7.35    7.35</time>
   <time name="orth">    0.22    0.22</time>
   <time name="total">    9.46    9.46</time>
   <energy>
    <i name="e_fr_energy">   -148.73500835 </i>
    <i name="e_wo_entrp">   -148.73500835 </i>
    <i name="e_0_energy">   -148.73500835 </i>
   </energy>
  </scstep>
  <scstep>
   <time name="diag">    1.25    1.25</time>
   <time name="diis">    6.91    6.91</time>
   <time name="orth">    0.22    0.22</time>
   <time name="total">    9.02    9.02</time>
   <energy>
    <i name="e_fr_energy">   -148.73485245 </i>
    <i name="e_wo_entrp">   -148.73485245 </i>
    <i name="e_0_energy">   -148.73485245 </i>
   </energy>
  </scstep>
  <scstep>
   <time name="diag">    1.25    1.25</time>
   <time name="diis">    5.52    5.51</time>
   <time name="orth">    0.22    0.22</time>
   <time name="total">    7.62    7.63</time>
   <energy>
    <i name="e_fr_energy">   -148.73506832 </i>
    <i name="e_wo_entrp">   -148.73506832 </i>
    <i name="e_0_energy">   -148.73506832 </i>
   </energy>
  </scstep>
  <scstep>
   <time name="diag">    1.20    1.20</time>
   <time name="diis">    5.44    5.44</time>
   <time name="orth">    0.22    0.22</time>
   <time name="total">    7.48    7.48</time>
   <energy>
    <i name="e_fr_energy">   -148.73486253 </i>
    <i name="e_wo_entrp">   -148.73486253 </i>
    <i name="e_0_energy">   -148.73486253 </i>
   </energy>
  </scstep>
  <scstep>
   <time name="diag">    1.19    1.19</time>
   <time name="diis">    5.57    5.57</time>
   <time name="orth">    0.20    0.20</time>
   <time name="total">    7.55    7.55</time>
   <energy>
    <i name="e_fr_energy">   -148.73481628 </i>
    <i name="e_wo_entrp">   -148.73481628 </i>
    <i name="e_0_energy">   -148.73481628 </i>
   </energy>
  </scstep>
  <scstep>
   <time name="diag">    1.00    1.00</time>
   <time name="diis">    5.33    5.32</time>
   <time name="orth">    0.19    0.19</time>
   <time name="total">    7.06    7.07</time>
   <energy>
    <i name="e_fr_energy">   -148.73472247 </i>
    <i name="e_wo_entrp">   -148.73472247 </i>
    <i name="e_0_energy">   -148.73472247 </i>
   </energy>
  </scstep>
  <scstep>
   <time name="diag">    0.98    0.98</time>
   <time name="diis">    4.16    4.16</time>
   <time name="orth">    0.19    0.19</time>
   <time name="total">    5.86    5.86</time>
   <energy>
    <i name="e_fr_energy">   -148.73475350 </i>
    <i name="e_wo_entrp">   -148.73475350 </i>
    <i name="e_0_energy">   -148.73475350 </i>
   </energy>
  </scstep>
  <scstep>
   <time name="diag">    0.98    0.98</time>
   <time name="diis">    3.86    3.86</time>
   <time name="orth">    0.19    0.19</time>
   <time name="total">    5.56    5.56</time>
   <energy>
    <i name="e_fr_energy">   -148.73476856 </i>
    <i name="e_wo_entrp">   -148.73476856 </i>
    <i name="e_0_energy">   -148.73476856 </i>
   </energy>
  </scstep>
  <scstep>
   <time name="diag">    0.98    0.98</time>
   <time name="diis">    3.92    3.92</time>
   <time name="orth">    0.20    0.20</time>
   <time name="total">    5.26    5.26</time>
   <energy>
    <i name="alphaZ">    378.09908315 </i>
    <i name="ewald">  22731.27163923 </i>
    <i name="hartreedc"> -31289.39733589 </i>
    <i name="XCdc">    340.18875626 </i>
    <i name="pawpsdc">   6158.98033850 </i>
    <i name="pawaedc">  -5988.44355916 </i>
    <i name="eentropy">      0.00000000 </i>
    <i name="bandstr">  -1416.77077250 </i>
    <i name="atom">   8937.33707341 </i>
    <i name="e_fr_energy">   -148.73477700 </i>
    <i name="e_wo_entrp">   -148.73477700 </i>
    <i name="e_0_energy">   -148.73477700 </i>
   </energy>
  </scstep>
  <structure>
   <crystal>
    <varray name="basis" >
     <v>       5.52288297       0.00000000       0.00000000 </v>
     <v>       0.00000000       3.90526800       0.00000000 </v>
     <v>       0.00000000       0.00000000      21.66504520 </v>
    </varray>
    <i name="volume">    467.27902047 </i>
    <varray name="rec_basis" >
     <v>       0.18106485       0.00000000       0.00000000 </v>
     <v>       0.00000000       0.25606437       0.00000000 </v>
     <v>       0.00000000       0.00000000       0.04615730 </v>
    </varray>
   </crystal>
   <varray name="positions" >
    <v>       0.50000000       0.00000000       0.27694380 </v>
    <v>       0.25000000       0.50000000       0.34067414 </v>
    <v>       0.75000000       0.50000000       0.34067414 </v>
    <v>       0.00000000       0.00000000       0.40440449 </v>
    <v>       0.75000000       0.50000000       0.46813483 </v>
    <v>       0.25000000       0.50000000       0.46813483 </v>
    <v>       0.50000000       0.00000000       0.53186517 </v>
    <v>       0.25000000       0.50000000       0.59559551 </v>
    <v>       0.75000000       0.50000000       0.59559551 </v>
    <v>       0.00000000       0.00000000       0.65932586 </v>
    <v>       0.75000000       0.50000000       0.72305620 </v>
    <v>       0.25000000       0.50000000       0.72305620 </v>
    <v>       0.00000000       0.00000000       0.27694380 </v>
    <v>       0.50000000       0.00000000       0.40440449 </v>
    <v>       0.00000000       0.00000000       0.53186517 </v>
    <v>       0.50000000       0.00000000       0.65932586 </v>
    <v>       0.50000000       0.50000000       0.27694380 </v>
    <v>       0.00000000       0.50000000       0.40440449 </v>
    <v>       0.50000000       0.50000000       0.53186517 </v>
    <v>       0.00000000       0.50000000       0.65932586 </v>
   </varray>
  </structure>
  <varray name="forces" >
   <v>      -0.00000000      -0.00000000      -1.51557932 </v>
   <v>       0.70492096       0.00000000      -2.07392302 </v>
   <v>      -0.70492096      -0.00000000      -2.07392302 </v>
   <v>      -0.00000000      -0.00000000      -0.75943526 </v>
   <v>       0.55287782      -0.00000000      -1.26644551 </v>
   <v>      -0.55287782       0.00000000      -1.26644551 </v>
   <v>      -0.00000000      -0.00000000      -0.59035504 </v>
   <v>       0.80825643      -0.00000000      -1.45373213 </v>
   <v>      -0.80825643       0.00000000      -1.45373213 </v>
   <v>      -0.00000000      -0.00000000      -1.12868775 </v>
   <v>       0.19493674      -0.00000000      -0.99736021 </v>
   <v>      -0.19493674       0.00000000      -0.99736021 </v>
   <v>      -0.00000000      -0.00000000       0.99186629 </v>
   <v>      -0.00000000      -0.00000000       0.96211003 </v>
   <v>      -0.00000000      -0.00000000       0.74773639 </v>
   <v>      -0.00000000      -0.00000000       1.59448924 </v>
   <v>      -0.00000000      -0.00000000       2.28716464 </v>
   <v>      -0.00000000      -0.00000000       2.59614656 </v>
   <v>      -0.00000000      -0.00000000       2.34661633 </v>
   <v>      -0.00000000      -0.00000000       4.05084964 </v>
  </varray>
  <varray name="stress" >
   <v>      13.08040247       0.00000000       0.00000000 </v>
   <v>       0.00000000      30.28239140       0.00000000 </v>
   <v>       0.00000000       0.00000000       8.28011407 </v>
  </varray>
  <energy>
   <i name="e_fr_energy">   -148.73477700 </i>
   <i name="e_wo_entrp">   -148.73477700 </i>
   <i name="e_0_energy">      0.00000000 </i>
  </energy>
  <time name="totalsc">  525.17  525.31</time>
  <eigenvalues>
   <array>
    <dimension dim="1">band</dimension>
    <dimension dim="2">kpoint</dimension>
    <dimension dim="3">spin</dimension>
    <field>eigene</field>
    <field>occ</field>
    <set>
     <set comment="spin 1">
      <set comment="kpoint 1">
       <r>  -36.5904    1.0000 </r>
       <r>  -35.2660    1.0000 </r>
       <r>  -34.3061    1.0000 </r>
       <r>  -33.4173    1.0000 </r>
       <r>  -20.5049    1.0000 </r>
       <r>  -20.0338    1.0000 </r>
       <r>  -19.8476    1.0000 </r>
       <r>  -19.3575    1.0000 </r>
       <r>  -19.0463    1.0000 </r>
       <r>  -18.6798    1.0000 </r>
       <r>  -18.5892    1.0000 </r>
       <r>  -18.5345    1.0000 </r>
       <r>  -18.5173    1.0000 </r>
       <r>  -18.3452    1.0000 </r>
       <r>  -18.0933    1.0000 </r>
       <r>  -17.8273    1.0000 </r>
       <r>  -17.3091    1.0000 </r>
       <r>  -17.2907    1.0000 </r>
       <r>  -17.1321    1.0000 </r>
       <r>  -17.0510    1.0000 </r>
       <r>  -16.5198    1.0000 </r>
       <r>  -16.3445    1.0000 </r>
       <r>  -16.2917    1.0000 </r>
       <r>  -16.1592    1.0000 </r>
       <r>  -16.0916    1.0000 </r>
       <r>  -15.4367    1.0000 </r>
       <r>  -15.1692    1.0000 </r>
       <r>  -15.1182    1.0000 </r>
       <r>   -7.1060    1.0000 </r>
       <r>   -6.7957    1.0000 </r>
       <r>   -6.6312    1.0000 </r>
       <r>   -6.0057    1.0000 </r>
       <r>   -5.8889    1.0000 </r>
       <r>   -5.5366    1.0000 </r>
       <r>   -5.4420    1.0000 </r>
       <r>   -5.2963    1.0000 </r>
       <r>   -5.1401    1.0000 </r>
       <r>   -5.0578    1.0000 </r>
       <r>   -4.9981    1.0000 </r>
       <r>   -4.8575    1.0000 </r>
       <r>   -4.7631    1.0000 </r>
       <r>   -4.5808    1.0000 </r>
       <r>   -4.2463    1.0000 </r>
       <r>   -4.1219    1.0000 </r>
       <r>   -4.0803    1.0000 </r>
       <r>   -3.9923    1.0000 </r>
       <r>   -3.8056    1.0000 </r>
       <r>   -3.7672    1.0000 </r>
       <r>   -3.5431    1.0000 </r>
       <r>   -3.2497    1.0000 </r>
       <r>   -3.0161    1.0000 </r>
       <r>   -2.9239    1.0000 </r>
       <r>   -2.9091    1.0000 </r>
       <r>   -2.6978    1.0000 </r>
       <r>   -2.6648    1.0000 </r>
       <r>   -2.3901    1.0000 </r>
       <r>   -2.2958    1.0000 </r>
       <r>   -1.9534    1.0000 </r>
       <r>   -1.9147    1.0000 </r>
       <r>   -1.3698    1.0000 </r>
       <r>   -1.3426    1.0000 </r>
       <r>   -1.0870    1.0000 </r>
       <r>   -1.0796    1.0000 </r>
       <r>   -1.0355    1.0000 </r>
       <r>   -0.8661    1.1178 </r>
       <r>   -0.7755    0.1852 </r>
       <r>   -0.7503    0.0000 </r>
       <r>   -0.5138    0.0000 </r>
       <r>    0.0726    0.0000 </r>
       <r>    0.2903    0.0000 </r>
       <r>    0.3872    0.0000 </r>
       <r>    0.6511    0.0000 </r>
       <r>    1.3487    0.0000 </r>
       <r>    2.6699    0.0000 </r>
       <r>    4.0079    0.0000 </r>
       <r>    4.1477    0.0000 </r>
      </set>
      <set comment="kpoint 2">
       <r>  -36.5901    1.0000 </r>
       <r>  -35.2657    1.0000 </r>
       <r>  -34.3058    1.0000 </r>
       <r>  -33.4171    1.0000 </r>
       <r>  -20.5647    1.0000 </r>
       <r>  -20.1908    1.0000 </r>
       <r>  -19.7194    1.0000 </r>
       <r>  -19.3460    1.0000 </r>
       <r>  -19.1256    1.0000 </r>
       <r>  -18.7154    1.0000 </r>
       <r>  -18.5895    1.0000 </r>
       <r>  -18.4679    1.0000 </r>
       <r>  -18.4004    1.0000 </r>
       <r>  -18.3524    1.0000 </r>
       <r>  -18.1640    1.0000 </r>
       <r>  -17.7938    1.0000 </r>
       <r>  -17.3098    1.0000 </r>
       <r>  -17.2763    1.0000 </r>
       <r>  -17.0919    1.0000 </r>
       <r>  -17.0586    1.0000 </r>
       <r>  -16.4921    1.0000 </r>
       <r>  -16.3452    1.0000 </r>
       <r>  -16.2925    1.0000 </r>
       <r>  -16.1352    1.0000 </r>
       <r>  -16.0315    1.0000 </r>
       <r>  -15.4376    1.0000 </r>
       <r>  -15.1750    1.0000 </r>
       <r>  -15.0994    1.0000 </r>
       <r>   -6.9359    1.0000 </r>
       <r>   -6.7524    1.0000 </r>
       <r>   -6.6606    1.0000 </r>
       <r>   -5.9782    1.0000 </r>
       <r>   -5.7480    1.0000 </r>
       <r>   -5.6087    1.0000 </r>
       <r>   -5.5364    1.0000 </r>
       <r>   -5.3371    1.0000 </r>
       <r>   -5.1736    1.0000 </r>
       <r>   -5.1292    1.0000 </r>
       <r>   -4.9242    1.0000 </r>
       <r>   -4.7723    1.0000 </r>
       <r>   -4.6912    1.0000 </r>
       <r>   -4.6394    1.0000 </r>
       <r>   -4.3683    1.0000 </r>
       <r>   -4.3438    1.0000 </r>
       <r>   -4.0782    1.0000 </r>
       <r>   -4.0354    1.0000 </r>
       <r>   -3.9562    1.0000 </r>
       <r>   -3.7396    1.0000 </r>
       <r>   -3.5052    1.0000 </r>
       <r>   -3.3616    1.0000 </r>
       <r>   -3.1879    1.0000 </r>
       <r>   -3.0282    1.0000 </r>
       <r>   -2.9354    1.0000 </r>
       <r>   -2.7922    1.0000 </r>
       <r>   -2.6122    1.0000 </r>
       <r>   -2.5210    1.0000 </r>
       <r>   -2.3018    1.0000 </r>
       <r>   -2.2024    1.0000 </r>
       <r>   -1.8912    1.0000 </r>
       <r>   -1.4118    1.0000 </r>
       <r>   -1.3884    1.0000 </r>
       <r>   -1.1007    1.0000 </r>
       <r>   -1.0736    1.0000 </r>
       <r>   -0.9602    1.0000 </r>
       <r>   -0.8680    1.0812 </r>
       <r>   -0.7392    0.0400 </r>
       <r>   -0.7224    0.0000 </r>
       <r>   -0.6166    0.0000 </r>
       <r>    0.0914    0.0000 </r>
       <r>    0.3285    0.0000 </r>
       <r>    0.3649    0.0000 </r>
       <r>    0.8155    0.0000 </r>
       <r>    1.2991    0.0000 </r>
       <r>    2.6476    0.0000 </r>
       <r>    2.7255    0.0000 </r>
       <r>    4.2210    0.0000 </r>
      </set>
      <set comment="kpoint 3">
       <r>  -36.5896    1.0000 </r>
       <r>  -35.2652    1.0000 </r>
       <r>  -34.3052    1.0000 </r>
       <r>  -33.4167    1.0000 </r>
       <r>  -20.6656    1.0000 </r>
       <r>  -20.3035    1.0000 </r>
       <r>  -19.6699    1.0000 </r>
       <r>  -19.3033    1.0000 </r>
       <r>  -19.2316    1.0000 </r>
       <r>  -18.7265    1.0000 </r>
       <r>  -18.5901    1.0000 </r>
       <r>  -18.3825    1.0000 </r>
       <r>  -18.3469    1.0000 </r>
       <r>  -18.2952    1.0000 </r>
       <r>  -18.2295    1.0000 </r>
       <r>  -17.7704    1.0000 </r>
       <r>  -17.3108    1.0000 </r>
       <r>  -17.2628    1.0000 </r>
       <r>  -17.0630    1.0000 </r>
       <r>  -17.0251    1.0000 </r>
       <r>  -16.4220    1.0000 </r>
       <r>  -16.3463    1.0000 </r>
       <r>  -16.3128    1.0000 </r>
       <r>  -16.0623    1.0000 </r>
       <r>  -15.9863    1.0000 </r>
       <r>  -15.4391    1.0000 </r>
       <r>  -15.1760    1.0000 </r>
       <r>  -15.0626    1.0000 </r>
       <r>   -6.8244    1.0000 </r>
       <r>   -6.7069    1.0000 </r>
       <r>   -6.3008    1.0000 </r>
       <r>   -5.9179    1.0000 </r>
       <r>   -5.8202    1.0000 </r>
       <r>   -5.6687    1.0000 </r>
       <r>   -5.6095    1.0000 </r>
       <r>   -5.4905    1.0000 </r>
       <r>   -5.3067    1.0000 </r>
       <r>   -5.1042    1.0000 </r>
       <r>   -4.8019    1.0000 </r>
       <r>   -4.7818    1.0000 </r>
       <r>   -4.6870    1.0000 </r>
       <r>   -4.6353    1.0000 </r>
       <r>   -4.5691    1.0000 </r>
       <r>   -4.4983    1.0000 </r>
       <r>   -4.1297    1.0000 </r>
       <r>   -4.1119    1.0000 </r>
       <r>   -3.8966    1.0000 </r>
       <r>   -3.8892    1.0000 </r>
       <r>   -3.6731    1.0000 </r>
       <r>   -3.5146    1.0000 </r>
       <r>   -3.3492    1.0000 </r>
       <r>   -3.1077    1.0000 </r>
       <r>   -3.0679    1.0000 </r>
       <r>   -3.0058    1.0000 </r>
       <r>   -2.7626    1.0000 </r>
       <r>   -2.5065    1.0000 </r>
       <r>   -2.3650    1.0000 </r>
       <r>   -2.3163    1.0000 </r>
       <r>   -1.7464    1.0000 </r>
       <r>   -1.5482    1.0000 </r>
       <r>   -1.4587    1.0000 </r>
       <r>   -1.1975    1.0000 </r>
       <r>   -1.0610    1.0000 </r>
       <r>   -1.0262    1.0000 </r>
       <r>   -0.8464    1.0125 </r>
       <r>   -0.8094    0.5891 </r>
       <r>   -0.7381    0.0000 </r>
       <r>   -0.3944    0.0000 </r>
       <r>    0.0512    0.0000 </r>
       <r>    0.3175    0.0000 </r>
       <r>    0.3966    0.0000 </r>
       <r>    1.2789    0.0000 </r>
       <r>    1.3289    0.0000 </r>
       <r>    1.8141    0.0000 </r>
       <r>    2.6121    0.0000 </r>
       <r>    2.7468    0.0000 </r>
      </set>
      <set comment="kpoint 4">
       <r>  -36.5869    1.0000 </r>
       <r>  -35.2621    1.0000 </r>
       <r>  -34.3022    1.0000 </r>
       <r>  -33.4135    1.0000 </r>
       <r>  -20.4507    1.0000 </r>
       <r>  -19.9932    1.0000 </r>
       <r>  -19.8007    1.0000 </r>
       <r>  -19.3135    1.0000 </r>
       <r>  -19.0640    1.0000 </r>
       <r>  -18.6349    1.0000 </r>
       <r>  -18.6042    1.0000 </r>
       <r>  -18.5477    1.0000 </r>
       <r>  -18.4967    1.0000 </r>
       <r>  -18.3064    1.0000 </r>
       <r>  -18.1085    1.0000 </r>
       <r>  -17.7865    1.0000 </r>
       <r>  -17.2818    1.0000 </r>
       <r>  -17.2375    1.0000 </r>
       <r>  -17.1813    1.0000 </r>
       <r>  -17.0664    1.0000 </r>
       <r>  -16.5670    1.0000 </r>
       <r>  -16.3036    1.0000 </r>
       <r>  -16.2642    1.0000 </r>
       <r>  -16.2028    1.0000 </r>
       <r>  -16.1091    1.0000 </r>
       <r>  -15.3860    1.0000 </r>
       <r>  -15.2003    1.0000 </r>
       <r>  -15.1830    1.0000 </r>
       <r>   -7.0481    1.0000 </r>
       <r>   -6.7258    1.0000 </r>
       <r>   -6.6254    1.0000 </r>
       <r>   -6.3319    1.0000 </r>
       <r>   -5.8569    1.0000 </r>
       <r>   -5.8307    1.0000 </r>
       <r>   -5.5407    1.0000 </r>
       <r>   -5.4955    1.0000 </r>
       <r>   -5.2825    1.0000 </r>
       <r>   -5.2188    1.0000 </r>
       <r>   -5.0525    1.0000 </r>
       <r>   -4.9797    1.0000 </r>
       <r>   -4.8669    1.0000 </r>
       <r>   -4.6222    1.0000 </r>
       <r>   -4.4235    1.0000 </r>
       <r>   -4.4206    1.0000 </r>
       <r>   -4.0773    1.0000 </r>
       <r>   -4.0670    1.0000 </r>
       <r>   -4.0209    1.0000 </r>
       <r>   -3.7257    1.0000 </r>
       <r>   -3.7052    1.0000 </r>
       <r>   -3.3546    1.0000 </r>
       <r>   -3.1682    1.0000 </r>
       <r>   -3.0695    1.0000 </r>
       <r>   -2.9345    1.0000 </r>
       <r>   -2.8218    1.0000 </r>
       <r>   -2.7026    1.0000 </r>
       <r>   -2.5587    1.0000 </r>
       <r>   -2.3394    1.0000 </r>
       <r>   -2.0028    1.0000 </r>
       <r>   -1.9746    1.0000 </r>
       <r>   -1.5018    1.0000 </r>
       <r>   -1.3111    1.0000 </r>
       <r>   -1.0948    1.0000 </r>
       <r>   -0.9719    1.0000 </r>
       <r>   -0.9641    1.0384 </r>
       <r>   -0.7448    0.2615 </r>
       <r>   -0.6522   -0.0300 </r>
       <r>   -0.5204    0.0000 </r>
       <r>   -0.4630    0.0000 </r>
       <r>    0.1313    0.0000 </r>
       <r>    0.4884    0.0000 </r>
       <r>    0.5688    0.0000 </r>
       <r>    0.6814    0.0000 </r>
       <r>    1.4877    0.0000 </r>
       <r>    1.7030    0.0000 </r>
       <r>    2.8048    0.0000 </r>
       <r>    4.2285    0.0000 </r>
      </set>
      <set comment="kpoint 5">
       <r>  -36.5867    1.0000 </r>
       <r>  -35.2618    1.0000 </r>
       <r>  -34.3019    1.0000 </r>
       <r>  -33.4133    1.0000 </r>
       <r>  -20.4911    1.0000 </r>
       <r>  -20.1474    1.0000 </r>
       <r>  -19.6956    1.0000 </r>
       <r>  -19.3113    1.0000 </r>
       <r>  -19.1127    1.0000 </r>
       <r>  -18.7071    1.0000 </r>
       <r>  -18.5874    1.0000 </r>
       <r>  -18.4846    1.0000 </r>
       <r>  -18.3824    1.0000 </r>
       <r>  -18.3199    1.0000 </r>
       <r>  -18.1622    1.0000 </r>
       <r>  -17.7749    1.0000 </r>
       <r>  -17.2773    1.0000 </r>
       <r>  -17.2373    1.0000 </r>
       <r>  -17.1246    1.0000 </r>
       <r>  -17.0823    1.0000 </r>
       <r>  -16.5389    1.0000 </r>
       <r>  -16.3145    1.0000 </r>
       <r>  -16.2602    1.0000 </r>
       <r>  -16.1735    1.0000 </r>
       <r>  -16.0441    1.0000 </r>
       <r>  -15.3811    1.0000 </r>
       <r>  -15.2125    1.0000 </r>
       <r>  -15.1414    1.0000 </r>
       <r>   -6.9121    1.0000 </r>
       <r>   -6.7042    1.0000 </r>
       <r>   -6.6507    1.0000 </r>
       <r>   -6.3135    1.0000 </r>
       <r>   -5.9514    1.0000 </r>
       <r>   -5.7606    1.0000 </r>
       <r>   -5.6026    1.0000 </r>
       <r>   -5.5027    1.0000 </r>
       <r>   -5.3324    1.0000 </r>
       <r>   -5.1727    1.0000 </r>
       <r>   -5.0509    1.0000 </r>
       <r>   -4.9699    1.0000 </r>
       <r>   -4.8198    1.0000 </r>
       <r>   -4.6508    1.0000 </r>
       <r>   -4.5767    1.0000 </r>
       <r>   -4.4132    1.0000 </r>
       <r>   -4.3505    1.0000 </r>
       <r>   -4.0544    1.0000 </r>
       <r>   -3.9308    1.0000 </r>
       <r>   -3.8200    1.0000 </r>
       <r>   -3.6887    1.0000 </r>
       <r>   -3.4788    1.0000 </r>
       <r>   -3.1651    1.0000 </r>
       <r>   -3.0875    1.0000 </r>
       <r>   -3.0231    1.0000 </r>
       <r>   -2.9596    1.0000 </r>
       <r>   -2.8436    1.0000 </r>
       <r>   -2.5365    1.0000 </r>
       <r>   -2.3649    1.0000 </r>
       <r>   -2.1843    1.0000 </r>
       <r>   -1.9381    1.0000 </r>
       <r>   -1.6219    1.0000 </r>
       <r>   -1.3063    1.0000 </r>
       <r>   -1.0989    1.0000 </r>
       <r>   -0.9702    1.0000 </r>
       <r>   -0.9341    1.0179 </r>
       <r>   -0.7279    0.3096 </r>
       <r>   -0.7094   -0.0135 </r>
       <r>   -0.5275    0.0000 </r>
       <r>   -0.4152    0.0000 </r>
       <r>    0.1727    0.0000 </r>
       <r>    0.5195    0.0000 </r>
       <r>    0.5543    0.0000 </r>
       <r>    0.8369    0.0000 </r>
       <r>    1.4475    0.0000 </r>
       <r>    1.4558    0.0000 </r>
       <r>    2.7721    0.0000 </r>
       <r>    4.4575    0.0000 </r>
      </set>
      <set comment="kpoint 6">
       <r>  -36.5862    1.0000 </r>
       <r>  -35.2614    1.0000 </r>
       <r>  -34.3014    1.0000 </r>
       <r>  -33.4129    1.0000 </r>
       <r>  -20.5739    1.0000 </r>
       <r>  -20.2520    1.0000 </r>
       <r>  -19.6666    1.0000 </r>
       <r>  -19.2988    1.0000 </r>
       <r>  -19.1818    1.0000 </r>
       <r>  -18.7353    1.0000 </r>
       <r>  -18.5772    1.0000 </r>
       <r>  -18.3721    1.0000 </r>
       <r>  -18.3334    1.0000 </r>
       <r>  -18.3086    1.0000 </r>
       <r>  -18.2152    1.0000 </r>
       <r>  -17.7756    1.0000 </r>
       <r>  -17.2582    1.0000 </r>
       <r>  -17.2434    1.0000 </r>
       <r>  -17.0962    1.0000 </r>
       <r>  -17.0459    1.0000 </r>
       <r>  -16.4737    1.0000 </r>
       <r>  -16.3335    1.0000 </r>
       <r>  -16.2561    1.0000 </r>
       <r>  -16.0997    1.0000 </r>
       <r>  -15.9997    1.0000 </r>
       <r>  -15.3635    1.0000 </r>
       <r>  -15.2036    1.0000 </r>
       <r>  -15.0920    1.0000 </r>
       <r>   -6.8411    1.0000 </r>
       <r>   -6.7142    1.0000 </r>
       <r>   -6.4158    1.0000 </r>
       <r>   -6.2934    1.0000 </r>
       <r>   -6.0211    1.0000 </r>
       <r>   -5.7804    1.0000 </r>
       <r>   -5.5943    1.0000 </r>
       <r>   -5.5277    1.0000 </r>
       <r>   -5.4447    1.0000 </r>
       <r>   -5.2820    1.0000 </r>
       <r>   -5.0674    1.0000 </r>
       <r>   -4.9459    1.0000 </r>
       <r>   -4.8188    1.0000 </r>
       <r>   -4.7209    1.0000 </r>
       <r>   -4.6781    1.0000 </r>
       <r>   -4.5196    1.0000 </r>
       <r>   -4.3439    1.0000 </r>
       <r>   -4.1364    1.0000 </r>
       <r>   -3.9623    1.0000 </r>
       <r>   -3.8169    1.0000 </r>
       <r>   -3.7788    1.0000 </r>
       <r>   -3.5452    1.0000 </r>
       <r>   -3.4744    1.0000 </r>
       <r>   -3.2229    1.0000 </r>
       <r>   -3.1079    1.0000 </r>
       <r>   -2.9873    1.0000 </r>
       <r>   -2.8863    1.0000 </r>
       <r>   -2.8154    1.0000 </r>
       <r>   -2.4264    1.0000 </r>
       <r>   -2.1472    1.0000 </r>
       <r>   -1.8625    1.0000 </r>
       <r>   -1.6988    1.0000 </r>
       <r>   -1.2981    1.0000 </r>
       <r>   -1.2459    1.0000 </r>
       <r>   -1.1041    1.0000 </r>
       <r>   -0.9288    1.0000 </r>
       <r>   -0.8738    1.0625 </r>
       <r>   -0.6155   -0.0580 </r>
       <r>   -0.3674    0.0000 </r>
       <r>   -0.3286    0.0000 </r>
       <r>    0.1665    0.0000 </r>
       <r>    0.5281    0.0000 </r>
       <r>    0.5848    0.0000 </r>
       <r>    1.0017    0.0000 </r>
       <r>    1.4435    0.0000 </r>
       <r>    1.7757    0.0000 </r>
       <r>    2.7191    0.0000 </r>
       <r>    2.8214    0.0000 </r>
      </set>
      <set comment="kpoint 7">
       <r>  -36.5792    1.0000 </r>
       <r>  -35.2533    1.0000 </r>
       <r>  -34.2934    1.0000 </r>
       <r>  -33.4048    1.0000 </r>
       <r>  -20.3849    1.0000 </r>
       <r>  -19.8688    1.0000 </r>
       <r>  -19.6814    1.0000 </r>
       <r>  -19.2197    1.0000 </r>
       <r>  -19.0908    1.0000 </r>
       <r>  -18.6337    1.0000 </r>
       <r>  -18.5810    1.0000 </r>
       <r>  -18.5178    1.0000 </r>
       <r>  -18.4468    1.0000 </r>
       <r>  -18.2204    1.0000 </r>
       <r>  -18.1167    1.0000 </r>
       <r>  -17.6821    1.0000 </r>
       <r>  -17.3069    1.0000 </r>
       <r>  -17.2215    1.0000 </r>
       <r>  -17.1709    1.0000 </r>
       <r>  -17.0460    1.0000 </r>
       <r>  -16.6335    1.0000 </r>
       <r>  -16.3588    1.0000 </r>
       <r>  -16.2161    1.0000 </r>
       <r>  -16.1382    1.0000 </r>
       <r>  -16.1346    1.0000 </r>
       <r>  -15.3739    1.0000 </r>
       <r>  -15.3482    1.0000 </r>
       <r>  -15.1974    1.0000 </r>
       <r>   -6.9911    1.0000 </r>
       <r>   -6.9287    1.0000 </r>
       <r>   -6.6102    1.0000 </r>
       <r>   -6.5283    1.0000 </r>
       <r>   -6.3694    1.0000 </r>
       <r>   -6.2747    1.0000 </r>
       <r>   -6.0062    1.0000 </r>
       <r>   -5.7942    1.0000 </r>
       <r>   -5.5615    1.0000 </r>
       <r>   -5.4595    1.0000 </r>
       <r>   -5.3017    1.0000 </r>
       <r>   -5.1726    1.0000 </r>
       <r>   -5.0459    1.0000 </r>
       <r>   -4.9839    1.0000 </r>
       <r>   -4.7396    1.0000 </r>
       <r>   -4.5279    1.0000 </r>
       <r>   -4.5170    1.0000 </r>
       <r>   -4.2471    1.0000 </r>
       <r>   -4.1812    1.0000 </r>
       <r>   -3.9895    1.0000 </r>
       <r>   -3.9043    1.0000 </r>
       <r>   -3.7099    1.0000 </r>
       <r>   -3.4112    1.0000 </r>
       <r>   -3.3686    1.0000 </r>
       <r>   -2.9730    1.0000 </r>
       <r>   -2.8137    1.0000 </r>
       <r>   -2.7683    1.0000 </r>
       <r>   -2.6957    1.0000 </r>
       <r>   -2.2640    1.0000 </r>
       <r>   -2.1410    1.0000 </r>
       <r>   -1.9838    1.0000 </r>
       <r>   -1.4997    1.0000 </r>
       <r>   -1.2944    1.0000 </r>
       <r>   -0.9851    1.0000 </r>
       <r>   -0.8125    1.0388 </r>
       <r>   -0.7394    0.3909 </r>
       <r>   -0.6916    0.0000 </r>
       <r>   -0.5351    0.0000 </r>
       <r>   -0.3042    0.0000 </r>
       <r>    0.1652    0.0000 </r>
       <r>    0.3738    0.0000 </r>
       <r>    0.7347    0.0000 </r>
       <r>    0.9789    0.0000 </r>
       <r>    1.0194    0.0000 </r>
       <r>    1.8380    0.0000 </r>
       <r>    1.8853    0.0000 </r>
       <r>    3.1520    0.0000 </r>
       <r>    3.1660    0.0000 </r>
      </set>
      <set comment="kpoint 8">
       <r>  -36.5790    1.0000 </r>
       <r>  -35.2531    1.0000 </r>
       <r>  -34.2932    1.0000 </r>
       <r>  -33.4047    1.0000 </r>
       <r>  -20.3635    1.0000 </r>
       <r>  -20.0294    1.0000 </r>
       <r>  -19.6478    1.0000 </r>
       <r>  -19.2358    1.0000 </r>
       <r>  -19.0907    1.0000 </r>
       <r>  -18.6271    1.0000 </r>
       <r>  -18.5856    1.0000 </r>
       <r>  -18.5063    1.0000 </r>
       <r>  -18.3813    1.0000 </r>
       <r>  -18.2355    1.0000 </r>
       <r>  -18.1458    1.0000 </r>
       <r>  -17.7178    1.0000 </r>
       <r>  -17.2658    1.0000 </r>
       <r>  -17.1756    1.0000 </r>
       <r>  -17.1587    1.0000 </r>
       <r>  -17.0880    1.0000 </r>
       <r>  -16.6094    1.0000 </r>
       <r>  -16.2958    1.0000 </r>
       <r>  -16.2327    1.0000 </r>
       <r>  -16.1755    1.0000 </r>
       <r>  -16.0419    1.0000 </r>
       <r>  -15.3762    1.0000 </r>
       <r>  -15.2986    1.0000 </r>
       <r>  -15.1564    1.0000 </r>
       <r>   -6.9713    1.0000 </r>
       <r>   -6.8942    1.0000 </r>
       <r>   -6.6926    1.0000 </r>
       <r>   -6.5518    1.0000 </r>
       <r>   -6.4151    1.0000 </r>
       <r>   -6.2778    1.0000 </r>
       <r>   -6.0189    1.0000 </r>
       <r>   -5.7986    1.0000 </r>
       <r>   -5.6343    1.0000 </r>
       <r>   -5.4102    1.0000 </r>
       <r>   -5.3542    1.0000 </r>
       <r>   -5.1841    1.0000 </r>
       <r>   -5.0426    1.0000 </r>
       <r>   -4.9637    1.0000 </r>
       <r>   -4.8349    1.0000 </r>
       <r>   -4.6996    1.0000 </r>
       <r>   -4.3848    1.0000 </r>
       <r>   -4.2819    1.0000 </r>
       <r>   -4.1434    1.0000 </r>
       <r>   -4.0616    1.0000 </r>
       <r>   -3.8771    1.0000 </r>
       <r>   -3.7634    1.0000 </r>
       <r>   -3.5423    1.0000 </r>
       <r>   -3.3488    1.0000 </r>
       <r>   -3.1559    1.0000 </r>
       <r>   -2.8936    1.0000 </r>
       <r>   -2.8849    1.0000 </r>
       <r>   -2.5506    1.0000 </r>
       <r>   -2.3251    1.0000 </r>
       <r>   -2.0846    1.0000 </r>
       <r>   -2.0322    1.0000 </r>
       <r>   -1.6590    1.0000 </r>
       <r>   -1.2589    1.0000 </r>
       <r>   -0.9651    1.0000 </r>
       <r>   -0.8298    1.0331 </r>
       <r>   -0.7918    0.8790 </r>
       <r>   -0.7129    0.0223 </r>
       <r>   -0.5483    0.0000 </r>
       <r>   -0.2227    0.0000 </r>
       <r>    0.1984    0.0000 </r>
       <r>    0.4171    0.0000 </r>
       <r>    0.8731    0.0000 </r>
       <r>    0.9922    0.0000 </r>
       <r>    1.0165    0.0000 </r>
       <r>    1.8415    0.0000 </r>
       <r>    1.8650    0.0000 </r>
       <r>    3.1090    0.0000 </r>
       <r>    3.1237    0.0000 </r>
      </set>
      <set comment="kpoint 9">
       <r>  -36.5787    1.0000 </r>
       <r>  -35.2528    1.0000 </r>
       <r>  -34.2929    1.0000 </r>
       <r>  -33.4045    1.0000 </r>
       <r>  -20.3501    1.0000 </r>
       <r>  -20.1524    1.0000 </r>
       <r>  -19.7008    1.0000 </r>
       <r>  -19.2832    1.0000 </r>
       <r>  -19.0537    1.0000 </r>
       <r>  -18.7244    1.0000 </r>
       <r>  -18.5503    1.0000 </r>
       <r>  -18.3853    1.0000 </r>
       <r>  -18.3443    1.0000 </r>
       <r>  -18.2791    1.0000 </r>
       <r>  -18.1330    1.0000 </r>
       <r>  -17.8032    1.0000 </r>
       <r>  -17.2263    1.0000 </r>
       <r>  -17.1828    1.0000 </r>
       <r>  -17.1109    1.0000 </r>
       <r>  -17.0641    1.0000 </r>
       <r>  -16.5536    1.0000 </r>
       <r>  -16.3115    1.0000 </r>
       <r>  -16.1727    1.0000 </r>
       <r>  -16.1335    1.0000 </r>
       <r>  -16.0086    1.0000 </r>
       <r>  -15.3793    1.0000 </r>
       <r>  -15.1741    1.0000 </r>
       <r>  -15.1173    1.0000 </r>
       <r>   -7.0339    1.0000 </r>
       <r>   -6.9413    1.0000 </r>
       <r>   -6.6931    1.0000 </r>
       <r>   -6.6206    1.0000 </r>
       <r>   -6.4959    1.0000 </r>
       <r>   -6.0687    1.0000 </r>
       <r>   -6.0189    1.0000 </r>
       <r>   -5.8548    1.0000 </r>
       <r>   -5.7315    1.0000 </r>
       <r>   -5.4697    1.0000 </r>
       <r>   -5.3330    1.0000 </r>
       <r>   -5.2147    1.0000 </r>
       <r>   -5.1932    1.0000 </r>
       <r>   -5.0696    1.0000 </r>
       <r>   -4.9045    1.0000 </r>
       <r>   -4.7374    1.0000 </r>
       <r>   -4.2408    1.0000 </r>
       <r>   -4.2317    1.0000 </r>
       <r>   -4.1489    1.0000 </r>
       <r>   -4.0881    1.0000 </r>
       <r>   -3.9453    1.0000 </r>
       <r>   -3.8128    1.0000 </r>
       <r>   -3.6826    1.0000 </r>
       <r>   -3.4789    1.0000 </r>
       <r>   -3.4387    1.0000 </r>
       <r>   -2.9160    1.0000 </r>
       <r>   -2.8788    1.0000 </r>
       <r>   -2.8385    1.0000 </r>
       <r>   -2.1514    1.0000 </r>
       <r>   -2.0470    1.0000 </r>
       <r>   -1.9945    1.0000 </r>
       <r>   -1.7362    1.0000 </r>
       <r>   -1.2429    1.0000 </r>
       <r>   -1.2022    1.0000 </r>
       <r>   -0.9428    1.0054 </r>
       <r>   -0.7984    0.9930 </r>
       <r>   -0.7777    0.5303 </r>
       <r>   -0.3359    0.0000 </r>
       <r>   -0.1725    0.0000 </r>
       <r>    0.2584    0.0000 </r>
       <r>    0.4645    0.0000 </r>
       <r>    1.0000    0.0000 </r>
       <r>    1.0247    0.0000 </r>
       <r>    1.0520    0.0000 </r>
       <r>    1.8336    0.0000 </r>
       <r>    1.8844    0.0000 </r>
       <r>    3.0688    0.0000 </r>
       <r>    3.1508    0.0000 </r>
      </set>
      <set comment="kpoint 10">
       <r>  -36.5730    1.0000 </r>
       <r>  -35.2462    1.0000 </r>
       <r>  -34.2863    1.0000 </r>
       <r>  -33.3979    1.0000 </r>
       <r>  -20.3930    1.0000 </r>
       <r>  -19.7184    1.0000 </r>
       <r>  -19.5638    1.0000 </r>
       <r>  -19.1923    1.0000 </r>
       <r>  -19.0723    1.0000 </r>
       <r>  -18.7233    1.0000 </r>
       <r>  -18.5436    1.0000 </r>
       <r>  -18.4049    1.0000 </r>
       <r>  -18.3979    1.0000 </r>
       <r>  -18.1881    1.0000 </r>
       <r>  -18.0631    1.0000 </r>
       <r>  -17.5775    1.0000 </r>
       <r>  -17.4327    1.0000 </r>
       <r>  -17.2011    1.0000 </r>
       <r>  -17.1568    1.0000 </r>
       <r>  -16.9797    1.0000 </r>
       <r>  -16.6367    1.0000 </r>
       <r>  -16.4822    1.0000 </r>
       <r>  -16.1799    1.0000 </r>
       <r>  -16.1095    1.0000 </r>
       <r>  -16.0032    1.0000 </r>
       <r>  -15.5252    1.0000 </r>
       <r>  -15.4562    1.0000 </r>
       <r>  -15.1317    1.0000 </r>
       <r>   -7.5725    1.0000 </r>
       <r>   -6.9769    1.0000 </r>
       <r>   -6.7092    1.0000 </r>
       <r>   -6.5966    1.0000 </r>
       <r>   -6.5904    1.0000 </r>
       <r>   -6.5254    1.0000 </r>
       <r>   -6.3593    1.0000 </r>
       <r>   -5.9699    1.0000 </r>
       <r>   -5.8296    1.0000 </r>
       <r>   -5.6406    1.0000 </r>
       <r>   -5.5652    1.0000 </r>
       <r>   -5.4756    1.0000 </r>
       <r>   -5.1414    1.0000 </r>
       <r>   -4.9709    1.0000 </r>
       <r>   -4.9112    1.0000 </r>
       <r>   -4.7293    1.0000 </r>
       <r>   -4.6109    1.0000 </r>
       <r>   -4.5798    1.0000 </r>
       <r>   -4.4366    1.0000 </r>
       <r>   -4.1632    1.0000 </r>
       <r>   -4.0685    1.0000 </r>
       <r>   -3.7160    1.0000 </r>
       <r>   -3.5492    1.0000 </r>
       <r>   -3.4915    1.0000 </r>
       <r>   -3.0042    1.0000 </r>
       <r>   -2.8597    1.0000 </r>
       <r>   -2.7633    1.0000 </r>
       <r>   -2.7357    1.0000 </r>
       <r>   -2.3034    1.0000 </r>
       <r>   -2.1426    1.0000 </r>
       <r>   -1.8866    1.0000 </r>
       <r>   -1.4337    1.0000 </r>
       <r>   -1.2828    1.0000 </r>
       <r>   -0.8716    1.0000 </r>
       <r>   -0.7367    0.1375 </r>
       <r>   -0.7112   -0.0357 </r>
       <r>   -0.5518    0.0000 </r>
       <r>   -0.4116    0.0000 </r>
       <r>   -0.1835    0.0000 </r>
       <r>    0.6515    0.0000 </r>
       <r>    0.7184    0.0000 </r>
       <r>    0.7703    0.0000 </r>
       <r>    1.3944    0.0000 </r>
       <r>    1.4373    0.0000 </r>
       <r>    1.8977    0.0000 </r>
       <r>    3.0852    0.0000 </r>
       <r>    3.5113    0.0000 </r>
       <r>    3.5284    0.0000 </r>
      </set>
      <set comment="kpoint 11">
       <r>  -36.5729    1.0000 </r>
       <r>  -35.2461    1.0000 </r>
       <r>  -34.2862    1.0000 </r>
       <r>  -33.3978    1.0000 </r>
       <r>  -20.3310    1.0000 </r>
       <r>  -19.8599    1.0000 </r>
       <r>  -19.6335    1.0000 </r>
       <r>  -19.1571    1.0000 </r>
       <r>  -19.1042    1.0000 </r>
       <r>  -18.5694    1.0000 </r>
       <r>  -18.5129    1.0000 </r>
       <r>  -18.4977    1.0000 </r>
       <r>  -18.4185    1.0000 </r>
       <r>  -18.1653    1.0000 </r>
       <r>  -18.1303    1.0000 </r>
       <r>  -17.6618    1.0000 </r>
       <r>  -17.3025    1.0000 </r>
       <r>  -17.2175    1.0000 </r>
       <r>  -17.1094    1.0000 </r>
       <r>  -17.0437    1.0000 </r>
       <r>  -16.6198    1.0000 </r>
       <r>  -16.3509    1.0000 </r>
       <r>  -16.2186    1.0000 </r>
       <r>  -16.1015    1.0000 </r>
       <r>  -16.0167    1.0000 </r>
       <r>  -15.4581    1.0000 </r>
       <r>  -15.3931    1.0000 </r>
       <r>  -15.0927    1.0000 </r>
       <r>   -7.5828    1.0000 </r>
       <r>   -6.9451    1.0000 </r>
       <r>   -6.7946    1.0000 </r>
       <r>   -6.7536    1.0000 </r>
       <r>   -6.6289    1.0000 </r>
       <r>   -6.5776    1.0000 </r>
       <r>   -6.2718    1.0000 </r>
       <r>   -5.9833    1.0000 </r>
       <r>   -5.8490    1.0000 </r>
       <r>   -5.7716    1.0000 </r>
       <r>   -5.5360    1.0000 </r>
       <r>   -5.4416    1.0000 </r>
       <r>   -5.1596    1.0000 </r>
       <r>   -5.1107    1.0000 </r>
       <r>   -4.9574    1.0000 </r>
       <r>   -4.8166    1.0000 </r>
       <r>   -4.6585    1.0000 </r>
       <r>   -4.4129    1.0000 </r>
       <r>   -4.2989    1.0000 </r>
       <r>   -4.1872    1.0000 </r>
       <r>   -4.1298    1.0000 </r>
       <r>   -3.7642    1.0000 </r>
       <r>   -3.6702    1.0000 </r>
       <r>   -3.4987    1.0000 </r>
       <r>   -3.2008    1.0000 </r>
       <r>   -2.8770    1.0000 </r>
       <r>   -2.8079    1.0000 </r>
       <r>   -2.6324    1.0000 </r>
       <r>   -2.3035    1.0000 </r>
       <r>   -2.0504    1.0000 </r>
       <r>   -1.9211    1.0000 </r>
       <r>   -1.6271    1.0000 </r>
       <r>   -1.2181    1.0000 </r>
[...]
      </set>
      <set comment="kpoint 12">
       <r>  -36.5727    1.0000 </r>
       <r>  -35.2459    1.0000 </r>
       <r>  -34.2860    1.0000 </r>
       <r>  -33.3977    1.0000 </r>
       <r>  -20.1763    1.0000 </r>
       <r>  -20.0336    1.0000 </r>
       <r>  -19.8060    1.0000 </r>
       <r>  -19.2236    1.0000 </r>
       <r>  -18.9693    1.0000 </r>
       <r>  -18.7082    1.0000 </r>
       <r>  -18.4931    1.0000 </r>
       <r>  -18.4152    1.0000 </r>
       <r>  -18.3529    1.0000 </r>
       <r>  -18.2374    1.0000 </r>
       <r>  -18.0615    1.0000 </r>
       <r>  -17.8387    1.0000 </r>
       <r>  -17.2327    1.0000 </r>
       <r>  -17.1855    1.0000 </r>
       <r>  -17.0841    1.0000 </r>
       <r>  -17.0229    1.0000 </r>
       <r>  -16.5777    1.0000 </r>
       <r>  -16.2674    1.0000 </r>
       <r>  -16.1614    1.0000 </r>
       <r>  -16.1558    1.0000 </r>
       <r>  -15.9875    1.0000 </r>
       <r>  -15.4608    1.0000 </r>
       <r>  -15.1983    1.0000 </r>
       <r>  -15.0394    1.0000 </r>
       <r>   -7.6035    1.0000 </r>
       <r>   -7.1081    1.0000 </r>
       <r>   -6.9688    1.0000 </r>
       <r>   -6.8447    1.0000 </r>
       <r>   -6.6639    1.0000 </r>
       <r>   -6.5574    1.0000 </r>
       <r>   -6.0894    1.0000 </r>
       <r>   -6.0172    1.0000 </r>
       <r>   -5.9180    1.0000 </r>
       <r>   -5.8438    1.0000 </r>
       <r>   -5.6020    1.0000 </r>
       <r>   -5.3678    1.0000 </r>
       <r>   -5.2935    1.0000 </r>
       <r>   -5.2817    1.0000 </r>
       <r>   -5.1458    1.0000 </r>
       <r>   -4.7495    1.0000 </r>
       <r>   -4.6907    1.0000 </r>
       <r>   -4.2985    1.0000 </r>
       <r>   -4.1994    1.0000 </r>
       <r>   -4.1391    1.0000 </r>
       <r>   -4.0497    1.0000 </r>
       <r>   -3.8541    1.0000 </r>
       <r>   -3.7617    1.0000 </r>
       <r>   -3.6657    1.0000 </r>
       <r>   -3.5641    1.0000 </r>
       <r>   -2.8352    1.0000 </r>
       <r>   -2.8229    1.0000 </r>
       <r>   -2.7533    1.0000 </r>
       <r>   -2.0838    1.0000 </r>
       <r>   -1.9935    1.0000 </r>
       <r>   -1.8929    1.0000 </r>
       <r>   -1.7279    1.0000 </r>
       <r>   -1.2193    1.0000 </r>
       <r>   -1.1534    1.0000 </r>
       <r>   -0.8915    1.0423 </r>
       <r>   -0.7392    0.0708 </r>
       <r>   -0.6409   -0.0486 </r>
       <r>   -0.2565    0.0000 </r>
       <r>    0.0838    0.0000 </r>
       <r>    0.7245    0.0000 </r>
       <r>    1.0821    0.0000 </r>
       <r>    1.3958    0.0000 </r>
       <r>    1.4252    0.0000 </r>
       <r>    1.9175    0.0000 </r>
       <r>    2.2201    0.0000 </r>
       <r>    2.2322    0.0000 </r>
       <r>    3.1614    0.0000 </r>
       <r>    3.4413    0.0000 </r>
      </set>
     </set>
    </set>
   </array>
  </eigenvalues>
  <separator name="orbital magnetization" >
   <v name="MAGDIPOLOUT">      0.00000000      0.00000000      0.00000000</v>
  </separator>
  <dos>
   <i name="efermi">     -0.76446209 </i>
   <total>
    <array>
     <dimension dim="1">gridpoints</dimension>
     <dimension dim="2">spin</dimension>
     <field>energy</field>
     <field>total</field>
     <field>integrated</field>
     <set>
      <set comment="spin 1">
       <r>   -38.6428     0.0000     0.0000 </r>
       <r>   -38.4923     0.0000     0.0000 </r>
       <r>   -38.3418     0.0000     0.0000 </r>
       <r>   -38.1912     0.0000     0.0000 </r>
       <r>   -38.0407     0.0000     0.0000 </r>
       <r>   -37.8902     0.0000     0.0000 </r>
       <r>   -37.7397     0.0000     0.0000 </r>
       <r>   -37.5892     0.0000     0.0000 </r>
       <r>   -37.4387     0.0000     0.0000 </r>
       <r>   -37.2882     0.0000     0.0000 </r>
       <r>   -37.1377     0.0000     0.0000 </r>
       <r>   -36.9872     0.0000     0.0000 </r>
       <r>   -36.8367     0.0000     0.0000 </r>
       <r>   -36.6862     0.0000     0.0000 </r>
       <r>   -36.5356     0.0000     2.0000 </r>
       <r>   -36.3851     0.0000     2.0000 </r>
       <r>   -36.2346     0.0000     2.0000 </r>
       <r>   -36.0841     0.0000     2.0000 </r>
       <r>   -35.9336     0.0000     2.0000 </r>
       <r>   -35.7831     0.0000     2.0000 </r>
       <r>   -35.6326     0.0000     2.0000 </r>
       <r>   -35.4821     0.0000     2.0000 </r>
       <r>   -35.3316     0.0000     2.0000 </r>
       <r>   -35.1811     0.0000     4.0000 </r>
       <r>   -35.0306     0.0000     4.0000 </r>
       <r>   -34.8800     0.0000     4.0000 </r>
       <r>   -34.7295     0.0000     4.0000 </r>
       <r>   -34.5790     0.0000     4.0000 </r>
       <r>   -34.4285     0.0000     4.0000 </r>
       <r>   -34.2780     0.0000     6.0000 </r>
       <r>   -34.1275     0.0000     6.0000 </r>
       <r>   -33.9770     0.0000     6.0000 </r>
       <r>   -33.8265     0.0000     6.0000 </r>
       <r>   -33.6760     0.0000     6.0000 </r>
       <r>   -33.5255     0.0000     6.0000 </r>
       <r>   -33.3750     0.0000     8.0000 </r>
       <r>   -33.2244     0.0000     8.0000 </r>
       <r>   -33.0739     0.0000     8.0000 </r>
       <r>   -32.9234     0.0000     8.0000 </r>
       <r>   -32.7729     0.0000     8.0000 </r>
       <r>   -32.6224     0.0000     8.0000 </r>
       <r>   -32.4719     0.0000     8.0000 </r>
       <r>   -32.3214     0.0000     8.0000 </r>
       <r>   -32.1709     0.0000     8.0000 </r>
       <r>   -32.0204     0.0000     8.0000 </r>
       <r>   -31.8699     0.0000     8.0000 </r>
       <r>   -31.7194     0.0000     8.0000 </r>
       <r>   -31.5689     0.0000     8.0000 </r>
       <r>   -31.4183     0.0000     8.0000 </r>
       <r>   -31.2678     0.0000     8.0000 </r>
       <r>   -31.1173     0.0000     8.0000 </r>
       <r>   -30.9668     0.0000     8.0000 </r>
       <r>   -30.8163     0.0000     8.0000 </r>
       <r>   -30.6658     0.0000     8.0000 </r>
       <r>   -30.5153     0.0000     8.0000 </r>
       <r>   -30.3648     0.0000     8.0000 </r>
       <r>   -30.2143     0.0000     8.0000 </r>
       <r>   -30.0638     0.0000     8.0000 </r>
       <r>   -29.9133     0.0000     8.0000 </r>
       <r>   -29.7627     0.0000     8.0000 </r>
       <r>   -29.6122     0.0000     8.0000 </r>
       <r>   -29.4617     0.0000     8.0000 </r>
       <r>   -29.3112     0.0000     8.0000 </r>
       <r>   -29.1607     0.0000     8.0000 </r>
       <r>   -29.0102     0.0000     8.0000 </r>
       <r>   -28.8597     0.0000     8.0000 </r>
       <r>   -28.7092     0.0000     8.0000 </r>
       <r>   -28.5587     0.0000     8.0000 </r>
       <r>   -28.4082     0.0000     8.0000 </r>
       <r>   -28.2577     0.0000     8.0000 </r>
       <r>   -28.1071     0.0000     8.0000 </r>
       <r>   -27.9566     0.0000     8.0000 </r>
       <r>   -27.8061     0.0000     8.0000 </r>
       <r>   -27.6556     0.0000     8.0000 </r>
       <r>   -27.5051     0.0000     8.0000 </r>
       <r>   -27.3546     0.0000     8.0000 </r>
       <r>   -27.2041     0.0000     8.0000 </r>
       <r>   -27.0536     0.0000     8.0000 </r>
       <r>   -26.9031     0.0000     8.0000 </r>
       <r>   -26.7526     0.0000     8.0000 </r>
       <r>   -26.6021     0.0000     8.0000 </r>
       <r>   -26.4515     0.0000     8.0000 </r>
       <r>   -26.3010     0.0000     8.0000 </r>
       <r>   -26.1505     0.0000     8.0000 </r>
       <r>   -26.0000     0.0000     8.0000 </r>
       <r>   -25.8495     0.0000     8.0000 </r>
       <r>   -25.6990     0.0000     8.0000 </r>
       <r>   -25.5485     0.0000     8.0000 </r>
       <r>   -25.3980     0.0000     8.0000 </r>
       <r>   -25.2475     0.0000     8.0000 </r>
       <r>   -25.0970     0.0000     8.0000 </r>
       <r>   -24.9465     0.0000     8.0000 </r>
       <r>   -24.7959     0.0000     8.0000 </r>
       <r>   -24.6454     0.0000     8.0000 </r>
       <r>   -24.4949     0.0000     8.0000 </r>
       <r>   -24.3444     0.0000     8.0000 </r>
       <r>   -24.1939     0.0000     8.0000 </r>
       <r>   -24.0434     0.0000     8.0000 </r>
       <r>   -23.8929     0.0000     8.0000 </r>
       <r>   -23.7424     0.0000     8.0000 </r>
       <r>   -23.5919     0.0000     8.0000 </r>
       <r>   -23.4414     0.0000     8.0000 </r>
       <r>   -23.2909     0.0000     8.0000 </r>
       <r>   -23.1403     0.0000     8.0000 </r>
       <r>   -22.9898     0.0000     8.0000 </r>
       <r>   -22.8393     0.0000     8.0000 </r>
       <r>   -22.6888     0.0000     8.0000 </r>
       <r>   -22.5383     0.0000     8.0000 </r>
       <r>   -22.3878     0.0000     8.0000 </r>
       <r>   -22.2373     0.0000     8.0000 </r>
       <r>   -22.0868     0.0000     8.0000 </r>
       <r>   -21.9363     0.0000     8.0000 </r>
       <r>   -21.7858     0.0000     8.0000 </r>
       <r>   -21.6353     0.0000     8.0000 </r>
       <r>   -21.4847     0.0000     8.0000 </r>
       <r>   -21.3342     0.0000     8.0000 </r>
       <r>   -21.1837     0.0000     8.0000 </r>
       <r>   -21.0332     0.0000     8.0000 </r>
       <r>   -20.8827     0.0000     8.0000 </r>
       <r>   -20.7322     0.0000     8.0000 </r>
       <r>   -20.5817     3.4288     8.1961 </r>
       <r>   -20.4312     4.1660     8.8652 </r>
       <r>   -20.2807     5.7588     9.7944 </r>
       <r>   -20.1302     4.6125    10.6863 </r>
       <r>   -19.9797     3.3822    11.4574 </r>
       <r>   -19.8291     2.7156    11.8537 </r>
       <r>   -19.6786    21.4422    13.1503 </r>
       <r>   -19.5281     0.0000    14.0000 </r>
       <r>   -19.3776     0.0000    14.0000 </r>
       <r>   -19.2271    11.4094    15.3810 </r>
       <r>   -19.0766    21.2897    17.4067 </r>
       <r>   -18.9261     0.0000    18.0000 </r>
       <r>   -18.7756     0.0000    18.0000 </r>
       <r>   -18.6251     6.4400    19.7772 </r>
       <r>   -18.4746    14.9699    22.8475 </r>
       <r>   -18.3241    11.6556    26.2351 </r>
       <r>   -18.1735    17.0958    28.3642 </r>
       <r>   -18.0230     0.0000    30.0000 </r>
       <r>   -17.8725     0.0000    30.0000 </r>
       <r>   -17.7220     5.4664    31.5017 </r>
       <r>   -17.5715     0.0000    32.0000 </r>
       <r>   -17.4210     1.0848    32.0115 </r>
       <r>   -17.2705    29.8128    33.2821 </r>
       <r>   -17.1200    19.5849    36.9120 </r>
       <r>   -16.9695     0.0000    40.0000 </r>
       <r>   -16.8190     0.0000    40.0000 </r>
       <r>   -16.6685     0.0000    40.0000 </r>
       <r>   -16.5180     9.5180    41.5068 </r>
       <r>   -16.3674     2.7857    42.2098 </r>
       <r>   -16.2169    21.6034    45.1579 </r>
       <r>   -16.0664    11.8406    48.3328 </r>
       <r>   -15.9159     0.0000    50.0000 </r>
       <r>   -15.7654     0.0000    50.0000 </r>
       <r>   -15.6149     0.0000    50.0000 </r>
       <r>   -15.4644     3.3898    50.1549 </r>
       <r>   -15.3139     3.7541    52.4515 </r>
       <r>   -15.1634    10.3345    54.2168 </r>
       <r>   -15.0129     0.0000    56.0000 </r>
       <r>   -14.8624     0.0000    56.0000 </r>
       <r>   -14.7118     0.0000    56.0000 </r>
       <r>   -14.5613     0.0000    56.0000 </r>
       <r>   -14.4108     0.0000    56.0000 </r>
       <r>   -14.2603     0.0000    56.0000 </r>
       <r>   -14.1098     0.0000    56.0000 </r>
       <r>   -13.9593     0.0000    56.0000 </r>
       <r>   -13.8088     0.0000    56.0000 </r>
       <r>   -13.6583     0.0000    56.0000 </r>
       <r>   -13.5078     0.0000    56.0000 </r>
       <r>   -13.3573     0.0000    56.0000 </r>
       <r>   -13.2068     0.0000    56.0000 </r>
       <r>   -13.0562     0.0000    56.0000 </r>
       <r>   -12.9057     0.0000    56.0000 </r>
       <r>   -12.7552     0.0000    56.0000 </r>
       <r>   -12.6047     0.0000    56.0000 </r>
       <r>   -12.4542     0.0000    56.0000 </r>
       <r>   -12.3037     0.0000    56.0000 </r>
       <r>   -12.1532     0.0000    56.0000 </r>
       <r>   -12.0027     0.0000    56.0000 </r>
       <r>   -11.8522     0.0000    56.0000 </r>
       <r>   -11.7017     0.0000    56.0000 </r>
       <r>   -11.5512     0.0000    56.0000 </r>
       <r>   -11.4006     0.0000    56.0000 </r>
       <r>   -11.2501     0.0000    56.0000 </r>
       <r>   -11.0996     0.0000    56.0000 </r>
       <r>   -10.9491     0.0000    56.0000 </r>
       <r>   -10.7986     0.0000    56.0000 </r>
       <r>   -10.6481     0.0000    56.0000 </r>
       <r>   -10.4976     0.0000    56.0000 </r>
       <r>   -10.3471     0.0000    56.0000 </r>
       <r>   -10.1966     0.0000    56.0000 </r>
       <r>   -10.0461     0.0000    56.0000 </r>
       <r>    -9.8956     0.0000    56.0000 </r>
       <r>    -9.7450     0.0000    56.0000 </r>
       <r>    -9.5945     0.0000    56.0000 </r>
       <r>    -9.4440     0.0000    56.0000 </r>
       <r>    -9.2935     0.0000    56.0000 </r>
       <r>    -9.1430     0.0000    56.0000 </r>
       <r>    -8.9925     0.0000    56.0000 </r>
       <r>    -8.8420     0.0000    56.0000 </r>
       <r>    -8.6915     0.0000    56.0000 </r>
       <r>    -8.5410     0.0000    56.0000 </r>
       <r>    -8.3905     0.0000    56.0000 </r>
       <r>    -8.2400     0.0000    56.0000 </r>
       <r>    -8.0894     0.0000    56.0000 </r>
       <r>    -7.9389     0.0000    56.0000 </r>
       <r>    -7.7884     0.0000    56.0000 </r>
       <r>    -7.6379     0.0000    56.0000 </r>
       <r>    -7.4874     0.9716    56.3846 </r>
       <r>    -7.3369     0.9711    56.5308 </r>
       <r>    -7.1864     0.9705    56.6769 </r>
       <r>    -7.0359     5.2287    57.0721 </r>
       <r>    -6.8854     8.5535    58.8213 </r>
       <r>    -6.7349    17.0918    60.4149 </r>
       <r>    -6.5844     7.9822    62.7908 </r>
       <r>    -6.4338     7.0535    64.3077 </r>
       <r>    -6.2833     6.4190    65.3788 </r>
       <r>    -6.1328     6.4135    66.2779 </r>
       <r>    -5.9823    16.3336    67.6487 </r>
       <r>    -5.8318    19.0634    69.6229 </r>
       <r>    -5.6813    11.5692    71.4204 </r>
       <r>    -5.5308    10.4543    73.4663 </r>
       <r>    -5.3803    13.0356    75.4322 </r>
       <r>    -5.2298    14.5457    77.4977 </r>
       <r>    -5.0793    13.4710    79.9548 </r>
       <r>    -4.9288    14.3228    82.1260 </r>
       <r>    -4.7782    15.3011    84.0893 </r>
       <r>    -4.6277    15.3690    86.5489 </r>
       <r>    -4.4772     8.5735    88.0314 </r>
       <r>    -4.3267    13.3060    89.5672 </r>
       <r>    -4.1762    20.9018    91.6505 </r>
       <r>    -4.0257    12.3509    94.5776 </r>
       <r>    -3.8752     8.5594    96.2254 </r>
       <r>    -3.7247    16.2630    98.5362 </r>
       <r>    -3.5742     9.9185   100.1392 </r>
       <r>    -3.4237     9.6643   101.9967 </r>
       <r>    -3.2732     6.4410   103.2392 </r>
       <r>    -3.1226     8.8732   104.3901 </r>
       <r>    -2.9721    11.3652   105.9694 </r>
       <r>    -2.8216    29.0022   108.9708 </r>
       <r>    -2.6711     9.6129   110.8057 </r>
       <r>    -2.5206     6.6873   111.8304 </r>
       <r>    -2.3701     7.3103   112.2697 </r>
       <r>    -2.2196     5.0845   113.7479 </r>
       <r>    -2.0691    10.3525   115.2813 </r>
       <r>    -1.9186    20.2955   117.1539 </r>
       <r>    -1.7681     1.3325   117.9749 </r>
       <r>    -1.6176     5.6834   119.0535 </r>
       <r>    -1.4671     3.0557   119.8480 </r>
       <r>    -1.3165     7.2674   120.4926 </r>
       <r>    -1.1660     6.1003   122.5017 </r>
       <r>    -1.0155    11.4538   123.9962 </r>
       <r>    -0.8650    28.3319   126.1967 </r>
       <r>    -0.7145    24.3720   129.5491 </r>
       <r>    -0.5640     7.4305   131.2944 </r>
       <r>    -0.4135     7.0642   132.4221 </r>
       <r>    -0.2630     6.2217   133.6520 </r>
       <r>    -0.1125     3.9121   134.3479 </r>
       <r>     0.0380     2.7397   134.8439 </r>
       <r>     0.1885     3.1909   135.7477 </r>
       <r>     0.3391     6.2209   136.3122 </r>
       <r>     0.4896     8.5446   137.5357 </r>
       <r>     0.6401     5.4721   138.5428 </r>
       <r>     0.7906     7.9563   139.8893 </r>
       <r>     0.9411     6.4078   140.9841 </r>
       <r>     1.0916     4.0874   142.0535 </r>
       <r>     1.2421     3.4704   142.6223 </r>
       <r>     1.3926     7.0402   143.3748 </r>
       <r>     1.5431     3.1625   144.3199 </r>
       <r>     1.6936     4.1451   144.8698 </r>
       <r>     1.8441     7.8255   145.7652 </r>
       <r>     1.9947     3.6282   146.5589 </r>
       <r>     2.1452     3.0969   147.0650 </r>
       <r>     2.2957     0.7256   147.6951 </r>
       <r>     2.4462     0.6229   147.7966 </r>
       <r>     2.5967     0.5202   147.8827 </r>
       <r>     2.7472     5.0579   148.2784 </r>
       <r>     2.8977     2.7195   148.7976 </r>
       <r>     3.0482     2.8798   149.2189 </r>
       <r>     3.1987     3.5676   150.1895 </r>
       <r>     3.3492     3.1261   150.6933 </r>
       <r>     3.4997     4.5435   151.2812 </r>
       <r>     3.6503     0.5561   151.4687 </r>
       <r>     3.8008     0.4961   151.5478 </r>
       <r>     3.9513     0.4362   151.6180 </r>
       <r>     4.1018     0.3971   151.6801 </r>
       <r>     4.2523     1.4157   151.8547 </r>
       <r>     4.4028     0.3775   151.9897 </r>
       <r>     4.5533     0.0000   152.0000 </r>
       <r>     4.7038     0.0000   152.0000 </r>
       <r>     4.8543     0.0000   152.0000 </r>
       <r>     5.0048     0.0000   152.0000 </r>
       <r>     5.1553     0.0000   152.0000 </r>
       <r>     5.3059     0.0000   152.0000 </r>
       <r>     5.4564     0.0000   152.0000 </r>
       <r>     5.6069     0.0000   152.0000 </r>
       <r>     5.7574     0.0000   152.0000 </r>
       <r>     5.9079     0.0000   152.0000 </r>
       <r>     6.0584     0.0000   152.0000 </r>
       <r>     6.2089     0.0000   152.0000 </r>
       <r>     6.3594     0.0000   152.0000 </r>
       <r>     6.5099     0.0000   152.0000 </r>
      </set>
     </set>
    </array>
   </total>
  </dos>
 </calculation>
 <structure name="finalpos" >
  <crystal>
   <varray name="basis" >
    <v>       5.52288297       0.00000000       0.00000000 </v>
    <v>       0.00000000       3.90526800       0.00000000 </v>
    <v>       0.00000000       0.00000000      21.66504520 </v>
   </varray>
   <i name="volume">    467.27902047 </i>
   <varray name="rec_basis" >
    <v>       0.18106485       0.00000000       0.00000000 </v>
    <v>       0.00000000       0.25606437       0.00000000 </v>
    <v>       0.00000000       0.00000000       0.04615730 </v>
   </varray>
  </crystal>
  <varray name="positions" >
   <v>       0.50000000       0.00000000       0.27694380 </v>
   <v>       0.25000000       0.50000000       0.34067414 </v>
   <v>       0.75000000       0.50000000       0.34067414 </v>
   <v>       0.00000000       0.00000000       0.40440449 </v>
   <v>       0.75000000       0.50000000       0.46813483 </v>
   <v>       0.25000000       0.50000000       0.46813483 </v>
   <v>       0.50000000       0.00000000       0.53186517 </v>
   <v>       0.25000000       0.50000000       0.59559551 </v>
   <v>       0.75000000       0.50000000       0.59559551 </v>
   <v>       0.00000000       0.00000000       0.65932586 </v>
   <v>       0.75000000       0.50000000       0.72305620 </v>
   <v>       0.25000000       0.50000000       0.72305620 </v>
   <v>       0.00000000       0.00000000       0.27694380 </v>
   <v>       0.50000000       0.00000000       0.40440449 </v>
   <v>       0.00000000       0.00000000       0.53186517 </v>
   <v>       0.50000000       0.00000000       0.65932586 </v>
   <v>       0.50000000       0.50000000       0.27694380 </v>
   <v>       0.00000000       0.50000000       0.40440449 </v>
   <v>       0.50000000       0.50000000       0.53186517 </v>
   <v>       0.00000000       0.50000000       0.65932586 </v>
  </varray>
 </structure>
</modeling>
