  20  20   0   0
  0.1957362E+02  0.3905268E-09  0.3905268E-09  0.2566844E-08  0.5000000E-15
  1.000000000000000E-004
  CAR 
 unknown system                          
      9.82417034    -35.85934502  301      0.61132808      1.00000000
    -35.859  0.0000E+00  0.0000E+00
    -35.707  0.0000E+00  0.0000E+00
    -35.555  0.0000E+00  0.0000E+00
    -35.403  0.0000E+00  0.0000E+00
    -35.250  0.0000E+00  0.0000E+00
    -35.098  0.0000E+00  0.0000E+00
    -34.946  0.0000E+00  0.0000E+00
    -34.793  0.0000E+00  0.0000E+00
    -34.641  0.0000E+00  0.0000E+00
    -34.489  0.0000E+00  0.0000E+00
    -34.337  0.0000E+00  0.0000E+00
    -34.184  0.0000E+00  0.0000E+00
    -34.032  0.0000E+00  0.0000E+00
    -33.880  0.0000E+00  0.0000E+00
    -33.727  0.0000E+00  0.2000E+01
    -33.575  0.0000E+00  0.2000E+01
    -33.423  0.0000E+00  0.2000E+01
    -33.271  0.0000E+00  0.2000E+01
    -33.118  0.0000E+00  0.2000E+01
    -32.966  0.0000E+00  0.2000E+01
    -32.814  0.0000E+00  0.2000E+01
    -32.661  0.2911E+01  0.6000E+01
    -32.509  0.0000E+00  0.8000E+01
    -32.357  0.0000E+00  0.8000E+01
    -32.205  0.0000E+00  0.8000E+01
    -32.052  0.0000E+00  0.8000E+01
    -31.900  0.0000E+00  0.8000E+01
    -31.748  0.0000E+00  0.8000E+01
    -31.596  0.0000E+00  0.8000E+01
    -31.443  0.0000E+00  0.8000E+01
    -31.291  0.0000E+00  0.8000E+01
    -31.139  0.0000E+00  0.8000E+01
    -30.986  0.0000E+00  0.8000E+01
    -30.834  0.0000E+00  0.8000E+01
    -30.682  0.0000E+00  0.8000E+01
    -30.530  0.0000E+00  0.8000E+01
    -30.377  0.0000E+00  0.8000E+01
    -30.225  0.0000E+00  0.8000E+01
    -30.073  0.0000E+00  0.8000E+01
    -29.920  0.0000E+00  0.8000E+01
    -29.768  0.0000E+00  0.8000E+01
    -29.616  0.0000E+00  0.8000E+01
    -29.464  0.0000E+00  0.8000E+01
    -29.311  0.0000E+00  0.8000E+01
    -29.159  0.0000E+00  0.8000E+01
    -29.007  0.0000E+00  0.8000E+01
    -28.855  0.0000E+00  0.8000E+01
    -28.702  0.0000E+00  0.8000E+01
    -28.550  0.0000E+00  0.8000E+01
    -28.398  0.0000E+00  0.8000E+01
    -28.245  0.0000E+00  0.8000E+01
    -28.093  0.0000E+00  0.8000E+01
    -27.941  0.0000E+00  0.8000E+01
    -27.789  0.0000E+00  0.8000E+01
    -27.636  0.0000E+00  0.8000E+01
    -27.484  0.0000E+00  0.8000E+01
    -27.332  0.0000E+00  0.8000E+01
    -27.179  0.0000E+00  0.8000E+01
    -27.027  0.0000E+00  0.8000E+01
    -26.875  0.0000E+00  0.8000E+01
    -26.723  0.0000E+00  0.8000E+01
    -26.570  0.0000E+00  0.8000E+01
    -26.418  0.0000E+00  0.8000E+01
    -26.266  0.0000E+00  0.8000E+01
    -26.114  0.0000E+00  0.8000E+01
    -25.961  0.0000E+00  0.8000E+01
    -25.809  0.0000E+00  0.8000E+01
    -25.657  0.0000E+00  0.8000E+01
    -25.504  0.0000E+00  0.8000E+01
    -25.352  0.0000E+00  0.8000E+01
    -25.200  0.0000E+00  0.8000E+01
    -25.048  0.0000E+00  0.8000E+01
    -24.895  0.0000E+00  0.8000E+01
    -24.743  0.0000E+00  0.8000E+01
    -24.591  0.0000E+00  0.8000E+01
    -24.438  0.0000E+00  0.8000E+01
    -24.286  0.0000E+00  0.8000E+01
    -24.134  0.0000E+00  0.8000E+01
    -23.982  0.0000E+00  0.8000E+01
    -23.829  0.0000E+00  0.8000E+01
    -23.677  0.0000E+00  0.8000E+01
    -23.525  0.0000E+00  0.8000E+01
    -23.373  0.0000E+00  0.8000E+01
    -23.220  0.0000E+00  0.8000E+01
    -23.068  0.0000E+00  0.8000E+01
    -22.916  0.0000E+00  0.8000E+01
    -22.763  0.0000E+00  0.8000E+01
    -22.611  0.0000E+00  0.8000E+01
    -22.459  0.0000E+00  0.8000E+01
    -22.307  0.0000E+00  0.8000E+01
    -22.154  0.0000E+00  0.8000E+01
    -22.002  0.0000E+00  0.8000E+01
    -21.850  0.0000E+00  0.8000E+01
    -21.697  0.0000E+00  0.8000E+01
    -21.545  0.0000E+00  0.8000E+01
    -21.393  0.0000E+00  0.8000E+01
    -21.241  0.0000E+00  0.8000E+01
    -21.088  0.0000E+00  0.8000E+01
    -20.936  0.0000E+00  0.8000E+01
    -20.784  0.0000E+00  0.8000E+01
    -20.632  0.0000E+00  0.8000E+01
    -20.479  0.0000E+00  0.8000E+01
    -20.327  0.0000E+00  0.8000E+01
    -20.175  0.0000E+00  0.8000E+01
    -20.022  0.0000E+00  0.8000E+01
    -19.870  0.0000E+00  0.8000E+01
    -19.718  0.0000E+00  0.8000E+01
    -19.566  0.0000E+00  0.8000E+01
    -19.413  0.0000E+00  0.8000E+01
    -19.261  0.0000E+00  0.8000E+01
    -19.109  0.0000E+00  0.8000E+01
    -18.956  0.0000E+00  0.8000E+01
    -18.804  0.0000E+00  0.8000E+01
    -18.652  0.0000E+00  0.8000E+01
    -18.500  0.0000E+00  0.8000E+01
    -18.347  0.0000E+00  0.8000E+01
    -18.195  0.0000E+00  0.8000E+01
    -18.043  0.0000E+00  0.8000E+01
    -17.890  0.0000E+00  0.8000E+01
    -17.738  0.0000E+00  0.8000E+01
    -17.586  0.1273E+02  0.8699E+01
    -17.434  0.1336E+02  0.1030E+02
    -17.281  0.6926E+01  0.1174E+02
    -17.129  0.6370E+01  0.1282E+02
    -16.977  0.7274E+01  0.1410E+02
    -16.825  0.4194E+01  0.1521E+02
    -16.672  0.1656E+02  0.1636E+02
    -16.520  0.2027E+02  0.2114E+02
    -16.368  0.4174E+01  0.2634E+02
    -16.215  0.2204E+02  0.2746E+02
    -16.063  0.7260E+01  0.2936E+02
    -15.911  0.7153E+02  0.3095E+02
    -15.759  0.1084E+02  0.3296E+02
    -15.606  0.1470E+02  0.3589E+02
    -15.454  0.2459E+00  0.3602E+02
    -15.302  0.1242E+01  0.3617E+02
    -15.149  0.2290E+01  0.3645E+02
    -14.997  0.5370E+01  0.3703E+02
    -14.845  0.5618E+02  0.3933E+02
    -14.693  0.4333E+02  0.4478E+02
    -14.540  0.2587E+02  0.4941E+02
    -14.388  0.1765E+02  0.5448E+02
    -14.236  0.0000E+00  0.5600E+02
    -14.084  0.0000E+00  0.5600E+02
    -13.931  0.0000E+00  0.5600E+02
    -13.779  0.0000E+00  0.5600E+02
    -13.627  0.0000E+00  0.5600E+02
    -13.474  0.0000E+00  0.5600E+02
    -13.322  0.0000E+00  0.5600E+02
    -13.170  0.0000E+00  0.5600E+02
    -13.018  0.0000E+00  0.5600E+02
    -12.865  0.0000E+00  0.5600E+02
    -12.713  0.0000E+00  0.5600E+02
    -12.561  0.0000E+00  0.5600E+02
    -12.408  0.0000E+00  0.5600E+02
    -12.256  0.0000E+00  0.5600E+02
    -12.104  0.0000E+00  0.5600E+02
    -11.952  0.0000E+00  0.5600E+02
    -11.799  0.0000E+00  0.5600E+02
    -11.647  0.0000E+00  0.5600E+02
    -11.495  0.0000E+00  0.5600E+02
    -11.343  0.0000E+00  0.5600E+02
    -11.190  0.0000E+00  0.5600E+02
    -11.038  0.0000E+00  0.5600E+02
    -10.886  0.0000E+00  0.5600E+02
    -10.733  0.0000E+00  0.5600E+02
    -10.581  0.0000E+00  0.5600E+02
    -10.429  0.0000E+00  0.5600E+02
    -10.277  0.0000E+00  0.5600E+02
    -10.124  0.0000E+00  0.5600E+02
     -9.972  0.0000E+00  0.5600E+02
     -9.820  0.0000E+00  0.5600E+02
     -9.667  0.0000E+00  0.5600E+02
     -9.515  0.0000E+00  0.5600E+02
     -9.363  0.0000E+00  0.5600E+02
     -9.211  0.0000E+00  0.5600E+02
     -9.058  0.0000E+00  0.5600E+02
     -8.906  0.0000E+00  0.5600E+02
     -8.754  0.0000E+00  0.5600E+02
     -8.602  0.0000E+00  0.5600E+02
     -8.449  0.0000E+00  0.5600E+02
     -8.297  0.0000E+00  0.5600E+02
     -8.145  0.0000E+00  0.5600E+02
     -7.992  0.0000E+00  0.5600E+02
     -7.840  0.0000E+00  0.5600E+02
     -7.688  0.0000E+00  0.5600E+02
     -7.536  0.0000E+00  0.5600E+02
     -7.383  0.0000E+00  0.5600E+02
     -7.231  0.0000E+00  0.5600E+02
     -7.079  0.0000E+00  0.5600E+02
     -6.926  0.0000E+00  0.5600E+02
     -6.774  0.0000E+00  0.5600E+02
     -6.622  0.0000E+00  0.5600E+02
     -6.470  0.0000E+00  0.5600E+02
     -6.317  0.0000E+00  0.5600E+02
     -6.165  0.0000E+00  0.5600E+02
     -6.013  0.0000E+00  0.5600E+02
     -5.861  0.0000E+00  0.5600E+02
     -5.708  0.0000E+00  0.5600E+02
     -5.556  0.0000E+00  0.5600E+02
     -5.404  0.0000E+00  0.5600E+02
     -5.251  0.0000E+00  0.5600E+02
     -5.099  0.0000E+00  0.5600E+02
     -4.947  0.0000E+00  0.5600E+02
     -4.795  0.0000E+00  0.5600E+02
     -4.642  0.0000E+00  0.5600E+02
     -4.490  0.8184E+01  0.5678E+02
     -4.338  0.1272E+02  0.5868E+02
     -4.185  0.1277E+02  0.6116E+02
     -4.033  0.1839E+02  0.6378E+02
     -3.881  0.1240E+02  0.6611E+02
     -3.729  0.1606E+02  0.6839E+02
     -3.576  0.1527E+02  0.7086E+02
     -3.424  0.1807E+02  0.7373E+02
     -3.272  0.2097E+02  0.7677E+02
     -3.119  0.2879E+02  0.8036E+02
     -2.967  0.2136E+02  0.8432E+02
     -2.815  0.1309E+02  0.8707E+02
     -2.663  0.1395E+02  0.8918E+02
     -2.510  0.1229E+02  0.9124E+02
     -2.358  0.1254E+02  0.9309E+02
     -2.206  0.1288E+02  0.9510E+02
     -2.054  0.1088E+02  0.9681E+02
     -1.901  0.1616E+02  0.9832E+02
     -1.749  0.7775E+01  0.9982E+02
     -1.597  0.1179E+02  0.1019E+03
     -1.444  0.1743E+02  0.1039E+03
     -1.292  0.3340E+02  0.1073E+03
     -1.140  0.1592E+02  0.1102E+03
     -0.988  0.2579E+02  0.1139E+03
     -0.835  0.1837E+02  0.1172E+03
     -0.683  0.1661E+02  0.1196E+03
     -0.531  0.1517E+02  0.1227E+03
     -0.378  0.1215E+02  0.1249E+03
     -0.226  0.5051E+01  0.1267E+03
     -0.074  0.1390E+01  0.1274E+03
      0.078  0.1140E+01  0.1275E+03
      0.231  0.9997E+00  0.1277E+03
      0.383  0.7515E+00  0.1279E+03
      0.535  0.5032E+00  0.1280E+03
      0.687  0.0000E+00  0.1280E+03
      0.840  0.0000E+00  0.1280E+03
      0.992  0.0000E+00  0.1280E+03
      1.144  0.0000E+00  0.1280E+03
      1.297  0.0000E+00  0.1280E+03
      1.449  0.0000E+00  0.1280E+03
      1.601  0.0000E+00  0.1280E+03
      1.753  0.1242E+01  0.1281E+03
      1.906  0.3551E+01  0.1285E+03
      2.058  0.4484E+01  0.1291E+03
      2.210  0.3997E+01  0.1298E+03
      2.363  0.6850E+01  0.1305E+03
      2.515  0.7673E+01  0.1317E+03
      2.667  0.6507E+01  0.1327E+03
      2.819  0.8096E+01  0.1338E+03
      2.972  0.1071E+02  0.1353E+03
      3.124  0.1142E+02  0.1372E+03
      3.276  0.1212E+02  0.1390E+03
      3.428  0.2384E+02  0.1413E+03
      3.581  0.1509E+02  0.1441E+03
      3.733  0.1287E+02  0.1467E+03
      3.885  0.6890E+01  0.1483E+03
      4.038  0.1747E+01  0.1490E+03
      4.190  0.4322E+00  0.1492E+03
      4.342  0.4319E+00  0.1492E+03
      4.494  0.4315E+00  0.1493E+03
      4.647  0.4312E+00  0.1494E+03
      4.799  0.4309E+00  0.1494E+03
      4.951  0.4305E+00  0.1495E+03
      5.104  0.4302E+00  0.1496E+03
      5.256  0.4299E+00  0.1496E+03
      5.408  0.4295E+00  0.1497E+03
      5.560  0.4695E+00  0.1498E+03
      5.713  0.5615E+00  0.1498E+03
      5.865  0.3251E+00  0.1499E+03
      6.017  0.1488E+01  0.1500E+03
      6.169  0.7472E+00  0.1502E+03
      6.322  0.7581E+00  0.1503E+03
      6.474  0.7691E+00  0.1504E+03
      6.626  0.7800E+00  0.1506E+03
      6.779  0.7915E+00  0.1507E+03
      6.931  0.8535E+00  0.1508E+03
      7.083  0.7643E+00  0.1509E+03
      7.235  0.7845E+00  0.1510E+03
      7.388  0.7581E+00  0.1512E+03
      7.540  0.1086E+01  0.1514E+03
      7.692  0.3407E+01  0.1518E+03
      7.845  0.0000E+00  0.1520E+03
      7.997  0.0000E+00  0.1520E+03
      8.149  0.0000E+00  0.1520E+03
      8.301  0.0000E+00  0.1520E+03
      8.454  0.0000E+00  0.1520E+03
      8.606  0.0000E+00  0.1520E+03
      8.758  0.0000E+00  0.1520E+03
      8.911  0.0000E+00  0.1520E+03
      9.063  0.0000E+00  0.1520E+03
      9.215  0.0000E+00  0.1520E+03
      9.367  0.0000E+00  0.1520E+03
      9.520  0.0000E+00  0.1520E+03
      9.672  0.0000E+00  0.1520E+03
      9.824  0.0000E+00  0.1520E+03
