   20   20    1    1
  0.1957362E+02  0.3905268E-09  0.3905268E-09  0.2566844E-08  0.5000000E-15
  1.000000000000000E-004
  CAR 
 unknown system                          
    128     10     76
 
  0.0000000E+00  0.0000000E+00  0.0000000E+00  0.2040816E-01
    1      -33.782822   1.000000
    2      -32.797298   1.000000
    3      -32.706749   1.000000
    4      -32.661797   1.000000
    5      -17.712519   1.000000
    6      -17.626307   1.000000
    7      -17.520891   1.000000
    8      -17.050737   1.000000
    9      -16.567769   1.000000
   10      -16.520319   1.000000
   11      -16.494857   1.000000
   12      -16.466235   1.000000
   13      -16.418336   1.000000
   14      -16.374873   1.000000
   15      -15.952017   1.000000
   16      -15.748179   1.000000
   17      -15.699096   1.000000
   18      -15.699096   1.000000
   19      -15.601103   1.000000
   20      -14.852113   1.000000
   21      -14.852113   1.000000
   22      -14.755183   1.000000
   23      -14.755182   1.000000
   24      -14.732571   1.000000
   25      -14.732571   1.000000
   26      -14.698824   1.000000
   27      -14.405752   1.000000
   28      -14.267492   1.000000
   29       -4.266474   1.000000
   30       -3.720383   1.000000
   31       -3.182256   1.000000
   32       -3.010688   1.000000
   33       -3.010688   1.000000
   34       -2.910449   1.000000
   35       -2.910449   1.000000
   36       -2.842448   1.000000
   37       -2.842448   1.000000
   38       -2.548937   1.000000
   39       -2.548937   1.000000
   40       -2.524524   1.000000
   41       -2.269880   1.000000
   42       -2.167257   1.000000
   43       -2.167257   1.000000
   44       -1.952287   1.000000
   45       -1.843021   1.000000
   46       -1.782014   1.000000
   47       -1.782014   1.000000
   48       -1.702585   1.000000
   49       -1.451309   1.000000
   50       -1.451309   1.000000
   51       -1.372787   1.000000
   52       -1.352489   1.000000
   53       -1.073522   1.000000
   54       -1.073522   1.000000
   55       -0.858982   1.000000
   56       -0.749772   1.000000
   57       -0.749772   1.000000
   58       -0.647603   1.000000
   59       -0.599690   1.000000
   60       -0.599690   1.000000
   61       -0.369767   1.000000
   62       -0.369767   1.000000
   63       -0.064327   1.000000
   64       -0.064327   1.000000
   65        1.607394   0.000000
   66        1.714779   0.000000
   67        1.714779   0.000000
   68        1.749503   0.000000
   69        1.883825   0.000000
   70        1.991808   0.000000
   71        2.288625   0.000000
   72        2.289601   0.000000
   73        2.334062   0.000000
   74        2.983880   0.000000
   75        5.494018   0.000000
   76        5.946889   0.000000
 
  0.1428571E+00  0.0000000E+00  0.0000000E+00  0.8163265E-01
    1      -33.779391   1.000000
    2      -32.793191   1.000000
    3      -32.702712   1.000000
    4      -32.657696   1.000000
    5      -17.635779   1.000000
    6      -17.563084   1.000000
    7      -17.501043   1.000000
    8      -17.047218   1.000000
    9      -16.582499   1.000000
   10      -16.550293   1.000000
   11      -16.504330   1.000000
   12      -16.461722   1.000000
   13      -16.449095   1.000000
   14      -16.406670   1.000000
   15      -16.045227   1.000000
   16      -15.944623   1.000000
   17      -15.710437   1.000000
   18      -15.691217   1.000000
   19      -15.252709   1.000000
   20      -14.842436   1.000000
   21      -14.749978   1.000000
   22      -14.745294   1.000000
   23      -14.722370   1.000000
   24      -14.720769   1.000000
   25      -14.643393   1.000000
   26      -14.625074   1.000000
   27      -14.425310   1.000000
   28      -14.303109   1.000000
   29       -4.279006   1.000000
   30       -3.771791   1.000000
   31       -3.360742   1.000000
   32       -3.307943   1.000000
   33       -3.217195   1.000000
   34       -3.109179   1.000000
   35       -3.019698   1.000000
   36       -2.999745   1.000000
   37       -2.919859   1.000000
   38       -2.846938   1.000000
   39       -2.816828   1.000000
   40       -2.617149   1.000000
   41       -2.501625   1.000000
   42       -2.283138   1.000000
   43       -2.253908   1.000000
   44       -2.049419   1.000000
   45       -2.019019   1.000000
   46       -1.875650   1.000000
   47       -1.732343   1.000000
   48       -1.607922   1.000000
   49       -1.502895   1.000000
   50       -1.387162   1.000000
   51       -1.333773   1.000000
   52       -1.293245   1.000000
   53       -1.234497   1.000000
   54       -1.159764   1.000000
   55       -1.093489   1.000000
   56       -1.003731   1.000000
   57       -0.959376   1.000000
   58       -0.938722   1.000000
   59       -0.859981   1.000000
   60       -0.806895   1.000000
   61       -0.512551   1.000000
   62       -0.497902   1.000000
   63       -0.455769   1.000000
   64       -0.374751   1.000000
   65        1.732171   0.000000
   66        2.034814   0.000000
   67        2.085331   0.000000
   68        2.171353   0.000000
   69        2.278451   0.000000
   70        2.324764   0.000000
   71        2.428145   0.000000
   72        2.447587   0.000000
   73        2.868834   0.000000
   74        3.115728   0.000000
   75        5.805089   0.000000
   76        5.997784   0.000000
 
  0.2857143E+00  0.0000000E+00  0.0000000E+00  0.8163265E-01
    1      -33.771665   1.000000
    2      -32.783942   1.000000
    3      -32.693614   1.000000
    4      -32.648454   1.000000
    5      -17.602114   1.000000
    6      -17.456815   1.000000
    7      -17.368514   1.000000
    8      -17.040804   1.000000
    9      -16.676273   1.000000
   10      -16.579464   1.000000
   11      -16.564377   1.000000
   12      -16.517170   1.000000
   13      -16.423961   1.000000
   14      -16.346183   1.000000
   15      -16.195331   1.000000
   16      -15.914678   1.000000
   17      -15.703350   1.000000
   18      -15.673409   1.000000
   19      -14.920052   1.000000
   20      -14.820543   1.000000
   21      -14.722896   1.000000
   22      -14.712462   1.000000
   23      -14.699255   1.000000
   24      -14.575823   1.000000
   25      -14.469548   1.000000
   26      -14.448529   1.000000
   27      -14.427412   1.000000
   28      -14.362660   1.000000
   29       -4.318725   1.000000
   30       -4.158578   1.000000
   31       -3.899494   1.000000
   32       -3.867061   1.000000
   33       -3.713580   1.000000
   34       -3.604741   1.000000
   35       -3.533691   1.000000
   36       -3.263254   1.000000
   37       -3.148432   1.000000
   38       -3.034048   1.000000
   39       -2.941951   1.000000
   40       -2.888280   1.000000
   41       -2.853548   1.000000
   42       -2.774008   1.000000
   43       -2.477316   1.000000
   44       -2.293882   1.000000
   45       -2.188438   1.000000
   46       -2.166937   1.000000
   47       -1.871739   1.000000
   48       -1.833963   1.000000
   49       -1.819943   1.000000
   50       -1.776126   1.000000
   51       -1.741426   1.000000
   52       -1.604929   1.000000
   53       -1.486412   1.000000
   54       -1.401099   1.000000
   55       -1.369781   1.000000
   56       -1.273087   1.000000
   57       -1.106139   1.000000
   58       -0.998285   1.000000
   59       -0.869435   1.000000
   60       -0.831531   1.000000
   61       -0.708556   1.000000
   62       -0.664016   1.000000
   63       -0.636138   1.000000
   64       -0.430236   1.000000
   65        1.779418   0.000000
   66        2.330561   0.000000
   67        2.825098   0.000000
   68        2.841879   0.000000
   69        2.888994   0.000000
   70        2.930055   0.000000
   71        2.978248   0.000000
   72        3.067014   0.000000
   73        3.094160   0.000000
   74        3.231734   0.000000
   75        3.387103   0.000000
   76        6.776701   0.000000
 
  0.4285714E+00  0.0000000E+00  0.0000000E+00  0.8163265E-01
    1      -33.765452   1.000000
    2      -32.776504   1.000000
    3      -32.686291   1.000000
    4      -32.641016   1.000000
    5      -17.673924   1.000000
    6      -17.462757   1.000000
    7      -17.216055   1.000000
    8      -16.933790   1.000000
    9      -16.715654   1.000000
   10      -16.680322   1.000000
   11      -16.578278   1.000000
   12      -16.486322   1.000000
   13      -16.434788   1.000000
   14      -16.240830   1.000000
   15      -16.236389   1.000000
   16      -15.882454   1.000000
   17      -15.670595   1.000000
   18      -15.659025   1.000000
   19      -14.802834   1.000000
   20      -14.736697   1.000000
   21      -14.704769   1.000000
   22      -14.704751   1.000000
   23      -14.680519   1.000000
   24      -14.503112   1.000000
   25      -14.443526   1.000000
   26      -14.391774   1.000000
   27      -14.324576   1.000000
   28      -14.281090   1.000000
   29       -4.540413   1.000000
   30       -4.497500   1.000000
   31       -4.365661   1.000000
   32       -4.260512   1.000000
   33       -4.183423   1.000000
   34       -4.093822   1.000000
   35       -3.942439   1.000000
   36       -3.650412   1.000000
   37       -3.433740   1.000000
   38       -3.110993   1.000000
   39       -3.030137   1.000000
   40       -2.973474   1.000000
   41       -2.880213   1.000000
   42       -2.840678   1.000000
   43       -2.687086   1.000000
   44       -2.647714   1.000000
   45       -2.462803   1.000000
   46       -2.326553   1.000000
   47       -2.166051   1.000000
   48       -2.155679   1.000000
   49       -1.973586   1.000000
   50       -1.888713   1.000000
   51       -1.732469   1.000000
   52       -1.687473   1.000000
   53       -1.646118   1.000000
   54       -1.627783   1.000000
   55       -1.367337   1.000000
   56       -1.312268   1.000000
   57       -1.275367   1.000000
   58       -1.133832   1.000000
   59       -1.041271   1.000000
   60       -0.965903   1.000000
   61       -0.772160   1.000000
   62       -0.735585   1.000000
   63       -0.520197   1.000000
   64       -0.246393   1.000000
   65        1.818661   0.000000
   66        2.364136   0.000000
   67        2.934448   0.000000
   68        3.372502   0.000000
   69        3.414658   0.000000
   70        3.433598   0.000000
   71        3.500317   0.000000
   72        3.580908   0.000000
   73        3.614978   0.000000
   74        3.664694   0.000000
   75        3.731088   0.000000
   76        7.424952   0.000000
 
  0.1428571E+00  0.1428571E+00  0.0000000E+00  0.8163265E-01
    1      -33.776020   1.000000
    2      -32.789178   1.000000
    3      -32.698758   1.000000
    4      -32.653684   1.000000
    5      -17.573013   1.000000
    6      -17.488193   1.000000
    7      -17.460183   1.000000
    8      -17.025585   1.000000
    9      -16.588692   1.000000
   10      -16.565991   1.000000
   11      -16.496879   1.000000
   12      -16.478425   1.000000
   13      -16.437514   1.000000
   14      -16.416722   1.000000
   15      -16.164365   1.000000
   16      -15.942877   1.000000
   17      -15.713646   1.000000
   18      -15.681478   1.000000
   19      -15.132177   1.000000
   20      -14.845141   1.000000
   21      -14.738602   1.000000
   22      -14.735730   1.000000
   23      -14.707879   1.000000
   24      -14.695554   1.000000
   25      -14.574262   1.000000
   26      -14.555590   1.000000
   27      -14.440690   1.000000
   28      -14.343031   1.000000
   29       -4.289274   1.000000
   30       -3.836964   1.000000
   31       -3.528799   1.000000
   32       -3.431896   1.000000
   33       -3.355894   1.000000
   34       -3.200598   1.000000
   35       -3.117941   1.000000
   36       -3.076251   1.000000
   37       -3.057077   1.000000
   38       -2.997147   1.000000
   39       -2.890429   1.000000
   40       -2.889202   1.000000
   41       -2.680131   1.000000
   42       -2.552178   1.000000
   43       -2.386129   1.000000
   44       -2.288143   1.000000
   45       -2.077219   1.000000
   46       -2.069526   1.000000
   47       -1.850313   1.000000
   48       -1.775791   1.000000
   49       -1.664572   1.000000
   50       -1.597894   1.000000
   51       -1.434717   1.000000
   52       -1.286335   1.000000
   53       -1.183348   1.000000
   54       -1.164660   1.000000
   55       -1.098364   1.000000
   56       -1.077864   1.000000
   57       -1.066393   1.000000
   58       -1.011077   1.000000
   59       -1.003602   1.000000
   60       -0.895091   1.000000
   61       -0.827237   1.000000
   62       -0.675775   1.000000
   63       -0.544805   1.000000
   64       -0.275897   1.000000
   65        2.016802   0.000000
   66        2.182809   0.000000
   67        2.297109   0.000000
   68        2.430420   0.000000
   69        2.448779   0.000000
   70        2.535446   0.000000
   71        2.566693   0.000000
   72        2.681389   0.000000
   73        2.709887   0.000000
   74        3.013232   0.000000
   75        3.277568   0.000000
   76        6.161841   0.000000
 
  0.2857143E+00  0.1428571E+00  0.0000000E+00  0.1632653E+00
    1      -33.768431   1.000000
    2      -32.780140   1.000000
    3      -32.689852   1.000000
    4      -32.644644   1.000000
    5      -17.532588   1.000000
    6      -17.381453   1.000000
    7      -17.281197   1.000000
    8      -16.982558   1.000000
    9      -16.635714   1.000000
   10      -16.583037   1.000000
   11      -16.542450   1.000000
   12      -16.510759   1.000000
   13      -16.439255   1.000000
   14      -16.292320   1.000000
   15      -16.231968   1.000000
   16      -15.922057   1.000000
   17      -15.753065   1.000000
   18      -15.641804   1.000000
   19      -14.944362   1.000000
   20      -14.842820   1.000000
   21      -14.768484   1.000000
   22      -14.705704   1.000000
   23      -14.665653   1.000000
   24      -14.606853   1.000000
   25      -14.491021   1.000000
   26      -14.448400   1.000000
   27      -14.429233   1.000000
   28      -14.403818   1.000000
   29       -4.321330   1.000000
   30       -4.131194   1.000000
   31       -3.934493   1.000000
   32       -3.895852   1.000000
   33       -3.721954   1.000000
   34       -3.593603   1.000000
   35       -3.515907   1.000000
   36       -3.286778   1.000000
   37       -3.246271   1.000000
   38       -3.200656   1.000000
   39       -3.167413   1.000000
   40       -3.108943   1.000000
   41       -3.010842   1.000000
   42       -2.884763   1.000000
   43       -2.802400   1.000000
   44       -2.712800   1.000000
   45       -2.510998   1.000000
   46       -2.400835   1.000000
   47       -2.271180   1.000000
   48       -2.217665   1.000000
   49       -2.075273   1.000000
   50       -1.838356   1.000000
   51       -1.669380   1.000000
   52       -1.544010   1.000000
   53       -1.381441   1.000000
   54       -1.270689   1.000000
   55       -1.236405   1.000000
   56       -1.146014   1.000000
   57       -1.111337   1.000000
   58       -1.100552   1.000000
   59       -0.999067   1.000000
   60       -0.828334   1.000000
   61       -0.692921   1.000000
   62       -0.645600   1.000000
   63       -0.451887   1.000000
   64       -0.359674   1.000000
   65        2.121134   0.000000
   66        2.551042   0.000000
   67        2.849776   0.000000
   68        2.927738   0.000000
   69        3.007164   0.000000
   70        3.066782   0.000000
   71        3.113846   0.000000
   72        3.170953   0.000000
   73        3.298745   0.000000
   74        3.438033   0.000000
   75        3.481947   0.000000
   76        6.984739   0.000000
 
  0.4285714E+00  0.1428571E+00  0.0000000E+00  0.1632653E+00
    1      -33.762330   1.000000
    2      -32.772873   1.000000
    3      -32.682685   1.000000
    4      -32.637370   1.000000
    5      -17.576588   1.000000
    6      -17.366684   1.000000
    7      -17.126865   1.000000
    8      -16.856888   1.000000
    9      -16.667588   1.000000
   10      -16.644000   1.000000
   11      -16.546880   1.000000
   12      -16.491214   1.000000
   13      -16.436235   1.000000
   14      -16.196157   1.000000
   15      -16.172324   1.000000
   16      -15.901285   1.000000
   17      -15.800215   1.000000
   18      -15.597374   1.000000
   19      -14.842413   1.000000
   20      -14.831513   1.000000
   21      -14.800754   1.000000
   22      -14.678483   1.000000
   23      -14.614494   1.000000
   24      -14.552402   1.000000
   25      -14.512150   1.000000
   26      -14.446894   1.000000
   27      -14.382181   1.000000
   28      -14.331327   1.000000
   29       -4.496516   1.000000
   30       -4.413046   1.000000
   31       -4.358032   1.000000
   32       -4.263632   1.000000
   33       -4.176011   1.000000
   34       -4.026659   1.000000
   35       -3.922642   1.000000
   36       -3.654297   1.000000
   37       -3.510438   1.000000
   38       -3.325269   1.000000
   39       -3.235704   1.000000
   40       -3.195531   1.000000
   41       -3.159434   1.000000
   42       -3.101263   1.000000
   43       -3.064412   1.000000
   44       -2.978666   1.000000
   45       -2.646580   1.000000
   46       -2.606147   1.000000
   47       -2.471354   1.000000
   48       -2.346150   1.000000
   49       -2.209274   1.000000
   50       -1.911216   1.000000
   51       -1.715409   1.000000
   52       -1.702714   1.000000
   53       -1.405030   1.000000
   54       -1.340861   1.000000
   55       -1.275822   1.000000
   56       -1.254501   1.000000
   57       -1.221565   1.000000
   58       -1.110979   1.000000
   59       -1.080015   1.000000
   60       -0.974414   1.000000
   61       -0.739174   1.000000
   62       -0.576231   1.000000
   63       -0.425199   1.000000
   64       -0.235561   1.000000
   65        2.159994   0.000000
   66        2.603169   0.000000
   67        3.075883   0.000000
   68        3.428889   0.000000
   69        3.436777   0.000000
   70        3.511755   0.000000
   71        3.561069   0.000000
   72        3.591270   0.000000
   73        3.650047   0.000000
   74        3.724951   0.000000
   75        3.822469   0.000000
   76        7.747647   0.000000
 
  0.2857143E+00  0.2857143E+00  0.0000000E+00  0.8163265E-01
    1      -33.761150   1.000000
    2      -32.771576   1.000000
    3      -32.681377   1.000000
    4      -32.636061   1.000000
    5      -17.393283   1.000000
    6      -17.219773   1.000000
    7      -17.072944   1.000000
    8      -16.844028   1.000000
    9      -16.658066   1.000000
   10      -16.576239   1.000000
   11      -16.528209   1.000000
   12      -16.439522   1.000000
   13      -16.430168   1.000000
   14      -16.253981   1.000000
   15      -16.156595   1.000000
   16      -15.916065   1.000000
   17      -15.759368   1.000000
   18      -15.659694   1.000000
   19      -15.012157   1.000000
   20      -14.893373   1.000000
   21      -14.801408   1.000000
   22      -14.725973   1.000000
   23      -14.679306   1.000000
   24      -14.594928   1.000000
   25      -14.590547   1.000000
   26      -14.488901   1.000000
   27      -14.444134   1.000000
   28      -14.435933   1.000000
   29       -4.333435   1.000000
   30       -4.179683   1.000000
   31       -4.049043   1.000000
   32       -4.034322   1.000000
   33       -3.763492   1.000000
   34       -3.688359   1.000000
   35       -3.585026   1.000000
   36       -3.562496   1.000000
   37       -3.537317   1.000000
   38       -3.477523   1.000000
   39       -3.470551   1.000000
   40       -3.442895   1.000000
   41       -3.310973   1.000000
   42       -3.267819   1.000000
   43       -3.207169   1.000000
   44       -3.151045   1.000000
   45       -3.128230   1.000000
   46       -3.095215   1.000000
   47       -2.790238   1.000000
   48       -2.762865   1.000000
   49       -2.580080   1.000000
   50       -2.269840   1.000000
   51       -2.100953   1.000000
   52       -1.593759   1.000000
   53       -1.472305   1.000000
   54       -1.235900   1.000000
   55       -0.992358   1.000000
   56       -0.950507   1.000000
   57       -0.837099   1.000000
   58       -0.819665   1.000000
   59       -0.716472   1.000000
   60       -0.705703   1.000000
   61       -0.584778   1.000000
   62       -0.556791   1.000000
   63       -0.398600   1.000000
   64        0.045420   1.000000
   65        2.716503   0.000000
   66        2.971976   0.000000
   67        3.060935   0.000000
   68        3.174123   0.000000
   69        3.261192   0.000000
   70        3.360280   0.000000
   71        3.400659   0.000000
   72        3.425616   0.000000
   73        3.512506   0.000000
   74        3.621897   0.000000
   75        3.702186   0.000000
   76        3.725240   0.000000
 
  0.4285714E+00  0.2857143E+00  0.0000000E+00  0.1632653E+00
    1      -33.755298   1.000000
    2      -32.764691   1.000000
    3      -32.674560   1.000000
    4      -32.629158   1.000000
    5      -17.323923   1.000000
    6      -17.118885   1.000000
    7      -16.903958   1.000000
    8      -16.676250   1.000000
    9      -16.637780   1.000000
   10      -16.619959   1.000000
   11      -16.492491   1.000000
   12      -16.480884   1.000000
   13      -16.386830   1.000000
   14      -16.098516   1.000000
   15      -16.028847   1.000000
   16      -15.911278   1.000000
   17      -15.876555   1.000000
   18      -15.618793   1.000000
   19      -15.084744   1.000000
   20      -14.928256   1.000000
   21      -14.871833   1.000000
   22      -14.754120   1.000000
   23      -14.679479   1.000000
   24      -14.623248   1.000000
   25      -14.574012   1.000000
   26      -14.543695   1.000000
   27      -14.492486   1.000000
   28      -14.423861   1.000000
   29       -4.497954   1.000000
   30       -4.396831   1.000000
   31       -4.293260   1.000000
   32       -4.180898   1.000000
   33       -4.107843   1.000000
   34       -4.069639   1.000000
   35       -4.004895   1.000000
   36       -3.907467   1.000000
   37       -3.760183   1.000000
   38       -3.729068   1.000000
   39       -3.645184   1.000000
   40       -3.605682   1.000000
   41       -3.548341   1.000000
   42       -3.479484   1.000000
   43       -3.436921   1.000000
   44       -3.285362   1.000000
   45       -3.170069   1.000000
   46       -3.122364   1.000000
   47       -3.060926   1.000000
   48       -2.973454   1.000000
   49       -2.674738   1.000000
   50       -2.548166   1.000000
   51       -2.144000   1.000000
   52       -1.555511   1.000000
   53       -1.434496   1.000000
   54       -1.323461   1.000000
   55       -1.006192   1.000000
   56       -0.948705   1.000000
   57       -0.747546   1.000000
   58       -0.670062   1.000000
   59       -0.605269   1.000000
   60       -0.574771   1.000000
   61       -0.554165   1.000000
   62       -0.456222   1.000000
   63       -0.215917   1.000000
   64        0.208819   1.000000
   65        2.846431   0.000000
   66        3.159012   0.000000
   67        3.437950   0.000000
   68        3.465617   0.000000
   69        3.622136   0.000000
   70        3.644533   0.000000
   71        3.768148   0.000000
   72        3.785780   0.000000
   73        3.800521   0.000000
   74        3.905469   0.000000
   75        4.002635   0.000000
   76        7.684754   0.000000
 
  0.4285714E+00  0.4285714E+00  0.0000000E+00  0.8163265E-01
    1      -33.749645   1.000000
    2      -32.758111   1.000000
    3      -32.668026   1.000000
    4      -32.622552   1.000000
    5      -17.045990   1.000000
    6      -16.848021   1.000000
    7      -16.720933   1.000000
    8      -16.684903   1.000000
    9      -16.628050   1.000000
   10      -16.585908   1.000000
   11      -16.448861   1.000000
   12      -16.419697   1.000000
   13      -16.383043   1.000000
   14      -16.009892   1.000000
   15      -15.921639   1.000000
   16      -15.890519   1.000000
   17      -15.814539   1.000000
   18      -15.652992   1.000000
   19      -15.383687   1.000000
   20      -14.979129   1.000000
   21      -14.928042   1.000000
   22      -14.920182   1.000000
   23      -14.773971   1.000000
   24      -14.703022   1.000000
   25      -14.628232   1.000000
   26      -14.574179   1.000000
   27      -14.490050   1.000000
   28      -14.469129   1.000000
   29       -4.606007   1.000000
   30       -4.527924   1.000000
   31       -4.467126   1.000000
   32       -4.396523   1.000000
   33       -4.274662   1.000000
   34       -4.239634   1.000000
   35       -4.171068   1.000000
   36       -4.160585   1.000000
   37       -4.076370   1.000000
   38       -4.032414   1.000000
   39       -3.916999   1.000000
   40       -3.853839   1.000000
   41       -3.792500   1.000000
   42       -3.733755   1.000000
   43       -3.527510   1.000000
   44       -3.474043   1.000000
   45       -3.458343   1.000000
   46       -3.393979   1.000000
   47       -3.149378   1.000000
   48       -3.116389   1.000000
   49       -2.758761   1.000000
   50       -2.662776   1.000000
   51       -2.406263   1.000000
   52       -1.426122   1.000000
   53       -1.354025   1.000000
   54       -1.345348   1.000000
   55       -0.948066   1.000000
   56       -0.902941   1.000000
   57       -0.547988   1.000000
   58       -0.504805   1.000000
   59       -0.293255   1.000000
   60       -0.254590   1.000000
   61       -0.228957   1.000000
   62       -0.182143   1.000000
   63       -0.154453   1.000000
   64        0.552217   1.000000
   65        3.409591   0.000000
   66        3.478178   0.000000
   67        3.664748   0.000000
   68        3.714689   0.000000
   69        3.876244   0.000000
   70        3.936717   0.000000
   71        4.016283   0.000000
   72        4.060947   0.000000
   73        4.077317   0.000000
   74        7.334667   0.000000
   75        7.403866   0.000000
   76        7.667587   0.000000
