<?xml version="1.0" encoding="ISO-8859-1"?>
<modeling>
 <generator>
  <i name="program" type="string">vasp </i>
  <i name="version" type="string">5.4.4.18Apr17-6-g9f103f2a35  </i>
  <i name="subversion" type="string">(build Jun 30 2017 11:15:00) complex            parallel </i>
  <i name="platform" type="string">STALLO_VASP_5.4.4 </i>
  <i name="date" type="string">2019 11 06 </i>
  <i name="time" type="string">13:29:58 </i>
 </generator>
 <incar>
  <i type="string" name="PREC">normal    ! low/normal/accurate</i>
  <i type="string" name="ALGO"> Fast      ! Algorithm for electronic re</i>
  <i type="int" name="ISPIN">     1</i>
  <i type="int" name="NELMIN">     4</i>
  <i name="EDIFF">      0.00001000</i>
  <i type="int" name="NSW">     0</i>
  <i name="ENCUT">    800.00000000</i>
  <i type="logical" name="LREAL"> F  </i>
  <i type="int" name="ISMEAR">    -5</i>
  <i name="SIGMA">      0.20000000</i>
  <i type="logical" name="LWAVE"> F  </i>
  <v type="int" name="KPOINT_BSE">    -1     0     0     0</v>
 </incar>
 <structure name="primitive_cell" >
  <crystal>
   <varray name="basis" >
    <v>       3.90526800       0.00000000       0.00000000 </v>
    <v>       0.00000000       3.90526800       0.00000000 </v>
    <v>       0.00000000       0.00000000      25.66843800 </v>
   </varray>
   <i name="volume">    391.47238071 </i>
   <varray name="rec_basis" >
    <v>       0.25606437       0.00000000       0.00000000 </v>
    <v>       0.00000000       0.25606437       0.00000000 </v>
    <v>       0.00000000       0.00000000       0.03895835 </v>
   </varray>
  </crystal>
  <varray name="positions" >
   <v>      -0.50000000      -0.50000000       0.23375010 </v>
   <v>      -0.50000000      -0.50000000       0.30982150 </v>
   <v>      -0.50000000       0.00000000       0.30982150 </v>
   <v>       0.00000000      -0.50000000       0.30982150 </v>
   <v>       0.00000000       0.00000000       0.23375010 </v>
   <v>      -0.50000000      -0.50000000       0.38589290 </v>
   <v>       0.00000000       0.00000000       0.38589290 </v>
   <v>      -0.50000000      -0.50000000       0.46196430 </v>
   <v>      -0.50000000       0.00000000       0.46196430 </v>
   <v>       0.00000000      -0.50000000       0.46196430 </v>
   <v>      -0.50000000      -0.50000000      -0.46196430 </v>
   <v>       0.00000000       0.00000000      -0.46196430 </v>
   <v>      -0.50000000      -0.50000000      -0.38589290 </v>
   <v>      -0.50000000       0.00000000      -0.38589290 </v>
   <v>       0.00000000      -0.50000000      -0.38589290 </v>
   <v>      -0.50000000      -0.50000000      -0.30982150 </v>
   <v>      -0.50000000      -0.50000000      -0.23375010 </v>
   <v>       0.00000000       0.00000000      -0.30982150 </v>
   <v>      -0.50000000       0.00000000      -0.23375010 </v>
   <v>       0.00000000      -0.50000000      -0.23375010 </v>
  </varray>
 </structure>
 <varray name="primitive_index" >
  <v type="int" >        1 </v>
  <v type="int" >       17 </v>
  <v type="int" >        2 </v>
  <v type="int" >        3 </v>
  <v type="int" >       13 </v>
  <v type="int" >        4 </v>
  <v type="int" >       14 </v>
  <v type="int" >       18 </v>
  <v type="int" >        5 </v>
  <v type="int" >        6 </v>
  <v type="int" >        7 </v>
  <v type="int" >       15 </v>
  <v type="int" >       19 </v>
  <v type="int" >        8 </v>
  <v type="int" >        9 </v>
  <v type="int" >       10 </v>
  <v type="int" >       20 </v>
  <v type="int" >       16 </v>
  <v type="int" >       11 </v>
  <v type="int" >       12 </v>
 </varray>
 <kpoints>
  <generation param="Gamma">
   <v type="int" name="divisions">       7        7        1 </v>
   <v name="usershift">      0.00000000       0.00000000       0.00000000 </v>
   <v name="genvec1">      0.14285714       0.00000000       0.00000000 </v>
   <v name="genvec2">      0.00000000       0.14285714       0.00000000 </v>
   <v name="genvec3">      0.00000000       0.00000000       1.00000000 </v>
   <v name="shift">      0.00000000       0.00000000       0.00000000 </v>
  </generation>
  <varray name="kpointlist" >
   <v>       0.00000000       0.00000000       0.00000000 </v>
   <v>       0.14285714       0.00000000       0.00000000 </v>
   <v>       0.28571429       0.00000000       0.00000000 </v>
   <v>       0.42857143       0.00000000       0.00000000 </v>
   <v>       0.14285714       0.14285714       0.00000000 </v>
   <v>       0.28571429       0.14285714       0.00000000 </v>
   <v>       0.42857143       0.14285714       0.00000000 </v>
   <v>       0.28571429       0.28571429       0.00000000 </v>
   <v>       0.42857143       0.28571429       0.00000000 </v>
   <v>       0.42857143       0.42857143       0.00000000 </v>
  </varray>
  <varray name="weights" >
   <v>       0.02040816 </v>
   <v>       0.08163265 </v>
   <v>       0.08163265 </v>
   <v>       0.08163265 </v>
   <v>       0.08163265 </v>
   <v>       0.16326531 </v>
   <v>       0.16326531 </v>
   <v>       0.08163265 </v>
   <v>       0.16326531 </v>
   <v>       0.08163265 </v>
  </varray>
  <varray name="tetrahedronlist"  type="int" >
   <v type="int" >        4        1        1        2        5 </v>
   <v type="int" >        4        1        2        2        5 </v>
   <v type="int" >        4        1        2        5        5 </v>
   <v type="int" >        4        2        2        3        6 </v>
   <v type="int" >        4        2        2        5        6 </v>
   <v type="int" >        4        2        5        5        6 </v>
   <v type="int" >        4        2        3        3        6 </v>
   <v type="int" >        4        2        3        6        6 </v>
   <v type="int" >        4        2        5        6        6 </v>
   <v type="int" >        4        3        3        4        7 </v>
   <v type="int" >        4        3        3        6        7 </v>
   <v type="int" >        4        3        6        6        7 </v>
   <v type="int" >        4        3        4        4        7 </v>
   <v type="int" >        4        3        4        7        7 </v>
   <v type="int" >        4        3        6        7        7 </v>
   <v type="int" >        8        4        4        4        7 </v>
   <v type="int" >        8        4        4        7        7 </v>
   <v type="int" >        8        4        7        7        7 </v>
   <v type="int" >        4        3        4        4        6 </v>
   <v type="int" >        4        4        4        6        7 </v>
   <v type="int" >        4        4        6        7        7 </v>
   <v type="int" >        4        3        3        4        6 </v>
   <v type="int" >        4        3        4        6        6 </v>
   <v type="int" >        4        4        6        6        7 </v>
   <v type="int" >        4        2        3        3        5 </v>
   <v type="int" >        4        3        3        5        6 </v>
   <v type="int" >        4        3        5        6        6 </v>
   <v type="int" >        4        2        2        3        5 </v>
   <v type="int" >        4        2        3        5        5 </v>
   <v type="int" >        4        3        5        5        6 </v>
   <v type="int" >        4        1        2        2        2 </v>
   <v type="int" >        4        2        2        2        5 </v>
   <v type="int" >        2        2        2        5        5 </v>
   <v type="int" >        2        1        1        2        2 </v>
   <v type="int" >        4        5        5        6        8 </v>
   <v type="int" >        4        5        6        6        8 </v>
   <v type="int" >        4        5        6        8        8 </v>
   <v type="int" >        4        6        6        7        9 </v>
   <v type="int" >        4        6        6        8        9 </v>
   <v type="int" >        4        6        8        8        9 </v>
   <v type="int" >        4        6        7        7        9 </v>
   <v type="int" >        4        6        7        9        9 </v>
   <v type="int" >        4        6        8        9        9 </v>
   <v type="int" >        8        7        7        7        9 </v>
   <v type="int" >        8        7        7        9        9 </v>
   <v type="int" >        8        7        9        9        9 </v>
   <v type="int" >        4        6        7        7        8 </v>
   <v type="int" >        4        7        7        8        9 </v>
   <v type="int" >        4        7        8        9        9 </v>
   <v type="int" >        4        6        6        7        8 </v>
   <v type="int" >        4        6        7        8        8 </v>
   <v type="int" >        4        7        8        8        9 </v>
   <v type="int" >        4        5        6        6        6 </v>
   <v type="int" >        4        6        6        6        8 </v>
   <v type="int" >        2        6        6        8        8 </v>
   <v type="int" >        2        5        5        6        6 </v>
   <v type="int" >        4        8        8        9       10 </v>
   <v type="int" >        4        8        9        9       10 </v>
   <v type="int" >        4        8        9       10       10 </v>
   <v type="int" >       12        9        9        9       10 </v>
   <v type="int" >       10        9        9       10       10 </v>
   <v type="int" >        8        9       10       10       10 </v>
   <v type="int" >        4        8        9        9        9 </v>
   <v type="int" >        2        8        8        9        9 </v>
   <v type="int" >        6       10       10       10       10 </v>
  </varray>
  <i name="volumeweight">      0.00340136 </i>
 </kpoints>
 <parameters>
  <separator name="general" >
   <i type="string" name="SYSTEM">unknown system</i>
   <i type="logical" name="LCOMPAT"> F  </i>
  </separator>
  <separator name="electronic" >
   <i type="string" name="PREC">normal</i>
   <i name="ENMAX">    800.00000000</i>
   <i name="ENAUG">    605.39200000</i>
   <i name="EDIFF">      0.00001000</i>
   <i type="int" name="IALGO">    68</i>
   <i type="int" name="IWAVPR">    10</i>
   <i type="int" name="NBANDS">    76</i>
   <i name="NELECT">    128.00000000</i>
   <i type="int" name="TURBO">     0</i>
   <i type="int" name="IRESTART">     0</i>
   <i type="int" name="NREBOOT">     0</i>
   <i type="int" name="NMIN">     0</i>
   <i name="EREF">      0.00000000</i>
   <separator name="electronic smearing" >
    <i type="int" name="ISMEAR">    -5</i>
    <i name="SIGMA">      0.20000000</i>
    <i name="KSPACING">      0.50000000</i>
    <i type="logical" name="KGAMMA"> T  </i>
   </separator>
   <separator name="electronic projectors" >
    <i type="logical" name="LREAL"> F  </i>
    <v name="ROPT">      0.00000000      0.00000000      0.00000000</v>
    <i type="int" name="LMAXPAW">  -100</i>
    <i type="int" name="LMAXMIX">     2</i>
    <i type="logical" name="NLSPLINE"> F  </i>
   </separator>
   <separator name="electronic startup" >
    <i type="int" name="ISTART">     0</i>
    <i type="int" name="ICHARG">     2</i>
    <i type="int" name="INIWAV">     1</i>
   </separator>
   <separator name="electronic spin" >
    <i type="int" name="ISPIN">     1</i>
    <i type="logical" name="LNONCOLLINEAR"> F  </i>
    <v name="MAGMOM">      1.00000000      1.00000000      1.00000000      1.00000000      1.00000000      1.00000000      1.00000000      1.00000000      1.00000000      1.00000000      1.00000000      1.00000000      1.00000000      1.00000000      1.00000000      1.00000000      1.00000000      1.00000000      1.00000000      1.00000000
</v>
    <i name="NUPDOWN">     -1.00000000</i>
    <i type="logical" name="LSORBIT"> F  </i>
    <v name="SAXIS">      0.00000000      0.00000000      1.00000000</v>
    <i type="logical" name="LSPIRAL"> F  </i>
    <v name="QSPIRAL">      0.00000000      0.00000000      0.00000000</v>
    <i type="logical" name="LZEROZ"> F  </i>
   </separator>
   <separator name="electronic exchange-correlation" >
    <i type="logical" name="LASPH"> F  </i>
    <i type="logical" name="LMETAGGA"> F  </i>
   </separator>
   <separator name="electronic convergence" >
    <i type="int" name="NELM">    60</i>
    <i type="int" name="NELMDL">    -5</i>
    <i type="int" name="NELMIN">     4</i>
    <i name="ENINI">    800.00000000</i>
    <separator name="electronic convergence detail" >
     <i type="logical" name="LDIAG"> T  </i>
     <i type="logical" name="LSUBROT"> F  </i>
     <i name="WEIMIN">      0.00000000</i>
     <i name="EBREAK">      0.00000003</i>
     <i name="DEPER">      0.30000000</i>
     <i type="int" name="NRMM">     4</i>
     <i name="TIME">      0.40000000</i>
    </separator>
   </separator>
   <separator name="electronic mixer" >
    <i name="AMIX">      0.40000000</i>
    <i name="BMIX">      1.00000000</i>
    <i name="AMIN">      0.10000000</i>
    <i name="AMIX_MAG">      1.60000000</i>
    <i name="BMIX_MAG">      1.00000000</i>
    <separator name="electronic mixer details" >
     <i type="int" name="IMIX">     4</i>
     <i type="logical" name="MIXFIRST"> F  </i>
     <i type="int" name="MAXMIX">   -45</i>
     <i name="WC">    100.00000000</i>
     <i type="int" name="INIMIX">     1</i>
     <i type="int" name="MIXPRE">     1</i>
     <i type="int" name="MREMOVE">     5</i>
    </separator>
   </separator>
   <separator name="electronic dipolcorrection" >
    <i type="logical" name="LDIPOL"> F  </i>
    <i type="logical" name="LMONO"> F  </i>
    <i type="int" name="IDIPOL">     0</i>
    <i name="EPSILON">      1.00000000</i>
    <v name="DIPOL">   -100.00000000   -100.00000000   -100.00000000</v>
    <i name="EFIELD">      0.00000000</i>
   </separator>
  </separator>
  <separator name="grids" >
   <i type="int" name="NGX">    28</i>
   <i type="int" name="NGY">    28</i>
   <i type="int" name="NGZ">   180</i>
   <i type="int" name="NGXF">    56</i>
   <i type="int" name="NGYF">    56</i>
   <i type="int" name="NGZF">   360</i>
   <i type="logical" name="ADDGRID"> F  </i>
  </separator>
  <separator name="ionic" >
   <i type="int" name="NSW">     0</i>
   <i type="int" name="IBRION">    -1</i>
   <i type="int" name="MDALGO">     0</i>
   <i type="int" name="ISIF">     2</i>
   <i name="PSTRESS">      0.00000000</i>
   <i name="EDIFFG">      0.00010000</i>
   <i type="int" name="NFREE">     0</i>
   <i name="POTIM">      0.50000000</i>
   <i name="SMASS">     -3.00000000</i>
   <i name="SCALEE">      1.00000000</i>
  </separator>
  <separator name="ionic md" >
   <i name="TEBEG">      0.00010000</i>
   <i name="TEEND">      0.00010000</i>
   <i type="int" name="NBLOCK">     1</i>
   <i type="int" name="KBLOCK">     1</i>
   <i type="int" name="NPACO">   256</i>
   <i name="APACO">     16.00000000</i>
  </separator>
  <separator name="symmetry" >
   <i type="int" name="ISYM">     2</i>
   <i name="SYMPREC">      0.00001000</i>
  </separator>
  <separator name="dos" >
   <i type="int" name="LORBIT">     0</i>
   <v name="RWIGS">     -1.00000000     -1.00000000     -1.00000000</v>
   <i type="int" name="NEDOS">   301</i>
   <i name="EMIN">     10.00000000</i>
   <i name="EMAX">    -10.00000000</i>
   <i name="EFERMI">      0.00000000</i>
  </separator>
  <separator name="writing" >
   <i type="int" name="NWRITE">     2</i>
   <i type="logical" name="LWAVE"> F  </i>
   <i type="logical" name="LDOWNSAMPLE"> F  </i>
   <i type="logical" name="LCHARG"> T  </i>
   <i type="logical" name="LPARD"> F  </i>
   <i type="logical" name="LVTOT"> F  </i>
   <i type="logical" name="LVHAR"> F  </i>
   <i type="logical" name="LELF"> F  </i>
   <i type="logical" name="LOPTICS"> F  </i>
   <v name="STM">      0.00000000      0.00000000      0.00000000      0.00000000      0.00000000      0.00000000      0.00000000</v>
  </separator>
  <separator name="performance" >
   <i type="int" name="NPAR">     2</i>
   <i type="int" name="NSIM">     4</i>
   <i type="int" name="NBLK">    -1</i>
   <i type="logical" name="LPLANE"> T  </i>
   <i type="logical" name="LSCALAPACK"> T  </i>
   <i type="logical" name="LSCAAWARE"> F  </i>
   <i type="logical" name="LSCALU"> F  </i>
   <i type="logical" name="LASYNC"> F  </i>
   <i type="logical" name="LORBITALREAL"> F  </i>
  </separator>
  <separator name="miscellaneous" >
   <i type="int" name="IDIOT">     3</i>
   <i type="int" name="ISPECIAL">     0</i>
   <i type="logical" name="LMUSIC"> F  </i>
   <v name="POMASS">     16.00000000     87.62000000     47.88000000</v>
   <v name="DARWINR">      0.00000000      0.00000000      0.00000000</v>
   <v name="DARWINV">      1.00000000      1.00000000      1.00000000</v>
   <i type="logical" name="LCORR"> T  </i>
  </separator>
  <i type="logical" name="GGA_COMPAT"> T  </i>
  <i type="logical" name="LBERRY"> F  </i>
  <i type="int" name="ICORELEVEL">     0</i>
  <i type="logical" name="LDAU"> F  </i>
  <i type="int" name="I_CONSTRAINED_M">     0</i>
  <separator name="electronic exchange-correlation" >
   <i type="string" name="GGA">--</i>
   <i type="int" name="VOSKOWN">     0</i>
   <i type="logical" name="LHFCALC"> F  </i>
   <i type="string" name="PRECFOCK"></i>
   <i type="logical" name="LSYMGRAD"> F  </i>
   <i type="logical" name="LHFONE"> F  </i>
   <i type="logical" name="LRHFCALC"> F  </i>
   <i type="logical" name="LTHOMAS"> F  </i>
   <i type="logical" name="LMODELHF"> F  </i>
   <i name="ENCUT4O">     -1.00000000</i>
   <i type="int" name="EXXOEP">     0</i>
   <i type="int" name="FOURORBIT">     0</i>
   <i name="AEXX">      0.00000000</i>
   <i name="HFALPHA">      0.00000000</i>
   <i name="MCALPHA">      0.00000000</i>
   <i name="ALDAX">      1.00000000</i>
   <i name="AGGAX">      1.00000000</i>
   <i name="ALDAC">      1.00000000</i>
   <i name="AGGAC">      1.00000000</i>
   <i type="int" name="NKREDX">     1</i>
   <i type="int" name="NKREDY">     1</i>
   <i type="int" name="NKREDZ">     1</i>
   <i type="logical" name="SHIFTRED"> F  </i>
   <i type="logical" name="ODDONLY"> F  </i>
   <i type="logical" name="EVENONLY"> F  </i>
   <i type="int" name="LMAXFOCK">     0</i>
   <i type="int" name="NMAXFOCKAE">     0</i>
   <i type="logical" name="LFOCKAEDFT"> F  </i>
   <i name="HFSCREEN">      0.00000000</i>
   <i name="HFSCREENC">      0.00000000</i>
   <i type="int" name="NBANDSGWLOW">     0</i>
  </separator>
  <separator name="vdW DFT" >
   <i type="logical" name="LUSE_VDW"> F  </i>
   <i name="Zab_VDW">     -0.84910000</i>
   <i name="PARAM1">      0.12340000</i>
   <i name="PARAM2">      1.00000000</i>
   <i name="PARAM3">      0.00000000</i>
  </separator>
  <separator name="model GW" >
   <i type="int" name="MODEL_GW">     0</i>
   <i name="MODEL_EPS0">     11.74417142</i>
   <i name="MODEL_ALPHA">      1.00000000</i>
  </separator>
  <separator name="linear response parameters" >
   <i type="logical" name="LEPSILON"> F  </i>
   <i type="logical" name="LRPA"> F  </i>
   <i type="logical" name="LNABLA"> F  </i>
   <i type="logical" name="LVEL"> F  </i>
   <i type="int" name="KINTER">     0</i>
   <i name="CSHIFT">      0.10000000</i>
   <i name="OMEGAMAX">     -1.00000000</i>
   <i name="DEG_THRESHOLD">      0.00200000</i>
   <i name="RTIME">     -0.10000000</i>
   <i name="WPLASMAI">      0.00000000</i>
   <v name="DFIELD">      0.00000000      0.00000000      0.00000000</v>
   <v name="WPLASMA">      0.00000000      0.00000000      0.00000000      0.00000000      0.00000000      0.00000000      0.00000000      0.00000000      0.00000000</v>
  </separator>
  <separator name="orbital magnetization" >
   <i type="logical" name="NUCIND"> F  </i>
   <v name="MAGPOS">      0.00000000      0.00000000      0.00000000</v>
   <i type="logical" name="LNICSALL"> T  </i>
   <i type="logical" name="ORBITALMAG"> F  </i>
   <i type="logical" name="LMAGBLOCH"> F  </i>
   <i type="logical" name="LCHIMAG"> F  </i>
   <i type="logical" name="LGAUGE"> T  </i>
   <i type="int" name="MAGATOM">     0</i>
   <v name="MAGDIPOL">      0.00000000      0.00000000      0.00000000</v>
   <v name="AVECCONST">      0.00000000      0.00000000      0.00000000</v>
  </separator>
  <separator name="response functions" >
   <i type="logical" name="LADDER"> F  </i>
   <i type="logical" name="LRPAFORCE"> F  </i>
   <i type="logical" name="LFXC"> F  </i>
   <i type="logical" name="LHARTREE"> T  </i>
   <i type="int" name="IBSE">     0</i>
   <v type="int" name="KPOINT">    -1     0     0     0</v>
   <i type="logical" name="LTCTE"> F  </i>
   <i type="logical" name="LTETE"> F  </i>
   <i type="logical" name="LTRIPLET"> F  </i>
   <i type="logical" name="LFXCEPS"> F  </i>
   <i type="logical" name="LFXHEG"> F  </i>
   <i type="int" name="NATURALO">     2</i>
   <i type="logical" name="L2ORDER"> F  </i>
   <i type="logical" name="LMP2LT"> F  </i>
   <i type="logical" name="LUSEW"> F  </i>
   <i name="ENCUTGW">     -2.00000000</i>
   <i name="ENCUTGWSOFT">     -2.00000000</i>
   <i name="ENCUTLF">     -1.00000000</i>
   <i type="int" name="LMAXMP2">    -1</i>
   <i name="SCISSOR">      0.00000000</i>
   <i type="int" name="NOMEGA">     0</i>
   <i type="int" name="NOMEGAR">     0</i>
   <i type="int" name="NBANDSGW">    -1</i>
   <i type="int" name="NBANDSO">    -1</i>
   <i type="int" name="NBANDSV">    -1</i>
   <i type="int" name="NELM">     1</i>
   <i type="int" name="NELMHF">     1</i>
   <i type="int" name="DIM">     3</i>
   <i type="int" name="ANTIRES">     0</i>
   <i name="OMEGAMAX">    -30.00000000</i>
   <i name="OMEGAMIN">    -30.00000000</i>
   <i name="OMEGATL">   -200.00000000</i>
   <i type="int" name="OMEGAGRID">   140</i>
   <i name="CSHIFT">     -0.10000000</i>
   <i type="logical" name="SELFENERGY"> F  </i>
   <i type="logical" name="LSPECTRAL"> F  </i>
   <i type="logical" name="LSPECTRALGW"> F  </i>
   <i type="logical" name="LSINGLES"> F  </i>
   <i type="logical" name="LFERMIGW"> F  </i>
   <i type="logical" name="ODDONLYGW"> F  </i>
   <i type="logical" name="EVENONLYGW"> F  </i>
   <i type="int" name="NKREDLFX">     1</i>
   <i type="int" name="NKREDLFY">     1</i>
   <i type="int" name="NKREDLFZ">     1</i>
   <i type="int" name="MAXMEM">  2800</i>
   <i type="int" name="TELESCOPE">     0</i>
   <i type="int" name="TAUPAR">     1</i>
   <i type="int" name="OMEGAPAR">    -1</i>
   <i name="LAMBDA">      1.00000000</i>
  </separator>
  <separator name="External order field" >
   <i name="OFIELD_KAPPA">      0.00000000</i>
   <v name="OFIELD_K">      0.00000000      0.00000000      0.00000000</v>
   <i name="OFIELD_Q6_NEAR">      0.00000000</i>
   <i name="OFIELD_Q6_FAR">      0.00000000</i>
   <i name="OFIELD_A">      0.00000000</i>
  </separator>
 </parameters>
 <atominfo>
  <atoms>      20 </atoms>
  <types>       3 </types>
  <array name="atoms" >
   <dimension dim="1">ion</dimension>
   <field type="string">element</field>
   <field type="int">atomtype</field>
   <set>
    <rc><c>O </c><c>   1</c></rc>
    <rc><c>O </c><c>   1</c></rc>
    <rc><c>O </c><c>   1</c></rc>
    <rc><c>O </c><c>   1</c></rc>
    <rc><c>O </c><c>   1</c></rc>
    <rc><c>O </c><c>   1</c></rc>
    <rc><c>O </c><c>   1</c></rc>
    <rc><c>O </c><c>   1</c></rc>
    <rc><c>O </c><c>   1</c></rc>
    <rc><c>O </c><c>   1</c></rc>
    <rc><c>O </c><c>   1</c></rc>
    <rc><c>O </c><c>   1</c></rc>
    <rc><c>Sr</c><c>   2</c></rc>
    <rc><c>Sr</c><c>   2</c></rc>
    <rc><c>Sr</c><c>   2</c></rc>
    <rc><c>Sr</c><c>   2</c></rc>
    <rc><c>Ti</c><c>   3</c></rc>
    <rc><c>Ti</c><c>   3</c></rc>
    <rc><c>Ti</c><c>   3</c></rc>
    <rc><c>Ti</c><c>   3</c></rc>
   </set>
  </array>
  <array name="atomtypes" >
   <dimension dim="1">type</dimension>
   <field type="int">atomspertype</field>
   <field type="string">element</field>
   <field>mass</field>
   <field>valence</field>
   <field type="string">pseudopotential</field>
   <set>
    <rc><c>  12</c><c>O </c><c>     16.00000000</c><c>      6.00000000</c><c> PAW_PBE O 08Apr2002                    </c></rc>
    <rc><c>   4</c><c>Sr</c><c>     87.62000000</c><c>     10.00000000</c><c> PAW_PBE Sr_sv 07Sep2000                </c></rc>
    <rc><c>   4</c><c>Ti</c><c>     47.88000000</c><c>      4.00000000</c><c> PAW_PBE Ti 08Apr2002                   </c></rc>
   </set>
  </array>
 </atominfo>
 <structure name="initialpos" >
  <crystal>
   <varray name="basis" >
    <v>       3.90526800       0.00000000       0.00000000 </v>
    <v>       0.00000000       3.90526800       0.00000000 </v>
    <v>       0.00000000       0.00000000      25.66843800 </v>
   </varray>
   <i name="volume">    391.47238071 </i>
   <varray name="rec_basis" >
    <v>       0.25606437       0.00000000       0.00000000 </v>
    <v>       0.00000000       0.25606437       0.00000000 </v>
    <v>       0.00000000       0.00000000       0.03895835 </v>
   </varray>
  </crystal>
  <varray name="positions" >
   <v>       0.50000000       0.50000000       0.23375010 </v>
   <v>       0.50000000       0.00000000       0.30982150 </v>
   <v>       0.00000000       0.50000000       0.30982150 </v>
   <v>       0.50000000       0.50000000       0.38589290 </v>
   <v>       0.50000000       0.00000000       0.46196430 </v>
   <v>       0.00000000       0.50000000       0.46196430 </v>
   <v>       0.50000000       0.50000000       0.53803570 </v>
   <v>       0.50000000       0.00000000       0.61410710 </v>
   <v>       0.00000000       0.50000000       0.61410710 </v>
   <v>       0.50000000       0.50000000       0.69017850 </v>
   <v>       0.50000000       0.00000000       0.76624990 </v>
   <v>       0.00000000       0.50000000       0.76624990 </v>
   <v>       0.00000000       0.00000000       0.23375010 </v>
   <v>       0.00000000       0.00000000       0.38589290 </v>
   <v>       0.00000000       0.00000000       0.53803570 </v>
   <v>       0.00000000       0.00000000       0.69017850 </v>
   <v>       0.50000000       0.50000000       0.30982150 </v>
   <v>       0.50000000       0.50000000       0.46196430 </v>
   <v>       0.50000000       0.50000000       0.61410710 </v>
   <v>       0.50000000       0.50000000       0.76624990 </v>
  </varray>
 </structure>
 <calculation>
  <scstep>
   <time name="dav">    9.94    9.94</time>
   <time name="total">   10.16   10.42</time>
   <energy>
    <i name="alphaZ">    451.31605171 </i>
    <i name="ewald">  24913.70541863 </i>
    <i name="hartreedc"> -33364.93616085 </i>
    <i name="XCdc">    326.68050492 </i>
    <i name="pawpsdc">   5334.45189010 </i>
    <i name="pawaedc">  -5139.13784255 </i>
    <i name="eentropy">      0.00000000 </i>
    <i name="bandstr">    519.46481305 </i>
    <i name="atom">   8937.49142856 </i>
    <i name="e_fr_energy">   1979.03610358 </i>
    <i name="e_wo_entrp">   1979.03610358 </i>
    <i name="e_0_energy">   1979.03610358 </i>
   </energy>
  </scstep>
  <scstep>
   <time name="dav">   10.98   10.98</time>
   <time name="total">   10.99   10.99</time>
   <energy>
    <i name="e_fr_energy">    296.22036965 </i>
    <i name="e_wo_entrp">    296.22036965 </i>
    <i name="e_0_energy">    296.22036965 </i>
   </energy>
  </scstep>
  <scstep>
   <time name="dav">   12.14   12.14</time>
   <time name="total">   12.14   12.14</time>
   <energy>
    <i name="e_fr_energy">   -157.30415815 </i>
    <i name="e_wo_entrp">   -157.30415815 </i>
    <i name="e_0_energy">   -157.30415815 </i>
   </energy>
  </scstep>
  <scstep>
   <time name="dav">   12.39   12.39</time>
   <time name="total">   12.39   12.39</time>
   <energy>
    <i name="e_fr_energy">   -199.67145213 </i>
    <i name="e_wo_entrp">   -199.67145213 </i>
    <i name="e_0_energy">   -199.67145213 </i>
   </energy>
  </scstep>
  <scstep>
   <time name="dav">   14.15   14.15</time>
   <time name="total">   14.52   14.52</time>
   <energy>
    <i name="e_fr_energy">   -201.77592177 </i>
    <i name="e_wo_entrp">   -201.77592177 </i>
    <i name="e_0_energy">   -201.77592177 </i>
   </energy>
  </scstep>
  <scstep>
   <time name="diag">    1.10    1.11</time>
   <time name="diis">    7.97    7.97</time>
   <time name="orth">    0.22    0.22</time>
   <time name="total">    9.89    9.90</time>
   <energy>
    <i name="e_fr_energy">   -161.37879405 </i>
    <i name="e_wo_entrp">   -161.37879405 </i>
    <i name="e_0_energy">   -161.37879405 </i>
   </energy>
  </scstep>
  <scstep>
   <time name="diag">    1.08    1.08</time>
   <time name="diis">    8.71    8.71</time>
   <time name="orth">    0.21    0.21</time>
   <time name="total">   10.58   10.59</time>
   <energy>
    <i name="e_fr_energy">   -157.77013251 </i>
    <i name="e_wo_entrp">   -157.77013251 </i>
    <i name="e_0_energy">   -157.77013251 </i>
   </energy>
  </scstep>
  <scstep>
   <time name="diag">    1.09    1.10</time>
   <time name="diis">    9.51    9.51</time>
   <time name="orth">    0.22    0.22</time>
   <time name="total">   11.41   11.41</time>
   <energy>
    <i name="e_fr_energy">   -157.04475145 </i>
    <i name="e_wo_entrp">   -157.04475145 </i>
    <i name="e_0_energy">   -157.04475145 </i>
   </energy>
  </scstep>
  <scstep>
   <time name="diag">    1.09    1.09</time>
   <time name="diis">    9.83    9.83</time>
   <time name="orth">    0.22    0.22</time>
   <time name="total">   11.72   11.73</time>
   <energy>
    <i name="e_fr_energy">   -156.83416230 </i>
    <i name="e_wo_entrp">   -156.83416230 </i>
    <i name="e_0_energy">   -156.83416230 </i>
   </energy>
  </scstep>
  <scstep>
   <time name="diag">    1.08    1.09</time>
   <time name="diis">   11.31   11.31</time>
   <time name="orth">    0.22    0.22</time>
   <time name="total">   13.19   13.20</time>
   <energy>
    <i name="e_fr_energy">   -156.79615613 </i>
    <i name="e_wo_entrp">   -156.79615613 </i>
    <i name="e_0_energy">   -156.79615613 </i>
   </energy>
  </scstep>
  <scstep>
   <time name="diag">    1.09    1.09</time>
   <time name="diis">   11.00   11.00</time>
   <time name="orth">    0.22    0.22</time>
   <time name="total">   12.89   12.89</time>
   <energy>
    <i name="e_fr_energy">   -156.77428728 </i>
    <i name="e_wo_entrp">   -156.77428728 </i>
    <i name="e_0_energy">   -156.77428728 </i>
   </energy>
  </scstep>
  <scstep>
   <time name="diag">    1.08    1.08</time>
   <time name="diis">   11.42   11.41</time>
   <time name="orth">    0.22    0.22</time>
   <time name="total">   13.30   13.30</time>
   <energy>
    <i name="e_fr_energy">   -156.76156440 </i>
    <i name="e_wo_entrp">   -156.76156440 </i>
    <i name="e_0_energy">   -156.76156440 </i>
   </energy>
  </scstep>
  <scstep>
   <time name="diag">    1.09    1.09</time>
   <time name="diis">   12.23   12.22</time>
   <time name="orth">    0.22    0.22</time>
   <time name="total">   14.11   14.11</time>
   <energy>
    <i name="e_fr_energy">   -156.75668228 </i>
    <i name="e_wo_entrp">   -156.75668228 </i>
    <i name="e_0_energy">   -156.75668228 </i>
   </energy>
  </scstep>
  <scstep>
   <time name="diag">    1.08    1.08</time>
   <time name="diis">   10.49   10.48</time>
   <time name="orth">    0.22    0.22</time>
   <time name="total">   12.37   12.37</time>
   <energy>
    <i name="e_fr_energy">   -156.75202780 </i>
    <i name="e_wo_entrp">   -156.75202780 </i>
    <i name="e_0_energy">   -156.75202780 </i>
   </energy>
  </scstep>
  <scstep>
   <time name="diag">    1.08    1.08</time>
   <time name="diis">   12.14   12.13</time>
   <time name="orth">    0.22    0.22</time>
   <time name="total">   14.02   14.02</time>
   <energy>
    <i name="e_fr_energy">   -156.75159357 </i>
    <i name="e_wo_entrp">   -156.75159357 </i>
    <i name="e_0_energy">   -156.75159357 </i>
   </energy>
  </scstep>
  <scstep>
   <time name="diag">    1.08    1.08</time>
   <time name="diis">   10.54   10.54</time>
   <time name="orth">    0.22    0.22</time>
   <time name="total">   12.42   12.42</time>
   <energy>
    <i name="e_fr_energy">   -156.75267061 </i>
    <i name="e_wo_entrp">   -156.75267061 </i>
    <i name="e_0_energy">   -156.75267061 </i>
   </energy>
  </scstep>
  <scstep>
   <time name="diag">    1.08    1.08</time>
   <time name="diis">   10.06   10.06</time>
   <time name="orth">    0.22    0.22</time>
   <time name="total">   11.94   11.94</time>
   <energy>
    <i name="e_fr_energy">   -156.75314615 </i>
    <i name="e_wo_entrp">   -156.75314615 </i>
    <i name="e_0_energy">   -156.75314615 </i>
   </energy>
  </scstep>
  <scstep>
   <time name="diag">    1.08    1.08</time>
   <time name="diis">   10.18   10.17</time>
   <time name="orth">    0.22    0.22</time>
   <time name="total">   12.06   12.06</time>
   <energy>
    <i name="e_fr_energy">   -156.75388663 </i>
    <i name="e_wo_entrp">   -156.75388663 </i>
    <i name="e_0_energy">   -156.75388663 </i>
   </energy>
  </scstep>
  <scstep>
   <time name="diag">    1.08    1.08</time>
   <time name="diis">    9.77    9.77</time>
   <time name="orth">    0.22    0.22</time>
   <time name="total">   11.65   11.65</time>
   <energy>
    <i name="e_fr_energy">   -156.75556094 </i>
    <i name="e_wo_entrp">   -156.75556094 </i>
    <i name="e_0_energy">   -156.75556094 </i>
   </energy>
  </scstep>
  <scstep>
   <time name="diag">    1.08    1.08</time>
   <time name="diis">    8.50    8.50</time>
   <time name="orth">    0.22    0.22</time>
   <time name="total">   10.38   10.38</time>
   <energy>
    <i name="e_fr_energy">   -156.75600452 </i>
    <i name="e_wo_entrp">   -156.75600452 </i>
    <i name="e_0_energy">   -156.75600452 </i>
   </energy>
  </scstep>
  <scstep>
   <time name="diag">    1.08    1.09</time>
   <time name="diis">    7.70    7.70</time>
   <time name="orth">    0.22    0.22</time>
   <time name="total">    9.59    9.59</time>
   <energy>
    <i name="e_fr_energy">   -156.75627046 </i>
    <i name="e_wo_entrp">   -156.75627046 </i>
    <i name="e_0_energy">   -156.75627046 </i>
   </energy>
  </scstep>
  <scstep>
   <time name="diag">    1.09    1.09</time>
   <time name="diis">    6.71    6.71</time>
   <time name="orth">    0.22    0.22</time>
   <time name="total">    8.60    8.60</time>
   <energy>
    <i name="e_fr_energy">   -156.75636067 </i>
    <i name="e_wo_entrp">   -156.75636067 </i>
    <i name="e_0_energy">   -156.75636067 </i>
   </energy>
  </scstep>
  <scstep>
   <time name="diag">    1.09    1.09</time>
   <time name="diis">    5.91    5.91</time>
   <time name="orth">    0.22    0.22</time>
   <time name="total">    7.80    7.80</time>
   <energy>
    <i name="e_fr_energy">   -156.75637659 </i>
    <i name="e_wo_entrp">   -156.75637659 </i>
    <i name="e_0_energy">   -156.75637659 </i>
   </energy>
  </scstep>
  <scstep>
   <time name="diag">    1.09    1.09</time>
   <time name="diis">    5.60    5.60</time>
   <time name="orth">    0.22    0.22</time>
   <time name="total">    7.12    7.12</time>
   <energy>
    <i name="alphaZ">    451.31605171 </i>
    <i name="ewald">  24913.70541863 </i>
    <i name="hartreedc"> -33784.34379185 </i>
    <i name="XCdc">    342.96050956 </i>
    <i name="pawpsdc">   6201.32837489 </i>
    <i name="pawaedc">  -6031.48861121 </i>
    <i name="eentropy">      0.00000000 </i>
    <i name="bandstr">  -1187.72576619 </i>
    <i name="atom">   8937.49142856 </i>
    <i name="e_fr_energy">   -156.75638589 </i>
    <i name="e_wo_entrp">   -156.75638589 </i>
    <i name="e_0_energy">   -156.75638589 </i>
   </energy>
  </scstep>
  <structure>
   <crystal>
    <varray name="basis" >
     <v>       3.90526800       0.00000000       0.00000000 </v>
     <v>       0.00000000       3.90526800       0.00000000 </v>
     <v>       0.00000000       0.00000000      25.66843800 </v>
    </varray>
    <i name="volume">    391.47238071 </i>
    <varray name="rec_basis" >
     <v>       0.25606437       0.00000000       0.00000000 </v>
     <v>       0.00000000       0.25606437       0.00000000 </v>
     <v>       0.00000000       0.00000000       0.03895835 </v>
    </varray>
   </crystal>
   <varray name="positions" >
    <v>       0.50000000       0.50000000       0.23375010 </v>
    <v>       0.50000000       0.00000000       0.30982150 </v>
    <v>       0.00000000       0.50000000       0.30982150 </v>
    <v>       0.50000000       0.50000000       0.38589290 </v>
    <v>       0.50000000       0.00000000       0.46196430 </v>
    <v>       0.00000000       0.50000000       0.46196430 </v>
    <v>       0.50000000       0.50000000       0.53803570 </v>
    <v>       0.50000000       0.00000000       0.61410710 </v>
    <v>       0.00000000       0.50000000       0.61410710 </v>
    <v>       0.50000000       0.50000000       0.69017850 </v>
    <v>       0.50000000       0.00000000       0.76624990 </v>
    <v>       0.00000000       0.50000000       0.76624990 </v>
    <v>       0.00000000       0.00000000       0.23375010 </v>
    <v>       0.00000000       0.00000000       0.38589290 </v>
    <v>       0.00000000       0.00000000       0.53803570 </v>
    <v>       0.00000000       0.00000000       0.69017850 </v>
    <v>       0.50000000       0.50000000       0.30982150 </v>
    <v>       0.50000000       0.50000000       0.46196430 </v>
    <v>       0.50000000       0.50000000       0.61410710 </v>
    <v>       0.50000000       0.50000000       0.76624990 </v>
   </varray>
  </structure>
  <varray name="forces" >
   <v>       0.00000000      -0.00000000      -1.06954920 </v>
   <v>       0.00000000       0.00000000      -0.00138501 </v>
   <v>       0.00000000       0.00000000      -0.00138501 </v>
   <v>       0.00000000       0.00000000       0.37890531 </v>
   <v>      -0.00000000      -0.00000000       0.06700925 </v>
   <v>       0.00000000       0.00000000       0.06700925 </v>
   <v>       0.00000000       0.00000000       0.30675475 </v>
   <v>       0.00000000      -0.00000000       0.02151877 </v>
   <v>       0.00000000       0.00000000       0.02151877 </v>
   <v>       0.00000000      -0.00000000       1.06235106 </v>
   <v>       0.00000000       0.00000000       0.45342983 </v>
   <v>       0.00000000       0.00000000       0.45342983 </v>
   <v>       0.00000000       0.00000000       1.19196221 </v>
   <v>       0.00000000      -0.00000000      -0.00663213 </v>
   <v>       0.00000000       0.00000000      -0.05847345 </v>
   <v>       0.00000000       0.00000000       0.66198971 </v>
   <v>       0.00000000       0.00000000      -1.02595529 </v>
   <v>       0.00000000       0.00000000      -0.31059928 </v>
   <v>       0.00000000       0.00000000      -0.36844955 </v>
   <v>       0.00000000       0.00000000      -1.84344983 </v>
  </varray>
  <varray name="stress" >
   <v>      12.87948119       0.00000000       0.00000000 </v>
   <v>       0.00000000      12.87948119       0.00000000 </v>
   <v>      -0.00000000       0.00000000      17.62827092 </v>
  </varray>
  <energy>
   <i name="e_fr_energy">   -156.75638589 </i>
   <i name="e_wo_entrp">   -156.75638589 </i>
   <i name="e_0_energy">      0.00000000 </i>
  </energy>
  <time name="totalsc">  290.68  291.02</time>
  <eigenvalues>
   <array>
    <dimension dim="1">band</dimension>
    <dimension dim="2">kpoint</dimension>
    <dimension dim="3">spin</dimension>
    <field>eigene</field>
    <field>occ</field>
    <set>
     <set comment="spin 1">
      <set comment="kpoint 1">
       <r>  -33.7828    1.0000 </r>
       <r>  -32.7973    1.0000 </r>
       <r>  -32.7067    1.0000 </r>
       <r>  -32.6618    1.0000 </r>
       <r>  -17.7125    1.0000 </r>
       <r>  -17.6263    1.0000 </r>
       <r>  -17.5209    1.0000 </r>
       <r>  -17.0507    1.0000 </r>
       <r>  -16.5678    1.0000 </r>
       <r>  -16.5203    1.0000 </r>
       <r>  -16.4949    1.0000 </r>
       <r>  -16.4662    1.0000 </r>
       <r>  -16.4183    1.0000 </r>
       <r>  -16.3749    1.0000 </r>
       <r>  -15.9520    1.0000 </r>
       <r>  -15.7482    1.0000 </r>
       <r>  -15.6991    1.0000 </r>
       <r>  -15.6991    1.0000 </r>
       <r>  -15.6011    1.0000 </r>
       <r>  -14.8521    1.0000 </r>
       <r>  -14.8521    1.0000 </r>
       <r>  -14.7552    1.0000 </r>
       <r>  -14.7552    1.0000 </r>
       <r>  -14.7326    1.0000 </r>
       <r>  -14.7326    1.0000 </r>
       <r>  -14.6988    1.0000 </r>
       <r>  -14.4058    1.0000 </r>
       <r>  -14.2675    1.0000 </r>
       <r>   -4.2665    1.0000 </r>
       <r>   -3.7204    1.0000 </r>
       <r>   -3.1823    1.0000 </r>
       <r>   -3.0107    1.0000 </r>
       <r>   -3.0107    1.0000 </r>
       <r>   -2.9104    1.0000 </r>
       <r>   -2.9104    1.0000 </r>
       <r>   -2.8424    1.0000 </r>
       <r>   -2.8424    1.0000 </r>
       <r>   -2.5489    1.0000 </r>
       <r>   -2.5489    1.0000 </r>
       <r>   -2.5245    1.0000 </r>
       <r>   -2.2699    1.0000 </r>
       <r>   -2.1673    1.0000 </r>
       <r>   -2.1673    1.0000 </r>
       <r>   -1.9523    1.0000 </r>
       <r>   -1.8430    1.0000 </r>
       <r>   -1.7820    1.0000 </r>
       <r>   -1.7820    1.0000 </r>
       <r>   -1.7026    1.0000 </r>
       <r>   -1.4513    1.0000 </r>
       <r>   -1.4513    1.0000 </r>
       <r>   -1.3728    1.0000 </r>
       <r>   -1.3525    1.0000 </r>
       <r>   -1.0735    1.0000 </r>
       <r>   -1.0735    1.0000 </r>
       <r>   -0.8590    1.0000 </r>
       <r>   -0.7498    1.0000 </r>
       <r>   -0.7498    1.0000 </r>
       <r>   -0.6476    1.0000 </r>
       <r>   -0.5997    1.0000 </r>
       <r>   -0.5997    1.0000 </r>
       <r>   -0.3698    1.0000 </r>
       <r>   -0.3698    1.0000 </r>
       <r>   -0.0643    1.0000 </r>
       <r>   -0.0643    1.0000 </r>
       <r>    1.6074    0.0000 </r>
       <r>    1.7148    0.0000 </r>
       <r>    1.7148    0.0000 </r>
       <r>    1.7495    0.0000 </r>
       <r>    1.8838    0.0000 </r>
       <r>    1.9918    0.0000 </r>
       <r>    2.2886    0.0000 </r>
       <r>    2.2896    0.0000 </r>
       <r>    2.3341    0.0000 </r>
       <r>    2.9839    0.0000 </r>
       <r>    5.4940    0.0000 </r>
       <r>    5.9469    0.0000 </r>
      </set>
      <set comment="kpoint 2">
       <r>  -33.7794    1.0000 </r>
       <r>  -32.7932    1.0000 </r>
       <r>  -32.7027    1.0000 </r>
       <r>  -32.6577    1.0000 </r>
       <r>  -17.6358    1.0000 </r>
       <r>  -17.5631    1.0000 </r>
       <r>  -17.5010    1.0000 </r>
       <r>  -17.0472    1.0000 </r>
       <r>  -16.5825    1.0000 </r>
       <r>  -16.5503    1.0000 </r>
       <r>  -16.5043    1.0000 </r>
       <r>  -16.4617    1.0000 </r>
       <r>  -16.4491    1.0000 </r>
       <r>  -16.4067    1.0000 </r>
       <r>  -16.0452    1.0000 </r>
       <r>  -15.9446    1.0000 </r>
       <r>  -15.7104    1.0000 </r>
       <r>  -15.6912    1.0000 </r>
       <r>  -15.2527    1.0000 </r>
       <r>  -14.8424    1.0000 </r>
       <r>  -14.7500    1.0000 </r>
       <r>  -14.7453    1.0000 </r>
       <r>  -14.7224    1.0000 </r>
       <r>  -14.7208    1.0000 </r>
       <r>  -14.6434    1.0000 </r>
       <r>  -14.6251    1.0000 </r>
       <r>  -14.4253    1.0000 </r>
       <r>  -14.3031    1.0000 </r>
       <r>   -4.2790    1.0000 </r>
       <r>   -3.7718    1.0000 </r>
       <r>   -3.3607    1.0000 </r>
       <r>   -3.3079    1.0000 </r>
       <r>   -3.2172    1.0000 </r>
       <r>   -3.1092    1.0000 </r>
       <r>   -3.0197    1.0000 </r>
       <r>   -2.9997    1.0000 </r>
       <r>   -2.9199    1.0000 </r>
       <r>   -2.8469    1.0000 </r>
       <r>   -2.8168    1.0000 </r>
       <r>   -2.6171    1.0000 </r>
       <r>   -2.5016    1.0000 </r>
       <r>   -2.2831    1.0000 </r>
       <r>   -2.2539    1.0000 </r>
       <r>   -2.0494    1.0000 </r>
       <r>   -2.0190    1.0000 </r>
       <r>   -1.8756    1.0000 </r>
       <r>   -1.7323    1.0000 </r>
       <r>   -1.6079    1.0000 </r>
       <r>   -1.5029    1.0000 </r>
       <r>   -1.3872    1.0000 </r>
       <r>   -1.3338    1.0000 </r>
       <r>   -1.2932    1.0000 </r>
       <r>   -1.2345    1.0000 </r>
       <r>   -1.1598    1.0000 </r>
       <r>   -1.0935    1.0000 </r>
       <r>   -1.0037    1.0000 </r>
       <r>   -0.9594    1.0000 </r>
       <r>   -0.9387    1.0000 </r>
       <r>   -0.8600    1.0000 </r>
       <r>   -0.8069    1.0000 </r>
       <r>   -0.5126    1.0000 </r>
       <r>   -0.4979    1.0000 </r>
       <r>   -0.4558    1.0000 </r>
       <r>   -0.3748    1.0000 </r>
       <r>    1.7322    0.0000 </r>
       <r>    2.0348    0.0000 </r>
       <r>    2.0853    0.0000 </r>
       <r>    2.1714    0.0000 </r>
       <r>    2.2785    0.0000 </r>
       <r>    2.3248    0.0000 </r>
       <r>    2.4281    0.0000 </r>
       <r>    2.4476    0.0000 </r>
       <r>    2.8688    0.0000 </r>
       <r>    3.1157    0.0000 </r>
       <r>    5.8051    0.0000 </r>
       <r>    5.9978    0.0000 </r>
      </set>
      <set comment="kpoint 3">
       <r>  -33.7717    1.0000 </r>
       <r>  -32.7839    1.0000 </r>
       <r>  -32.6936    1.0000 </r>
       <r>  -32.6485    1.0000 </r>
       <r>  -17.6021    1.0000 </r>
       <r>  -17.4568    1.0000 </r>
       <r>  -17.3685    1.0000 </r>
       <r>  -17.0408    1.0000 </r>
       <r>  -16.6763    1.0000 </r>
       <r>  -16.5795    1.0000 </r>
       <r>  -16.5644    1.0000 </r>
       <r>  -16.5172    1.0000 </r>
       <r>  -16.4240    1.0000 </r>
       <r>  -16.3462    1.0000 </r>
       <r>  -16.1953    1.0000 </r>
       <r>  -15.9147    1.0000 </r>
       <r>  -15.7034    1.0000 </r>
       <r>  -15.6734    1.0000 </r>
       <r>  -14.9201    1.0000 </r>
       <r>  -14.8205    1.0000 </r>
       <r>  -14.7229    1.0000 </r>
       <r>  -14.7125    1.0000 </r>
       <r>  -14.6993    1.0000 </r>
       <r>  -14.5758    1.0000 </r>
       <r>  -14.4695    1.0000 </r>
       <r>  -14.4485    1.0000 </r>
       <r>  -14.4274    1.0000 </r>
       <r>  -14.3627    1.0000 </r>
       <r>   -4.3187    1.0000 </r>
       <r>   -4.1586    1.0000 </r>
       <r>   -3.8995    1.0000 </r>
       <r>   -3.8671    1.0000 </r>
       <r>   -3.7136    1.0000 </r>
       <r>   -3.6047    1.0000 </r>
       <r>   -3.5337    1.0000 </r>
       <r>   -3.2633    1.0000 </r>
       <r>   -3.1484    1.0000 </r>
       <r>   -3.0340    1.0000 </r>
       <r>   -2.9420    1.0000 </r>
       <r>   -2.8883    1.0000 </r>
       <r>   -2.8535    1.0000 </r>
       <r>   -2.7740    1.0000 </r>
       <r>   -2.4773    1.0000 </r>
       <r>   -2.2939    1.0000 </r>
       <r>   -2.1884    1.0000 </r>
       <r>   -2.1669    1.0000 </r>
       <r>   -1.8717    1.0000 </r>
       <r>   -1.8340    1.0000 </r>
       <r>   -1.8199    1.0000 </r>
       <r>   -1.7761    1.0000 </r>
       <r>   -1.7414    1.0000 </r>
       <r>   -1.6049    1.0000 </r>
       <r>   -1.4864    1.0000 </r>
       <r>   -1.4011    1.0000 </r>
       <r>   -1.3698    1.0000 </r>
       <r>   -1.2731    1.0000 </r>
       <r>   -1.1061    1.0000 </r>
       <r>   -0.9983    1.0000 </r>
       <r>   -0.8694    1.0000 </r>
       <r>   -0.8315    1.0000 </r>
       <r>   -0.7086    1.0000 </r>
       <r>   -0.6640    1.0000 </r>
       <r>   -0.6361    1.0000 </r>
       <r>   -0.4302    1.0000 </r>
       <r>    1.7794    0.0000 </r>
       <r>    2.3306    0.0000 </r>
       <r>    2.8251    0.0000 </r>
       <r>    2.8419    0.0000 </r>
       <r>    2.8890    0.0000 </r>
       <r>    2.9301    0.0000 </r>
       <r>    2.9782    0.0000 </r>
       <r>    3.0670    0.0000 </r>
       <r>    3.0942    0.0000 </r>
       <r>    3.2317    0.0000 </r>
       <r>    3.3871    0.0000 </r>
       <r>    6.7767    0.0000 </r>
      </set>
      <set comment="kpoint 4">
       <r>  -33.7655    1.0000 </r>
       <r>  -32.7765    1.0000 </r>
       <r>  -32.6863    1.0000 </r>
       <r>  -32.6410    1.0000 </r>
       <r>  -17.6739    1.0000 </r>
       <r>  -17.4628    1.0000 </r>
       <r>  -17.2161    1.0000 </r>
       <r>  -16.9338    1.0000 </r>
       <r>  -16.7157    1.0000 </r>
       <r>  -16.6803    1.0000 </r>
       <r>  -16.5783    1.0000 </r>
       <r>  -16.4863    1.0000 </r>
       <r>  -16.4348    1.0000 </r>
       <r>  -16.2408    1.0000 </r>
       <r>  -16.2364    1.0000 </r>
       <r>  -15.8825    1.0000 </r>
       <r>  -15.6706    1.0000 </r>
       <r>  -15.6590    1.0000 </r>
       <r>  -14.8028    1.0000 </r>
       <r>  -14.7367    1.0000 </r>
       <r>  -14.7048    1.0000 </r>
       <r>  -14.7048    1.0000 </r>
       <r>  -14.6805    1.0000 </r>
       <r>  -14.5031    1.0000 </r>
       <r>  -14.4435    1.0000 </r>
       <r>  -14.3918    1.0000 </r>
       <r>  -14.3246    1.0000 </r>
       <r>  -14.2811    1.0000 </r>
       <r>   -4.5404    1.0000 </r>
       <r>   -4.4975    1.0000 </r>
       <r>   -4.3657    1.0000 </r>
       <r>   -4.2605    1.0000 </r>
       <r>   -4.1834    1.0000 </r>
       <r>   -4.0938    1.0000 </r>
       <r>   -3.9424    1.0000 </r>
       <r>   -3.6504    1.0000 </r>
       <r>   -3.4337    1.0000 </r>
       <r>   -3.1110    1.0000 </r>
       <r>   -3.0301    1.0000 </r>
       <r>   -2.9735    1.0000 </r>
       <r>   -2.8802    1.0000 </r>
       <r>   -2.8407    1.0000 </r>
       <r>   -2.6871    1.0000 </r>
       <r>   -2.6477    1.0000 </r>
       <r>   -2.4628    1.0000 </r>
       <r>   -2.3266    1.0000 </r>
       <r>   -2.1661    1.0000 </r>
       <r>   -2.1557    1.0000 </r>
       <r>   -1.9736    1.0000 </r>
       <r>   -1.8887    1.0000 </r>
       <r>   -1.7325    1.0000 </r>
       <r>   -1.6875    1.0000 </r>
       <r>   -1.6461    1.0000 </r>
       <r>   -1.6278    1.0000 </r>
       <r>   -1.3673    1.0000 </r>
       <r>   -1.3123    1.0000 </r>
       <r>   -1.2754    1.0000 </r>
       <r>   -1.1338    1.0000 </r>
       <r>   -1.0413    1.0000 </r>
       <r>   -0.9659    1.0000 </r>
       <r>   -0.7722    1.0000 </r>
       <r>   -0.7356    1.0000 </r>
       <r>   -0.5202    1.0000 </r>
       <r>   -0.2464    1.0000 </r>
       <r>    1.8187    0.0000 </r>
       <r>    2.3641    0.0000 </r>
       <r>    2.9344    0.0000 </r>
       <r>    3.3725    0.0000 </r>
       <r>    3.4147    0.0000 </r>
       <r>    3.4336    0.0000 </r>
       <r>    3.5003    0.0000 </r>
       <r>    3.5809    0.0000 </r>
       <r>    3.6150    0.0000 </r>
       <r>    3.6647    0.0000 </r>
       <r>    3.7311    0.0000 </r>
       <r>    7.4250    0.0000 </r>
      </set>
      <set comment="kpoint 5">
       <r>  -33.7760    1.0000 </r>
       <r>  -32.7892    1.0000 </r>
       <r>  -32.6988    1.0000 </r>
       <r>  -32.6537    1.0000 </r>
       <r>  -17.5730    1.0000 </r>
       <r>  -17.4882    1.0000 </r>
       <r>  -17.4602    1.0000 </r>
       <r>  -17.0256    1.0000 </r>
       <r>  -16.5887    1.0000 </r>
       <r>  -16.5660    1.0000 </r>
       <r>  -16.4969    1.0000 </r>
       <r>  -16.4784    1.0000 </r>
       <r>  -16.4375    1.0000 </r>
       <r>  -16.4167    1.0000 </r>
       <r>  -16.1644    1.0000 </r>
       <r>  -15.9429    1.0000 </r>
       <r>  -15.7136    1.0000 </r>
       <r>  -15.6815    1.0000 </r>
       <r>  -15.1322    1.0000 </r>
       <r>  -14.8451    1.0000 </r>
       <r>  -14.7386    1.0000 </r>
       <r>  -14.7357    1.0000 </r>
       <r>  -14.7079    1.0000 </r>
       <r>  -14.6956    1.0000 </r>
       <r>  -14.5743    1.0000 </r>
       <r>  -14.5556    1.0000 </r>
       <r>  -14.4407    1.0000 </r>
       <r>  -14.3430    1.0000 </r>
       <r>   -4.2893    1.0000 </r>
       <r>   -3.8370    1.0000 </r>
       <r>   -3.5288    1.0000 </r>
       <r>   -3.4319    1.0000 </r>
       <r>   -3.3559    1.0000 </r>
       <r>   -3.2006    1.0000 </r>
       <r>   -3.1179    1.0000 </r>
       <r>   -3.0763    1.0000 </r>
       <r>   -3.0571    1.0000 </r>
       <r>   -2.9971    1.0000 </r>
       <r>   -2.8904    1.0000 </r>
       <r>   -2.8892    1.0000 </r>
       <r>   -2.6801    1.0000 </r>
       <r>   -2.5522    1.0000 </r>
       <r>   -2.3861    1.0000 </r>
       <r>   -2.2881    1.0000 </r>
       <r>   -2.0772    1.0000 </r>
       <r>   -2.0695    1.0000 </r>
       <r>   -1.8503    1.0000 </r>
       <r>   -1.7758    1.0000 </r>
       <r>   -1.6646    1.0000 </r>
       <r>   -1.5979    1.0000 </r>
       <r>   -1.4347    1.0000 </r>
       <r>   -1.2863    1.0000 </r>
       <r>   -1.1833    1.0000 </r>
       <r>   -1.1647    1.0000 </r>
       <r>   -1.0984    1.0000 </r>
       <r>   -1.0779    1.0000 </r>
       <r>   -1.0664    1.0000 </r>
       <r>   -1.0111    1.0000 </r>
       <r>   -1.0036    1.0000 </r>
       <r>   -0.8951    1.0000 </r>
       <r>   -0.8272    1.0000 </r>
       <r>   -0.6758    1.0000 </r>
       <r>   -0.5448    1.0000 </r>
       <r>   -0.2759    1.0000 </r>
       <r>    2.0168    0.0000 </r>
       <r>    2.1828    0.0000 </r>
       <r>    2.2971    0.0000 </r>
       <r>    2.4304    0.0000 </r>
       <r>    2.4488    0.0000 </r>
       <r>    2.5354    0.0000 </r>
       <r>    2.5667    0.0000 </r>
       <r>    2.6814    0.0000 </r>
       <r>    2.7099    0.0000 </r>
       <r>    3.0132    0.0000 </r>
       <r>    3.2776    0.0000 </r>
       <r>    6.1618    0.0000 </r>
      </set>
      <set comment="kpoint 6">
       <r>  -33.7684    1.0000 </r>
       <r>  -32.7801    1.0000 </r>
       <r>  -32.6899    1.0000 </r>
       <r>  -32.6446    1.0000 </r>
       <r>  -17.5326    1.0000 </r>
       <r>  -17.3815    1.0000 </r>
       <r>  -17.2812    1.0000 </r>
       <r>  -16.9826    1.0000 </r>
       <r>  -16.6357    1.0000 </r>
       <r>  -16.5830    1.0000 </r>
       <r>  -16.5425    1.0000 </r>
       <r>  -16.5108    1.0000 </r>
       <r>  -16.4393    1.0000 </r>
       <r>  -16.2923    1.0000 </r>
       <r>  -16.2320    1.0000 </r>
       <r>  -15.9221    1.0000 </r>
       <r>  -15.7531    1.0000 </r>
       <r>  -15.6418    1.0000 </r>
       <r>  -14.9444    1.0000 </r>
       <r>  -14.8428    1.0000 </r>
       <r>  -14.7685    1.0000 </r>
       <r>  -14.7057    1.0000 </r>
       <r>  -14.6657    1.0000 </r>
       <r>  -14.6069    1.0000 </r>
       <r>  -14.4910    1.0000 </r>
       <r>  -14.4484    1.0000 </r>
       <r>  -14.4292    1.0000 </r>
       <r>  -14.4038    1.0000 </r>
       <r>   -4.3213    1.0000 </r>
       <r>   -4.1312    1.0000 </r>
       <r>   -3.9345    1.0000 </r>
       <r>   -3.8959    1.0000 </r>
       <r>   -3.7220    1.0000 </r>
       <r>   -3.5936    1.0000 </r>
       <r>   -3.5159    1.0000 </r>
       <r>   -3.2868    1.0000 </r>
       <r>   -3.2463    1.0000 </r>
       <r>   -3.2007    1.0000 </r>
       <r>   -3.1674    1.0000 </r>
       <r>   -3.1089    1.0000 </r>
       <r>   -3.0108    1.0000 </r>
       <r>   -2.8848    1.0000 </r>
       <r>   -2.8024    1.0000 </r>
       <r>   -2.7128    1.0000 </r>
       <r>   -2.5110    1.0000 </r>
       <r>   -2.4008    1.0000 </r>
       <r>   -2.2712    1.0000 </r>
       <r>   -2.2177    1.0000 </r>
       <r>   -2.0753    1.0000 </r>
       <r>   -1.8384    1.0000 </r>
       <r>   -1.6694    1.0000 </r>
       <r>   -1.5440    1.0000 </r>
       <r>   -1.3814    1.0000 </r>
       <r>   -1.2707    1.0000 </r>
       <r>   -1.2364    1.0000 </r>
       <r>   -1.1460    1.0000 </r>
       <r>   -1.1113    1.0000 </r>
       <r>   -1.1006    1.0000 </r>
       <r>   -0.9991    1.0000 </r>
       <r>   -0.8283    1.0000 </r>
       <r>   -0.6929    1.0000 </r>
       <r>   -0.6456    1.0000 </r>
       <r>   -0.4519    1.0000 </r>
       <r>   -0.3597    1.0000 </r>
       <r>    2.1211    0.0000 </r>
       <r>    2.5510    0.0000 </r>
       <r>    2.8498    0.0000 </r>
       <r>    2.9277    0.0000 </r>
       <r>    3.0072    0.0000 </r>
       <r>    3.0668    0.0000 </r>
       <r>    3.1138    0.0000 </r>
       <r>    3.1710    0.0000 </r>
       <r>    3.2987    0.0000 </r>
       <r>    3.4380    0.0000 </r>
       <r>    3.4819    0.0000 </r>
       <r>    6.9847    0.0000 </r>
      </set>
      <set comment="kpoint 7">
       <r>  -33.7623    1.0000 </r>
       <r>  -32.7729    1.0000 </r>
       <r>  -32.6827    1.0000 </r>
       <r>  -32.6374    1.0000 </r>
       <r>  -17.5766    1.0000 </r>
       <r>  -17.3667    1.0000 </r>
       <r>  -17.1269    1.0000 </r>
       <r>  -16.8569    1.0000 </r>
       <r>  -16.6676    1.0000 </r>
       <r>  -16.6440    1.0000 </r>
       <r>  -16.5469    1.0000 </r>
       <r>  -16.4912    1.0000 </r>
       <r>  -16.4362    1.0000 </r>
       <r>  -16.1962    1.0000 </r>
       <r>  -16.1723    1.0000 </r>
       <r>  -15.9013    1.0000 </r>
       <r>  -15.8002    1.0000 </r>
       <r>  -15.5974    1.0000 </r>
       <r>  -14.8424    1.0000 </r>
       <r>  -14.8315    1.0000 </r>
       <r>  -14.8008    1.0000 </r>
       <r>  -14.6785    1.0000 </r>
       <r>  -14.6145    1.0000 </r>
       <r>  -14.5524    1.0000 </r>
       <r>  -14.5121    1.0000 </r>
       <r>  -14.4469    1.0000 </r>
       <r>  -14.3822    1.0000 </r>
       <r>  -14.3313    1.0000 </r>
       <r>   -4.4965    1.0000 </r>
       <r>   -4.4130    1.0000 </r>
       <r>   -4.3580    1.0000 </r>
       <r>   -4.2636    1.0000 </r>
       <r>   -4.1760    1.0000 </r>
       <r>   -4.0267    1.0000 </r>
       <r>   -3.9226    1.0000 </r>
       <r>   -3.6543    1.0000 </r>
       <r>   -3.5104    1.0000 </r>
       <r>   -3.3253    1.0000 </r>
       <r>   -3.2357    1.0000 </r>
       <r>   -3.1955    1.0000 </r>
       <r>   -3.1594    1.0000 </r>
       <r>   -3.1013    1.0000 </r>
       <r>   -3.0644    1.0000 </r>
       <r>   -2.9787    1.0000 </r>
       <r>   -2.6466    1.0000 </r>
       <r>   -2.6061    1.0000 </r>
       <r>   -2.4714    1.0000 </r>
       <r>   -2.3462    1.0000 </r>
       <r>   -2.2093    1.0000 </r>
       <r>   -1.9112    1.0000 </r>
       <r>   -1.7154    1.0000 </r>
       <r>   -1.7027    1.0000 </r>
       <r>   -1.4050    1.0000 </r>
       <r>   -1.3409    1.0000 </r>
       <r>   -1.2758    1.0000 </r>
       <r>   -1.2545    1.0000 </r>
       <r>   -1.2216    1.0000 </r>
       <r>   -1.1110    1.0000 </r>
       <r>   -1.0800    1.0000 </r>
       <r>   -0.9744    1.0000 </r>
       <r>   -0.7392    1.0000 </r>
       <r>   -0.5762    1.0000 </r>
       <r>   -0.4252    1.0000 </r>
       <r>   -0.2356    1.0000 </r>
       <r>    2.1600    0.0000 </r>
       <r>    2.6032    0.0000 </r>
       <r>    3.0759    0.0000 </r>
       <r>    3.4289    0.0000 </r>
       <r>    3.4368    0.0000 </r>
       <r>    3.5118    0.0000 </r>
       <r>    3.5611    0.0000 </r>
       <r>    3.5913    0.0000 </r>
       <r>    3.6500    0.0000 </r>
       <r>    3.7250    0.0000 </r>
       <r>    3.8225    0.0000 </r>
       <r>    7.7476    0.0000 </r>
      </set>
      <set comment="kpoint 8">
       <r>  -33.7611    1.0000 </r>
       <r>  -32.7716    1.0000 </r>
       <r>  -32.6814    1.0000 </r>
       <r>  -32.6361    1.0000 </r>
       <r>  -17.3933    1.0000 </r>
       <r>  -17.2198    1.0000 </r>
       <r>  -17.0729    1.0000 </r>
       <r>  -16.8440    1.0000 </r>
       <r>  -16.6581    1.0000 </r>
       <r>  -16.5762    1.0000 </r>
       <r>  -16.5282    1.0000 </r>
       <r>  -16.4395    1.0000 </r>
       <r>  -16.4302    1.0000 </r>
       <r>  -16.2540    1.0000 </r>
       <r>  -16.1566    1.0000 </r>
       <r>  -15.9161    1.0000 </r>
       <r>  -15.7594    1.0000 </r>
       <r>  -15.6597    1.0000 </r>
       <r>  -15.0122    1.0000 </r>
       <r>  -14.8934    1.0000 </r>
       <r>  -14.8014    1.0000 </r>
       <r>  -14.7260    1.0000 </r>
       <r>  -14.6793    1.0000 </r>
       <r>  -14.5949    1.0000 </r>
       <r>  -14.5905    1.0000 </r>
       <r>  -14.4889    1.0000 </r>
       <r>  -14.4441    1.0000 </r>
       <r>  -14.4359    1.0000 </r>
       <r>   -4.3334    1.0000 </r>
       <r>   -4.1797    1.0000 </r>
       <r>   -4.0490    1.0000 </r>
       <r>   -4.0343    1.0000 </r>
       <r>   -3.7635    1.0000 </r>
       <r>   -3.6884    1.0000 </r>
       <r>   -3.5850    1.0000 </r>
       <r>   -3.5625    1.0000 </r>
       <r>   -3.5373    1.0000 </r>
       <r>   -3.4775    1.0000 </r>
       <r>   -3.4706    1.0000 </r>
       <r>   -3.4429    1.0000 </r>
       <r>   -3.3110    1.0000 </r>
       <r>   -3.2678    1.0000 </r>
       <r>   -3.2072    1.0000 </r>
       <r>   -3.1510    1.0000 </r>
       <r>   -3.1282    1.0000 </r>
       <r>   -3.0952    1.0000 </r>
       <r>   -2.7902    1.0000 </r>
       <r>   -2.7629    1.0000 </r>
       <r>   -2.5801    1.0000 </r>
       <r>   -2.2698    1.0000 </r>
       <r>   -2.1010    1.0000 </r>
       <r>   -1.5938    1.0000 </r>
       <r>   -1.4723    1.0000 </r>
       <r>   -1.2359    1.0000 </r>
       <r>   -0.9924    1.0000 </r>
       <r>   -0.9505    1.0000 </r>
       <r>   -0.8371    1.0000 </r>
       <r>   -0.8197    1.0000 </r>
       <r>   -0.7165    1.0000 </r>
       <r>   -0.7057    1.0000 </r>
       <r>   -0.5848    1.0000 </r>
       <r>   -0.5568    1.0000 </r>
       <r>   -0.3986    1.0000 </r>
       <r>    0.0454    1.0000 </r>
       <r>    2.7165    0.0000 </r>
       <r>    2.9720    0.0000 </r>
       <r>    3.0609    0.0000 </r>
       <r>    3.1741    0.0000 </r>
       <r>    3.2612    0.0000 </r>
       <r>    3.3603    0.0000 </r>
       <r>    3.4007    0.0000 </r>
       <r>    3.4256    0.0000 </r>
       <r>    3.5125    0.0000 </r>
       <r>    3.6219    0.0000 </r>
       <r>    3.7022    0.0000 </r>
       <r>    3.7252    0.0000 </r>
      </set>
      <set comment="kpoint 9">
       <r>  -33.7553    1.0000 </r>
       <r>  -32.7647    1.0000 </r>
       <r>  -32.6746    1.0000 </r>
       <r>  -32.6292    1.0000 </r>
       <r>  -17.3239    1.0000 </r>
       <r>  -17.1189    1.0000 </r>
       <r>  -16.9040    1.0000 </r>
       <r>  -16.6762    1.0000 </r>
       <r>  -16.6378    1.0000 </r>
       <r>  -16.6200    1.0000 </r>
       <r>  -16.4925    1.0000 </r>
       <r>  -16.4809    1.0000 </r>
       <r>  -16.3868    1.0000 </r>
       <r>  -16.0985    1.0000 </r>
       <r>  -16.0288    1.0000 </r>
       <r>  -15.9113    1.0000 </r>
       <r>  -15.8766    1.0000 </r>
       <r>  -15.6188    1.0000 </r>
       <r>  -15.0847    1.0000 </r>
       <r>  -14.9283    1.0000 </r>
       <r>  -14.8718    1.0000 </r>
       <r>  -14.7541    1.0000 </r>
       <r>  -14.6795    1.0000 </r>
       <r>  -14.6232    1.0000 </r>
       <r>  -14.5740    1.0000 </r>
       <r>  -14.5437    1.0000 </r>
       <r>  -14.4925    1.0000 </r>
       <r>  -14.4239    1.0000 </r>
       <r>   -4.4980    1.0000 </r>
       <r>   -4.3968    1.0000 </r>
       <r>   -4.2933    1.0000 </r>
       <r>   -4.1809    1.0000 </r>
       <r>   -4.1078    1.0000 </r>
       <r>   -4.0696    1.0000 </r>
       <r>   -4.0049    1.0000 </r>
       <r>   -3.9075    1.0000 </r>
       <r>   -3.7602    1.0000 </r>
       <r>   -3.7291    1.0000 </r>
       <r>   -3.6452    1.0000 </r>
       <r>   -3.6057    1.0000 </r>
       <r>   -3.5483    1.0000 </r>
       <r>   -3.4795    1.0000 </r>
       <r>   -3.4369    1.0000 </r>
       <r>   -3.2854    1.0000 </r>
       <r>   -3.1701    1.0000 </r>
       <r>   -3.1224    1.0000 </r>
       <r>   -3.0609    1.0000 </r>
       <r>   -2.9735    1.0000 </r>
       <r>   -2.6747    1.0000 </r>
       <r>   -2.5482    1.0000 </r>
       <r>   -2.1440    1.0000 </r>
       <r>   -1.5555    1.0000 </r>
       <r>   -1.4345    1.0000 </r>
       <r>   -1.3235    1.0000 </r>
       <r>   -1.0062    1.0000 </r>
       <r>   -0.9487    1.0000 </r>
       <r>   -0.7475    1.0000 </r>
       <r>   -0.6701    1.0000 </r>
       <r>   -0.6053    1.0000 </r>
       <r>   -0.5748    1.0000 </r>
       <r>   -0.5542    1.0000 </r>
       <r>   -0.4562    1.0000 </r>
       <r>   -0.2159    1.0000 </r>
       <r>    0.2088    1.0000 </r>
       <r>    2.8464    0.0000 </r>
       <r>    3.1590    0.0000 </r>
       <r>    3.4380    0.0000 </r>
       <r>    3.4656    0.0000 </r>
       <r>    3.6221    0.0000 </r>
       <r>    3.6445    0.0000 </r>
       <r>    3.7681    0.0000 </r>
       <r>    3.7858    0.0000 </r>
       <r>    3.8005    0.0000 </r>
       <r>    3.9055    0.0000 </r>
       <r>    4.0026    0.0000 </r>
       <r>    7.6848    0.0000 </r>
      </set>
      <set comment="kpoint 10">
       <r>  -33.7496    1.0000 </r>
       <r>  -32.7581    1.0000 </r>
       <r>  -32.6680    1.0000 </r>
       <r>  -32.6226    1.0000 </r>
       <r>  -17.0460    1.0000 </r>
       <r>  -16.8480    1.0000 </r>
       <r>  -16.7209    1.0000 </r>
       <r>  -16.6849    1.0000 </r>
       <r>  -16.6281    1.0000 </r>
       <r>  -16.5859    1.0000 </r>
       <r>  -16.4489    1.0000 </r>
       <r>  -16.4197    1.0000 </r>
       <r>  -16.3830    1.0000 </r>
       <r>  -16.0099    1.0000 </r>
       <r>  -15.9216    1.0000 </r>
       <r>  -15.8905    1.0000 </r>
       <r>  -15.8145    1.0000 </r>
       <r>  -15.6530    1.0000 </r>
       <r>  -15.3837    1.0000 </r>
       <r>  -14.9791    1.0000 </r>
       <r>  -14.9280    1.0000 </r>
       <r>  -14.9202    1.0000 </r>
       <r>  -14.7740    1.0000 </r>
       <r>  -14.7030    1.0000 </r>
       <r>  -14.6282    1.0000 </r>
       <r>  -14.5742    1.0000 </r>
       <r>  -14.4901    1.0000 </r>
       <r>  -14.4691    1.0000 </r>
       <r>   -4.6060    1.0000 </r>
       <r>   -4.5279    1.0000 </r>
       <r>   -4.4671    1.0000 </r>
       <r>   -4.3965    1.0000 </r>
       <r>   -4.2747    1.0000 </r>
       <r>   -4.2396    1.0000 </r>
       <r>   -4.1711    1.0000 </r>
       <r>   -4.1606    1.0000 </r>
       <r>   -4.0764    1.0000 </r>
       <r>   -4.0324    1.0000 </r>
       <r>   -3.9170    1.0000 </r>
       <r>   -3.8538    1.0000 </r>
       <r>   -3.7925    1.0000 </r>
       <r>   -3.7338    1.0000 </r>
       <r>   -3.5275    1.0000 </r>
       <r>   -3.4740    1.0000 </r>
       <r>   -3.4583    1.0000 </r>
       <r>   -3.3940    1.0000 </r>
       <r>   -3.1494    1.0000 </r>
       <r>   -3.1164    1.0000 </r>
       <r>   -2.7588    1.0000 </r>
       <r>   -2.6628    1.0000 </r>
       <r>   -2.4063    1.0000 </r>
       <r>   -1.4261    1.0000 </r>
       <r>   -1.3540    1.0000 </r>
       <r>   -1.3453    1.0000 </r>
       <r>   -0.9481    1.0000 </r>
       <r>   -0.9029    1.0000 </r>
       <r>   -0.5480    1.0000 </r>
       <r>   -0.5048    1.0000 </r>
       <r>   -0.2933    1.0000 </r>
       <r>   -0.2546    1.0000 </r>
       <r>   -0.2290    1.0000 </r>
       <r>   -0.1821    1.0000 </r>
       <r>   -0.1545    1.0000 </r>
       <r>    0.5522    1.0000 </r>
       <r>    3.4096    0.0000 </r>
       <r>    3.4782    0.0000 </r>
       <r>    3.6647    0.0000 </r>
       <r>    3.7147    0.0000 </r>
       <r>    3.8762    0.0000 </r>
       <r>    3.9367    0.0000 </r>
       <r>    4.0163    0.0000 </r>
       <r>    4.0609    0.0000 </r>
       <r>    4.0773    0.0000 </r>
       <r>    7.3347    0.0000 </r>
       <r>    7.4039    0.0000 </r>
       <r>    7.6676    0.0000 </r>
      </set>
     </set>
    </set>
   </array>
  </eigenvalues>
  <separator name="orbital magnetization" >
   <v name="MAGDIPOLOUT">      0.00000000      0.00000000      0.00000000</v>
  </separator>
  <dos>
   <i name="efermi">      0.61132808 </i>
   <total>
    <array>
     <dimension dim="1">gridpoints</dimension>
     <dimension dim="2">spin</dimension>
     <field>energy</field>
     <field>total</field>
     <field>integrated</field>
     <set>
      <set comment="spin 1">
       <r>   -35.8593     0.0000     0.0000 </r>
       <r>   -35.7071     0.0000     0.0000 </r>
       <r>   -35.5548     0.0000     0.0000 </r>
       <r>   -35.4025     0.0000     0.0000 </r>
       <r>   -35.2502     0.0000     0.0000 </r>
       <r>   -35.0980     0.0000     0.0000 </r>
       <r>   -34.9457     0.0000     0.0000 </r>
       <r>   -34.7934     0.0000     0.0000 </r>
       <r>   -34.6411     0.0000     0.0000 </r>
       <r>   -34.4888     0.0000     0.0000 </r>
       <r>   -34.3366     0.0000     0.0000 </r>
       <r>   -34.1843     0.0000     0.0000 </r>
       <r>   -34.0320     0.0000     0.0000 </r>
       <r>   -33.8797     0.0000     0.0000 </r>
       <r>   -33.7274     0.0000     2.0000 </r>
       <r>   -33.5752     0.0000     2.0000 </r>
       <r>   -33.4229     0.0000     2.0000 </r>
       <r>   -33.2706     0.0000     2.0000 </r>
       <r>   -33.1183     0.0000     2.0000 </r>
       <r>   -32.9661     0.0000     2.0000 </r>
       <r>   -32.8138     0.0000     2.0000 </r>
       <r>   -32.6615     2.9108     6.0004 </r>
       <r>   -32.5092     0.0000     8.0000 </r>
       <r>   -32.3569     0.0000     8.0000 </r>
       <r>   -32.2047     0.0000     8.0000 </r>
       <r>   -32.0524     0.0000     8.0000 </r>
       <r>   -31.9001     0.0000     8.0000 </r>
       <r>   -31.7478     0.0000     8.0000 </r>
       <r>   -31.5956     0.0000     8.0000 </r>
       <r>   -31.4433     0.0000     8.0000 </r>
       <r>   -31.2910     0.0000     8.0000 </r>
       <r>   -31.1387     0.0000     8.0000 </r>
       <r>   -30.9864     0.0000     8.0000 </r>
       <r>   -30.8342     0.0000     8.0000 </r>
       <r>   -30.6819     0.0000     8.0000 </r>
       <r>   -30.5296     0.0000     8.0000 </r>
       <r>   -30.3773     0.0000     8.0000 </r>
       <r>   -30.2250     0.0000     8.0000 </r>
       <r>   -30.0728     0.0000     8.0000 </r>
       <r>   -29.9205     0.0000     8.0000 </r>
       <r>   -29.7682     0.0000     8.0000 </r>
       <r>   -29.6159     0.0000     8.0000 </r>
       <r>   -29.4637     0.0000     8.0000 </r>
       <r>   -29.3114     0.0000     8.0000 </r>
       <r>   -29.1591     0.0000     8.0000 </r>
       <r>   -29.0068     0.0000     8.0000 </r>
       <r>   -28.8545     0.0000     8.0000 </r>
       <r>   -28.7023     0.0000     8.0000 </r>
       <r>   -28.5500     0.0000     8.0000 </r>
       <r>   -28.3977     0.0000     8.0000 </r>
       <r>   -28.2454     0.0000     8.0000 </r>
       <r>   -28.0931     0.0000     8.0000 </r>
       <r>   -27.9409     0.0000     8.0000 </r>
       <r>   -27.7886     0.0000     8.0000 </r>
       <r>   -27.6363     0.0000     8.0000 </r>
       <r>   -27.4840     0.0000     8.0000 </r>
       <r>   -27.3318     0.0000     8.0000 </r>
       <r>   -27.1795     0.0000     8.0000 </r>
       <r>   -27.0272     0.0000     8.0000 </r>
       <r>   -26.8749     0.0000     8.0000 </r>
       <r>   -26.7226     0.0000     8.0000 </r>
       <r>   -26.5704     0.0000     8.0000 </r>
       <r>   -26.4181     0.0000     8.0000 </r>
       <r>   -26.2658     0.0000     8.0000 </r>
       <r>   -26.1135     0.0000     8.0000 </r>
       <r>   -25.9613     0.0000     8.0000 </r>
       <r>   -25.8090     0.0000     8.0000 </r>
       <r>   -25.6567     0.0000     8.0000 </r>
       <r>   -25.5044     0.0000     8.0000 </r>
       <r>   -25.3521     0.0000     8.0000 </r>
       <r>   -25.1999     0.0000     8.0000 </r>
       <r>   -25.0476     0.0000     8.0000 </r>
       <r>   -24.8953     0.0000     8.0000 </r>
       <r>   -24.7430     0.0000     8.0000 </r>
       <r>   -24.5907     0.0000     8.0000 </r>
       <r>   -24.4385     0.0000     8.0000 </r>
       <r>   -24.2862     0.0000     8.0000 </r>
       <r>   -24.1339     0.0000     8.0000 </r>
       <r>   -23.9816     0.0000     8.0000 </r>
       <r>   -23.8294     0.0000     8.0000 </r>
       <r>   -23.6771     0.0000     8.0000 </r>
       <r>   -23.5248     0.0000     8.0000 </r>
       <r>   -23.3725     0.0000     8.0000 </r>
       <r>   -23.2202     0.0000     8.0000 </r>
       <r>   -23.0680     0.0000     8.0000 </r>
       <r>   -22.9157     0.0000     8.0000 </r>
       <r>   -22.7634     0.0000     8.0000 </r>
       <r>   -22.6111     0.0000     8.0000 </r>
       <r>   -22.4588     0.0000     8.0000 </r>
       <r>   -22.3066     0.0000     8.0000 </r>
       <r>   -22.1543     0.0000     8.0000 </r>
       <r>   -22.0020     0.0000     8.0000 </r>
       <r>   -21.8497     0.0000     8.0000 </r>
       <r>   -21.6975     0.0000     8.0000 </r>
       <r>   -21.5452     0.0000     8.0000 </r>
       <r>   -21.3929     0.0000     8.0000 </r>
       <r>   -21.2406     0.0000     8.0000 </r>
       <r>   -21.0883     0.0000     8.0000 </r>
       <r>   -20.9361     0.0000     8.0000 </r>
       <r>   -20.7838     0.0000     8.0000 </r>
       <r>   -20.6315     0.0000     8.0000 </r>
       <r>   -20.4792     0.0000     8.0000 </r>
       <r>   -20.3269     0.0000     8.0000 </r>
       <r>   -20.1747     0.0000     8.0000 </r>
       <r>   -20.0224     0.0000     8.0000 </r>
       <r>   -19.8701     0.0000     8.0000 </r>
       <r>   -19.7178     0.0000     8.0000 </r>
       <r>   -19.5656     0.0000     8.0000 </r>
       <r>   -19.4133     0.0000     8.0000 </r>
       <r>   -19.2610     0.0000     8.0000 </r>
       <r>   -19.1087     0.0000     8.0000 </r>
       <r>   -18.9564     0.0000     8.0000 </r>
       <r>   -18.8042     0.0000     8.0000 </r>
       <r>   -18.6519     0.0000     8.0000 </r>
       <r>   -18.4996     0.0000     8.0000 </r>
       <r>   -18.3473     0.0000     8.0000 </r>
       <r>   -18.1951     0.0000     8.0000 </r>
       <r>   -18.0428     0.0000     8.0000 </r>
       <r>   -17.8905     0.0000     8.0000 </r>
       <r>   -17.7382     0.0000     8.0000 </r>
       <r>   -17.5859    12.7295     8.6994 </r>
       <r>   -17.4337    13.3579    10.3000 </r>
       <r>   -17.2814     6.9260    11.7444 </r>
       <r>   -17.1291     6.3704    12.8246 </r>
       <r>   -16.9768     7.2739    14.1001 </r>
       <r>   -16.8245     4.1941    15.2138 </r>
       <r>   -16.6723    16.5629    16.3570 </r>
       <r>   -16.5200    20.2743    21.1380 </r>
       <r>   -16.3677     4.1743    26.3413 </r>
       <r>   -16.2154    22.0380    27.4636 </r>
       <r>   -16.0632     7.2600    29.3582 </r>
       <r>   -15.9109    71.5331    30.9533 </r>
       <r>   -15.7586    10.8405    32.9633 </r>
       <r>   -15.6063    14.7041    35.8883 </r>
       <r>   -15.4540     0.2459    36.0181 </r>
       <r>   -15.3018     1.2419    36.1685 </r>
       <r>   -15.1495     2.2897    36.4497 </r>
       <r>   -14.9972     5.3696    37.0298 </r>
       <r>   -14.8449    56.1777    39.3324 </r>
       <r>   -14.6926    43.3275    44.7798 </r>
       <r>   -14.5404    25.8671    49.4093 </r>
       <r>   -14.3881    17.6459    54.4827 </r>
       <r>   -14.2358     0.0000    56.0000 </r>
       <r>   -14.0835     0.0000    56.0000 </r>
       <r>   -13.9313     0.0000    56.0000 </r>
       <r>   -13.7790     0.0000    56.0000 </r>
       <r>   -13.6267     0.0000    56.0000 </r>
       <r>   -13.4744     0.0000    56.0000 </r>
       <r>   -13.3221     0.0000    56.0000 </r>
       <r>   -13.1699     0.0000    56.0000 </r>
       <r>   -13.0176     0.0000    56.0000 </r>
       <r>   -12.8653     0.0000    56.0000 </r>
       <r>   -12.7130     0.0000    56.0000 </r>
       <r>   -12.5608     0.0000    56.0000 </r>
       <r>   -12.4085     0.0000    56.0000 </r>
       <r>   -12.2562     0.0000    56.0000 </r>
       <r>   -12.1039     0.0000    56.0000 </r>
       <r>   -11.9516     0.0000    56.0000 </r>
       <r>   -11.7994     0.0000    56.0000 </r>
       <r>   -11.6471     0.0000    56.0000 </r>
       <r>   -11.4948     0.0000    56.0000 </r>
       <r>   -11.3425     0.0000    56.0000 </r>
       <r>   -11.1902     0.0000    56.0000 </r>
       <r>   -11.0380     0.0000    56.0000 </r>
       <r>   -10.8857     0.0000    56.0000 </r>
       <r>   -10.7334     0.0000    56.0000 </r>
       <r>   -10.5811     0.0000    56.0000 </r>
       <r>   -10.4289     0.0000    56.0000 </r>
       <r>   -10.2766     0.0000    56.0000 </r>
       <r>   -10.1243     0.0000    56.0000 </r>
       <r>    -9.9720     0.0000    56.0000 </r>
       <r>    -9.8197     0.0000    56.0000 </r>
       <r>    -9.6675     0.0000    56.0000 </r>
       <r>    -9.5152     0.0000    56.0000 </r>
       <r>    -9.3629     0.0000    56.0000 </r>
       <r>    -9.2106     0.0000    56.0000 </r>
       <r>    -9.0583     0.0000    56.0000 </r>
       <r>    -8.9061     0.0000    56.0000 </r>
       <r>    -8.7538     0.0000    56.0000 </r>
       <r>    -8.6015     0.0000    56.0000 </r>
       <r>    -8.4492     0.0000    56.0000 </r>
       <r>    -8.2970     0.0000    56.0000 </r>
       <r>    -8.1447     0.0000    56.0000 </r>
       <r>    -7.9924     0.0000    56.0000 </r>
       <r>    -7.8401     0.0000    56.0000 </r>
       <r>    -7.6878     0.0000    56.0000 </r>
       <r>    -7.5356     0.0000    56.0000 </r>
       <r>    -7.3833     0.0000    56.0000 </r>
       <r>    -7.2310     0.0000    56.0000 </r>
       <r>    -7.0787     0.0000    56.0000 </r>
       <r>    -6.9265     0.0000    56.0000 </r>
       <r>    -6.7742     0.0000    56.0000 </r>
       <r>    -6.6219     0.0000    56.0000 </r>
       <r>    -6.4696     0.0000    56.0000 </r>
       <r>    -6.3173     0.0000    56.0000 </r>
       <r>    -6.1651     0.0000    56.0000 </r>
       <r>    -6.0128     0.0000    56.0000 </r>
       <r>    -5.8605     0.0000    56.0000 </r>
       <r>    -5.7082     0.0000    56.0000 </r>
       <r>    -5.5559     0.0000    56.0000 </r>
       <r>    -5.4037     0.0000    56.0000 </r>
       <r>    -5.2514     0.0000    56.0000 </r>
       <r>    -5.0991     0.0000    56.0000 </r>
       <r>    -4.9468     0.0000    56.0000 </r>
       <r>    -4.7946     0.0000    56.0000 </r>
       <r>    -4.6423     0.0000    56.0000 </r>
       <r>    -4.4900     8.1841    56.7815 </r>
       <r>    -4.3377    12.7169    58.6849 </r>
       <r>    -4.1854    12.7717    61.1645 </r>
       <r>    -4.0332    18.3898    63.7838 </r>
       <r>    -3.8809    12.3959    66.1148 </r>
       <r>    -3.7286    16.0571    68.3945 </r>
       <r>    -3.5763    15.2653    70.8605 </r>
       <r>    -3.4240    18.0731    73.7295 </r>
       <r>    -3.2718    20.9741    76.7666 </r>
       <r>    -3.1195    28.7854    80.3629 </r>
       <r>    -2.9672    21.3622    84.3153 </r>
       <r>    -2.8149    13.0897    87.0693 </r>
       <r>    -2.6627    13.9460    89.1817 </r>
       <r>    -2.5104    12.2861    91.2356 </r>
       <r>    -2.3581    12.5358    93.0949 </r>
       <r>    -2.2058    12.8775    95.1020 </r>
       <r>    -2.0535    10.8821    96.8137 </r>
       <r>    -1.9013    16.1642    98.3249 </r>
       <r>    -1.7490     7.7751    99.8239 </r>
       <r>    -1.5967    11.7915   101.9177 </r>
       <r>    -1.4444    17.4295   103.9065 </r>
       <r>    -1.2922    33.3982   107.3353 </r>
       <r>    -1.1399    15.9230   110.1934 </r>
       <r>    -0.9876    25.7865   113.9362 </r>
       <r>    -0.8353    18.3668   117.1625 </r>
       <r>    -0.6830    16.6052   119.6284 </r>
       <r>    -0.5308    15.1715   122.6623 </r>
       <r>    -0.3785    12.1484   124.8662 </r>
       <r>    -0.2262     5.0505   126.7203 </r>
       <r>    -0.0739     1.3897   127.3628 </r>
       <r>     0.0784     1.1400   127.5479 </r>
       <r>     0.2306     0.9997   127.7220 </r>
       <r>     0.3829     0.7515   127.8553 </r>
       <r>     0.5352     0.5032   127.9509 </r>
       <r>     0.6875     0.0000   128.0000 </r>
       <r>     0.8397     0.0000   128.0000 </r>
       <r>     0.9920     0.0000   128.0000 </r>
       <r>     1.1443     0.0000   128.0000 </r>
       <r>     1.2966     0.0000   128.0000 </r>
       <r>     1.4489     0.0000   128.0000 </r>
       <r>     1.6011     0.0000   128.0000 </r>
       <r>     1.7534     1.2415   128.0872 </r>
       <r>     1.9057     3.5513   128.5219 </r>
       <r>     2.0580     4.4841   129.1093 </r>
       <r>     2.2103     3.9966   129.7671 </r>
       <r>     2.3625     6.8503   130.4794 </r>
       <r>     2.5148     7.6731   131.6899 </r>
       <r>     2.6671     6.5073   132.7443 </r>
       <r>     2.8194     8.0958   133.8313 </r>
       <r>     2.9716    10.7062   135.3275 </r>
       <r>     3.1239    11.4206   137.1530 </r>
       <r>     3.2762    12.1186   138.9524 </r>
       <r>     3.4285    23.8442   141.3046 </r>
       <r>     3.5808    15.0926   144.1182 </r>
       <r>     3.7330    12.8662   146.6954 </r>
       <r>     3.8853     6.8896   148.2606 </r>
       <r>     4.0376     1.7465   148.9799 </r>
       <r>     4.1899     0.4322   149.1669 </r>
       <r>     4.3421     0.4319   149.2327 </r>
       <r>     4.4944     0.4315   149.2984 </r>
       <r>     4.6467     0.4312   149.3641 </r>
       <r>     4.7990     0.4309   149.4298 </r>
       <r>     4.9513     0.4305   149.4954 </r>
       <r>     5.1035     0.4302   149.5609 </r>
       <r>     5.2558     0.4299   149.6264 </r>
       <r>     5.4081     0.4295   149.6918 </r>
       <r>     5.5604     0.4695   149.7585 </r>
       <r>     5.7127     0.5615   149.8370 </r>
       <r>     5.8649     0.3251   149.9109 </r>
       <r>     6.0172     1.4879   150.0445 </r>
       <r>     6.1695     0.7472   150.2118 </r>
       <r>     6.3218     0.7581   150.3264 </r>
       <r>     6.4740     0.7691   150.4426 </r>
       <r>     6.6263     0.7800   150.5606 </r>
       <r>     6.7786     0.7915   150.6802 </r>
       <r>     6.9309     0.8535   150.8054 </r>
       <r>     7.0832     0.7643   150.9266 </r>
       <r>     7.2354     0.7845   151.0445 </r>
       <r>     7.3877     0.7581   151.2038 </r>
       <r>     7.5400     1.0858   151.4047 </r>
       <r>     7.6923     3.4067   151.8198 </r>
       <r>     7.8446     0.0000   152.0000 </r>
       <r>     7.9968     0.0000   152.0000 </r>
       <r>     8.1491     0.0000   152.0000 </r>
       <r>     8.3014     0.0000   152.0000 </r>
       <r>     8.4537     0.0000   152.0000 </r>
       <r>     8.6059     0.0000   152.0000 </r>
       <r>     8.7582     0.0000   152.0000 </r>
       <r>     8.9105     0.0000   152.0000 </r>
       <r>     9.0628     0.0000   152.0000 </r>
       <r>     9.2151     0.0000   152.0000 </r>
       <r>     9.3673     0.0000   152.0000 </r>
       <r>     9.5196     0.0000   152.0000 </r>
       <r>     9.6719     0.0000   152.0000 </r>
       <r>     9.8242     0.0000   152.0000 </r>
      </set>
     </set>
    </array>
   </total>
  </dos>
 </calculation>
 <structure name="finalpos" >
  <crystal>
   <varray name="basis" >
    <v>       3.90526800       0.00000000       0.00000000 </v>
    <v>       0.00000000       3.90526800       0.00000000 </v>
    <v>       0.00000000       0.00000000      25.66843800 </v>
   </varray>
   <i name="volume">    391.47238071 </i>
   <varray name="rec_basis" >
    <v>       0.25606437       0.00000000       0.00000000 </v>
    <v>       0.00000000       0.25606437       0.00000000 </v>
    <v>       0.00000000       0.00000000       0.03895835 </v>
   </varray>
  </crystal>
  <varray name="positions" >
   <v>       0.50000000       0.50000000       0.23375010 </v>
   <v>       0.50000000       0.00000000       0.30982150 </v>
   <v>       0.00000000       0.50000000       0.30982150 </v>
   <v>       0.50000000       0.50000000       0.38589290 </v>
   <v>       0.50000000       0.00000000       0.46196430 </v>
   <v>       0.00000000       0.50000000       0.46196430 </v>
   <v>       0.50000000       0.50000000       0.53803570 </v>
   <v>       0.50000000       0.00000000       0.61410710 </v>
   <v>       0.00000000       0.50000000       0.61410710 </v>
   <v>       0.50000000       0.50000000       0.69017850 </v>
   <v>       0.50000000       0.00000000       0.76624990 </v>
   <v>       0.00000000       0.50000000       0.76624990 </v>
   <v>       0.00000000       0.00000000       0.23375010 </v>
   <v>       0.00000000       0.00000000       0.38589290 </v>
   <v>       0.00000000       0.00000000       0.53803570 </v>
   <v>       0.00000000       0.00000000       0.69017850 </v>
   <v>       0.50000000       0.50000000       0.30982150 </v>
   <v>       0.50000000       0.50000000       0.46196430 </v>
   <v>       0.50000000       0.50000000       0.61410710 </v>
   <v>       0.50000000       0.50000000       0.76624990 </v>
  </varray>
 </structure>
</modeling>
