unknown system                          
   1.00000000000000     
     2.573869    0.000000    0.000000
     1.286934    2.229036    0.000000
     0.000000    0.000000   30.304665
   Cu   H 
     4     1
Direct
  0.999706  0.000588  0.396567
  0.333186  0.333624  0.465140
  0.665829  0.668343  0.533594
  0.000801  0.998398  0.604216
  0.522907  0.954182  0.637503
 
   20   20  240
 -.18848E-01 -.17546E-01 -.13676E-01 -.84212E-02 -.33544E-02 0.20221E-03 0.16067E-02 0.97354E-03 -.95601E-03 -.30349E-02
 -.40873E-02 -.34583E-02 -.14566E-02 0.71176E-03 0.15865E-02 0.24178E-03 -.33130E-02 -.82617E-02 -.13358E-01 -.17264E-01
 -.17502E-01 -.14769E-01 -.99315E-02 -.45277E-02 -.39022E-03 0.11446E-02 -.10279E-03 -.30124E-02 -.57232E-02 -.66484E-02
 -.53362E-02 -.26166E-02 0.11541E-04 0.12454E-02 0.49431E-03 -.21395E-02 -.61322E-02 -.10709E-01 -.14860E-01 -.17440E-01
 -.13683E-01 -.10325E-01 -.57989E-02 -.16910E-02 0.27773E-03 -.96171E-03 -.50477E-02 -.10094E-01 -.13627E-01 -.14015E-01
 -.11346E-01 -.71374E-02 -.32714E-02 -.10764E-02 -.10633E-02 -.31013E-02 -.65882E-02 -.10514E-01 -.13636E-01 -.14868E-01
 -.88001E-02 -.59890E-02 -.30437E-02 -.12850E-02 -.21284E-02 -.63450E-02 -.13226E-01 -.20475E-01 -.25207E-01 -.25478E-01
 -.21282E-01 -.14401E-01 -.73970E-02 -.24802E-02 -.77299E-03 -.20968E-02 -.52182E-02 -.84581E-02 -.10425E-01 -.10493E-01
 -.40438E-02 -.24669E-02 -.17937E-02 -.32131E-02 -.78437E-02 -.15927E-01 -.26035E-01 -.35109E-01 -.39670E-01 -.37644E-01
 -.29593E-01 -.18507E-01 -.82578E-02 -.17274E-02 0.29445E-03 -.10282E-02 -.36193E-02 -.56700E-02 -.63075E-02 -.55778E-02
 -.18709E-03 0.58977E-04 -.20249E-02 -.76923E-02 -.17376E-01 -.29929E-01 -.42360E-01 -.50618E-01 -.51394E-01 -.44021E-01
 -.31094E-01 -.17198E-01 -.65029E-02 -.87088E-03 0.38135E-03 -.69809E-03 -.21461E-02 -.28448E-02 -.25082E-02 -.13993E-02
 0.18313E-02 0.83218E-03 -.43022E-02 -.14559E-01 -.28950E-01 -.44274E-01 -.55971E-01 -.59961E-01 -.54693E-01 -.42116E-01
 -.26755E-01 -.13351E-01 -.46351E-02 -.68055E-03 0.10871E-03 -.47203E-03 -.12091E-02 -.14171E-02 -.73612E-03 0.68704E-03
 0.13370E-02 -.64328E-03 -.81577E-02 -.21364E-01 -.37678E-01 -.52382E-01 -.60554E-01 -.59400E-01 -.49636E-01 -.35021E-01
 -.20334E-01 -.91353E-02 -.26675E-02 -.25496E-03 -.43182E-03 -.17801E-02 -.31185E-02 -.34620E-02 -.22863E-02 -.84310E-04
 -.96864E-03 -.33018E-02 -.11513E-01 -.24795E-01 -.39671E-01 -.51227E-01 -.55383E-01 -.50852E-01 -.39586E-01 -.25580E-01
 -.12959E-01 -.44831E-02 -.10028E-02 -.17190E-02 -.48178E-02 -.81822E-02 -.10035E-01 -.94351E-02 -.65901E-02 -.29515E-02
 -.32624E-02 -.53276E-02 -.12725E-01 -.23897E-01 -.35325E-01 -.42877E-01 -.43691E-01 -.37473E-01 -.26507E-01 -.14586E-01
 -.55254E-02 -.18457E-02 -.39208E-02 -.99015E-02 -.16569E-01 -.20821E-01 -.20994E-01 -.17318E-01 -.11499E-01 -.59734E-02
 -.41330E-02 -.58244E-02 -.11842E-01 -.20018E-01 -.27264E-01 -.30651E-01 -.28627E-01 -.21767E-01 -.12676E-01 -.50656E-02
 -.23185E-02 -.60082E-02 -.15016E-01 -.25830E-01 -.34084E-01 -.36608E-01 -.32783E-01 -.24502E-01 -.15001E-01 -.74710E-02
 -.33210E-02 -.48265E-02 -.93550E-02 -.14353E-01 -.17505E-01 -.17328E-01 -.13679E-01 -.80047E-02 -.30441E-02 -.18966E-02
 -.67025E-02 -.17469E-01 -.31632E-01 -.44739E-01 -.52187E-01 -.51268E-01 -.42465E-01 -.29176E-01 -.16043E-01 -.68706E-02
 -.12894E-02 -.25728E-02 -.55416E-02 -.78503E-02 -.82235E-02 -.64757E-02 -.34291E-02 -.79707E-03 -.82472E-03 -.55793E-02
 -.16028E-01 -.31200E-01 -.47857E-01 -.61136E-01 -.66335E-01 -.61211E-01 -.47402E-01 -.29832E-01 -.14262E-01 -.45378E-02
 0.97264E-03 0.25273E-04 -.17339E-02 -.26893E-02 -.23703E-02 -.11103E-02 0.17931E-03 0.54490E-04 -.33128E-02 -.11591E-01
 -.25313E-01 -.42851E-01 -.60090E-01 -.71529E-01 -.72711E-01 -.62712E-01 -.44955E-01 -.25551E-01 -.10177E-01 -.15570E-02
 0.19052E-02 0.10317E-02 -.28521E-03 -.10700E-02 -.10369E-02 -.37152E-03 0.16184E-03 -.10121E-02 -.60645E-02 -.16723E-01
 -.32750E-01 -.50990E-01 -.66020E-01 -.72470E-01 -.67776E-01 -.53609E-01 -.34985E-01 -.17669E-01 -.55520E-02 0.47925E-03
 0.25685E-03 -.96994E-03 -.21724E-02 -.26559E-02 -.21201E-02 -.79908E-03 0.14008E-03 -.15177E-02 -.82058E-02 -.20862E-01
 -.37451E-01 -.53124E-01 -.62360E-01 -.61838E-01 -.52113E-01 -.37045E-01 -.21596E-01 -.95548E-02 -.24273E-02 0.31810E-03
 -.37632E-02 -.53477E-02 -.59990E-02 -.53168E-02 -.33786E-02 -.97601E-03 0.15350E-03 -.23170E-02 -.10037E-01 -.22414E-01
 -.36064E-01 -.46128E-01 -.48815E-01 -.43434E-01 -.32529E-01 -.20218E-01 -.10081E-01 -.39030E-02 -.16356E-02 -.20943E-02
 -.87941E-02 -.10314E-01 -.99655E-02 -.78772E-02 -.47431E-02 -.18079E-02 -.73783E-03 -.30917E-02 -.93975E-02 -.18376E-01
 -.27065E-01 -.32086E-01 -.31393E-01 -.25370E-01 -.16550E-01 -.82180E-02 -.28623E-02 -.13214E-02 -.28710E-02 -.59172E-02
 -.13590E-01 -.14601E-01 -.13225E-01 -.10061E-01 -.61776E-02 -.28081E-02 -.10842E-02 -.17984E-02 -.51061E-02 -.10199E-01
 -.15258E-01 -.18042E-01 -.17038E-01 -.12470E-01 -.63615E-02 -.14620E-02 0.23496E-03 -.15971E-02 -.57478E-02 -.10313E-01
 -.17282E-01 -.17367E-01 -.14867E-01 -.10653E-01 -.59851E-02 -.20370E-02 0.37604E-03 0.80319E-03 -.81263E-03 -.38906E-02
 -.70546E-02 -.85775E-02 -.74193E-02 -.40927E-02 -.51874E-03 0.11289E-02 -.29372E-03 -.44055E-02 -.97289E-02 -.14495E-01
 -.76144E-02 -.69049E-02 -.53626E-02 -.35451E-02 -.19394E-02 -.82455E-03 -.26123E-03 -.13982E-03 -.26342E-03 -.45362E-03
 -.61788E-03 -.72558E-03 -.74613E-03 -.66963E-03 -.62413E-03 -.92832E-03 -.19189E-02 -.36295E-02 -.56163E-02 -.71435E-02
 -.69132E-02 -.57035E-02 -.37077E-02 -.16404E-02 -.29809E-03 -.16275E-03 -.10512E-02 -.21300E-02 -.24493E-02 -.16605E-02
 -.28622E-03 0.74176E-03 0.84580E-03 0.14363E-03 -.88704E-03 -.19635E-02 -.31614E-02 -.45930E-02 -.60440E-02 -.69841E-02
 -.55051E-02 -.41667E-02 -.22830E-02 -.64626E-03 0.22685E-04 -.47742E-03 -.16271E-02 -.24829E-02 -.23494E-02 -.13032E-02
 -.90808E-04 0.51568E-03 0.30141E-03 -.38852E-03 -.11352E-02 -.18611E-02 -.27720E-02 -.39665E-02 -.51663E-02 -.58279E-02
 -.37893E-02 -.27654E-02 -.16133E-02 -.72523E-03 -.28279E-03 -.25815E-03 -.52923E-03 -.97214E-03 -.14623E-02 -.18384E-02
 -.19253E-02 -.16345E-02 -.10646E-02 -.50424E-03 -.31014E-03 -.72077E-03 -.17057E-02 -.29385E-02 -.39267E-02 -.42521E-02
 -.18414E-02 -.14358E-02 -.11986E-02 -.92686E-03 -.42179E-03 0.13947E-03 0.20977E-03 -.62550E-03 -.21109E-02 -.33541E-02
 -.34958E-02 -.24165E-02 -.82707E-03 0.30307E-03 0.42559E-03 -.33844E-03 -.14368E-02 -.22907E-02 -.25790E-02 -.23307E-02
 -.84738E-04 -.22507E-03 -.68771E-03 -.10780E-02 -.11515E-02 -.10982E-02 -.13566E-02 -.20900E-02 -.28871E-02 -.30658E-02
 -.23142E-02 -.10200E-02 0.36979E-04 0.30613E-03 -.17861E-03 -.94180E-03 -.14612E-02 -.14645E-02 -.10104E-02 -.41782E-03
 0.77144E-03 0.50069E-03 -.33537E-03 -.15257E-02 -.26599E-02 -.33386E-02 -.33627E-02 -.27982E-02 -.19145E-02 -.10521E-02
 -.47911E-03 -.29037E-03 -.39629E-03 -.60971E-03 -.76692E-03 -.78916E-03 -.65501E-03 -.35449E-03 0.89911E-04 0.54915E-03
 0.63791E-03 0.61371E-03 -.19532E-03 -.17156E-02 -.32609E-02 -.39618E-02 -.34458E-02 -.21585E-02 -.99733E-03 -.57817E-03
 -.80640E-03 -.10975E-02 -.96286E-03 -.39277E-03 0.23940E-03 0.55642E-03 0.47110E-03 0.20694E-03 0.96022E-04 0.30317E-03
 0.11114E-03 0.34388E-03 -.24108E-05 -.97754E-03 -.20856E-02 -.27049E-02 -.26462E-02 -.22629E-02 -.20086E-02 -.19425E-02
 -.17164E-02 -.10114E-02 0.85092E-04 0.11336E-02 0.16976E-02 0.16200E-02 0.10490E-02 0.32101E-03 -.18150E-03 -.21713E-03
 -.40347E-03 -.20229E-03 0.23281E-04 -.12884E-03 -.79267E-03 -.17620E-02 -.26404E-02 -.30506E-02 -.27863E-02 -.18915E-02
 -.65218E-03 0.53633E-03 0.13859E-02 0.18515E-02 0.20521E-02 0.20594E-02 0.18024E-02 0.12101E-02 0.42309E-03 -.21051E-03
 -.84203E-03 -.96871E-03 -.58355E-03 -.37295E-03 -.80046E-03 -.16822E-02 -.23272E-02 -.21382E-02 -.11275E-02 0.11720E-03
 0.95976E-03 0.12307E-02 0.12839E-02 0.16015E-02 0.23329E-02 0.31454E-02 0.34668E-02 0.29129E-02 0.15989E-02 0.11574E-03
 -.86729E-03 -.14303E-02 -.13828E-02 -.11759E-02 -.10928E-02 -.10025E-02 -.60768E-03 0.10704E-03 0.77106E-03 0.10125E-02
 0.89352E-03 0.89575E-03 0.14687E-02 0.26180E-02 0.39025E-02 0.47504E-02 0.47621E-02 0.38442E-02 0.22362E-02 0.46455E-03
 -.12057E-03 -.98517E-03 -.13448E-02 -.11462E-02 -.53740E-03 0.17998E-03 0.65152E-03 0.65874E-03 0.33330E-03 0.17394E-03
 0.72065E-03 0.20874E-02 0.37893E-02 0.50751E-02 0.54766E-02 0.50638E-02 0.42199E-02 0.32407E-02 0.21806E-02 0.10207E-02
 0.85579E-03 0.12979E-04 -.50777E-03 -.45115E-03 -.48904E-04 0.17286E-03 -.99114E-04 -.60196E-03 -.63166E-03 0.40091E-03
 0.24421E-02 0.47318E-02 0.62661E-02 0.64399E-02 0.54017E-02 0.38861E-02 0.26746E-02 0.20893E-02 0.18790E-02 0.15512E-02
 0.93267E-03 0.39028E-03 -.13239E-03 -.43275E-03 -.60551E-03 -.81763E-03 -.97312E-03 -.69511E-03 0.33657E-03 0.20544E-02
 0.39925E-02 0.55464E-02 0.62442E-02 0.58987E-02 0.46782E-02 0.30924E-02 0.17883E-02 0.11705E-02 0.11310E-02 0.11852E-02
 -.23041E-03 -.50997E-03 -.98222E-03 -.13520E-02 -.13701E-02 -.94314E-03 -.15209E-03 0.77556E-03 0.15925E-02 0.22345E-02
 0.28904E-02 0.37669E-02 0.47247E-02 0.52181E-02 0.47176E-02 0.32486E-02 0.14749E-02 0.19198E-03 -.28216E-03 -.24755E-03
 -.19685E-02 -.22790E-02 -.25559E-02 -.23942E-02 -.15832E-02 -.36582E-03 0.68559E-03 0.10975E-02 0.89789E-03 0.64690E-03
 0.10177E-02 0.22225E-02 0.37534E-02 0.46888E-02 0.43575E-02 0.28303E-02 0.84686E-03 -.74453E-03 -.15585E-02 -.18098E-02
 -.37526E-02 -.42388E-02 -.41504E-02 -.33505E-02 -.20870E-02 -.90957E-03 -.25715E-03 -.10776E-03 -.44637E-04 0.33680E-03
 0.10907E-02 0.19357E-02 0.25165E-02 0.26188E-02 0.22024E-02 0.13500E-02 0.23149E-03 -.94348E-03 -.20217E-02 -.29637E-02
 -.55653E-02 -.59814E-02 -.54794E-02 -.43922E-02 -.32142E-02 -.22419E-02 -.13768E-02 -.34888E-03 0.82932E-03 0.16987E-02
 0.17428E-02 0.95829E-03 -.31124E-04 -.49677E-03 -.25484E-03 0.19343E-03 0.12274E-03 -.83732E-03 -.24903E-02 -.42692E-02
 -.70947E-02 -.70381E-02 -.60742E-02 -.47421E-02 -.34399E-02 -.22083E-02 -.88822E-03 0.49311E-03 0.15177E-02 0.16354E-02
 0.70104E-03 -.73896E-03 -.17606E-02 -.17628E-02 -.95250E-03 -.19634E-03 -.37725E-03 -.17810E-02 -.39409E-02 -.59706E-02
 0.19116E-01 0.18052E-01 0.14198E-01 0.87770E-02 0.36119E-02 0.18214E-03 -.97105E-03 -.18798E-03 0.16766E-02 0.35334E-02
 0.43104E-02 0.34124E-02 0.12093E-02 -.99077E-03 -.16811E-02 -.65597E-04 0.36142E-02 0.84511E-02 0.13372E-01 0.17292E-01
 0.17844E-01 0.15380E-01 0.11089E-01 0.63276E-02 0.23393E-02 -.14178E-03 -.82932E-03 0.28149E-03 0.27658E-02 0.55042E-02
 0.69415E-02 0.60428E-02 0.32101E-02 0.21219E-03 -.94020E-03 0.75810E-03 0.48903E-02 0.10095E-01 0.14789E-01 0.17640E-01
 0.13617E-01 0.10399E-01 0.65650E-02 0.31836E-02 0.11530E-02 0.11358E-02 0.33716E-02 0.73406E-02 0.11609E-01 0.14254E-01
 0.13845E-01 0.10383E-01 0.54575E-02 0.14333E-02 0.17948E-03 0.21616E-02 0.63732E-02 0.10988E-01 0.14248E-01 0.15141E-01
 0.82225E-02 0.52083E-02 0.24282E-02 0.11378E-02 0.26085E-02 0.74058E-02 0.14584E-01 0.21678E-01 0.25829E-01 0.25348E-01
 0.20578E-01 0.13549E-01 0.68472E-02 0.25189E-02 0.14550E-02 0.32643E-02 0.65564E-02 0.95835E-02 0.11019E-01 0.10435E-01
 0.39156E-02 0.16484E-02 0.44107E-03 0.22443E-02 0.85035E-02 0.18735E-01 0.29990E-01 0.38083E-01 0.39914E-01 0.35160E-01
 0.26134E-01 0.16199E-01 0.81039E-02 0.32170E-02 0.16017E-02 0.24058E-02 0.43019E-02 0.59788E-02 0.65709E-02 0.58057E-02
 0.13210E-02 0.16651E-03 0.12925E-02 0.68316E-02 0.17496E-01 0.31392E-01 0.44307E-01 0.51642E-01 0.50824E-01 0.42547E-01
 0.30123E-01 0.17579E-01 0.78705E-02 0.21261E-02 -.61751E-04 0.11956E-03 0.13761E-02 0.26560E-02 0.32273E-02 0.27149E-02
 -.24372E-04 0.53447E-03 0.46104E-02 0.13571E-01 0.27016E-01 0.42223E-01 0.54739E-01 0.60168E-01 0.56359E-01 0.44639E-01
 0.29185E-01 0.14835E-01 0.48228E-02 -.17222E-03 -.13782E-02 -.59551E-03 0.72771E-03 0.16763E-02 0.17458E-02 0.92309E-03
 -.55610E-04 0.24632E-02 0.93023E-02 0.20699E-01 0.35233E-01 0.49639E-01 0.59475E-01 0.60897E-01 0.52826E-01 0.37944E-01
 0.21488E-01 0.84765E-02 0.13363E-02 -.52398E-03 0.62356E-03 0.24933E-02 0.36316E-02 0.34488E-02 0.20826E-02 0.40559E-03
 0.12333E-02 0.48965E-02 0.13469E-01 0.26001E-01 0.39829E-01 0.51011E-01 0.55604E-01 0.51519E-01 0.39898E-01 0.24856E-01
 0.11487E-01 0.33664E-02 0.12140E-02 0.33085E-02 0.69374E-02 0.97225E-02 0.10276E-01 0.83777E-02 0.49526E-02 0.18408E-02
 0.25521E-02 0.60108E-02 0.14882E-01 0.26801E-01 0.37827E-01 0.43992E-01 0.43047E-01 0.35455E-01 0.24095E-01 0.12912E-01
 0.53081E-02 0.30123E-02 0.57469E-02 0.11567E-01 0.17653E-01 0.21320E-01 0.20976E-01 0.16715E-01 0.10307E-01 0.46089E-02
 0.25543E-02 0.49685E-02 0.12628E-01 0.22033E-01 0.29040E-01 0.30898E-01 0.27348E-01 0.20249E-01 0.12373E-01 0.63810E-02
 0.43433E-02 0.73509E-02 0.14940E-01 0.24764E-01 0.33196E-01 0.36852E-01 0.34161E-01 0.26056E-01 0.15553E-01 0.65830E-02
 0.16656E-02 0.28551E-02 0.81057E-02 0.14035E-01 0.17669E-01 0.17673E-01 0.14498E-01 0.97359E-02 0.54761E-02 0.40018E-02
 0.73614E-02 0.16368E-01 0.29501E-01 0.42837E-01 0.51577E-01 0.52354E-01 0.44852E-01 0.31796E-01 0.17621E-01 0.66696E-02
 0.10681E-02 0.11718E-02 0.37959E-02 0.67758E-02 0.84743E-02 0.80541E-02 0.56776E-02 0.26861E-02 0.15133E-02 0.49632E-02
 0.14804E-01 0.30288E-01 0.47663E-01 0.61372E-01 0.66554E-01 0.61427E-01 0.48072E-01 0.31230E-01 0.15959E-01 0.56145E-02
 0.74059E-03 0.35281E-03 0.13139E-02 0.25370E-02 0.30231E-02 0.20526E-02 -.25028E-04 -.12574E-02 0.13683E-02 0.10346E-01
 0.25905E-01 0.45147E-01 0.62693E-01 0.72774E-01 0.71880E-01 0.60558E-01 0.43139E-01 0.25439E-01 0.11889E-01 0.39792E-02
 0.27479E-03 0.45180E-03 0.10240E-02 0.13302E-02 0.83079E-03 -.56085E-03 -.17964E-02 -.61291E-03 0.55126E-02 0.17848E-01
 0.35196E-01 0.53677E-01 0.67803E-01 0.72679E-01 0.66428E-01 0.51387E-01 0.33020E-01 0.17024E-01 0.65901E-02 0.16601E-02
 0.73429E-03 0.21076E-02 0.28151E-02 0.25586E-02 0.15362E-02 0.36345E-03 0.22498E-03 0.28332E-02 0.98558E-02 0.21868E-01
 0.37336E-01 0.52409E-01 0.62094E-01 0.62558E-01 0.53296E-01 0.37642E-01 0.21080E-01 0.84029E-02 0.16278E-02 -.14294E-03
 0.36544E-02 0.57375E-02 0.62711E-02 0.54744E-02 0.40397E-02 0.26962E-02 0.23605E-02 0.44180E-02 0.10337E-01 0.20475E-01
 0.32968E-01 0.43905E-01 0.49057E-01 0.46141E-01 0.36110E-01 0.22646E-01 0.10280E-01 0.23190E-02 -.34158E-03 0.92432E-03
 0.86618E-02 0.10497E-01 0.10326E-01 0.85493E-02 0.58896E-02 0.31910E-02 0.16918E-02 0.30094E-02 0.82464E-02 0.16748E-01
 0.25777E-01 0.31751E-01 0.32221E-01 0.27141E-01 0.18657E-01 0.98601E-02 0.34599E-02 0.90124E-03 0.20270E-02 0.53087E-02
 0.13774E-01 0.14877E-01 0.13581E-01 0.10201E-01 0.57160E-02 0.16709E-02 -.14785E-03 0.15124E-02 0.64313E-02 0.12628E-01
 0.17268E-01 0.18282E-01 0.15502E-01 0.10511E-01 0.55207E-02 0.22620E-02 0.15326E-02 0.32690E-02 0.67336E-02 0.10698E-01
 0.17497E-01 0.17695E-01 0.15029E-01 0.10114E-01 0.45925E-02 0.47821E-03 -.79719E-03 0.90112E-03 0.43362E-02 0.75187E-02
 0.87224E-02 0.73646E-02 0.42536E-02 0.10522E-02 -.67111E-03 -.16747E-03 0.23983E-02 0.63331E-02 0.10794E-01 0.14865E-01
 0.81055E-02 0.81459E-02 0.66351E-02 0.42608E-02 0.22587E-02 0.13349E-02 0.12028E-02 0.11781E-02 0.99589E-03 0.87353E-03
 0.93231E-03 0.90495E-03 0.54350E-03 0.98558E-04 0.14113E-03 0.94184E-03 0.22451E-02 0.36959E-02 0.52374E-02 0.68631E-02
 0.76033E-02 0.67572E-02 0.51176E-02 0.34320E-02 0.21740E-02 0.12176E-02 0.26351E-03 -.51184E-03 -.49104E-03 0.59729E-03
 0.20983E-02 0.28727E-02 0.23676E-02 0.11473E-02 0.34175E-03 0.67719E-03 0.20805E-02 0.40150E-02 0.59133E-02 0.72643E-02
 0.53305E-02 0.40000E-02 0.28417E-02 0.19776E-02 0.12274E-02 0.47399E-03 -.92618E-04 -.91163E-04 0.67015E-03 0.18951E-02
 0.28842E-02 0.29957E-02 0.21521E-02 0.98167E-03 0.43903E-03 0.11482E-02 0.29467E-02 0.49762E-02 0.62546E-02 0.62965E-02
 0.28320E-02 0.17819E-02 0.10915E-02 0.69332E-03 0.69135E-03 0.12522E-02 0.21763E-02 0.28611E-02 0.28418E-02 0.22540E-02
 0.16134E-02 0.12134E-02 0.94527E-03 0.73672E-03 0.91338E-03 0.18701E-02 0.34173E-02 0.47030E-02 0.49332E-02 0.40899E-02
 0.17944E-02 0.98485E-03 0.32418E-03 0.28008E-03 0.12867E-02 0.30961E-02 0.46173E-02 0.47358E-02 0.33792E-02 0.16163E-02
 0.61041E-03 0.58233E-03 0.89390E-03 0.99537E-03 0.10200E-02 0.14012E-02 0.21625E-02 0.28240E-02 0.29448E-02 0.25172E-02
 0.15703E-02 0.72251E-03 0.15860E-03 0.48281E-03 0.17735E-02 0.34094E-02 0.44734E-02 0.44548E-02 0.36142E-02 0.26616E-02
 0.20859E-02 0.18074E-02 0.14442E-02 0.82943E-03 0.21767E-03 0.24653E-04 0.42787E-03 0.12071E-02 0.18945E-02 0.20604E-02
 0.83311E-03 0.46997E-03 0.49587E-03 0.87918E-03 0.14659E-02 0.22790E-02 0.33913E-02 0.45561E-02 0.51834E-02 0.48244E-02
 0.36205E-02 0.21699E-02 0.98103E-03 0.16749E-03 -.33512E-03 -.45609E-03 -.72428E-04 0.65021E-03 0.12185E-02 0.12420E-02
 0.77846E-04 0.81001E-03 0.14956E-02 0.17148E-02 0.17305E-02 0.23177E-02 0.37840E-02 0.53427E-02 0.57285E-02 0.44700E-02
 0.23834E-02 0.74655E-03 0.13541E-03 0.17507E-03 0.25286E-03 0.16946E-03 0.53330E-04 -.47199E-04 -.19025E-03 -.24786E-03
 0.18112E-03 0.15323E-02 0.25464E-02 0.30173E-02 0.32773E-02 0.37413E-02 0.42990E-02 0.43179E-02 0.33398E-02 0.16946E-02
 0.29791E-03 -.17143E-03 0.16971E-03 0.64557E-03 0.68533E-03 0.19984E-03 -.54344E-03 -.11893E-02 -.14041E-02 -.93909E-03
 0.24433E-03 0.12835E-02 0.25444E-02 0.37352E-02 0.43496E-02 0.40636E-02 0.30520E-02 0.18635E-02 0.98020E-03 0.52084E-03
 0.32751E-03 0.22338E-03 0.11643E-03 -.72496E-04 -.42990E-03 -.92923E-03 -.13587E-02 -.14636E-02 -.11622E-02 -.56098E-03
 -.63512E-03 -.68397E-04 0.14006E-02 0.29485E-02 0.34696E-02 0.27291E-02 0.16115E-02 0.11462E-02 0.14327E-02 0.16698E-02
 0.11401E-02 -.58969E-04 -.12701E-02 -.19959E-02 -.21804E-02 -.19444E-02 -.13845E-02 -.72197E-03 -.35922E-03 -.47869E-03
 -.11732E-02 -.85329E-03 0.22531E-03 0.13341E-02 0.18030E-02 0.17193E-02 0.16902E-02 0.19948E-02 0.21878E-02 0.16203E-02
 0.20447E-03 -.14757E-02 -.27290E-02 -.32523E-02 -.30911E-02 -.23851E-02 -.13710E-02 -.51647E-03 -.31129E-03 -.75043E-03
 -.57605E-04 -.23131E-03 -.15777E-03 0.31455E-03 0.10080E-02 0.15436E-02 0.16086E-02 0.11550E-02 0.38124E-03 -.46033E-03
 -.12450E-02 -.19907E-02 -.27174E-02 -.33099E-02 -.35315E-02 -.31926E-02 -.23334E-02 -.12612E-02 -.39345E-03 -.54112E-05
 0.13945E-02 0.63847E-03 0.74403E-04 0.28622E-03 0.85705E-03 0.87338E-03 -.35787E-05 -.11432E-02 -.16689E-02 -.14220E-02
 -.10712E-02 -.13413E-02 -.23113E-02 -.34663E-02 -.42132E-02 -.41982E-02 -.32975E-02 -.16497E-02 0.18744E-03 0.13703E-02
 0.13916E-02 0.89173E-03 0.60700E-03 0.71804E-03 0.69625E-03 0.76112E-04 -.84612E-03 -.13073E-02 -.10131E-02 -.53664E-03
 -.69127E-03 -.16644E-02 -.29155E-02 -.38081E-02 -.40962E-02 -.37856E-02 -.28375E-02 -.13014E-02 0.34828E-03 0.13610E-02
 0.88106E-03 0.13821E-02 0.15490E-02 0.14057E-02 0.10992E-02 0.85063E-03 0.78391E-03 0.74112E-03 0.34371E-03 -.64450E-03
 -.19833E-02 -.30520E-02 -.33504E-02 -.29156E-02 -.22287E-02 -.17306E-02 -.14637E-02 -.11628E-02 -.61115E-03 0.14555E-03
 0.19142E-02 0.28961E-02 0.29165E-02 0.24837E-02 0.22980E-02 0.24343E-02 0.22996E-02 0.13417E-02 -.32803E-03 -.20192E-02
 -.30277E-02 -.30566E-02 -.22492E-02 -.10538E-02 -.85523E-04 0.13786E-03 -.39301E-03 -.10155E-02 -.86093E-03 0.33530E-03
 0.42553E-02 0.48253E-02 0.43928E-02 0.36276E-02 0.30159E-02 0.23782E-02 0.13360E-02 -.69343E-05 -.10956E-02 -.15584E-02
 -.15412E-02 -.13461E-02 -.98829E-03 -.34255E-03 0.39439E-03 0.73819E-03 0.55540E-03 0.44002E-03 0.11606E-02 0.27299E-02
 0.62076E-02 0.64462E-02 0.57350E-02 0.43009E-02 0.25469E-02 0.94145E-03 -.32080E-04 -.10287E-03 0.46955E-03 0.93952E-03
 0.66473E-03 -.26900E-03 -.10943E-02 -.10977E-02 -.26296E-03 0.85883E-03 0.18308E-02 0.27310E-02 0.38558E-02 0.51726E-02
 0.73800E-02 0.77197E-02 0.66954E-02 0.44688E-02 0.20408E-02 0.56793E-03 0.50369E-03 0.13335E-02 0.20701E-02 0.19978E-02
 0.10689E-02 -.20657E-03 -.11362E-02 -.12160E-02 -.36335E-03 0.10727E-02 0.25773E-02 0.38626E-02 0.50274E-02 0.62635E-02
 -.18871E-01 -.16517E-01 -.12533E-01 -.79357E-02 -.33217E-02 0.48304E-03 0.23000E-02 0.15273E-02 -.97795E-03 -.33334E-02
 -.40849E-02 -.31478E-02 -.14133E-02 0.17193E-03 0.88673E-03 -.55284E-04 -.33509E-02 -.87397E-02 -.14504E-01 -.18324E-01
 -.17252E-01 -.14274E-01 -.97141E-02 -.46996E-02 -.56760E-03 0.12883E-02 0.20957E-03 -.29082E-02 -.58911E-02 -.67766E-02
 -.52108E-02 -.24390E-02 -.78381E-04 0.93296E-03 0.33228E-03 -.19810E-02 -.59648E-02 -.10925E-01 -.15371E-01 -.17726E-01
 -.14269E-01 -.11101E-01 -.63981E-02 -.20885E-02 -.10335E-03 -.13835E-02 -.53596E-02 -.10181E-01 -.13588E-01 -.14024E-01
 -.11396E-01 -.70496E-02 -.29583E-02 -.66853E-03 -.70784E-03 -.27243E-02 -.59950E-02 -.97368E-02 -.13053E-01 -.14871E-01
 -.98133E-02 -.65677E-02 -.29418E-02 -.11045E-02 -.24058E-02 -.68499E-02 -.13372E-01 -.20187E-01 -.25003E-01 -.25697E-01
 -.21582E-01 -.14264E-01 -.69057E-02 -.22249E-02 -.97975E-03 -.22184E-02 -.46435E-02 -.74319E-02 -.98960E-02 -.10998E-01
 -.40036E-02 -.17909E-02 -.87729E-03 -.27130E-02 -.78681E-02 -.15976E-01 -.25738E-01 -.34723E-01 -.39676E-01 -.38039E-01
 -.29896E-01 -.18467E-01 -.82512E-02 -.22532E-02 -.64624E-03 -.17162E-02 -.36540E-02 -.53937E-02 -.62950E-02 -.58345E-02
 0.50201E-03 0.60609E-03 -.17103E-02 -.75475E-02 -.17283E-01 -.29822E-01 -.42258E-01 -.50577E-01 -.51440E-01 -.44123E-01
 -.31199E-01 -.17296E-01 -.66624E-02 -.12038E-02 -.17863E-03 -.13904E-02 -.27342E-02 -.30748E-02 -.22713E-02 -.80721E-03
 0.14608E-02 0.26604E-04 -.48458E-02 -.14614E-01 -.28926E-01 -.44534E-01 -.56311E-01 -.59956E-01 -.54347E-01 -.41859E-01
 -.26785E-01 -.13297E-01 -.40896E-02 0.12623E-03 0.47659E-03 -.83387E-03 -.17561E-02 -.14180E-02 -.19229E-03 0.10443E-02
 0.21699E-03 -.15368E-02 -.83080E-02 -.21127E-01 -.37739E-01 -.52826E-01 -.60818E-01 -.59124E-01 -.49192E-01 -.34972E-01
 -.20581E-01 -.89815E-02 -.17591E-02 0.88137E-03 0.13920E-03 -.18785E-02 -.32846E-02 -.33038E-02 -.21897E-02 -.64693E-03
 -.97561E-03 -.29522E-02 -.10982E-01 -.24441E-01 -.39660E-01 -.51363E-01 -.55384E-01 -.50719E-01 -.39604E-01 -.25943E-01
 -.13498E-01 -.48287E-02 -.97665E-03 -.14704E-02 -.45989E-02 -.80944E-02 -.10043E-01 -.95292E-02 -.67956E-02 -.31753E-02
 -.23001E-02 -.48220E-02 -.12621E-01 -.23807E-01 -.35106E-01 -.42750E-01 -.43827E-01 -.37704E-01 -.26610E-01 -.14699E-01
 -.60313E-02 -.28006E-02 -.48333E-02 -.10239E-01 -.16382E-01 -.20654E-01 -.21168E-01 -.17507E-01 -.11157E-01 -.50513E-02
 -.41044E-02 -.64771E-02 -.12425E-01 -.19991E-01 -.26938E-01 -.30652E-01 -.28961E-01 -.21810E-01 -.12105E-01 -.44135E-02
 -.23431E-02 -.67076E-02 -.15625E-01 -.25805E-01 -.33751E-01 -.36605E-01 -.33120E-01 -.24545E-01 -.14412E-01 -.67782E-02
 -.42349E-02 -.56649E-02 -.96337E-02 -.14141E-01 -.17333E-01 -.17505E-01 -.13895E-01 -.77258E-02 -.22027E-02 -.98347E-03
 -.61844E-02 -.17307E-01 -.31481E-01 -.44482E-01 -.52045E-01 -.51411E-01 -.42735E-01 -.29351E-01 -.16229E-01 -.74010E-02
 -.12690E-02 -.23070E-02 -.53066E-02 -.77553E-02 -.82306E-02 -.65782E-02 -.36578E-02 -.10488E-02 -.83560E-03 -.51891E-02
 -.15425E-01 -.30781E-01 -.47813E-01 -.61266E-01 -.66340E-01 -.61091E-01 -.47459E-01 -.30266E-01 -.14877E-01 -.49306E-02
 0.20576E-02 0.55532E-03 -.18562E-02 -.28641E-02 -.22084E-02 -.99671E-03 -.35061E-03 -.10199E-02 -.41608E-02 -.11716E-01
 -.25086E-01 -.42954E-01 -.60586E-01 -.71824E-01 -.72426E-01 -.62228E-01 -.44862E-01 -.25778E-01 -.10041E-01 -.69317E-03
 0.22324E-02 0.63283E-03 -.85405E-03 -.10763E-02 -.48088E-03 0.15970E-04 -.17105E-03 -.17967E-02 -.66263E-02 -.16839E-01
 -.32808E-01 -.51327E-01 -.66412E-01 -.72477E-01 -.67396E-01 -.53276E-01 -.34923E-01 -.17543E-01 -.49805E-02 0.12668E-02
 -.42757E-03 -.15507E-02 -.24047E-02 -.24339E-02 -.15439E-02 -.11736E-03 0.67842E-03 -.12313E-02 -.81064E-02 -.20805E-01
 -.37347E-01 -.53003E-01 -.62310E-01 -.61902E-01 -.52238E-01 -.37144E-01 -.21654E-01 -.96667E-02 -.27301E-02 -.22975E-03
 -.37584E-02 -.50493E-02 -.59978E-02 -.56101E-02 -.33763E-02 -.32368E-03 0.10593E-02 -.18142E-02 -.10031E-01 -.22390E-01
 -.35670E-01 -.45672E-01 -.48822E-01 -.43900E-01 -.32928E-01 -.20250E-01 -.10107E-01 -.44306E-02 -.25579E-02 -.27479E-02
 -.77567E-02 -.97867E-02 -.10480E-01 -.89001E-02 -.53297E-02 -.17052E-02 -.53631E-03 -.33217E-02 -.98378E-02 -.18462E-01
 -.26738E-01 -.31871E-01 -.31626E-01 -.25707E-01 -.16469E-01 -.77864E-02 -.26488E-02 -.15378E-02 -.29759E-02 -.53200E-02
 -.13027E-01 -.14603E-01 -.13781E-01 -.10801E-01 -.67549E-02 -.31949E-02 -.14554E-02 -.22203E-02 -.54506E-02 -.10350E-01
 -.15276E-01 -.18055E-01 -.17032E-01 -.12310E-01 -.60041E-02 -.10436E-02 0.59074E-03 -.12158E-02 -.51566E-02 -.95541E-02
 -.17578E-01 -.17097E-01 -.14332E-01 -.10401E-01 -.61426E-02 -.22213E-02 0.49064E-03 0.10561E-02 -.79710E-03 -.41468E-02
 -.72229E-02 -.84167E-02 -.71500E-02 -.40834E-02 -.76153E-03 0.10020E-02 -.12247E-03 -.42413E-02 -.99643E-02 -.15031E-01
 -.81195E-02 -.63286E-02 -.45900E-02 -.33029E-02 -.20020E-02 -.51532E-03 0.51303E-03 0.45880E-03 -.33609E-03 -.89730E-03
 -.79784E-03 -.55742E-03 -.75322E-03 -.11696E-02 -.12490E-02 -.11976E-02 -.20474E-02 -.43473E-02 -.71343E-02 -.86590E-02
 -.71209E-02 -.56078E-02 -.37849E-02 -.19723E-02 -.50792E-03 0.21283E-04 -.71511E-03 -.21013E-02 -.28219E-02 -.20806E-02
 -.44947E-03 0.72032E-03 0.68172E-03 -.14934E-03 -.10136E-02 -.18386E-02 -.31531E-02 -.51056E-02 -.69590E-02 -.77303E-02
 -.64734E-02 -.52459E-02 -.30713E-02 -.11204E-02 -.37779E-03 -.96406E-03 -.21612E-02 -.30123E-02 -.29473E-02 -.20253E-02
 -.77484E-03 0.16401E-03 0.39556E-03 -.44331E-04 -.80040E-03 -.15632E-02 -.23698E-02 -.34932E-02 -.49650E-02 -.62408E-02
 -.50665E-02 -.35228E-02 -.15992E-02 -.59545E-03 -.69325E-03 -.11308E-02 -.13943E-02 -.17613E-02 -.25646E-02 -.33642E-02
 -.33044E-02 -.22166E-02 -.93956E-03 -.37979E-03 -.56597E-03 -.92865E-03 -.13071E-02 -.21734E-02 -.37072E-02 -.50691E-02
 -.19295E-02 -.82083E-03 -.32240E-03 -.57061E-03 -.87926E-03 -.80996E-03 -.93378E-03 -.21193E-02 -.41681E-02 -.56343E-02
 -.52454E-02 -.32787E-02 -.12526E-02 -.36471E-03 -.55390E-03 -.10857E-02 -.15968E-02 -.21964E-02 -.27707E-02 -.27719E-02
 0.58768E-03 0.32585E-03 -.46330E-03 -.13177E-02 -.19680E-02 -.25785E-02 -.34898E-02 -.46845E-02 -.55707E-02 -.54069E-02
 -.40074E-02 -.20252E-02 -.50601E-03 -.11916E-03 -.73902E-03 -.16537E-02 -.21181E-02 -.17965E-02 -.87569E-03 0.10599E-03
 0.43338E-03 -.31775E-03 -.11245E-02 -.23161E-02 -.40875E-02 -.58382E-02 -.65640E-02 -.58891E-02 -.44267E-02 -.30320E-02
 -.19581E-02 -.97113E-03 -.97396E-04 0.18174E-03 -.37043E-03 -.11645E-02 -.12652E-02 -.43726E-03 0.57356E-03 0.89725E-03
 -.47373E-03 -.38117E-03 -.80485E-03 -.25658E-02 -.52073E-02 -.70455E-02 -.68084E-02 -.49783E-02 -.31888E-02 -.24128E-02
 -.21411E-02 -.14039E-02 -.15448E-03 0.75482E-03 0.77726E-03 0.33098E-03 0.11252E-03 0.17287E-03 0.65332E-04 -.29462E-03
 0.38966E-04 0.47912E-03 -.11551E-03 -.19346E-02 -.41269E-02 -.54799E-02 -.55090E-02 -.47691E-02 -.40805E-02 -.36180E-02
 -.29005E-02 -.15714E-02 0.48667E-04 0.12511E-02 0.16110E-02 0.12402E-02 0.50776E-03 -.24438E-03 -.69791E-03 -.57696E-03
 0.41680E-03 0.11992E-04 -.58834E-03 -.13511E-02 -.24621E-02 -.38777E-02 -.50189E-02 -.51702E-02 -.42021E-02 -.27239E-02
 -.14511E-02 -.56030E-03 0.21058E-03 0.95453E-03 0.13564E-02 0.11383E-02 0.54106E-03 0.13940E-03 0.20626E-03 0.44755E-03
 -.98906E-03 -.19121E-02 -.18091E-02 -.14357E-02 -.19320E-02 -.32813E-02 -.41169E-02 -.32705E-02 -.11998E-02 0.47788E-03
 0.75982E-03 0.17733E-03 -.10533E-03 0.31621E-03 0.92424E-03 0.12423E-02 0.13942E-02 0.15672E-02 0.14099E-02 0.45453E-03
 -.19254E-02 -.24829E-02 -.21210E-02 -.17016E-02 -.18385E-02 -.21000E-02 -.15641E-02 -.73146E-04 0.14026E-02 0.17851E-02
 0.10551E-02 0.18618E-03 0.39549E-04 0.60743E-03 0.13500E-02 0.19121E-02 0.22233E-02 0.20920E-02 0.11817E-02 -.42190E-03
 -.16655E-03 -.82406E-03 -.13604E-02 -.14393E-02 -.98903E-03 -.31499E-03 0.16961E-03 0.30503E-03 0.26042E-03 0.29843E-03
 0.53425E-03 0.91899E-03 0.13594E-02 0.17676E-02 0.20236E-02 0.19997E-02 0.16819E-02 0.12191E-02 0.77898E-03 0.36170E-03
 0.19501E-02 0.52338E-03 -.72770E-03 -.77566E-03 -.35586E-04 0.19103E-03 -.64789E-03 -.16686E-02 -.16152E-02 -.29206E-03
 0.13464E-02 0.23462E-02 0.25814E-02 0.24032E-02 0.19442E-02 0.11798E-02 0.48313E-03 0.53820E-03 0.14488E-02 0.22820E-02
 0.12957E-02 -.80555E-05 -.74475E-03 -.49775E-03 -.89108E-04 -.42687E-03 -.12721E-02 -.15106E-02 -.53579E-03 0.10428E-02
 0.21737E-02 0.24921E-02 0.23798E-02 0.21335E-02 0.15901E-02 0.71103E-03 0.90483E-04 0.39962E-03 0.13941E-02 0.19462E-02
 -.92205E-03 -.11441E-02 -.12981E-02 -.12133E-02 -.84716E-03 -.27001E-03 0.38812E-03 0.94621E-03 0.12229E-02 0.11882E-02
 0.10621E-02 0.11586E-02 0.15535E-02 0.19355E-02 0.18671E-02 0.12188E-02 0.31163E-03 -.39085E-03 -.70041E-03 -.79151E-03
 -.20738E-02 -.21433E-02 -.27365E-02 -.28499E-02 -.16915E-02 0.23590E-03 0.15497E-02 0.14258E-02 0.37655E-03 -.43059E-03
 -.35771E-03 0.36529E-03 0.12236E-02 0.19109E-02 0.21901E-02 0.16946E-02 0.28830E-03 -.14498E-02 -.25225E-02 -.25126E-02
 -.29575E-02 -.40023E-02 -.49559E-02 -.46158E-02 -.28325E-02 -.88296E-03 -.11069E-03 -.50579E-03 -.94301E-03 -.63922E-03
 0.80771E-04 0.52642E-03 0.65862E-03 0.94346E-03 0.13931E-02 0.13240E-02 0.27659E-03 -.12168E-02 -.22051E-02 -.25266E-02
 -.53695E-02 -.63794E-02 -.64068E-02 -.54227E-02 -.39664E-02 -.26953E-02 -.17710E-02 -.86488E-03 0.19366E-03 0.98459E-03
 0.91955E-03 0.41171E-04 -.83560E-03 -.90270E-03 -.18347E-03 0.52592E-03 0.45806E-03 -.52698E-03 -.20781E-02 -.37992E-02
 -.78417E-02 -.72210E-02 -.59379E-02 -.47813E-02 -.37492E-02 -.24167E-02 -.73459E-03 0.75062E-03 0.14171E-02 0.11127E-02
 0.16207E-03 -.95136E-03 -.17624E-02 -.18709E-02 -.11877E-02 -.28025E-03 -.22843E-03 -.17686E-02 -.44665E-02 -.69023E-02
 0.19092E-01 0.19079E-01 0.15333E-01 0.92532E-02 0.36428E-02 0.47000E-03 -.27043E-03 0.36548E-03 0.16493E-02 0.32326E-02
 0.43157E-02 0.37248E-02 0.12484E-02 -.15367E-02 -.23806E-02 -.35564E-03 0.35811E-02 0.79684E-02 0.12216E-01 0.16226E-01
 0.18093E-01 0.15875E-01 0.11305E-01 0.61544E-02 0.21649E-02 0.90749E-05 -.51032E-03 0.38853E-03 0.25992E-02 0.53813E-02
 0.70774E-02 0.62319E-02 0.31276E-02 -.97251E-04 -.11008E-02 0.91763E-03 0.50560E-02 0.98721E-02 0.14270E-01 0.17348E-01