unknown system                          
   1.00000000000000     
     2.573869    0.000000    0.000000
     1.286934    2.229036    0.000000
     0.000000    0.000000   30.304665
   Cu   H 
     4     1
Direct
  0.999706  0.000588  0.396567
  0.333186  0.333624  0.465140
  0.665829  0.668343  0.533594
  0.000801  0.998398  0.604216
  0.522907  0.954182  0.637503
 
   20   20  240
 -.18848340912E-01 -.17545830536E-01 -.13676316428E-01 -.84211962148E-02 -.33544210445E-02
 0.20220897090E-03 0.16066814000E-02 0.97353780394E-03 -.95600527387E-03 -.30349105913E-02
 -.40873125412E-02 -.34582954141E-02 -.14566446409E-02 0.71176237730E-03 0.15865214607E-02
 0.24178051149E-03 -.33130137284E-02 -.82616558210E-02 -.13357999491E-01 -.17264252286E-01
 -.17502119677E-01 -.14769304952E-01 -.99315306370E-02 -.45277072273E-02 -.39022361975E-03
 0.11445792266E-02 -.10279107700E-03 -.30124138527E-02 -.57232202644E-02 -.66484143337E-02
 -.53362204986E-02 -.26166096322E-02 0.11541426975E-04 0.12454063558E-02 0.49431498744E-03
 -.21394585660E-02 -.61322412245E-02 -.10708529655E-01 -.14860036133E-01 -.17440074079E-01
 -.13683336794E-01 -.10325423862E-01 -.57989081958E-02 -.16909610412E-02 0.27773287903E-03
 -.96170962247E-03 -.50476891799E-02 -.10094432987E-01 -.13626954019E-01 -.14014633395E-01
 -.11345909643E-01 -.71373889152E-02 -.32714065976E-02 -.10764373730E-02 -.10632908073E-02
 -.31013050649E-02 -.65882115761E-02 -.10513971856E-01 -.13636378282E-01 -.14868088099E-01
 -.88000515998E-02 -.59889758597E-02 -.30437272712E-02 -.12850014018E-02 -.21283566160E-02
 -.63450291809E-02 -.13226283484E-01 -.20475330189E-01 -.25207007174E-01 -.25478211900E-01
 -.21282132634E-01 -.14400817091E-01 -.73970070697E-02 -.24802248575E-02 -.77299125570E-03
 -.20967720570E-02 -.52181520251E-02 -.84581326871E-02 -.10425439840E-01 -.10492653747E-01
 -.40437852506E-02 -.24669466978E-02 -.17936795330E-02 -.32131240864E-02 -.78437260946E-02
 -.15926847877E-01 -.26035442344E-01 -.35109084015E-01 -.39670492216E-01 -.37643807142E-01
 -.29592858504E-01 -.18506854381E-01 -.82577783942E-02 -.17274293654E-02 0.29444771872E-03
 -.10281711063E-02 -.36192905617E-02 -.56700414351E-02 -.63075398543E-02 -.55778389291E-02
 -.18709035467E-03 0.58977249154E-04 -.20248874832E-02 -.76922588675E-02 -.17375884742E-01
 -.29928897987E-01 -.42360492889E-01 -.50618036169E-01 -.51394216342E-01 -.44020653769E-01
 -.31094016692E-01 -.17198489564E-01 -.65029308134E-02 -.87088406824E-03 0.38134896435E-03
 -.69809291639E-03 -.21460981654E-02 -.28447618433E-02 -.25081723180E-02 -.13993429005E-02
 0.18313200359E-02 0.83217738042E-03 -.43021940196E-02 -.14558709298E-01 -.28949683038E-01
 -.44274311373E-01 -.55970747044E-01 -.59961105178E-01 -.54693165066E-01 -.42115930876E-01
 -.26755328597E-01 -.13350866938E-01 -.46350722597E-02 -.68055246708E-03 0.10871324805E-03
 -.47202880745E-03 -.12090720416E-02 -.14170550344E-02 -.73611595636E-03 0.68703785358E-03
 0.13370042238E-02 -.64328325250E-03 -.81576895875E-02 -.21364301338E-01 -.37678488905E-01
 -.52382092388E-01 -.60553506639E-01 -.59399665806E-01 -.49636254852E-01 -.35021381432E-01
 -.20334319691E-01 -.91352738448E-02 -.26674912530E-02 -.25496469905E-03 -.43182013253E-03
 -.17801344344E-02 -.31184550311E-02 -.34619640461E-02 -.22863497678E-02 -.84310393383E-04
 -.96863595880E-03 -.33017897621E-02 -.11512940481E-01 -.24794764472E-01 -.39670978660E-01
 -.51227223766E-01 -.55383029095E-01 -.50851723921E-01 -.39585833815E-01 -.25580145841E-01
 -.12959499076E-01 -.44831191615E-02 -.10027780124E-02 -.17190101514E-02 -.48177670805E-02
 -.81822487990E-02 -.10035085057E-01 -.94351419837E-02 -.65900757713E-02 -.29514551510E-02
 -.32624295429E-02 -.53275879359E-02 -.12725289236E-01 -.23896869254E-01 -.35325260486E-01
 -.42876775794E-01 -.43690507907E-01 -.37472586546E-01 -.26507383170E-01 -.14585647414E-01
 -.55254400348E-02 -.18457160197E-02 -.39208376706E-02 -.99015442428E-02 -.16569224071E-01
 -.20821335691E-01 -.20993958420E-01 -.17318313903E-01 -.11499408040E-01 -.59733617789E-02
 -.41329720903E-02 -.58244162075E-02 -.11842241052E-01 -.20018061161E-01 -.27263975592E-01
 -.30650851800E-01 -.28626784171E-01 -.21766991588E-01 -.12675800529E-01 -.50656021886E-02
 -.23184619118E-02 -.60082399312E-02 -.15016499999E-01 -.25829677375E-01 -.34084175886E-01
 -.36608409405E-01 -.32783485666E-01 -.24502186305E-01 -.15001070856E-01 -.74710317920E-02
 -.33209754388E-02 -.48265354017E-02 -.93550359412E-02 -.14353318491E-01 -.17504856105E-01
 -.17327555244E-01 -.13678977333E-01 -.80046730627E-02 -.30441267464E-02 -.18965764536E-02
 -.67025079636E-02 -.17469358630E-01 -.31631652312E-01 -.44739165465E-01 -.52186692230E-01
 -.51268310231E-01 -.42464669410E-01 -.29176447447E-01 -.16043066545E-01 -.68706195973E-02
 -.12893967736E-02 -.25727990632E-02 -.55416123538E-02 -.78502993532E-02 -.82234609479E-02
 -.64756869221E-02 -.34291187250E-02 -.79706750711E-03 -.82472210440E-03 -.55793292298E-02
 -.16027600648E-01 -.31199641768E-01 -.47856776237E-01 -.61135755338E-01 -.66335479557E-01
 -.61211116692E-01 -.47401595465E-01 -.29832380974E-01 -.14262140244E-01 -.45378262069E-02
 0.97264038136E-03 0.25272961544E-04 -.17338604022E-02 -.26893261377E-02 -.23703194624E-02
 -.11103326296E-02 0.17931010777E-03 0.54489962174E-04 -.33127690262E-02 -.11590648503E-01
 -.25313298914E-01 -.42851268400E-01 -.60089752573E-01 -.71528551431E-01 -.72710629918E-01
 -.62712337531E-01 -.44955287809E-01 -.25551228888E-01 -.10177009363E-01 -.15570463831E-02
 0.19052380467E-02 0.10316954112E-02 -.28520860678E-03 -.10699506281E-02 -.10368819482E-02
 -.37151657902E-03 0.16183688939E-03 -.10120838046E-02 -.60644670143E-02 -.16722817403E-01
 -.32749704166E-01 -.50989797132E-01 -.66020260362E-01 -.72469936494E-01 -.67776044231E-01
 -.53608537961E-01 -.34984748492E-01 -.17668544705E-01 -.55519996552E-02 0.47924975665E-03
 0.25685097864E-03 -.96994151008E-03 -.21724155088E-02 -.26558755798E-02 -.21200672954E-02
 -.79908231996E-03 0.14008054202E-03 -.15176593157E-02 -.82057672526E-02 -.20862028029E-01
 -.37451098428E-01 -.53123862828E-01 -.62359548011E-01 -.61838276014E-01 -.52113297784E-01
 -.37044778988E-01 -.21595547626E-01 -.95547513326E-02 -.24273480264E-02 0.31809750519E-03
 -.37631600892E-02 -.53477143053E-02 -.59990091713E-02 -.53167945096E-02 -.33786129662E-02
 -.97601396018E-03 0.15349834172E-03 -.23170178573E-02 -.10037305402E-01 -.22414164855E-01
 -.36064462828E-01 -.46128396605E-01 -.48814826892E-01 -.43433959026E-01 -.32529200115E-01
 -.20218251154E-01 -.10080901539E-01 -.39029547409E-02 -.16356331157E-02 -.20943467623E-02
 -.87941186376E-02 -.10313778645E-01 -.99654620889E-02 -.78771813338E-02 -.47431182711E-02
 -.18079258340E-02 -.73782753728E-03 -.30916917280E-02 -.93974793487E-02 -.18376214839E-01
 -.27065335792E-01 -.32085630487E-01 -.31392696780E-01 -.25370381382E-01 -.16550082181E-01
 -.82180353492E-02 -.28623134445E-02 -.13214257802E-02 -.28710188818E-02 -.59171875833E-02
 -.13589503083E-01 -.14601352046E-01 -.13224538274E-01 -.10060714209E-01 -.61776253256E-02
 -.28081196658E-02 -.10841625944E-02 -.17984026906E-02 -.51061041859E-02 -.10199037800E-01
 -.15257853093E-01 -.18041876629E-01 -.17037597655E-01 -.12470252365E-01 -.63615383577E-02
 -.14620438575E-02 0.23496433599E-03 -.15971040369E-02 -.57477735944E-02 -.10312828526E-01
 -.17282283203E-01 -.17367242340E-01 -.14866749960E-01 -.10652735342E-01 -.59850572358E-02
 -.20369604430E-02 0.37603969332E-03 0.80319496279E-03 -.81262544830E-03 -.38906026509E-02
 -.70546203603E-02 -.85774503805E-02 -.74192659935E-02 -.40926617725E-02 -.51873998500E-03
 0.11289234278E-02 -.29371663607E-03 -.44054813101E-02 -.97288779048E-02 -.14494881185E-01
 -.76144044417E-02 -.69048864566E-02 -.53626433662E-02 -.35450538918E-02 -.19393699539E-02
 -.82454818946E-03 -.26123084615E-03 -.13981559108E-03 -.26342367723E-03 -.45361663549E-03
 -.61787669249E-03 -.72557511360E-03 -.74613279084E-03 -.66962730806E-03 -.62413246776E-03
 -.92831865180E-03 -.19188964021E-02 -.36295486757E-02 -.56163438927E-02 -.71434640168E-02
 -.69132264130E-02 -.57034826937E-02 -.37076928313E-02 -.16403565572E-02 -.29808854384E-03
 -.16275115524E-03 -.10512184873E-02 -.21299869098E-02 -.24492647492E-02 -.16605377164E-02
 -.28621835764E-03 0.74175784912E-03 0.84580103985E-03 0.14363464957E-03 -.88703509367E-03
 -.19634776987E-02 -.31614008078E-02 -.45930425584E-02 -.60440147038E-02 -.69841161569E-02
 -.55050565786E-02 -.41667259995E-02 -.22830099173E-02 -.64625655000E-03 0.22684857086E-04
 -.47742466198E-03 -.16271246328E-02 -.24828885266E-02 -.23494388038E-02 -.13032237762E-02
 -.90807851798E-04 0.51567642692E-03 0.30141203084E-03 -.38851698394E-03 -.11351572424E-02
 -.18610680970E-02 -.27720245414E-02 -.39665316142E-02 -.51663233913E-02 -.58278862888E-02
 -.37892972878E-02 -.27654201497E-02 -.16132677418E-02 -.72523224861E-03 -.28279427428E-03
 -.25814980879E-03 -.52922880570E-03 -.97214219254E-03 -.14622843316E-02 -.18384444358E-02
 -.19253397434E-02 -.16345030838E-02 -.10646166818E-02 -.50424453882E-03 -.31013993126E-03
 -.72077277980E-03 -.17057186689E-02 -.29384523109E-02 -.39267350218E-02 -.42520609400E-02
 -.18414424680E-02 -.14357632761E-02 -.11985961272E-02 -.92686339934E-03 -.42179399473E-03
 0.13947035090E-03 0.20976844943E-03 -.62549805193E-03 -.21109123883E-02 -.33541247825E-02
 -.34957756116E-02 -.24165272207E-02 -.82706787341E-03 0.30307016367E-03 0.42558544337E-03
 -.33843574971E-03 -.14368141655E-02 -.22906833459E-02 -.25790130438E-02 -.23307064681E-02
 -.84737573275E-04 -.22506545129E-03 -.68770609531E-03 -.10779535173E-02 -.11514890772E-02
 -.10982490437E-02 -.13566265676E-02 -.20899702526E-02 -.28870592828E-02 -.30658390790E-02
 -.23142458960E-02 -.10200086333E-02 0.36978719169E-04 0.30613048030E-03 -.17860590177E-03
 -.94180270639E-03 -.14612457973E-02 -.14645299174E-02 -.10103685503E-02 -.41781790125E-03
 0.77144378891E-03 0.50069397847E-03 -.33537428303E-03 -.15256548543E-02 -.26598798028E-02
 -.33386474519E-02 -.33627436285E-02 -.27982113955E-02 -.19145085580E-02 -.10520946066E-02
 -.47910903662E-03 -.29036507714E-03 -.39628799075E-03 -.60970718981E-03 -.76692475500E-03
 -.78916149548E-03 -.65500817732E-03 -.35448547021E-03 0.89910963354E-04 0.54915208271E-03
 0.63791195400E-03 0.61371321737E-03 -.19531862690E-03 -.17155996245E-02 -.32608963510E-02
 -.39617815764E-02 -.34457725366E-02 -.21585497910E-02 -.99733151421E-03 -.57816726106E-03
 -.80640197941E-03 -.10975127378E-02 -.96285757271E-03 -.39277113909E-03 0.23940023509E-03
 0.55641619157E-03 0.47110246950E-03 0.20693574504E-03 0.96021893782E-04 0.30317494785E-03
 0.11114422744E-03 0.34388133117E-03 -.24107950480E-05 -.97753659239E-03 -.20855629510E-02
 -.27049335798E-02 -.26461835889E-02 -.22628962479E-02 -.20086153319E-02 -.19424842992E-02
 -.17164064543E-02 -.10114077457E-02 0.85091902889E-04 0.11335970569E-02 0.16975707519E-02
 0.16200437775E-02 0.10490150686E-02 0.32101240744E-03 -.18149699738E-03 -.21713027481E-03
 -.40347227153E-03 -.20228752873E-03 0.23281147250E-04 -.12884175413E-03 -.79266907726E-03
 -.17620015227E-02 -.26404409533E-02 -.30505599558E-02 -.27862692040E-02 -.18914979260E-02
 -.65218042981E-03 0.53632577976E-03 0.13858601809E-02 0.18514702202E-02 0.20520532518E-02
 0.20593911685E-02 0.18023537864E-02 0.12101201716E-02 0.42309039854E-03 -.21051182364E-03
 -.84203118072E-03 -.96870806530E-03 -.58355412464E-03 -.37294567536E-03 -.80046187357E-03
 -.16821989454E-02 -.23272293516E-02 -.21381581312E-02 -.11274545163E-02 0.11720178966E-03
 0.95975871560E-03 0.12307299582E-02 0.12839492922E-02 0.16015472479E-02 0.23329153686E-02
 0.31454048625E-02 0.34667693625E-02 0.29129290574E-02 0.15988804760E-02 0.11574006989E-03
 -.86728841673E-03 -.14303304034E-02 -.13827889630E-02 -.11759022664E-02 -.10927795026E-02
 -.10024874568E-02 -.60768206141E-03 0.10703764472E-03 0.77105560215E-03 0.10124585413E-02
 0.89351994535E-03 0.89575100047E-03 0.14687076819E-02 0.26179654253E-02 0.39025450910E-02
 0.47503822438E-02 0.47621232516E-02 0.38442125098E-02 0.22362246038E-02 0.46454999345E-03
 -.12057150317E-03 -.98516511297E-03 -.13448259180E-02 -.11461839076E-02 -.53740181043E-03
 0.17997722568E-03 0.65151573729E-03 0.65874153381E-03 0.33330438832E-03 0.17394193869E-03
 0.72065009003E-03 0.20873971017E-02 0.37892524744E-02 0.50750971222E-02 0.54765798751E-02
 0.50638466352E-02 0.42199407941E-02 0.32406731697E-02 0.21806045586E-02 0.10207229800E-02
 0.85579193021E-03 0.12978921227E-04 -.50776845870E-03 -.45114755661E-03 -.48904442806E-04
 0.17285897675E-03 -.99113820902E-04 -.60195869020E-03 -.63165556137E-03 0.40091488102E-03
 0.24420927702E-02 0.47317722366E-02 0.62660904930E-02 0.64398948757E-02 0.54016680791E-02
 0.38860729788E-02 0.26745769606E-02 0.20892517245E-02 0.18790208098E-02 0.15511604108E-02
 0.93267080167E-03 0.39027800791E-03 -.13239296484E-03 -.43275275948E-03 -.60551324057E-03
 -.81762998053E-03 -.97312172730E-03 -.69510950817E-03 0.33657325195E-03 0.20543535694E-02
 0.39925035586E-02 0.55463872544E-02 0.62441567781E-02 0.58986853916E-02 0.46781913371E-02
 0.30924311314E-02 0.17882904442E-02 0.11704910473E-02 0.11309978319E-02 0.11852219173E-02
 -.23040763477E-03 -.50996904611E-03 -.98222276668E-03 -.13519868218E-02 -.13701311767E-02
 -.94314379592E-03 -.15209157604E-03 0.77556360122E-03 0.15924926780E-02 0.22345104985E-02
 0.28904469002E-02 0.37668714742E-02 0.47247251251E-02 0.52181499781E-02 0.47175586008E-02
 0.32486317596E-02 0.14748532942E-02 0.19198465186E-03 -.28215887187E-03 -.24754772706E-03
 -.19685182904E-02 -.22789962680E-02 -.25559278178E-02 -.23941589182E-02 -.15832102624E-02
 -.36581570799E-03 0.68559026201E-03 0.10975082567E-02 0.89789061033E-03 0.64690038486E-03
 0.10176766232E-02 0.22225378473E-02 0.37533503416E-02 0.46888174330E-02 0.43575208009E-02
 0.28303325851E-02 0.84686417633E-03 -.74452926607E-03 -.15584832925E-02 -.18098431952E-02
 -.37526002356E-02 -.42387658397E-02 -.41504383462E-02 -.33504894770E-02 -.20870243457E-02
 -.90957177869E-03 -.25714608140E-03 -.10775908738E-03 -.44637442699E-04 0.33679526769E-03
 0.10907112863E-02 0.19356545094E-02 0.25165219421E-02 0.26187669919E-02 0.22023613728E-02
 0.13499974267E-02 0.23148545279E-03 -.94347927009E-03 -.20217428605E-02 -.29636580002E-02
 -.55653039730E-02 -.59813567963E-02 -.54794259004E-02 -.43921630368E-02 -.32142016785E-02
 -.22418679421E-02 -.13767860487E-02 -.34888372066E-03 0.82931706208E-03 0.16987380982E-02
 0.17428094551E-02 0.95829340680E-03 -.31124170569E-04 -.49676589422E-03 -.25484475820E-03
 0.19342737443E-03 0.12274309685E-03 -.83731712937E-03 -.24903224112E-02 -.42692436868E-02
 -.70947436689E-02 -.70381196817E-02 -.60742385326E-02 -.47420597618E-02 -.34399339190E-02
 -.22083417217E-02 -.88822448517E-03 0.49311425092E-03 0.15176858427E-02 0.16353989101E-02
 0.70103830002E-03 -.73896155594E-03 -.17606109327E-02 -.17627999039E-02 -.95250134996E-03
 -.19633621190E-03 -.37725028534E-03 -.17809905661E-02 -.39409268959E-02 -.59706096845E-02
 0.19116365700E-01 0.18052436930E-01 0.14197863617E-01 0.87770271722E-02 0.36118631508E-02
 0.18213737496E-03 -.97104643532E-03 -.18797917781E-03 0.16766024730E-02 0.35333577525E-02
 0.43103863315E-02 0.34124352346E-02 0.12092729990E-02 -.99076937644E-03 -.16810835228E-02
 -.65597117754E-04 0.36141910922E-02 0.84511327340E-02 0.13372175424E-01 0.17292409303E-01
 0.17844294765E-01 0.15380265796E-01 0.11089265023E-01 0.63276150986E-02 0.23393059186E-02
 -.14177662388E-03 -.82932234505E-03 0.28149146832E-03 0.27657881087E-02 0.55042328435E-02
 0.69414572007E-02 0.60427751106E-02 0.32100599760E-02 0.21218833211E-03 -.94019797108E-03
 0.75810276343E-03 0.48902798065E-02 0.10094818228E-01 0.14788526667E-01 0.17639744135E-01
 0.13616805646E-01 0.10399214303E-01 0.65650339047E-02 0.31836344774E-02 0.11530061574E-02
 0.11357879912E-02 0.33715526930E-02 0.73406399689E-02 0.11608925858E-01 0.14253676115E-01
 0.13845241608E-01 0.10383071764E-01 0.54575096426E-02 0.14333046012E-02 0.17947518283E-03
 0.21616174284E-02 0.63732372673E-02 0.10987501561E-01 0.14248181183E-01 0.15140520933E-01
 0.82225375640E-02 0.52083254331E-02 0.24282495879E-02 0.11378115390E-02 0.26085494282E-02
 0.74057548796E-02 0.14584119990E-01 0.21678317627E-01 0.25829400506E-01 0.25347580386E-01
 0.20577874127E-01 0.13549051115E-01 0.68472187640E-02 0.25189494237E-02 0.14549784962E-02
 0.32642976489E-02 0.65563662906E-02 0.95834624314E-02 0.11018850354E-01 0.10434594623E-01
 0.39156057672E-02 0.16483662302E-02 0.44107345181E-03 0.22443249065E-02 0.85034703573E-02
 0.18734738019E-01 0.29990277891E-01 0.38083054623E-01 0.39913523893E-01 0.35159517077E-01
 0.26134325870E-01 0.16199465706E-01 0.81038880877E-02 0.32169785637E-02 0.16017460092E-02
 0.24058065822E-02 0.43018734411E-02 0.59787616565E-02 0.65709383250E-02 0.58057097289E-02
 0.13210097284E-02 0.16650984827E-03 0.12925398654E-02 0.68315677166E-02 0.17496029396E-01
 0.31391927872E-01 0.44306540458E-01 0.51642307108E-01 0.50823903660E-01 0.42546976407E-01
 0.30122901658E-01 0.17579197885E-01 0.78704844189E-02 0.21260770959E-02 -.61750524196E-04
 0.11955942414E-03 0.13760806204E-02 0.26560165988E-02 0.32272763663E-02 0.27148756892E-02
 -.24371932241E-04 0.53447398744E-03 0.46103841018E-02 0.13570921665E-01 0.27016277676E-01
 0.42223157785E-01 0.54738577947E-01 0.60167978582E-01 0.56358683889E-01 0.44639374327E-01
 0.29184554690E-01 0.14834652000E-01 0.48228305246E-02 -.17221653989E-03 -.13781941894E-02
 -.59550831672E-03 0.72771058313E-03 0.16763411802E-02 0.17458081909E-02 0.92308681059E-03
 -.55609784077E-04 0.24632437065E-02 0.93022948265E-02 0.20698912524E-01 0.35233200106E-01
 0.49639371712E-01 0.59474798778E-01 0.60897137183E-01 0.52825969553E-01 0.37944036175E-01
 0.21488195862E-01 0.84765046537E-02 0.13362784200E-02 -.52397625325E-03 0.62356029111E-03
 0.24933140640E-02 0.36316212523E-02 0.34487842076E-02 0.20826097900E-02 0.40559112350E-03
 0.12333311523E-02 0.48964747233E-02 0.13468553448E-01 0.26000686738E-01 0.39828548590E-01
 0.51010671976E-01 0.55604244409E-01 0.51519364012E-01 0.39897561140E-01 0.24856428015E-01
 0.11486995683E-01 0.33664333793E-02 0.12140453986E-02 0.33084954104E-02 0.69374464591E-02
 0.97224771143E-02 0.10276315664E-01 0.83777318203E-02 0.49525619456E-02 0.18408407015E-02
 0.25521491863E-02 0.60108238998E-02 0.14881685447E-01 0.26800880604E-01 0.37826551358E-01
 0.43991783480E-01 0.43046820275E-01 0.35454592739E-01 0.24094574441E-01 0.12912366214E-01
 0.53080809534E-02 0.30123235955E-02 0.57468720690E-02 0.11567058902E-01 0.17652992741E-01
 0.21319894078E-01 0.20976416274E-01 0.16714530833E-01 0.10306983912E-01 0.46088723125E-02
 0.25542725841E-02 0.49684922519E-02 0.12628172170E-01 0.22032636519E-01 0.29039947406E-01
 0.30898074094E-01 0.27347893166E-01 0.20249460045E-01 0.12372790723E-01 0.63810104955E-02
 0.43433066491E-02 0.73508706977E-02 0.14939950571E-01 0.24763717153E-01 0.33195671711E-01
 0.36851579037E-01 0.34160590170E-01 0.26056257461E-01 0.15552507759E-01 0.65830051566E-02
 0.16655630552E-02 0.28551460781E-02 0.81057402661E-02 0.14034595469E-01 0.17668747422E-01
 0.17672581632E-01 0.14497814083E-01 0.97358767854E-02 0.54761172301E-02 0.40018202503E-02
 0.73614273563E-02 0.16368173071E-01 0.29500690788E-01 0.42837268316E-01 0.51576751101E-01
 0.52354466222E-01 0.44851632286E-01 0.31795934504E-01 0.17621017975E-01 0.66696392340E-02
 0.10680774409E-02 0.11717598381E-02 0.37959381674E-02 0.67758343139E-02 0.84743158353E-02
 0.80541151573E-02 0.56775674502E-02 0.26860623777E-02 0.15132562452E-02 0.49632333094E-02
 0.14803902271E-01 0.30288360922E-01 0.47663480227E-01 0.61372158705E-01 0.66554493420E-01
 0.61426591031E-01 0.48072244101E-01 0.31230106839E-01 0.15959472540E-01 0.56145252046E-02
 0.74059210147E-03 0.35280708925E-03 0.13138501564E-02 0.25370464050E-02 0.30231074008E-02
 0.20526485791E-02 -.25028478639E-04 -.12573545204E-02 0.13683192674E-02 0.10345918991E-01
 0.25905085090E-01 0.45146717985E-01 0.62692780014E-01 0.72773518744E-01 0.71880411907E-01
 0.60558180799E-01 0.43138967004E-01 0.25438872385E-01 0.11889447113E-01 0.39791751185E-02
 0.27478894845E-03 0.45179885997E-03 0.10240091407E-02 0.13301753227E-02 0.83078800327E-03
 -.56085280767E-03 -.17963610531E-02 -.61291055960E-03 0.55126306086E-02 0.17847912996E-01
 0.35196214309E-01 0.53677072112E-01 0.67803318969E-01 0.72679201497E-01 0.66427937218E-01
 0.51387397644E-01 0.33020344365E-01 0.17023810349E-01 0.65900712793E-02 0.16601363756E-02
 0.73429443438E-03 0.21076031586E-02 0.28151262795E-02 0.25585737453E-02 0.15362294400E-02
 0.36344897003E-03 0.22498466284E-03 0.28331665328E-02 0.98557754539E-02 0.21868259830E-01
 0.37336412328E-01 0.52409331982E-01 0.62094361333E-01 0.62558294192E-01 0.53296196756E-01
 0.37642350812E-01 0.21079823886E-01 0.84028783963E-02 0.16277645208E-02 -.14293852530E-03
 0.36544184622E-02 0.57375240188E-02 0.62711147173E-02 0.54743867787E-02 0.40397173004E-02
 0.26961991293E-02 0.23605160314E-02 0.44179646486E-02 0.10337191259E-01 0.20474618722E-01
 0.32967735333E-01 0.43905150522E-01 0.49056647503E-01 0.46140870630E-01 0.36110418702E-01
 0.22646382240E-01 0.10280230007E-01 0.23189920325E-02 -.34158025176E-03 0.92432034364E-03
 0.86617525886E-02 0.10497336351E-01 0.10325510852E-01 0.85492861014E-02 0.58896186791E-02
 0.31909739485E-02 0.16918335516E-02 0.30093814195E-02 0.82464365615E-02 0.16747542152E-01
 0.25777291398E-01 0.31751025193E-01 0.32220809481E-01 0.27141376729E-01 0.18656805998E-01
 0.98600877179E-02 0.34598544618E-02 0.90124259225E-03 0.20270299727E-02 0.53086913405E-02
 0.13774001419E-01 0.14876501269E-01 0.13581104511E-01 0.10200893800E-01 0.57159509067E-02
 0.16708988462E-02 -.14784901215E-03 0.15123981276E-02 0.64312810435E-02 0.12628351430E-01
 0.17268434404E-01 0.18282231500E-01 0.15502167777E-01 0.10511259669E-01 0.55207311285E-02
 0.22620377858E-02 0.15325984811E-02 0.32689884143E-02 0.67335785964E-02 0.10698438415E-01
 0.17496711548E-01 0.17694981052E-01 0.15028984924E-01 0.10114232491E-01 0.45925462347E-02
 0.47821311387E-03 -.79718788784E-03 0.90111630365E-03 0.43361623494E-02 0.75187469905E-02
 0.87223711761E-02 0.73646432453E-02 0.42535564370E-02 0.10522448303E-02 -.67110667525E-03
 -.16747010343E-03 0.23982932894E-02 0.63330838717E-02 0.10794208321E-01 0.14864747921E-01
 0.81055492753E-02 0.81459425338E-02 0.66351373676E-02 0.42607650080E-02 0.22587197172E-02
 0.13348811058E-02 0.12028126978E-02 0.11781180120E-02 0.99589073455E-03 0.87352807653E-03
 0.93230712866E-03 0.90495069891E-03 0.54349740395E-03 0.98557950583E-04 0.14112534458E-03
 0.94183960030E-03 0.22451128644E-02 0.36958603290E-02 0.52373874572E-02 0.68630966765E-02
 0.76033463149E-02 0.67572176027E-02 0.51176191453E-02 0.34320306805E-02 0.21740430601E-02
 0.12175928468E-02 0.26351271717E-03 -.51184237678E-03 -.49104292831E-03 0.59729036900E-03
 0.20982852263E-02 0.28727486281E-02 0.23675753932E-02 0.11473371066E-02 0.34174640753E-03
 0.67718548391E-03 0.20805230006E-02 0.40150069152E-02 0.59132813445E-02 0.72643224250E-02
 0.53305247613E-02 0.39999788061E-02 0.28417160783E-02 0.19775718663E-02 0.12274193295E-02
 0.47399299211E-03 -.92618372225E-04 -.91163140528E-04 0.67014660204E-03 0.18951082175E-02
 0.28841722347E-02 0.29957231070E-02 0.21521335420E-02 0.98166841351E-03 0.43903346244E-03
 0.11482443921E-02 0.29466770625E-02 0.49761528675E-02 0.62545978938E-02 0.62965250723E-02
 0.28320415756E-02 0.17818977297E-02 0.10915082240E-02 0.69332131066E-03 0.69134817477E-03
 0.12522254127E-02 0.21763248083E-02 0.28611073858E-02 0.28418246510E-02 0.22539792378E-02
 0.16133744851E-02 0.12133882198E-02 0.94527121728E-03 0.73672495795E-03 0.91337549959E-03
 0.18701327356E-02 0.34173448604E-02 0.47030031413E-02 0.49332474626E-02 0.40898808273E-02
 0.17944499493E-02 0.98484662782E-03 0.32417678284E-03 0.28007638578E-03 0.12866585738E-02
 0.30961184051E-02 0.46173444528E-02 0.47357805105E-02 0.33791762539E-02 0.16163043967E-02
 0.61040515304E-03 0.58233301263E-03 0.89389622770E-03 0.99537038405E-03 0.10199721094E-02
 0.14012376342E-02 0.21624689170E-02 0.28240101082E-02 0.29447514237E-02 0.25172223789E-02
 0.15703059856E-02 0.72250658209E-03 0.15859653536E-03 0.48281483806E-03 0.17734529135E-02
 0.34093681018E-02 0.44733674243E-02 0.44547998701E-02 0.36141895100E-02 0.26616208515E-02
 0.20859113774E-02 0.18073965385E-02 0.14441985298E-02 0.82942845512E-03 0.21766506244E-03
 0.24652738531E-04 0.42787279749E-03 0.12070957466E-02 0.18944793374E-02 0.20603557520E-02
 0.83310974170E-03 0.46997020965E-03 0.49587054217E-03 0.87917932009E-03 0.14659247142E-02
 0.22789556551E-02 0.33913339417E-02 0.45561052950E-02 0.51834372856E-02 0.48244412165E-02
 0.36204657913E-02 0.21698923770E-02 0.98102675490E-03 0.16748963541E-03 -.33511918946E-03
 -.45608651281E-03 -.72427743731E-04 0.65021403582E-03 0.12185196671E-02 0.12419802738E-02
 0.77845585771E-04 0.81001371704E-03 0.14956077955E-02 0.17147605341E-02 0.17304823366E-02
 0.23176708015E-02 0.37840282196E-02 0.53426940470E-02 0.57285378987E-02 0.44700475308E-02
 0.23833556780E-02 0.74654602535E-03 0.13540640013E-03 0.17506958559E-03 0.25286286499E-03
 0.16945945026E-03 0.53329948052E-04 -.47199465399E-04 -.19025238869E-03 -.24785788716E-03
 0.18112026606E-03 0.15323247540E-02 0.25463947146E-02 0.30172869855E-02 0.32773025162E-02
 0.37412981540E-02 0.42989893825E-02 0.43178854082E-02 0.33398040955E-02 0.16945676377E-02
 0.29790848192E-03 -.17142563242E-03 0.16970550323E-03 0.64556963104E-03 0.68533138847E-03
 0.19984034990E-03 -.54343735160E-03 -.11892651473E-02 -.14041289381E-02 -.93909208142E-03
 0.24432715109E-03 0.12835141914E-02 0.25444450734E-02 0.37351721322E-02 0.43495983425E-02
 0.40635544404E-02 0.30519703486E-02 0.18634949302E-02 0.98020232499E-03 0.52084066857E-03
 0.32751095140E-03 0.22337853297E-03 0.11642927696E-03 -.72495823453E-04 -.42990453988E-03
 -.92923118603E-03 -.13587258572E-02 -.14635822390E-02 -.11621905955E-02 -.56098317085E-03
 -.63512269758E-03 -.68397486546E-04 0.14006180856E-02 0.29484754856E-02 0.34696290485E-02
 0.27290915578E-02 0.16115178690E-02 0.11462338043E-02 0.14327211804E-02 0.16697788467E-02
 0.11401323847E-02 -.58969324844E-04 -.12700973990E-02 -.19958757748E-02 -.21804252702E-02
 -.19444248008E-02 -.13845053092E-02 -.72197232008E-03 -.35921824636E-03 -.47869034142E-03
 -.11732325103E-02 -.85329319715E-03 0.22530932245E-03 0.13340576923E-02 0.18029808632E-02
 0.17192711953E-02 0.16902020802E-02 0.19947511057E-02 0.21877874951E-02 0.16203313543E-02
 0.20447437636E-03 -.14757077460E-02 -.27289656719E-02 -.32522936745E-02 -.30911494293E-02
 -.23851258430E-02 -.13710276076E-02 -.51647311006E-03 -.31129378200E-03 -.75043264084E-03
 -.57605060878E-04 -.23131327723E-03 -.15776936224E-03 0.31455002490E-03 0.10080160275E-02
 0.15435873754E-02 0.16086436516E-02 0.11550489560E-02 0.38124169402E-03 -.46033044985E-03
 -.12450273209E-02 -.19906998787E-02 -.27173955676E-02 -.33098788770E-02 -.35314914503E-02
 -.31925856810E-02 -.23333548900E-02 -.12611625687E-02 -.39345331552E-03 -.54112185310E-05
 0.13945145417E-02 0.63847006503E-03 0.74403476233E-04 0.28622468226E-03 0.85704862516E-03
 0.87338164334E-03 -.35787435451E-05 -.11432406631E-02 -.16688596953E-02 -.14220058161E-02
 -.10711866070E-02 -.13412795229E-02 -.23113349379E-02 -.34662993106E-02 -.42132241560E-02
 -.41981649579E-02 -.32975169616E-02 -.16496950100E-02 0.18743760226E-03 0.13703120335E-02
 0.13916374318E-02 0.89173379247E-03 0.60700087528E-03 0.71803663212E-03 0.69625125749E-03
 0.76111924315E-04 -.84612050588E-03 -.13073448916E-02 -.10131411102E-02 -.53664020414E-03
 -.69126552518E-03 -.16644096424E-02 -.29155340971E-02 -.38081092656E-02 -.40961934738E-02
 -.37855590883E-02 -.28375098908E-02 -.13013926557E-02 0.34828222092E-03 0.13609805815E-02
 0.88106141378E-03 0.13820581515E-02 0.15489679332E-02 0.14057378979E-02 0.10991876841E-02
 0.85063078237E-03 0.78391162504E-03 0.74112072817E-03 0.34370855414E-03 -.64449732151E-03
 -.19832865260E-02 -.30519904568E-02 -.33504204755E-02 -.29156093520E-02 -.22286597216E-02
 -.17306281288E-02 -.14637494803E-02 -.11627945639E-02 -.61114561397E-03 0.14554765587E-03
 0.19142340485E-02 0.28961185568E-02 0.29165020021E-02 0.24837136275E-02 0.22979989133E-02
 0.24343365344E-02 0.22995935247E-02 0.13416938554E-02 -.32802613797E-03 -.20192347337E-02
 -.30276665698E-02 -.30565862719E-02 -.22492236839E-02 -.10537669469E-02 -.85522689581E-04
 0.13785544688E-03 -.39300901749E-03 -.10154792878E-02 -.86093214438E-03 0.33529746494E-03
 0.42552862375E-02 0.48253278041E-02 0.43928248039E-02 0.36276312233E-02 0.30158576668E-02
 0.23782044669E-02 0.13359856994E-02 -.69342543441E-05 -.10956058646E-02 -.15583542574E-02
 -.15411701189E-02 -.13461079946E-02 -.98829045625E-03 -.34255251814E-03 0.39438856195E-03
 0.73818632144E-03 0.55539630162E-03 0.44001838990E-03 0.11606149391E-02 0.27298685899E-02
 0.62075971384E-02 0.64462238804E-02 0.57350399851E-02 0.43008947508E-02 0.25469236400E-02
 0.94145293602E-03 -.32079872724E-04 -.10287181603E-03 0.46955377923E-03 0.93952051126E-03
 0.66473245367E-03 -.26900428169E-03 -.10943447952E-02 -.10976926547E-02 -.26296424694E-03
 0.85883353275E-03 0.18307610459E-02 0.27309861357E-02 0.38557624895E-02 0.51726386229E-02
 0.73799985583E-02 0.77197157515E-02 0.66954047618E-02 0.44687990949E-02 0.20408440711E-02
 0.56792694889E-03 0.50369259036E-03 0.13335352206E-02 0.20700624313E-02 0.19977908984E-02
 0.10688953697E-02 -.20656806014E-03 -.11362053864E-02 -.12159769309E-02 -.36335456461E-03
 0.10727282593E-02 0.25773286854E-02 0.38625716917E-02 0.50273902022E-02 0.62635338451E-02
 -.18871135024E-01 -.16516917048E-01 -.12533079146E-01 -.79356805169E-02 -.33216770778E-02
 0.48304074708E-03 0.23000461112E-02 0.15272842097E-02 -.97794604127E-03 -.33333576464E-02
 -.40849033665E-02 -.31477703688E-02 -.14133242711E-02 0.17193435792E-03 0.88672918858E-03
 -.55284477611E-04 -.33509256409E-02 -.87397084654E-02 -.14503800842E-01 -.18323556901E-01
 -.17251856521E-01 -.14273626568E-01 -.97140937411E-02 -.46996025592E-02 -.56760250681E-03