   5   5   1   0
  0.3477306E+02  0.2573869E-09  0.2573869E-09  0.3030467E-08  0.5000000E-15
  1.000000000000000E-004
  CAR 
 unknown system                          
      7.00000000    -17.00000000 2401     -2.37138990      1.00000000
    -17.000  0.0000E+00  0.0000E+00
    -16.990  0.0000E+00  0.0000E+00
    -16.980  0.0000E+00  0.0000E+00
    -16.970  0.0000E+00  0.0000E+00
    -16.960  0.0000E+00  0.0000E+00
    -16.950  0.0000E+00  0.0000E+00
    -16.940  0.0000E+00  0.0000E+00
    -16.930  0.0000E+00  0.0000E+00
    -16.920  0.0000E+00  0.0000E+00
    -16.910  0.0000E+00  0.0000E+00
    -16.900  0.0000E+00  0.0000E+00
    -16.890  0.0000E+00  0.0000E+00
    -16.880  0.0000E+00  0.0000E+00
    -16.870  0.0000E+00  0.0000E+00
    -16.860  0.0000E+00  0.0000E+00
    -16.850  0.0000E+00  0.0000E+00
    -16.840  0.0000E+00  0.0000E+00
    -16.830  0.0000E+00  0.0000E+00
    -16.820  0.0000E+00  0.0000E+00
    -16.810  0.0000E+00  0.0000E+00
    -16.800  0.0000E+00  0.0000E+00
    -16.790  0.0000E+00  0.0000E+00
    -16.780  0.0000E+00  0.0000E+00
    -16.770  0.0000E+00  0.0000E+00
    -16.760  0.0000E+00  0.0000E+00
    -16.750  0.0000E+00  0.0000E+00
    -16.740  0.0000E+00  0.0000E+00
    -16.730  0.0000E+00  0.0000E+00
    -16.720  0.0000E+00  0.0000E+00
    -16.710  0.0000E+00  0.0000E+00
    -16.700  0.0000E+00  0.0000E+00
    -16.690  0.0000E+00  0.0000E+00
    -16.680  0.0000E+00  0.0000E+00
    -16.670  0.0000E+00  0.0000E+00
    -16.660  0.0000E+00  0.0000E+00
    -16.650  0.0000E+00  0.0000E+00
    -16.640  0.0000E+00  0.0000E+00
    -16.630  0.0000E+00  0.0000E+00
    -16.620  0.0000E+00  0.0000E+00
    -16.610  0.0000E+00  0.0000E+00
    -16.600  0.0000E+00  0.0000E+00
    -16.590  0.0000E+00  0.0000E+00
    -16.580  0.0000E+00  0.0000E+00
    -16.570  0.0000E+00  0.0000E+00
    -16.560  0.0000E+00  0.0000E+00
    -16.550  0.0000E+00  0.0000E+00
    -16.540  0.0000E+00  0.0000E+00
    -16.530  0.0000E+00  0.0000E+00
    -16.520  0.0000E+00  0.0000E+00
    -16.510  0.0000E+00  0.0000E+00
    -16.500  0.0000E+00  0.0000E+00
    -16.490  0.0000E+00  0.0000E+00
    -16.480  0.0000E+00  0.0000E+00
    -16.470  0.0000E+00  0.0000E+00
    -16.460  0.0000E+00  0.0000E+00
    -16.450  0.0000E+00  0.0000E+00
    -16.440  0.0000E+00  0.0000E+00
    -16.430  0.0000E+00  0.0000E+00
    -16.420  0.0000E+00  0.0000E+00
    -16.410  0.0000E+00  0.0000E+00
    -16.400  0.0000E+00  0.0000E+00
    -16.390  0.0000E+00  0.0000E+00
    -16.380  0.0000E+00  0.0000E+00
    -16.370  0.0000E+00  0.0000E+00
    -16.360  0.0000E+00  0.0000E+00
    -16.350  0.0000E+00  0.0000E+00
    -16.340  0.0000E+00  0.0000E+00
    -16.330  0.0000E+00  0.0000E+00
    -16.320  0.0000E+00  0.0000E+00
    -16.310  0.0000E+00  0.0000E+00
    -16.300  0.0000E+00  0.0000E+00
    -16.290  0.0000E+00  0.0000E+00
    -16.280  0.0000E+00  0.0000E+00
    -16.270  0.0000E+00  0.0000E+00
    -16.260  0.0000E+00  0.0000E+00
    -16.250  0.0000E+00  0.0000E+00
    -16.240  0.0000E+00  0.0000E+00
    -16.230  0.0000E+00  0.0000E+00
    -16.220  0.0000E+00  0.0000E+00
    -16.210  0.0000E+00  0.0000E+00
    -16.200  0.0000E+00  0.0000E+00
    -16.190  0.0000E+00  0.0000E+00
    -16.180  0.0000E+00  0.0000E+00
    -16.170  0.0000E+00  0.0000E+00
    -16.160  0.0000E+00  0.0000E+00
    -16.150  0.0000E+00  0.0000E+00
    -16.140  0.0000E+00  0.0000E+00
    -16.130  0.0000E+00  0.0000E+00
    -16.120  0.0000E+00  0.0000E+00
    -16.110  0.0000E+00  0.0000E+00
    -16.100  0.0000E+00  0.0000E+00
    -16.090  0.0000E+00  0.0000E+00
    -16.080  0.0000E+00  0.0000E+00
    -16.070  0.0000E+00  0.0000E+00
    -16.060  0.0000E+00  0.0000E+00
    -16.050  0.0000E+00  0.0000E+00
    -16.040  0.0000E+00  0.0000E+00
    -16.030  0.0000E+00  0.0000E+00
    -16.020  0.0000E+00  0.0000E+00
    -16.010  0.0000E+00  0.0000E+00
    -16.000  0.0000E+00  0.0000E+00
    -15.990  0.0000E+00  0.0000E+00
    -15.980  0.0000E+00  0.0000E+00
    -15.970  0.0000E+00  0.0000E+00
    -15.960  0.0000E+00  0.0000E+00
    -15.950  0.0000E+00  0.0000E+00
    -15.940  0.0000E+00  0.0000E+00
    -15.930  0.0000E+00  0.0000E+00
    -15.920  0.0000E+00  0.0000E+00
    -15.910  0.0000E+00  0.0000E+00
    -15.900  0.0000E+00  0.0000E+00
    -15.890  0.0000E+00  0.0000E+00
    -15.880  0.0000E+00  0.0000E+00
    -15.870  0.0000E+00  0.0000E+00
    -15.860  0.0000E+00  0.0000E+00
    -15.850  0.0000E+00  0.0000E+00
    -15.840  0.0000E+00  0.0000E+00
    -15.830  0.0000E+00  0.0000E+00
    -15.820  0.0000E+00  0.0000E+00
    -15.810  0.0000E+00  0.0000E+00
    -15.800  0.0000E+00  0.0000E+00
    -15.790  0.0000E+00  0.0000E+00
    -15.780  0.0000E+00  0.0000E+00
    -15.770  0.0000E+00  0.0000E+00
    -15.760  0.0000E+00  0.0000E+00
    -15.750  0.0000E+00  0.0000E+00
    -15.740  0.0000E+00  0.0000E+00
    -15.730  0.0000E+00  0.0000E+00
    -15.720  0.0000E+00  0.0000E+00
    -15.710  0.0000E+00  0.0000E+00
    -15.700  0.0000E+00  0.0000E+00
    -15.690  0.0000E+00  0.0000E+00
    -15.680  0.0000E+00  0.0000E+00
    -15.670  0.0000E+00  0.0000E+00
    -15.660  0.0000E+00  0.0000E+00
    -15.650  0.0000E+00  0.0000E+00
    -15.640  0.0000E+00  0.0000E+00
    -15.630  0.0000E+00  0.0000E+00
    -15.620  0.0000E+00  0.0000E+00
    -15.610  0.0000E+00  0.0000E+00
    -15.600  0.0000E+00  0.0000E+00
    -15.590  0.0000E+00  0.0000E+00
    -15.580  0.0000E+00  0.0000E+00
    -15.570  0.0000E+00  0.0000E+00
    -15.560  0.0000E+00  0.0000E+00
    -15.550  0.0000E+00  0.0000E+00
    -15.540  0.0000E+00  0.0000E+00
    -15.530  0.0000E+00  0.0000E+00
    -15.520  0.0000E+00  0.0000E+00
    -15.510  0.0000E+00  0.0000E+00
    -15.500  0.0000E+00  0.0000E+00
    -15.490  0.0000E+00  0.0000E+00
    -15.480  0.0000E+00  0.0000E+00
    -15.470  0.0000E+00  0.0000E+00
    -15.460  0.0000E+00  0.0000E+00
    -15.450  0.0000E+00  0.0000E+00
    -15.440  0.0000E+00  0.0000E+00
    -15.430  0.0000E+00  0.0000E+00
    -15.420  0.0000E+00  0.0000E+00
    -15.410  0.0000E+00  0.0000E+00
    -15.400  0.0000E+00  0.0000E+00
    -15.390  0.0000E+00  0.0000E+00
    -15.380  0.0000E+00  0.0000E+00
    -15.370  0.0000E+00  0.0000E+00
    -15.360  0.0000E+00  0.0000E+00
    -15.350  0.0000E+00  0.0000E+00
    -15.340  0.0000E+00  0.0000E+00
    -15.330  0.0000E+00  0.0000E+00
    -15.320  0.0000E+00  0.0000E+00
    -15.310  0.0000E+00  0.0000E+00
    -15.300  0.0000E+00  0.0000E+00
    -15.290  0.0000E+00  0.0000E+00
    -15.280  0.0000E+00  0.0000E+00
    -15.270  0.0000E+00  0.0000E+00
    -15.260  0.0000E+00  0.0000E+00
    -15.250  0.0000E+00  0.0000E+00
    -15.240  0.0000E+00  0.0000E+00
    -15.230  0.0000E+00  0.0000E+00
    -15.220  0.0000E+00  0.0000E+00
    -15.210  0.0000E+00  0.0000E+00
    -15.200  0.0000E+00  0.0000E+00
    -15.190  0.0000E+00  0.0000E+00
    -15.180  0.0000E+00  0.0000E+00
    -15.170  0.0000E+00  0.0000E+00
    -15.160  0.0000E+00  0.0000E+00
    -15.150  0.0000E+00  0.0000E+00
    -15.140  0.0000E+00  0.0000E+00
    -15.130  0.0000E+00  0.0000E+00
    -15.120  0.0000E+00  0.0000E+00
    -15.110  0.0000E+00  0.0000E+00
    -15.100  0.0000E+00  0.0000E+00
    -15.090  0.0000E+00  0.0000E+00
    -15.080  0.0000E+00  0.0000E+00
    -15.070  0.0000E+00  0.0000E+00
    -15.060  0.0000E+00  0.0000E+00
    -15.050  0.0000E+00  0.0000E+00
    -15.040  0.0000E+00  0.0000E+00
    -15.030  0.0000E+00  0.0000E+00
    -15.020  0.0000E+00  0.0000E+00
    -15.010  0.0000E+00  0.0000E+00
    -15.000  0.0000E+00  0.0000E+00
    -14.990  0.0000E+00  0.0000E+00
    -14.980  0.0000E+00  0.0000E+00
    -14.970  0.0000E+00  0.0000E+00
    -14.960  0.0000E+00  0.0000E+00
    -14.950  0.0000E+00  0.0000E+00
    -14.940  0.0000E+00  0.0000E+00
    -14.930  0.0000E+00  0.0000E+00
    -14.920  0.0000E+00  0.0000E+00
    -14.910  0.0000E+00  0.0000E+00
    -14.900  0.0000E+00  0.0000E+00
    -14.890  0.0000E+00  0.0000E+00
    -14.880  0.0000E+00  0.0000E+00
    -14.870  0.0000E+00  0.0000E+00
    -14.860  0.0000E+00  0.0000E+00
    -14.850  0.0000E+00  0.0000E+00
    -14.840  0.0000E+00  0.0000E+00
    -14.830  0.0000E+00  0.0000E+00
    -14.820  0.0000E+00  0.0000E+00
    -14.810  0.0000E+00  0.0000E+00
    -14.800  0.0000E+00  0.0000E+00
    -14.790  0.0000E+00  0.0000E+00
    -14.780  0.0000E+00  0.0000E+00
    -14.770  0.0000E+00  0.0000E+00
    -14.760  0.0000E+00  0.0000E+00
    -14.750  0.0000E+00  0.0000E+00
    -14.740  0.0000E+00  0.0000E+00
    -14.730  0.0000E+00  0.0000E+00
    -14.720  0.0000E+00  0.0000E+00
    -14.710  0.0000E+00  0.0000E+00
    -14.700  0.0000E+00  0.0000E+00
    -14.690  0.0000E+00  0.0000E+00
    -14.680  0.0000E+00  0.0000E+00
    -14.670  0.0000E+00  0.0000E+00
    -14.660  0.0000E+00  0.0000E+00
    -14.650  0.0000E+00  0.0000E+00
    -14.640  0.0000E+00  0.0000E+00
    -14.630  0.0000E+00  0.0000E+00
    -14.620  0.0000E+00  0.0000E+00
    -14.610  0.0000E+00  0.0000E+00
    -14.600  0.0000E+00  0.0000E+00
    -14.590  0.0000E+00  0.0000E+00
    -14.580  0.0000E+00  0.0000E+00
    -14.570  0.0000E+00  0.0000E+00
    -14.560  0.0000E+00  0.0000E+00
    -14.550  0.0000E+00  0.0000E+00
    -14.540  0.0000E+00  0.0000E+00
    -14.530  0.0000E+00  0.0000E+00
    -14.520  0.0000E+00  0.0000E+00
    -14.510  0.0000E+00  0.0000E+00
    -14.500  0.0000E+00  0.0000E+00
    -14.490  0.0000E+00  0.0000E+00
    -14.480  0.0000E+00  0.0000E+00
    -14.470  0.0000E+00  0.0000E+00
    -14.460  0.0000E+00  0.0000E+00
    -14.450  0.0000E+00  0.0000E+00
    -14.440  0.0000E+00  0.0000E+00
    -14.430  0.0000E+00  0.0000E+00
    -14.420  0.0000E+00  0.0000E+00
    -14.410  0.0000E+00  0.0000E+00
    -14.400  0.0000E+00  0.0000E+00
    -14.390  0.0000E+00  0.0000E+00
    -14.380  0.0000E+00  0.0000E+00
    -14.370  0.0000E+00  0.0000E+00
    -14.360  0.0000E+00  0.0000E+00
    -14.350  0.0000E+00  0.0000E+00
    -14.340  0.0000E+00  0.0000E+00
    -14.330  0.0000E+00  0.0000E+00
    -14.320  0.0000E+00  0.0000E+00
    -14.310  0.0000E+00  0.0000E+00
    -14.300  0.0000E+00  0.0000E+00
    -14.290  0.0000E+00  0.0000E+00
    -14.280  0.0000E+00  0.0000E+00
    -14.270  0.0000E+00  0.0000E+00
    -14.260  0.0000E+00  0.0000E+00
    -14.250  0.0000E+00  0.0000E+00
    -14.240  0.0000E+00  0.0000E+00
    -14.230  0.0000E+00  0.0000E+00
    -14.220  0.0000E+00  0.0000E+00
    -14.210  0.0000E+00  0.0000E+00
    -14.200  0.0000E+00  0.0000E+00
    -14.190  0.0000E+00  0.0000E+00
    -14.180  0.0000E+00  0.0000E+00
    -14.170  0.0000E+00  0.0000E+00
    -14.160  0.0000E+00  0.0000E+00
    -14.150  0.0000E+00  0.0000E+00
    -14.140  0.0000E+00  0.0000E+00
    -14.130  0.0000E+00  0.0000E+00
    -14.120  0.0000E+00  0.0000E+00
    -14.110  0.0000E+00  0.0000E+00
    -14.100  0.0000E+00  0.0000E+00
    -14.090  0.0000E+00  0.0000E+00
    -14.080  0.0000E+00  0.0000E+00
    -14.070  0.0000E+00  0.0000E+00
    -14.060  0.0000E+00  0.0000E+00
    -14.050  0.0000E+00  0.0000E+00
    -14.040  0.0000E+00  0.0000E+00
    -14.030  0.0000E+00  0.0000E+00
    -14.020  0.0000E+00  0.0000E+00
    -14.010  0.0000E+00  0.0000E+00
    -14.000  0.0000E+00  0.0000E+00
    -13.990  0.0000E+00  0.0000E+00
    -13.980  0.0000E+00  0.0000E+00
    -13.970  0.0000E+00  0.0000E+00
    -13.960  0.0000E+00  0.0000E+00
    -13.950  0.0000E+00  0.0000E+00
    -13.940  0.0000E+00  0.0000E+00
    -13.930  0.0000E+00  0.0000E+00
    -13.920  0.0000E+00  0.0000E+00
    -13.910  0.0000E+00  0.0000E+00
    -13.900  0.0000E+00  0.0000E+00
    -13.890  0.0000E+00  0.0000E+00
    -13.880  0.0000E+00  0.0000E+00
    -13.870  0.0000E+00  0.0000E+00
    -13.860  0.0000E+00  0.0000E+00
    -13.850  0.0000E+00  0.0000E+00
    -13.840  0.0000E+00  0.0000E+00
    -13.830  0.0000E+00  0.0000E+00
    -13.820  0.0000E+00  0.0000E+00
    -13.810  0.0000E+00  0.0000E+00
    -13.800  0.0000E+00  0.0000E+00
    -13.790  0.0000E+00  0.0000E+00
    -13.780  0.0000E+00  0.0000E+00
    -13.770  0.0000E+00  0.0000E+00
    -13.760  0.0000E+00  0.0000E+00
    -13.750  0.0000E+00  0.0000E+00
    -13.740  0.0000E+00  0.0000E+00
    -13.730  0.0000E+00  0.0000E+00
    -13.720  0.0000E+00  0.0000E+00
    -13.710  0.0000E+00  0.0000E+00
    -13.700  0.0000E+00  0.0000E+00
    -13.690  0.0000E+00  0.0000E+00
    -13.680  0.0000E+00  0.0000E+00
    -13.670  0.0000E+00  0.0000E+00
    -13.660  0.0000E+00  0.0000E+00
    -13.650  0.0000E+00  0.0000E+00
    -13.640  0.0000E+00  0.0000E+00
    -13.630  0.0000E+00  0.0000E+00
    -13.620  0.0000E+00  0.0000E+00
    -13.610  0.0000E+00  0.0000E+00
    -13.600  0.0000E+00  0.0000E+00
    -13.590  0.0000E+00  0.0000E+00
    -13.580  0.0000E+00  0.0000E+00
    -13.570  0.0000E+00  0.0000E+00
    -13.560  0.0000E+00  0.0000E+00
    -13.550  0.0000E+00  0.0000E+00
    -13.540  0.0000E+00  0.0000E+00
    -13.530  0.0000E+00  0.0000E+00
    -13.520  0.0000E+00  0.0000E+00
    -13.510  0.0000E+00  0.0000E+00
    -13.500  0.0000E+00  0.0000E+00
    -13.490  0.0000E+00  0.0000E+00
    -13.480  0.0000E+00  0.0000E+00
    -13.470  0.0000E+00  0.0000E+00
    -13.460  0.0000E+00  0.0000E+00
    -13.450  0.0000E+00  0.0000E+00
    -13.440  0.0000E+00  0.0000E+00
    -13.430  0.0000E+00  0.0000E+00
    -13.420  0.0000E+00  0.0000E+00
    -13.410  0.0000E+00  0.0000E+00
    -13.400  0.0000E+00  0.0000E+00
    -13.390  0.0000E+00  0.0000E+00
    -13.380  0.0000E+00  0.0000E+00
    -13.370  0.0000E+00  0.0000E+00
    -13.360  0.0000E+00  0.0000E+00
    -13.350  0.0000E+00  0.0000E+00
    -13.340  0.0000E+00  0.0000E+00
    -13.330  0.0000E+00  0.0000E+00
    -13.320  0.0000E+00  0.0000E+00
    -13.310  0.0000E+00  0.0000E+00
    -13.300  0.0000E+00  0.0000E+00
    -13.290  0.0000E+00  0.0000E+00
    -13.280  0.0000E+00  0.0000E+00
    -13.270  0.0000E+00  0.0000E+00
    -13.260  0.0000E+00  0.0000E+00
    -13.250  0.0000E+00  0.0000E+00
    -13.240  0.0000E+00  0.0000E+00
    -13.230  0.0000E+00  0.0000E+00
    -13.220  0.0000E+00  0.0000E+00
    -13.210  0.0000E+00  0.0000E+00
    -13.200  0.0000E+00  0.0000E+00
    -13.190  0.0000E+00  0.0000E+00
    -13.180  0.0000E+00  0.0000E+00
    -13.170  0.0000E+00  0.0000E+00
    -13.160  0.0000E+00  0.0000E+00
    -13.150  0.0000E+00  0.0000E+00
    -13.140  0.0000E+00  0.0000E+00
    -13.130  0.0000E+00  0.0000E+00
    -13.120  0.0000E+00  0.0000E+00
    -13.110  0.0000E+00  0.0000E+00
    -13.100  0.0000E+00  0.0000E+00
    -13.090  0.0000E+00  0.0000E+00
    -13.080  0.0000E+00  0.0000E+00
    -13.070  0.0000E+00  0.0000E+00
    -13.060  0.0000E+00  0.0000E+00
    -13.050  0.0000E+00  0.0000E+00
    -13.040  0.0000E+00  0.0000E+00
    -13.030  0.0000E+00  0.0000E+00
    -13.020  0.0000E+00  0.0000E+00
    -13.010  0.0000E+00  0.0000E+00
    -13.000  0.0000E+00  0.0000E+00
    -12.990  0.0000E+00  0.0000E+00
    -12.980  0.0000E+00  0.0000E+00
    -12.970  0.0000E+00  0.0000E+00
    -12.960  0.0000E+00  0.0000E+00
    -12.950  0.0000E+00  0.0000E+00
    -12.940  0.0000E+00  0.0000E+00
    -12.930  0.0000E+00  0.0000E+00
    -12.920  0.0000E+00  0.0000E+00
    -12.910  0.0000E+00  0.0000E+00
    -12.900  0.0000E+00  0.0000E+00
    -12.890  0.0000E+00  0.0000E+00
    -12.880  0.0000E+00  0.0000E+00
    -12.870  0.0000E+00  0.0000E+00
    -12.860  0.0000E+00  0.0000E+00
    -12.850  0.0000E+00  0.0000E+00
    -12.840  0.0000E+00  0.0000E+00
    -12.830  0.0000E+00  0.0000E+00
    -12.820  0.0000E+00  0.0000E+00
    -12.810  0.0000E+00  0.0000E+00
    -12.800  0.0000E+00  0.0000E+00
    -12.790  0.0000E+00  0.0000E+00
    -12.780  0.0000E+00  0.0000E+00
    -12.770  0.0000E+00  0.0000E+00
    -12.760  0.0000E+00  0.0000E+00
    -12.750  0.0000E+00  0.0000E+00
    -12.740  0.0000E+00  0.0000E+00
    -12.730  0.0000E+00  0.0000E+00
    -12.720  0.0000E+00  0.0000E+00
    -12.710  0.0000E+00  0.0000E+00
    -12.700  0.0000E+00  0.0000E+00
    -12.690  0.0000E+00  0.0000E+00
    -12.680  0.0000E+00  0.0000E+00
    -12.670  0.0000E+00  0.0000E+00
    -12.660  0.0000E+00  0.0000E+00
    -12.650  0.0000E+00  0.0000E+00
    -12.640  0.0000E+00  0.0000E+00
    -12.630  0.0000E+00  0.0000E+00
    -12.620  0.0000E+00  0.0000E+00
    -12.610  0.0000E+00  0.0000E+00
    -12.600  0.0000E+00  0.0000E+00
    -12.590  0.0000E+00  0.0000E+00
    -12.580  0.0000E+00  0.0000E+00
    -12.570  0.0000E+00  0.0000E+00
    -12.560  0.0000E+00  0.0000E+00
    -12.550  0.0000E+00  0.0000E+00
    -12.540  0.0000E+00  0.0000E+00
    -12.530  0.0000E+00  0.0000E+00
    -12.520  0.0000E+00  0.0000E+00
    -12.510  0.0000E+00  0.0000E+00
    -12.500  0.0000E+00  0.0000E+00
    -12.490  0.0000E+00  0.0000E+00
    -12.480  0.0000E+00  0.0000E+00
    -12.470  0.0000E+00  0.0000E+00
    -12.460  0.0000E+00  0.0000E+00
    -12.450  0.0000E+00  0.0000E+00
    -12.440  0.0000E+00  0.0000E+00
    -12.430  0.0000E+00  0.0000E+00
    -12.420  0.0000E+00  0.0000E+00
    -12.410  0.0000E+00  0.0000E+00
    -12.400  0.0000E+00  0.0000E+00
    -12.390  0.0000E+00  0.0000E+00
    -12.380  0.0000E+00  0.0000E+00
    -12.370  0.0000E+00  0.0000E+00
    -12.360  0.0000E+00  0.0000E+00
    -12.350  0.0000E+00  0.0000E+00
    -12.340  0.0000E+00  0.0000E+00
    -12.330  0.0000E+00  0.0000E+00
    -12.320  0.0000E+00  0.0000E+00
    -12.310  0.0000E+00  0.0000E+00
    -12.300  0.0000E+00  0.0000E+00
    -12.290  0.0000E+00  0.0000E+00
    -12.280  0.0000E+00  0.0000E+00
    -12.270  0.0000E+00  0.0000E+00
    -12.260  0.0000E+00  0.0000E+00
    -12.250  0.0000E+00  0.0000E+00
    -12.240  0.0000E+00  0.0000E+00
    -12.230  0.0000E+00  0.0000E+00
    -12.220  0.0000E+00  0.0000E+00
    -12.210  0.0000E+00  0.0000E+00
    -12.200  0.0000E+00  0.0000E+00
    -12.190  0.0000E+00  0.0000E+00
    -12.180  0.0000E+00  0.0000E+00
    -12.170  0.0000E+00  0.0000E+00
    -12.160  0.0000E+00  0.0000E+00
    -12.150  0.1110E-15  0.1110E-17
    -12.140  0.2220E-15  0.3331E-17
    -12.130  0.7772E-15  0.1110E-16
    -12.120  0.2442E-14  0.3553E-16
    -12.110  0.7216E-14  0.1077E-15
    -12.100  0.2176E-13  0.3253E-15
    -12.090  0.6339E-13  0.9592E-15
    -12.080  0.1813E-12  0.2772E-14
    -12.070  0.5086E-12  0.7858E-14
    -12.060  0.1398E-11  0.2184E-13
    -12.050  0.3769E-11  0.5953E-13
    -12.040  0.9957E-11  0.1591E-12
    -12.030  0.2578E-10  0.4169E-12
    -12.020  0.6545E-10  0.1071E-11
    -12.010  0.1629E-09  0.2700E-11
    -12.000  0.3972E-09  0.6673E-11
    -11.990  0.9498E-09  0.1617E-10
    -11.980  0.2226E-08  0.3843E-10
    -11.970  0.5113E-08  0.8956E-10
    -11.960  0.1151E-07  0.2047E-09
    -11.950  0.2542E-07  0.4589E-09
    -11.940  0.5499E-07  0.1009E-08
    -11.930  0.1166E-06  0.2175E-08
    -11.920  0.2425E-06  0.4600E-08
    -11.910  0.4941E-06  0.9541E-08
    -11.900  0.9871E-06  0.1941E-07
    -11.890  0.1933E-05  0.3874E-07
    -11.880  0.3710E-05  0.7584E-07
    -11.870  0.6980E-05  0.1456E-06
    -11.860  0.1287E-04  0.2744E-06
    -11.850  0.2327E-04  0.5071E-06
    -11.840  0.4124E-04  0.9195E-06
    -11.830  0.7163E-04  0.1636E-05
    -11.820  0.1220E-03  0.2855E-05
    -11.810  0.2036E-03  0.4891E-05
    -11.800  0.3330E-03  0.8221E-05
    -11.790  0.5341E-03  0.1356E-04
    -11.780  0.8396E-03  0.2196E-04
    -11.770  0.1294E-02  0.3489E-04
    -11.760  0.1954E-02  0.5443E-04
    -11.750  0.2893E-02  0.8337E-04
    -11.740  0.4199E-02  0.1254E-03
    -11.730  0.5973E-02  0.1851E-03
    -11.720  0.8330E-02  0.2684E-03
    -11.710  0.1139E-01  0.3822E-03
    -11.700  0.1526E-01  0.5348E-03
    -11.690  0.2004E-01  0.7352E-03
    -11.680  0.2580E-01  0.9932E-03
    -11.670  0.3256E-01  0.1319E-02
    -11.660  0.4027E-01  0.1721E-02
    -11.650  0.4884E-01  0.2210E-02
    -11.640  0.5805E-01  0.2790E-02
    -11.630  0.6764E-01  0.3467E-02
    -11.620  0.7725E-01  0.4239E-02
    -11.610  0.8648E-01  0.5104E-02
    -11.600  0.9490E-01  0.6053E-02
    -11.590  0.1021E+00  0.7074E-02
    -11.580  0.1077E+00  0.8151E-02
    -11.570  0.1113E+00  0.9263E-02
    -11.560  0.1128E+00  0.1039E-01
    -11.550  0.1121E+00  0.1151E-01
    -11.540  0.1092E+00  0.1260E-01
    -11.530  0.1044E+00  0.1365E-01
    -11.520  0.9791E-01  0.1463E-01
    -11.510  0.9025E-01  0.1553E-01
    -11.500  0.8191E-01  0.1635E-01
    -11.490  0.7344E-01  0.1708E-01
    -11.480  0.6544E-01  0.1774E-01
    -11.470  0.5851E-01  0.1832E-01
    -11.460  0.5328E-01  0.1885E-01
    -11.450  0.5037E-01  0.1936E-01
    -11.440  0.5041E-01  0.1986E-01
    -11.430  0.5404E-01  0.2040E-01
    -11.420  0.6192E-01  0.2102E-01
    -11.410  0.7468E-01  0.2177E-01
    -11.400  0.9293E-01  0.2270E-01
    -11.390  0.1172E+00  0.2387E-01
    -11.380  0.1477E+00  0.2535E-01
    -11.370  0.1847E+00  0.2719E-01
    -11.360  0.2279E+00  0.2947E-01
    -11.350  0.2766E+00  0.3224E-01
    -11.340  0.3299E+00  0.3554E-01
    -11.330  0.3861E+00  0.3940E-01
    -11.320  0.4434E+00  0.4383E-01
    -11.310  0.4992E+00  0.4883E-01
    -11.300  0.5512E+00  0.5434E-01
    -11.290  0.5967E+00  0.6030E-01
    -11.280  0.6333E+00  0.6664E-01
    -11.270  0.6590E+00  0.7323E-01
    -11.260  0.6723E+00  0.7995E-01
    -11.250  0.6724E+00  0.8668E-01
    -11.240  0.6593E+00  0.9327E-01
    -11.230  0.6338E+00  0.9961E-01
    -11.220  0.5973E+00  0.1056E+00
    -11.210  0.5518E+00  0.1111E+00
    -11.200  0.4999E+00  0.1161E+00
    -11.190  0.4439E+00  0.1205E+00
    -11.180  0.3864E+00  0.1244E+00
    -11.170  0.3298E+00  0.1277E+00
    -11.160  0.2759E+00  0.1305E+00
    -11.150  0.2263E+00  0.1327E+00
    -11.140  0.1820E+00  0.1345E+00
    -11.130  0.1435E+00  0.1360E+00
    -11.120  0.1109E+00  0.1371E+00
    -11.110  0.8403E-01  0.1379E+00
    -11.100  0.6241E-01  0.1385E+00
    -11.090  0.4545E-01  0.1390E+00
    -11.080  0.3245E-01  0.1393E+00
    -11.070  0.2271E-01  0.1396E+00
    -11.060  0.1558E-01  0.1397E+00
    -11.050  0.1048E-01  0.1398E+00
    -11.040  0.6912E-02  0.1399E+00
    -11.030  0.4470E-02  0.1399E+00
    -11.020  0.2836E-02  0.1400E+00
    -11.010  0.1768E-02  0.1400E+00
    -11.000  0.1089E-02  0.1400E+00
    -10.990  0.6737E-03  0.1400E+00
    -10.980  0.4374E-03  0.1400E+00
    -10.970  0.3291E-03  0.1400E+00
    -10.960  0.3239E-03  0.1400E+00
    -10.950  0.4204E-03  0.1400E+00
    -10.940  0.6405E-03  0.1400E+00
    -10.930  0.1032E-02  0.1400E+00
    -10.920  0.1674E-02  0.1400E+00
    -10.910  0.2687E-02  0.1401E+00
    -10.900  0.4240E-02  0.1401E+00
    -10.890  0.6568E-02  0.1402E+00
    -10.880  0.9982E-02  0.1403E+00
    -10.870  0.1488E-01  0.1404E+00
    -10.860  0.2175E-01  0.1406E+00
    -10.850  0.3119E-01  0.1410E+00
    -10.840  0.4386E-01  0.1414E+00
    -10.830  0.6051E-01  0.1420E+00
    -10.820  0.8187E-01  0.1428E+00
    -10.810  0.1087E+00  0.1439E+00
    -10.800  0.1415E+00  0.1453E+00
    -10.790  0.1807E+00  0.1471E+00
    -10.780  0.2264E+00  0.1494E+00
    -10.770  0.2783E+00  0.1522E+00
    -10.760  0.3356E+00  0.1555E+00
    -10.750  0.3970E+00  0.1595E+00
    -10.740  0.4607E+00  0.1641E+00
    -10.730  0.5247E+00  0.1694E+00
    -10.720  0.5862E+00  0.1752E+00
    -10.710  0.6427E+00  0.1816E+00
    -10.700  0.6913E+00  0.1886E+00
    -10.690  0.7297E+00  0.1959E+00
    -10.680  0.7559E+00  0.2034E+00
    -10.670  0.7685E+00  0.2111E+00
    -10.660  0.7668E+00  0.2188E+00
    -10.650  0.7512E+00  0.2263E+00
    -10.640  0.7227E+00  0.2335E+00
    -10.630  0.6831E+00  0.2403E+00
    -10.620  0.6348E+00  0.2467E+00
    -10.610  0.5808E+00  0.2525E+00
    -10.600  0.5241E+00  0.2577E+00
    -10.590  0.4680E+00  0.2624E+00
    -10.580  0.4154E+00  0.2666E+00
    -10.570  0.3691E+00  0.2703E+00
    -10.560  0.3315E+00  0.2736E+00
    -10.550  0.3047E+00  0.2766E+00
    -10.540  0.2901E+00  0.2795E+00
    -10.530  0.2888E+00  0.2824E+00
    -10.520  0.3015E+00  0.2854E+00
    -10.510  0.3286E+00  0.2887E+00
    -10.500  0.3697E+00  0.2924E+00
    -10.490  0.4244E+00  0.2966E+00
    -10.480  0.4915E+00  0.3016E+00
    -10.470  0.5696E+00  0.3073E+00
    -10.460  0.6563E+00  0.3138E+00
    -10.450  0.7492E+00  0.3213E+00
    -10.440  0.8449E+00  0.3298E+00
    -10.430  0.9397E+00  0.3392E+00
    -10.420  0.1030E+01  0.3495E+00
    -10.410  0.1111E+01  0.3606E+00
    -10.400  0.1178E+01  0.3723E+00
    -10.390  0.1229E+01  0.3846E+00
    -10.380  0.1261E+01  0.3972E+00
    -10.370  0.1271E+01  0.4100E+00
    -10.360  0.1258E+01  0.4225E+00
    -10.350  0.1223E+01  0.4348E+00
    -10.340  0.1168E+01  0.4464E+00
    -10.330  0.1095E+01  0.4574E+00
    -10.320  0.1007E+01  0.4675E+00
    -10.310  0.9097E+00  0.4766E+00
    -10.300  0.8061E+00  0.4846E+00
    -10.290  0.7009E+00  0.4916E+00
    -10.280  0.5978E+00  0.4976E+00
    -10.270  0.5002E+00  0.5026E+00
    -10.260  0.4105E+00  0.5067E+00
    -10.250  0.3304E+00  0.5100E+00
    -10.240  0.2608E+00  0.5126E+00
    -10.230  0.2019E+00  0.5147E+00
    -10.220  0.1533E+00  0.5162E+00
    -10.210  0.1141E+00  0.5173E+00
    -10.200  0.8329E-01  0.5182E+00
    -10.190  0.5960E-01  0.5188E+00
    -10.180  0.4182E-01  0.5192E+00
    -10.170  0.2877E-01  0.5195E+00
    -10.160  0.1941E-01  0.5197E+00
    -10.150  0.1283E-01  0.5198E+00
    -10.140  0.8322E-02  0.5199E+00
    -10.130  0.5294E-02  0.5199E+00
    -10.120  0.3308E-02  0.5200E+00
    -10.110  0.2040E-02  0.5200E+00
    -10.100  0.1257E-02  0.5200E+00
    -10.090  0.8031E-03  0.5200E+00
    -10.080  0.5792E-03  0.5200E+00
    -10.070  0.5328E-03  0.5200E+00
    -10.060  0.6500E-03  0.5200E+00
    -10.050  0.9530E-03  0.5200E+00
    -10.040  0.1502E-02  0.5200E+00
    -10.030  0.2399E-02  0.5201E+00
    -10.020  0.3799E-02  0.5201E+00
    -10.010  0.5919E-02  0.5202E+00
    -10.000  0.9052E-02  0.5202E+00
     -9.990  0.1357E-01  0.5204E+00
     -9.980  0.1996E-01  0.5206E+00
     -9.970  0.2876E-01  0.5209E+00
     -9.960  0.4064E-01  0.5213E+00
     -9.950  0.5630E-01  0.5218E+00
     -9.940  0.7645E-01  0.5226E+00
     -9.930  0.1018E+00  0.5236E+00
     -9.920  0.1329E+00  0.5250E+00
     -9.910  0.1702E+00  0.5267E+00
     -9.900  0.2136E+00  0.5288E+00
     -9.890  0.2631E+00  0.5314E+00
     -9.880  0.3178E+00  0.5346E+00
     -9.870  0.3768E+00  0.5384E+00
     -9.860  0.4383E+00  0.5427E+00
     -9.850  0.5007E+00  0.5478E+00
     -9.840  0.5618E+00  0.5534E+00
     -9.830  0.6196E+00  0.5596E+00
     -9.820  0.6721E+00  0.5663E+00
     -9.810  0.7178E+00  0.5735E+00
     -9.800  0.7556E+00  0.5810E+00
     -9.790  0.7850E+00  0.5889E+00
     -9.780  0.8063E+00  0.5969E+00
     -9.770  0.8205E+00  0.6051E+00
     -9.760  0.8291E+00  0.6134E+00
     -9.750  0.8340E+00  0.6218E+00
     -9.740  0.8375E+00  0.6301E+00
     -9.730  0.8419E+00  0.6386E+00
     -9.720  0.8493E+00  0.6471E+00
     -9.710  0.8617E+00  0.6557E+00
     -9.700  0.8805E+00  0.6645E+00
     -9.690  0.9070E+00  0.6736E+00
     -9.680  0.9419E+00  0.6830E+00
     -9.670  0.9852E+00  0.6928E+00
     -9.660  0.1037E+01  0.7032E+00
     -9.650  0.1096E+01  0.7142E+00
     -9.640  0.1161E+01  0.7258E+00
     -9.630  0.1231E+01  0.7381E+00
     -9.620  0.1303E+01  0.7511E+00
     -9.610  0.1374E+01  0.7648E+00
     -9.600  0.1441E+01  0.7792E+00
     -9.590  0.1501E+01  0.7943E+00
     -9.580  0.1550E+01  0.8098E+00
     -9.570  0.1584E+01  0.8256E+00
     -9.560  0.1601E+01  0.8416E+00
     -9.550  0.1597E+01  0.8576E+00
     -9.540  0.1573E+01  0.8733E+00
     -9.530  0.1527E+01  0.8886E+00
     -9.520  0.1461E+01  0.9032E+00
     -9.510  0.1377E+01  0.9170E+00
     -9.500  0.1277E+01  0.9297E+00
     -9.490  0.1166E+01  0.9414E+00
     -9.480  0.1049E+01  0.9519E+00
     -9.470  0.9292E+00  0.9612E+00
     -9.460  0.8121E+00  0.9693E+00
     -9.450  0.7014E+00  0.9763E+00
     -9.440  0.6003E+00  0.9823E+00
     -9.430  0.5113E+00  0.9874E+00
     -9.420  0.4357E+00  0.9918E+00
     -9.410  0.3743E+00  0.9955E+00
     -9.400  0.3265E+00  0.9988E+00
     -9.390  0.2915E+00  0.1002E+01
     -9.380  0.2675E+00  0.1004E+01
     -9.370  0.2526E+00  0.1007E+01
     -9.360  0.2445E+00  0.1009E+01
     -9.350  0.2411E+00  0.1012E+01
     -9.340  0.2403E+00  0.1014E+01
     -9.330  0.2401E+00  0.1017E+01
     -9.320  0.2390E+00  0.1019E+01
     -9.310  0.2360E+00  0.1021E+01
     -9.300  0.2305E+00  0.1024E+01
     -9.290  0.2222E+00  0.1026E+01
     -9.280  0.2113E+00  0.1028E+01
     -9.270  0.1985E+00  0.1030E+01
     -9.260  0.1846E+00  0.1032E+01
     -9.250  0.1706E+00  0.1033E+01
     -9.240  0.1579E+00  0.1035E+01
     -9.230  0.1477E+00  0.1037E+01
     -9.220  0.1410E+00  0.1038E+01
     -9.210  0.1391E+00  0.1039E+01
     -9.200  0.1427E+00  0.1041E+01
     -9.190  0.1526E+00  0.1042E+01
     -9.180  0.1690E+00  0.1044E+01
     -9.170  0.1921E+00  0.1046E+01
     -9.160  0.2213E+00  0.1048E+01
     -9.150  0.2560E+00  0.1051E+01
     -9.140  0.2949E+00  0.1054E+01
     -9.130  0.3367E+00  0.1057E+01
     -9.120  0.3794E+00  0.1061E+01
     -9.110  0.4210E+00  0.1065E+01
     -9.100  0.4595E+00  0.1070E+01
     -9.090  0.4928E+00  0.1075E+01
     -9.080  0.5191E+00  0.1080E+01
     -9.070  0.5370E+00  0.1085E+01
     -9.060  0.5454E+00  0.1091E+01
     -9.050  0.5439E+00  0.1096E+01
     -9.040  0.5329E+00  0.1101E+01
     -9.030  0.5130E+00  0.1106E+01
     -9.020  0.4856E+00  0.1111E+01
     -9.010  0.4526E+00  0.1116E+01
     -9.000  0.4163E+00  0.1120E+01
     -8.990  0.3792E+00  0.1124E+01
     -8.980  0.3438E+00  0.1127E+01
     -8.970  0.3130E+00  0.1130E+01
     -8.960  0.2894E+00  0.1133E+01
     -8.950  0.2757E+00  0.1136E+01
     -8.940  0.2746E+00  0.1139E+01
     -8.930  0.2883E+00  0.1142E+01
     -8.920  0.3191E+00  0.1145E+01
     -8.910  0.3687E+00  0.1148E+01
     -8.900  0.4384E+00  0.1153E+01
     -8.890  0.5287E+00  0.1158E+01
     -8.880  0.6395E+00  0.1165E+01
     -8.870  0.7694E+00  0.1172E+01
     -8.860  0.9158E+00  0.1181E+01
     -8.850  0.1075E+01  0.1192E+01
     -8.840  0.1242E+01  0.1205E+01
     -8.830  0.1411E+01  0.1219E+01
     -8.820  0.1575E+01  0.1234E+01
     -8.810  0.1728E+01  0.1252E+01
     -8.800  0.1861E+01  0.1270E+01
     -8.790  0.1970E+01  0.1290E+01
     -8.780  0.2050E+01  0.1311E+01
     -8.770  0.2098E+01  0.1332E+01
     -8.760  0.2113E+01  0.1353E+01
     -8.750  0.2096E+01  0.1374E+01