    5    5    1    1
  0.3477306E+02  0.2573869E-09  0.2573869E-09  0.3030466E-08  0.5000000E-15
  1.000000000000000E-004
  CAR 
 unknown system                          
     45     31     28
 
  0.0000000E+00  0.0000000E+00  0.0000000E+00  0.1000000E-01
    1      -11.563456   1.000000
    2      -10.660558   1.000000
    3       -9.023040   1.000000
    4       -7.570622   1.000000
    5       -6.261545   1.000000
    6       -5.681279   1.000000
    7       -5.504114   1.000000
    8       -5.450995   1.000000
    9       -5.328879   1.000000
   10       -5.320369   1.000000
   11       -5.303111   1.000000
   12       -5.287882   1.000000
   13       -5.281218   1.000000
   14       -5.028949   1.000000
   15       -5.026096   1.000000
   16       -4.878680   1.000000
   17       -4.860174   1.000000
   18       -4.698645   1.000000
   19       -4.527390   1.000000
   20       -4.524808   1.000000
   21       -4.311619   1.000000
   22       -4.299456   1.000000
   23       -4.024149   1.000000
   24       -4.020830   1.000000
   25       -2.932130   1.000000
   26        1.610344   0.000000
   27        1.914253   0.000000
   28        2.339965   0.000000
 
  0.1000000E+00  0.6938894E-17  0.0000000E+00  0.4000000E-01
    1      -11.255675   1.000000
    2      -10.364330   1.000000
    3       -8.762501   1.000000
    4       -7.352645   1.000000
    5       -6.281314   1.000000
    6       -5.728530   1.000000
    7       -5.611471   1.000000
    8       -5.457459   1.000000
    9       -5.405559   1.000000
   10       -5.362706   1.000000
   11       -5.327886   1.000000
   12       -5.220689   1.000000
   13       -5.190227   1.000000
   14       -5.130735   1.000000
   15       -5.042599   1.000000
   16       -4.939733   1.000000
   17       -4.780592   1.000000
   18       -4.708741   1.000000
   19       -4.535719   1.000000
   20       -4.499064   1.000000
   21       -4.327159   1.000000
   22       -4.297114   1.000000
   23       -4.016344   1.000000
   24       -3.785855   1.000000
   25       -2.243074   0.034788
   26        1.854471   0.000000
   27        2.218080   0.000000
   28        2.643160   0.000000
 
  0.2000000E+00 -0.1387779E-16  0.0000000E+00  0.4000000E-01
    1      -10.370158   1.000000
    2       -9.527761   1.000000
    3       -8.091190   1.000000
    4       -6.846526   1.000000
    5       -6.386011   1.000000
    6       -5.963792   1.000000
    7       -5.779244   1.000000
    8       -5.697641   1.000000
    9       -5.534079   1.000000
   10       -5.306744   1.000000
   11       -5.248453   1.000000
   12       -5.197075   1.000000
   13       -5.085074   1.000000
   14       -5.030944   1.000000
   15       -4.921656   1.000000
   16       -4.867221   1.000000
   17       -4.817891   1.000000
   18       -4.641357   1.000000
   19       -4.588404   1.000000
   20       -4.477601   1.000000
   21       -4.297127   1.000000
   22       -4.092646   1.000000
   23       -4.008929   1.000000
   24       -2.889169   1.000000
   25       -0.909666   0.000000
   26        2.579704   0.000000
   27        3.128619   0.000000
   28        3.552694   0.000000
 
  0.3000000E+00 -0.2775558E-16  0.0000000E+00  0.4000000E-01
    1       -9.070045   1.000000
    2       -8.384439   1.000000
    3       -7.446655   1.000000
    4       -6.678176   1.000000
    5       -6.403654   1.000000
    6       -6.236364   1.000000
    7       -5.919347   1.000000
    8       -5.695438   1.000000
    9       -5.580028   1.000000
   10       -5.316272   1.000000
   11       -5.181071   1.000000
   12       -5.092378   1.000000
   13       -4.914641   1.000000
   14       -4.874111   1.000000
   15       -4.771451   1.000000
   16       -4.635378   1.000000
   17       -4.565084   1.000000
   18       -4.394090   1.000000
   19       -4.363109   1.000000
   20       -4.288385   1.000000
   21       -4.172793   1.000000
   22       -3.993808   1.000000
   23       -3.588288   1.000000
   24       -1.684629   0.000000
   25        0.776542   0.000000
   26        3.765051   0.000000
   27        4.611729   0.000000
   28        5.030086   0.000000
 
  0.4000000E+00 -0.2775558E-16  0.0000000E+00  0.4000000E-01
    1       -8.000838   1.000000
    2       -7.459241   1.000000
    3       -7.129896   1.000000
    4       -6.776332   1.000000
    5       -6.541373   1.000000
    6       -6.406506   1.000000
    7       -6.057194   1.000000
    8       -5.512033   1.000000
    9       -5.375396   1.000000
   10       -5.298343   1.000000
   11       -5.235266   1.000000
   12       -4.957737   1.000000
   13       -4.835244   1.000000
   14       -4.505674   1.000000
   15       -4.408220   1.000000
   16       -4.344062   1.000000
   17       -4.144074   1.000000
   18       -4.124304   1.000000
   19       -4.083343   1.000000
   20       -3.997631   1.000000
   21       -3.856873   1.000000
   22       -3.568901   1.000000
   23       -2.521087   0.982872
   24       -0.267693   0.000000
   25        2.138973   0.000000
   26        2.874850   0.000000
   27        3.179623   0.000000
   28        4.388035   0.000000
 
  0.5000000E+00 -0.2775558E-16  0.0000000E+00  0.2000000E-01
    1       -7.786627   1.000000
    2       -7.157244   1.000000
    3       -6.939652   1.000000
    4       -6.836004   1.000000
    5       -6.609956   1.000000
    6       -6.462579   1.000000
    7       -6.089416   1.000000
    8       -5.436386   1.000000
    9       -5.382023   1.000000
   10       -5.257098   1.000000
   11       -5.151761   1.000000
   12       -4.943959   1.000000
   13       -4.603135   1.000000
   14       -4.454704   1.000000
   15       -4.292991   1.000000
   16       -4.217508   1.000000
   17       -4.076497   1.000000
   18       -3.987015   1.000000
   19       -3.927451   1.000000
   20       -3.742142   1.000000
   21       -3.651093   1.000000
   22       -2.248856   0.041558
   23       -1.384552   0.000000
   24       -0.850203   0.000000
   25        1.350926   0.000000
   26        2.161213   0.000000
   27        2.775930   0.000000
   28        3.684557   0.000000
 
  0.0000000E+00  0.1000000E+00  0.0000000E+00  0.2000000E-01
    1      -11.268450   1.000000
    2      -10.366055   1.000000
    3       -8.753675   1.000000
    4       -7.347951   1.000000
    5       -6.209423   1.000000
    6       -5.751118   1.000000
    7       -5.548128   1.000000
    8       -5.401447   1.000000
    9       -5.399896   1.000000
   10       -5.368905   1.000000
   11       -5.317292   1.000000
   12       -5.252304   1.000000
   13       -5.186410   1.000000
   14       -5.133581   1.000000
   15       -5.042011   1.000000
   16       -4.959992   1.000000
   17       -4.867439   1.000000
   18       -4.725895   1.000000
   19       -4.543445   1.000000
   20       -4.491931   1.000000
   21       -4.330142   1.000000
   22       -4.306456   1.000000
   23       -4.018878   1.000000
   24       -3.807455   1.000000
   25       -2.252052   0.045736
   26        1.855407   0.000000
   27        2.217908   0.000000
   28        2.642716   0.000000
 
  0.2000000E+00  0.1000000E+00  0.0000000E+00  0.2000000E-01
    1      -10.649024   1.000000
    2       -9.797220   1.000000
    3       -8.303236   1.000000
    4       -6.982632   1.000000
    5       -6.364721   1.000000
    6       -5.854261   1.000000
    7       -5.767568   1.000000
    8       -5.620548   1.000000
    9       -5.518297   1.000000
   10       -5.393852   1.000000
   11       -5.293431   1.000000
   12       -5.189929   1.000000
   13       -5.133230   1.000000
   14       -5.090259   1.000000
   15       -4.980902   1.000000
   16       -4.867827   1.000000
   17       -4.742043   1.000000
   18       -4.641106   1.000000
   19       -4.589939   1.000000
   20       -4.476993   1.000000
   21       -4.375505   1.000000
   22       -4.108806   1.000000
   23       -4.047526   1.000000
   24       -3.122971   1.000000
   25       -1.292057   0.000000
   26        2.339229   0.000000
   27        2.825755   0.000000
   28        3.249993   0.000000
 
  0.3000000E+00  0.1000000E+00  0.0000000E+00  0.4000000E-01
    1       -9.545565   1.000000
    2       -8.794684   1.000000
    3       -7.630834   1.000000
    4       -6.614819   1.000000
    5       -6.321379   1.000000
    6       -6.074060   1.000000
    7       -5.883428   1.000000
    8       -5.806590   1.000000
    9       -5.645798   1.000000
   10       -5.350684   1.000000
   11       -5.310921   1.000000
   12       -5.184087   1.000000
   13       -5.086267   1.000000
   14       -4.966276   1.000000
   15       -4.886730   1.000000
   16       -4.780096   1.000000
   17       -4.644910   1.000000
   18       -4.496264   1.000000
   19       -4.373579   1.000000
   20       -4.332717   1.000000
   21       -4.184001   1.000000
   22       -4.071256   1.000000
   23       -3.702967   1.000000
   24       -2.087905   0.000030
   25        0.173740   0.000000
   26        3.314545   0.000000
   27        4.035509   0.000000
   28        4.476035   0.000000
 
  0.4000000E+00  0.1000000E+00  0.0000000E+00  0.4000000E-01
    1       -8.340488   1.000000
    2       -7.725420   1.000000
    3       -7.152393   1.000000
    4       -6.636501   1.000000
    5       -6.393000   1.000000
    6       -6.238099   1.000000
    7       -5.969178   1.000000
    8       -5.665752   1.000000
    9       -5.578584   1.000000
   10       -5.317452   1.000000
   11       -5.257528   1.000000
   12       -5.109324   1.000000
   13       -4.942837   1.000000
   14       -4.778531   1.000000
   15       -4.690393   1.000000
   16       -4.531840   1.000000
   17       -4.419020   1.000000
   18       -4.303934   1.000000
   19       -4.201176   1.000000
   20       -4.019470   1.000000
   21       -3.970884   1.000000
   22       -3.660276   1.000000
   23       -2.807025   1.000000
   24       -0.660750   0.000000
   25        1.968996   0.000000
   26        3.982571   0.000000
   27        4.444041   0.000000
   28        5.106894   0.000000
 
  0.5000000E+00  0.1000000E+00  0.0000000E+00  0.4000000E-01
    1       -7.812081   1.000000
    2       -7.075544   1.000000
    3       -6.894759   1.000000
    4       -6.691422   1.000000
    5       -6.513933   1.000000
    6       -6.344339   1.000000
    7       -6.057241   1.000000
    8       -5.539666   1.000000
    9       -5.431770   1.000000
   10       -5.319136   1.000000
   11       -5.208664   1.000000
   12       -5.032857   1.000000
   13       -4.811491   1.000000
   14       -4.568895   1.000000
   15       -4.428414   1.000000
   16       -4.282461   1.000000
   17       -4.162133   1.000000
   18       -4.128005   1.000000
   19       -4.056452   1.000000
   20       -3.905375   1.000000
   21       -3.457169   1.000000
   22       -2.370944   0.497482
   23       -1.347321   0.000000
   24        0.095651   0.000000
   25        1.647262   0.000000
   26        2.535224   0.000000
   27        2.968975   0.000000
   28        4.162351   0.000000
 
 -0.4000000E+00  0.1000000E+00  0.0000000E+00  0.4000000E-01
    1       -7.732779   1.000000
    2       -7.076475   1.000000
    3       -6.883275   1.000000
    4       -6.712043   1.000000
    5       -6.513875   1.000000
    6       -6.374498   1.000000
    7       -6.077218   1.000000
    8       -5.601170   1.000000
    9       -5.415888   1.000000
   10       -5.327224   1.000000
   11       -5.250754   1.000000
   12       -5.039326   1.000000
   13       -4.834648   1.000000
   14       -4.544754   1.000000
   15       -4.437646   1.000000
   16       -4.280898   1.000000
   17       -4.167985   1.000000
   18       -4.102708   1.000000
   19       -4.056777   1.000000
   20       -3.901416   1.000000
   21       -3.377852   1.000000
   22       -2.371952   0.503171
   23       -1.371378   0.000000
   24        0.085434   0.000000
   25        1.638556   0.000000
   26        2.500769   0.000000
   27        3.014691   0.000000
   28        4.141109   0.000000
 
 -0.3000000E+00  0.1000000E+00  0.0000000E+00  0.4000000E-01
    1       -8.293857   1.000000
    2       -7.692233   1.000000
    3       -7.129258   1.000000
    4       -6.648831   1.000000
    5       -6.397141   1.000000
    6       -6.276761   1.000000
    7       -6.006316   1.000000
    8       -5.707011   1.000000
    9       -5.602297   1.000000
   10       -5.339297   1.000000
   11       -5.296133   1.000000
   12       -5.121485   1.000000
   13       -4.949329   1.000000
   14       -4.781780   1.000000
   15       -4.635114   1.000000
   16       -4.532953   1.000000
   17       -4.403000   1.000000
   18       -4.249994   1.000000
   19       -4.172695   1.000000
   20       -4.006928   1.000000
   21       -3.941998   1.000000
   22       -3.657026   1.000000
   23       -2.860756   1.000000
   24       -0.757909   0.000000
   25        1.896244   0.000000
   26        4.042277   0.000000
   27        4.505763   0.000000
   28        5.125801   0.000000
 
 -0.2000000E+00  0.1000000E+00  0.0000000E+00  0.4000000E-01
    1       -9.589154   1.000000
    2       -8.772854   1.000000
    3       -7.552485   1.000000
    4       -6.578580   1.000000
    5       -6.303886   1.000000
    6       -6.096198   1.000000
    7       -5.911327   1.000000
    8       -5.813688   1.000000
    9       -5.643277   1.000000
   10       -5.355513   1.000000
   11       -5.312538   1.000000
   12       -5.214487   1.000000
   13       -5.059643   1.000000
   14       -4.948314   1.000000
   15       -4.827318   1.000000
   16       -4.779447   1.000000
   17       -4.618658   1.000000
   18       -4.531920   1.000000
   19       -4.394940   1.000000
   20       -4.329036   1.000000
   21       -4.181483   1.000000
   22       -4.076340   1.000000
   23       -3.754853   1.000000
   24       -2.197310   0.006911
   25        0.119726   0.000000
   26        3.310559   0.000000
   27        4.035486   0.000000
   28        4.479988   0.000000
 
 -0.1000000E+00  0.1000000E+00  0.0000000E+00  0.4000000E-01
    1      -10.685178   1.000000
    2       -9.797042   1.000000
    3       -8.267391   1.000000
    4       -6.964237   1.000000
    5       -6.239005   1.000000
    6       -5.858725   1.000000
    7       -5.759777   1.000000
    8       -5.610799   1.000000
    9       -5.505811   1.000000
   10       -5.367498   1.000000
   11       -5.214559   1.000000
   12       -5.195174   1.000000
   13       -5.142008   1.000000
   14       -5.124804   1.000000
   15       -4.983224   1.000000
   16       -4.902750   1.000000
   17       -4.747458   1.000000
   18       -4.671911   1.000000
   19       -4.641888   1.000000
   20       -4.503248   1.000000
   21       -4.387236   1.000000
   22       -4.115665   1.000000
   23       -4.061975   1.000000
   24       -3.204222   1.000000
   25       -1.321853   0.000000
   26        2.340587   0.000000
   27        2.825359   0.000000
   28        3.249401   0.000000
 
  0.0000000E+00  0.2000000E+00  0.0000000E+00  0.2000000E-01
    1      -10.438391   1.000000
    2       -9.531991   1.000000
    3       -8.040942   1.000000
    4       -6.814887   1.000000
    5       -6.166084   1.000000
    6       -5.908107   1.000000
    7       -5.728745   1.000000
    8       -5.638051   1.000000
    9       -5.532187   1.000000
   10       -5.330336   1.000000
   11       -5.240172   1.000000
   12       -5.208440   1.000000
   13       -5.104203   1.000000
   14       -5.076130   1.000000
   15       -4.950887   1.000000
   16       -4.890680   1.000000
   17       -4.856633   1.000000
   18       -4.658930   1.000000
   19       -4.620685   1.000000
   20       -4.490104   1.000000
   21       -4.303857   1.000000
   22       -4.161660   1.000000
   23       -4.011738   1.000000
   24       -3.015731   1.000000
   25       -0.959107   0.000000
   26        2.577343   0.000000
   27        3.128203   0.000000
   28        3.553251   0.000000
 
  0.4000000E+00  0.2000000E+00  0.0000000E+00  0.2000000E-01
    1       -8.489312   1.000000
    2       -7.816459   1.000000
    3       -7.107510   1.000000
    4       -6.511597   1.000000
    5       -6.181859   1.000000
    6       -6.084578   1.000000
    7       -5.968832   1.000000
    8       -5.879580   1.000000
    9       -5.618433   1.000000
   10       -5.473863   1.000000
   11       -5.357774   1.000000
   12       -5.277489   1.000000
   13       -5.024718   1.000000
   14       -4.965554   1.000000
   15       -4.759656   1.000000
   16       -4.694757   1.000000
   17       -4.456624   1.000000
   18       -4.341623   1.000000
   19       -4.243135   1.000000
   20       -4.012993   1.000000
   21       -3.967777   1.000000
   22       -3.606970   1.000000
   23       -2.810721   1.000000
   24       -0.790739   0.000000
   25        1.750363   0.000000
   26        4.553853   0.000000
   27        5.205886   0.000000
   28        5.619314   0.000000
 
  0.5000000E+00  0.2000000E+00  0.0000000E+00  0.4000000E-01
    1       -7.853911   1.000000
    2       -6.915014   1.000000
    3       -6.701063   1.000000
    4       -6.480339   1.000000
    5       -6.293819   1.000000
    6       -6.152209   1.000000
    7       -5.968442   1.000000
    8       -5.801037   1.000000
    9       -5.609363   1.000000
   10       -5.508927   1.000000
   11       -5.357060   1.000000
   12       -5.095964   1.000000
   13       -4.998653   1.000000
   14       -4.856835   1.000000
   15       -4.673395   1.000000
   16       -4.562631   1.000000
   17       -4.414649   1.000000
   18       -4.227607   1.000000
   19       -4.086041   1.000000
   20       -3.921211   1.000000
   21       -3.298837   1.000000
   22       -2.390203   0.604904
   23       -1.202294   0.000000
   24        0.877182   0.000000
   25        2.763946   0.000000
   26        3.629149   0.000000
   27        3.804650   0.000000
   28        4.960699   0.000000
 
 -0.4000000E+00  0.2000000E+00  0.0000000E+00  0.4000000E-01
    1       -7.615405   1.000000
    2       -6.687341   1.000000
    3       -6.614007   1.000000
    4       -6.416257   1.000000
    5       -6.311089   1.000000
    6       -6.184703   1.000000
    7       -5.995815   1.000000
    8       -5.849416   1.000000
    9       -5.583123   1.000000
   10       -5.493859   1.000000
   11       -5.328401   1.000000
   12       -5.132076   1.000000
   13       -4.923950   1.000000
   14       -4.742142   1.000000
   15       -4.596461   1.000000
   16       -4.493017   1.000000
   17       -4.309721   1.000000
   18       -4.148959   1.000000
   19       -4.093433   1.000000
   20       -3.988045   1.000000
   21       -2.484864   0.945728
   22       -0.745365   0.000000
   23       -0.171164   0.000000
   24        0.599041   0.000000
   25        1.753879   0.000000
   26        2.806520   0.000000
   27        3.350154   0.000000
   28        4.298755   0.000000
 
 -0.3000000E+00  0.2000000E+00  0.0000000E+00  0.4000000E-01
    1       -7.716005   1.000000
    2       -6.921005   1.000000
    3       -6.710371   1.000000
    4       -6.483982   1.000000
    5       -6.300229   1.000000
    6       -6.197840   1.000000
    7       -5.984663   1.000000
    8       -5.839129   1.000000
    9       -5.615330   1.000000
   10       -5.542170   1.000000
   11       -5.417309   1.000000
   12       -5.099128   1.000000
   13       -5.003214   1.000000
   14       -4.855801   1.000000
   15       -4.686283   1.000000
   16       -4.570224   1.000000
   17       -4.409347   1.000000
   18       -4.226622   1.000000
   19       -4.056137   1.000000
   20       -3.921194   1.000000
   21       -3.132245   1.000000
   22       -2.403169   0.673437
   23       -1.300620   0.000000
   24        0.715092   0.000000
   25        2.750728   0.000000
   26        3.617436   0.000000
   27        3.796476   0.000000
   28        4.872721   0.000000
 
 -0.2000000E+00  0.2000000E+00  0.0000000E+00  0.4000000E-01
    1       -8.573365   1.000000
    2       -7.740482   1.000000
    3       -6.984946   1.000000
    4       -6.483439   1.000000
    5       -6.157616   1.000000
    6       -6.086872   1.000000
    7       -5.960562   1.000000
    8       -5.886751   1.000000
    9       -5.620973   1.000000
   10       -5.478245   1.000000
   11       -5.406742   1.000000
   12       -5.345774   1.000000
   13       -5.022239   1.000000
   14       -4.967899   1.000000
   15       -4.823775   1.000000
   16       -4.634501   1.000000
   17       -4.468455   1.000000
   18       -4.302439   1.000000
   19       -4.168211   1.000000
   20       -4.015686   1.000000
   21       -3.911312   1.000000
   22       -3.616558   1.000000
   23       -2.930750   1.000000
   24       -1.026294   0.000000
   25        1.567077   0.000000
   26        4.430835   0.000000
   27        5.410635   0.000000
   28        5.587012   0.000000
 
 -0.1000000E+00  0.2000000E+00  0.0000000E+00  0.4000000E-01
    1       -9.672474   1.000000
    2       -8.775656   1.000000
    3       -7.500813   1.000000
    4       -6.500859   1.000000
    5       -6.231827   1.000000
    6       -6.005703   1.000000
    7       -5.842985   1.000000
    8       -5.772236   1.000000
    9       -5.653529   1.000000
   10       -5.341598   1.000000
   11       -5.308759   1.000000
   12       -5.241068   1.000000
   13       -5.136257   1.000000
   14       -4.974514   1.000000
   15       -4.833864   1.000000
   16       -4.790606   1.000000
   17       -4.617837   1.000000
   18       -4.545209   1.000000
   19       -4.429697   1.000000
   20       -4.331361   1.000000
   21       -4.181540   1.000000
   22       -4.077450   1.000000
   23       -3.814120   1.000000
   24       -2.302817   0.166080
   25        0.063807   0.000000
   26        3.292691   0.000000
   27        4.036387   0.000000
   28        4.467604   0.000000
 
  0.0000000E+00  0.3000000E+00  0.0000000E+00  0.2000000E-01
    1       -9.316369   1.000000
    2       -8.364797   1.000000
    3       -7.297997   1.000000
    4       -6.501099   1.000000
    5       -6.343988   1.000000
    6       -6.040810   1.000000
    7       -5.751920   1.000000
    8       -5.654006   1.000000
    9       -5.449417   1.000000
   10       -5.323241   1.000000
   11       -5.259154   1.000000
   12       -5.126276   1.000000
   13       -4.978598   1.000000
   14       -4.885244   1.000000
   15       -4.758516   1.000000
   16       -4.734466   1.000000
   17       -4.566699   1.000000
   18       -4.413343   1.000000
   19       -4.377061   1.000000
   20       -4.291560   1.000000
   21       -4.172905   1.000000
   22       -3.996361   1.000000
   23       -3.780958   1.000000
   24       -1.983361   0.000000
   25        0.579055   0.000000
   26        3.638267   0.000000
   27        4.631983   0.000000
   28        4.869176   0.000000
 
 -0.4000000E+00  0.3000000E+00  0.0000000E+00  0.2000000E-01
    1       -7.581322   1.000000
    2       -6.449238   1.000000
    3       -6.374531   1.000000
    4       -6.302114   1.000000
    5       -6.188680   1.000000
    6       -6.072255   1.000000
    7       -6.018650   1.000000
    8       -5.932182   1.000000
    9       -5.747497   1.000000
   10       -5.550006   1.000000
   11       -5.466360   1.000000
   12       -5.085820   1.000000
   13       -5.037785   1.000000
   14       -4.847679   1.000000
   15       -4.684383   1.000000
   16       -4.538411   1.000000
   17       -4.478840   1.000000
   18       -4.192134   1.000000
   19       -4.107085   1.000000
   20       -4.011509   1.000000
   21       -2.102429   0.000071
   22       -0.419184   0.000000
   23        0.775279   0.000000
   24        2.184959   0.000000
   25        2.289251   0.000000
   26        2.576362   0.000000
   27        3.310322   0.000000
   28        3.998521   0.000000
 
 -0.3000000E+00  0.3000000E+00  0.0000000E+00  0.4000000E-01
    1       -7.537584   1.000000
    2       -6.452168   1.000000
    3       -6.399619   1.000000
    4       -6.301904   1.000000
    5       -6.194161   1.000000
    6       -6.072902   1.000000
    7       -6.021270   1.000000
    8       -5.915979   1.000000
    9       -5.706285   1.000000
   10       -5.591131   1.000000
   11       -5.472204   1.000000
   12       -5.087400   1.000000
   13       -5.037350   1.000000
   14       -4.863543   1.000000
   15       -4.696153   1.000000
   16       -4.550791   1.000000
   17       -4.477535   1.000000
   18       -4.180438   1.000000
   19       -4.104024   1.000000
   20       -4.012600   1.000000
   21       -1.953337   0.000000
   22       -0.447557   0.000000
   23        0.629097   0.000000
   24        1.813768   0.000000
   25        2.342189   0.000000
   26        2.561188   0.000000
   27        3.249387   0.000000
   28        3.782406   0.000000
 
 -0.2000000E+00  0.3000000E+00  0.0000000E+00  0.4000000E-01
    1       -7.938746   1.000000
    2       -6.879815   1.000000
    3       -6.676242   1.000000
    4       -6.415902   1.000000
    5       -6.278139   1.000000
    6       -6.039628   1.000000
    7       -5.943599   1.000000
    8       -5.767405   1.000000
    9       -5.616336   1.000000
   10       -5.535821   1.000000
   11       -5.391487   1.000000
   12       -5.103343   1.000000
   13       -5.035370   1.000000
   14       -4.888274   1.000000
   15       -4.674469   1.000000
   16       -4.602176   1.000000
   17       -4.412317   1.000000
   18       -4.235474   1.000000
   19       -4.049384   1.000000
   20       -3.921098   1.000000
   21       -3.025248   1.000000
   22       -2.422957   0.767082
   23       -1.408759   0.000000
   24        0.406754   0.000000
   25        2.190353   0.000000
   26        3.248030   0.000000
   27        4.265310   0.000000
   28        5.605304   0.000000
 
 -0.1000000E+00  0.3000000E+00  0.0000000E+00  0.4000000E-01
    1       -8.649955   1.000000
    2       -7.643606   1.000000
    3       -6.994739   1.000000
    4       -6.467997   1.000000
    5       -6.374596   1.000000
    6       -6.082217   1.000000
    7       -5.829800   1.000000
    8       -5.633974   1.000000
    9       -5.488930   1.000000
   10       -5.390796   1.000000
   11       -5.258512   1.000000
   12       -5.151375   1.000000
   13       -5.011811   1.000000
   14       -4.787868   1.000000
   15       -4.705482   1.000000
   16       -4.550603   1.000000
   17       -4.409358   1.000000
   18       -4.232475   1.000000
   19       -4.181703   1.000000
   20       -4.015190   1.000000
   21       -3.940986   1.000000
   22       -3.676784   1.000000
   23       -3.025565   1.000000
   24       -1.079852   0.000000
   25        1.506438   0.000000
   26        3.628513   0.000000
   27        4.547757   0.000000
   28        5.416178   0.000000
 
  0.0000000E+00  0.4000000E+00  0.0000000E+00  0.2000000E-01
    1       -8.506073   1.000000
    2       -7.389677   1.000000
    3       -7.023335   1.000000
    4       -6.555009   1.000000
    5       -6.513248   1.000000
    6       -6.187704   1.000000
    7       -5.793918   1.000000
    8       -5.462176   1.000000
    9       -5.345342   1.000000
   10       -5.342168   1.000000
   11       -5.068434   1.000000
   12       -5.026098   1.000000
   13       -4.729807   1.000000
   14       -4.525833   1.000000
   15       -4.377695   1.000000
   16       -4.373529   1.000000
   17       -4.143280   1.000000
   18       -4.082515   1.000000
   19       -4.042235   1.000000
   20       -4.000000   1.000000
   21       -3.857075   1.000000
   22       -3.554697   1.000000
   23       -2.831146   1.000000
   24       -0.885809   0.000000
   25        1.064296   0.000000
   26        2.604836   0.000000
   27        3.502753   0.000000
   28        4.964870   0.000000
 
 -0.2000000E+00  0.4000000E+00  0.0000000E+00  0.2000000E-01
    1       -7.798590   1.000000
    2       -6.665994   1.000000
    3       -6.618172   1.000000
    4       -6.346355   1.000000
    5       -6.262456   1.000000
    6       -6.025390   1.000000
    7       -5.967902   1.000000
    8       -5.904004   1.000000
    9       -5.525858   1.000000
   10       -5.464461   1.000000
   11       -5.252575   1.000000
   12       -5.128312   1.000000
   13       -4.990640   1.000000
   14       -4.744914   1.000000
   15       -4.624052   1.000000
   16       -4.523975   1.000000
   17       -4.312729   1.000000
   18       -4.135371   1.000000
   19       -4.091952   1.000000
   20       -3.988245   1.000000
   21       -1.941414   0.000000
   22       -0.849361   0.000000
   23       -0.440071   0.000000
   24        0.166082   0.000000
   25        0.824290   0.000000
   26        2.406294   0.000000
   27        3.733052   0.000000
   28        5.012532   0.000000
 
 -0.1000000E+00  0.4000000E+00  0.0000000E+00  0.4000000E-01
    1       -8.189677   1.000000
    2       -7.028797   1.000000
    3       -6.892783   1.000000
    4       -6.520481   1.000000
    5       -6.451447   1.000000
    6       -6.174647   1.000000
    7       -5.832127   1.000000
    8       -5.596628   1.000000
    9       -5.419465   1.000000
   10       -5.281304   1.000000
   11       -5.219518   1.000000
   12       -4.943947   1.000000
   13       -4.779139   1.000000
   14       -4.631103   1.000000
   15       -4.445907   1.000000
   16       -4.298818   1.000000
   17       -4.164749   1.000000
   18       -4.101699   1.000000
   19       -4.042558   1.000000
   20       -3.904057   1.000000
   21       -2.925234   1.000000
   22       -2.418730   0.748409
   23       -1.656659   0.000000
   24       -0.485558   0.000000
   25        0.335451   0.000000
   26        2.179579   0.000000
   27        3.327440   0.000000
   28        4.859927   0.000000
 
  0.0000000E+00  0.5000000E+00  0.0000000E+00  0.1000000E-01
    1       -8.289045   1.000000
    2       -7.099855   1.000000
    3       -6.996078   1.000000
    4       -6.613561   1.000000