unknown system                          
   1.00000000000000     
     2.573869    0.000000    0.000000
     1.286934    2.229036    0.000000
     0.000000    0.000000   30.304665
   Cu   H 
     4     1
Direct
  0.999706  0.000588  0.396567
  0.333186  0.333624  0.465140
  0.665829  0.668343  0.533594
  0.000801  0.998398  0.604216
  0.522907  0.954182  0.637503
 
   10   10  120
 0.13184E-14 0.13531E-15 0.33078E-13 0.66087E-11 0.61479E-14 0.63725E-12 0.17916E-13 0.53160E-12 0.57520E-13 0.16404E-13
 0.13711E-13 0.40792E-12 0.28232E-12 0.29085E-11 0.13975E-13 0.44811E-11 0.20525E-13 0.38362E-11 0.14676E-14 0.14919E-14
 0.32994E-13 0.89206E-13 0.17855E-12 0.41997E-12 0.48017E-14 0.77577E-13 0.26090E-13 0.15465E-11 0.51820E-13 0.51587E-13
 0.13695E-10 0.96454E-11 0.18713E-12 0.65378E-13 0.17153E-13 0.75391E-12 0.21372E-14 0.20978E-11 0.44928E-12 0.13574E-10
 0.23037E-13 0.10034E-13 0.63560E-14 0.20317E-13 0.16792E-13 0.41883E-13 0.26784E-14 0.13503E-13 0.50612E-13 0.58176E-13
 0.91673E-11 0.79965E-10 0.18838E-12 0.49455E-12 0.35527E-14 0.38462E-11 0.16404E-13 0.80019E-13 0.66613E-14 0.58600E-12
 0.28588E-13 0.34694E-15 0.58537E-13 0.16652E-12 0.31780E-14 0.13101E-13 0.16237E-14 0.17486E-14 0.42327E-14 0.59314E-13
 0.12966E-10 0.83599E-11 0.13549E-12 0.26328E-11 0.29005E-13 0.72220E-13 0.99920E-15 0.31225E-14 0.82573E-14 0.23403E-11
 0.42154E-13 0.31766E-13 0.12986E-13 0.12525E-12 0.89651E-14 0.12559E-13 0.14988E-14 0.17902E-13 0.17358E-12 0.89762E-13
 0.19741E-14 0.10093E-13 0.53622E-13 0.10474E-10 0.13781E-13 0.48476E-10 0.97977E-14 0.26028E-10 0.22893E-12 0.21207E-13
 0.13600E-14 0.75981E-15 0.29449E-13 0.20416E-12 0.25396E-14 0.58592E-13 0.41106E-13 0.19124E-13 0.14589E-13 0.95514E-14
 0.10741E-13 0.24990E-12 0.28400E-12 0.13931E-11 0.76189E-14 0.15309E-11 0.60674E-13 0.35554E-11 0.76605E-14 0.29629E-14
 0.64487E-13 0.18287E-12 0.22392E-12 0.32148E-12 0.29005E-14 0.38566E-13 0.47407E-13 0.12472E-11 0.49773E-13 0.52600E-13
 0.17005E-11 0.40056E-11 0.10625E-12 0.84516E-14 0.80214E-14 0.31654E-12 0.12629E-13 0.23965E-11 0.38632E-12 0.18312E-10
 0.62172E-14 0.81601E-14 0.39552E-14 0.63005E-14 0.65642E-14 0.19984E-13 0.35943E-14 0.10159E-13 0.34972E-13 0.31877E-13
 0.40011E-12 0.51486E-10 0.14370E-12 0.12515E-12 0.30115E-14 0.35043E-11 0.30892E-13 0.39435E-12 0.19970E-13 0.16104E-10
 0.17310E-12 0.43437E-14 0.13434E-12 0.55358E-12 0.40523E-14 0.46102E-13 0.65781E-14 0.61340E-14 0.10825E-13 0.12901E-12
 0.41614E-11 0.75586E-11 0.16412E-12 0.29648E-11 0.16334E-13 0.35692E-12 0.29976E-14 0.12768E-13 0.28255E-13 0.37011E-10
 0.14239E-13 0.33733E-13 0.18804E-13 0.19143E-12 0.10006E-13 0.28158E-13 0.32335E-14 0.40454E-13 0.22485E-12 0.54665E-13
 0.29768E-14 0.97110E-14 0.42542E-13 0.11754E-10 0.83683E-14 0.62567E-11 0.21358E-13 0.29734E-09 0.22441E-12 0.48430E-13
 0.52042E-15 0.51695E-15 0.11269E-13 0.33029E-13 0.10825E-14 0.10797E-13 0.16792E-13 0.86042E-15 0.34972E-14 0.30601E-14
 0.40870E-14 0.12720E-12 0.20296E-12 0.43195E-12 0.42188E-14 0.52416E-12 0.15205E-12 0.32704E-11 0.11227E-13 0.23280E-14
 0.19637E-13 0.39074E-12 0.18469E-12 0.12684E-12 0.16931E-14 0.79659E-14 0.59508E-13 0.84223E-12 0.38573E-13 0.47996E-13
 0.34001E-13 0.15964E-11 0.29074E-13 0.17486E-14 0.38580E-14 0.84641E-13 0.37179E-13 0.26040E-11 0.33319E-12 0.21609E-10
 0.16237E-14 0.56205E-14 0.24841E-14 0.22898E-14 0.27062E-14 0.92149E-14 0.33168E-14 0.49544E-14 0.18596E-13 0.15959E-13
 0.32099E-13 0.24312E-11 0.58925E-13 0.24813E-13 0.22482E-14 0.35136E-11 0.56302E-13 0.22183E-11 0.28935E-13 0.13494E-10
 0.42633E-13 0.67446E-14 0.18872E-12 0.19686E-11 0.38441E-14 0.16230E-12 0.28977E-13 0.29865E-13 0.24286E-13 0.28211E-12
 0.11027E-12 0.60016E-11 0.18879E-12 0.30436E-11 0.75634E-14 0.18534E-11 0.10547E-13 0.77827E-13 0.57690E-13 0.14387E-09
 0.35735E-14 0.27658E-13 0.21677E-13 0.27206E-12 0.75356E-14 0.42050E-13 0.66613E-14 0.46449E-13 0.19523E-12 0.29449E-13
 0.15890E-14 0.55025E-14 0.28776E-13 0.79767E-11 0.33584E-14 0.26669E-11 0.45464E-13 0.20801E-10 0.21180E-12 0.84807E-13
 0.45797E-15 0.66613E-15 0.47184E-14 0.12046E-13 0.38858E-15 0.28866E-14 0.50515E-14 0.16653E-15 0.92981E-15 0.14155E-14
 0.21233E-14 0.84127E-13 0.14840E-12 0.31966E-12 0.28588E-14 0.32432E-12 0.70649E-12 0.28963E-11 0.19471E-13 0.34556E-14
 0.54956E-14 0.88066E-12 0.18428E-12 0.10378E-12 0.11935E-14 0.65503E-14 0.96728E-13 0.58577E-12 0.30698E-13 0.40482E-13
 0.63838E-14 0.10010E-11 0.19998E-13 0.74940E-15 0.23870E-14 0.60951E-13 0.24905E-12 0.26930E-11 0.22468E-12 0.26951E-10
 0.66613E-15 0.49266E-14 0.17070E-14 0.12906E-14 0.13600E-14 0.49682E-14 0.33723E-14 0.42466E-14 0.10492E-13 0.96936E-14
 0.58425E-14 0.85949E-12 0.43299E-13 0.20289E-13 0.21233E-14 0.36164E-11 0.15724E-12 0.22927E-10 0.90983E-13 0.18358E-11
 0.68695E-14 0.87569E-13 0.26752E-12 0.53335E-10 0.39690E-14 0.90417E-12 0.42893E-12 0.77166E-12 0.81046E-13 0.92694E-12
 0.22524E-13 0.52331E-11 0.20967E-12 0.33862E-11 0.46213E-14 0.15847E-10 0.94758E-13 0.72973E-11 0.17905E-12 0.69983E-11
 0.99920E-15 0.27409E-13 0.24716E-13 0.31150E-12 0.67724E-14 0.83267E-13 0.18485E-13 0.97367E-13 0.18228E-12 0.11172E-13
 0.13461E-14 0.44964E-14 0.18638E-13 0.39209E-11 0.24980E-14 0.13533E-11 0.12612E-12 0.54269E-11 0.18111E-12 0.12211E-12
 0.24980E-15 0.52736E-15 0.25119E-14 0.52458E-14 0.27756E-15 0.10547E-14 0.13600E-14 0.83267E-16 0.26368E-15 0.58287E-15
 0.92981E-15 0.46255E-13 0.70277E-13 0.88263E-13 0.17764E-14 0.16856E-12 0.37499E-11 0.26337E-11 0.24522E-13 0.34833E-14
 0.20539E-14 0.29127E-11 0.15256E-12 0.44770E-13 0.49960E-15 0.74940E-15 0.71290E-13 0.34353E-12 0.24342E-13 0.40787E-13
 0.17070E-14 0.52175E-12 0.51070E-14 0.16653E-15 0.12212E-14 0.25688E-13 0.15766E-11 0.27821E-11 0.23941E-12 0.39993E-10
 0.26368E-15 0.37470E-14 0.10963E-14 0.52736E-15 0.47184E-15 0.25258E-14 0.26923E-14 0.23870E-14 0.61201E-14 0.51764E-14
 0.19568E-14 0.28139E-12 0.18624E-13 0.60785E-14 0.18180E-14 0.40994E-11 0.39493E-12 0.31540E-10 0.65559E-13 0.14987E-11
 0.14294E-14 0.24530E-12 0.19049E-12 0.95206E-10 0.32335E-14 0.19990E-11 0.23647E-11 0.20815E-11 0.12926E-12 0.14613E-11
 0.72858E-14 0.43633E-11 0.22828E-12 0.36623E-11 0.20817E-14 0.26352E-10 0.23898E-12 0.57183E-11 0.13062E-12 0.32425E-11
 0.34694E-15 0.22871E-13 0.28311E-13 0.44928E-12 0.49682E-14 0.65475E-13 0.27089E-13 0.47101E-13 0.12293E-12 0.58009E-14
 0.83267E-15 0.29421E-14 0.13045E-13 0.17950E-11 0.91593E-15 0.19153E-11 0.23384E-12 0.31516E-11 0.17772E-12 0.23534E-12
 0.13878E-15 0.47184E-15 0.16515E-14 0.27200E-14 0.16653E-15 0.38858E-15 0.66613E-15 -.83267E-16 0.83267E-16 0.20817E-15
 0.34694E-15 0.33237E-13 0.26479E-13 0.55206E-13 0.11657E-14 0.10864E-12 0.23380E-09 0.23233E-11 0.38233E-13 0.36499E-14
 0.11657E-14 0.44053E-10 0.14178E-12 0.34112E-13 0.44409E-15 0.61062E-15 0.56538E-13 0.22131E-12 0.22288E-13 0.33848E-13
 0.59674E-15 0.35309E-12 0.31919E-14 0.11102E-15 0.86042E-15 0.18624E-13 0.21616E-09 0.27171E-11 0.18310E-12 0.52594E-10
 0.12490E-15 0.31503E-14 0.81879E-15 0.36082E-15 0.26368E-15 0.14017E-14 0.25535E-14 0.17902E-14 0.43576E-14 0.34139E-14
 0.81879E-15 0.14191E-12 0.13142E-13 0.43854E-14 0.15127E-14 0.43152E-11 0.14587E-11 0.50317E-09 0.56316E-13 0.11154E-11
 0.54123E-15 0.91452E-12 0.13128E-12 0.24472E-10 0.29560E-14 0.20969E-11 0.13895E-11 0.15260E-12 0.13556E-12 0.12179E-11
 0.32196E-14 0.38134E-11 0.31189E-12 0.38163E-11 0.12212E-14 0.10386E-09 0.49682E-13 0.33193E-12 0.12024E-12 0.16304E-11
 0.15266E-15 0.26756E-13 0.36929E-13 0.56012E-12 0.47462E-14 0.67224E-13 0.39246E-13 0.34334E-13 0.11635E-12 0.27756E-15
 0.47184E-15 0.19429E-14 0.51209E-14 0.22055E-12 0.72164E-15 0.21662E-11 0.38453E-12 0.17856E-11 0.15532E-12 0.36698E-12
 0.16653E-15 0.38858E-15 0.97145E-15 0.16653E-14 0.16653E-15 0.22204E-15 0.33307E-15 0.16653E-15  0.0000     0.11102E-15
 0.18041E-15 0.12684E-13 0.19429E-15 0.60230E-14 0.66613E-15 0.64004E-13 0.15439E-08 0.20658E-11 0.35208E-13 0.40939E-14
 0.48572E-15 0.35361E-10 0.11718E-12 0.19262E-13 0.24980E-15  0.0000     0.18152E-13 0.78007E-13 0.13184E-13 0.27936E-13
 0.22204E-15 0.20087E-12 0.74940E-15 -.27756E-16 0.55511E-15 0.11047E-13 0.30889E-09 0.26660E-11 0.16637E-12 0.77680E-10
 0.12490E-15 0.24980E-14 0.58981E-15 0.25674E-15 0.11102E-15 0.61062E-15 0.18596E-14 0.12559E-14 0.26368E-14 0.22135E-14
 0.43021E-15 0.62887E-13 0.70430E-14 0.21164E-14 0.12559E-14 0.54831E-11 0.97768E-12 0.84685E-12 0.21178E-13 0.16179E-11
 0.18041E-15 0.28726E-12 0.68945E-13 0.96995E-07 0.22621E-14 0.58797E-12 0.84793E-13 0.12990E-13 0.27561E-13 0.27651E-12
 0.15821E-14 0.31151E-11 0.28114E-12 0.29516E-11 0.52736E-15 0.31170E-12 0.42466E-14 0.29143E-13 0.45214E-13 0.11627E-11
 0.12490E-15 0.17916E-13 0.35472E-13 0.70849E-12 0.34972E-14 0.34639E-13 0.16265E-13 0.10492E-13 0.68889E-13 0.12906E-14
 0.38858E-15 0.14572E-14 0.72164E-15 0.24425E-14 0.33307E-15 0.32311E-10 0.21788E-12 0.13489E-11 0.14136E-12 0.59097E-12
 0.16653E-15 0.38858E-15 0.63838E-15 0.16931E-14 0.55511E-16 0.30531E-15 0.33307E-15 0.27756E-16 -.55511E-16 0.83267E-16
 0.13878E-15 0.83961E-14 0.14433E-14 0.15543E-14 0.52736E-15 0.45380E-13 0.57352E-09 0.18316E-11 0.47684E-13 0.45519E-14
 0.38858E-15 0.35814E-11 0.10464E-12 0.14488E-13 0.24980E-15 0.83267E-16 0.59674E-14 0.41758E-13 0.11685E-13 0.26923E-13
 0.14572E-15 0.13824E-12 0.47184E-15  0.0000     0.36082E-15 0.80005E-14 0.33955E-09 0.25049E-11 0.16084E-12 0.13698E-09
 0.62450E-16 0.20955E-14 0.45103E-15 0.13878E-15 -.17347E-16 0.38164E-15 0.16306E-14 0.10131E-14 0.17972E-14 0.15613E-14
 0.28449E-15 0.36408E-13 0.48329E-14 0.13982E-14 0.11172E-14 0.54823E-11 0.32664E-12 0.18818E-12 0.11727E-13 0.18530E-11
 0.16653E-15 0.12890E-12 0.38251E-13 0.82103E-11 0.21094E-14 0.25051E-12 0.22926E-13 0.35527E-14 0.86042E-14 0.80269E-13
 0.10131E-14 0.27249E-11 0.49355E-12 0.11852E-13 0.34694E-15 0.58453E-13 0.13045E-14 0.86320E-14 0.29074E-13 0.78579E-12
 0.83267E-16 0.20595E-13 0.44048E-13 0.11133E-11 0.31086E-14 0.24425E-13 0.79103E-14 0.47740E-14 0.42244E-13 0.80491E-14
 0.30531E-15 0.10270E-14  0.0000     0.19335E-12 0.19429E-15 0.24722E-10 0.11208E-12 0.93661E-12 0.12822E-12 0.13432E-11
 0.69389E-16 0.36082E-15 0.52736E-15 0.12490E-14 0.13878E-15 0.11102E-15 0.24980E-15 0.11102E-15 0.83267E-16 0.69389E-17
 0.83267E-16 0.18180E-14 0.23648E-13 0.34556E-14 0.44409E-15 0.31322E-13 0.71346E-11 0.17868E-11 0.49127E-13 0.41911E-14
 0.22204E-15 0.15697E-11 0.87048E-13 0.10519E-13 0.97145E-16 0.55511E-16 0.19013E-14 0.26368E-15 0.75356E-14 0.23648E-13
 0.27756E-16 0.78468E-13 0.22204E-15 0.10408E-16 0.29143E-15 0.57350E-14 0.40805E-11 0.23506E-11 0.99656E-13 0.13475E-09
 0.69389E-16 0.18874E-14 0.38858E-15 0.90206E-16 -.19949E-16 0.18735E-15 0.12906E-14 0.70777E-15 0.12976E-14 0.95757E-15
 0.16653E-15 0.17542E-13 0.33029E-14 0.10148E-14 0.92634E-15 0.93516E-11 0.60743E-13 0.51792E-13 0.70430E-14 0.47232E-11
 -.69389E-17 0.39913E-13 0.22069E-13 0.90932E-12 0.17417E-14 0.10283E-12 0.78132E-14 0.12906E-14 0.25258E-14 0.19748E-13
 0.56205E-15 0.21800E-11 0.45388E-12 0.58943E-11 0.55511E-16 0.15044E-13 0.34694E-15 0.32196E-14 0.16029E-13 0.63266E-12
 0.69389E-16 0.15696E-13 0.44742E-13 0.13512E-11 0.27478E-14 0.14960E-13 0.34972E-14 0.21927E-14 0.21844E-13 0.43923E-13
 0.24286E-15 0.43021E-15 0.84655E-15 0.78557E-12 0.27756E-16 0.10681E-11 0.44492E-13 0.77996E-12 0.12408E-12 0.35667E-11
 0.55511E-16 0.26368E-15 0.40939E-15 0.14155E-14 0.41633E-16 0.22204E-15 0.13878E-15 0.12490E-15  0.0000      0.0000    
 0.12490E-15 0.13878E-14 0.36762E-13 0.25993E-13 0.31225E-15 0.26534E-13 0.15875E-11 0.21598E-11 0.64143E-13 0.49544E-14
 0.19429E-15 0.90517E-12 0.77539E-13 0.91316E-14 0.48572E-16 0.97145E-16 0.45797E-15 0.93467E-14 0.72789E-14 0.26618E-13
 0.83267E-16 0.45828E-13 0.55511E-16 -.24286E-16 0.16306E-15 0.46300E-14 0.80504E-12 0.21847E-11 0.99261E-13 0.69384E-09
 0.34694E-16 0.16549E-14 0.29490E-15  0.0000     -.34694E-16 0.19429E-15 0.11310E-14 0.70083E-15 0.10547E-14 0.76328E-15
 0.10408E-15 0.12206E-13 0.22274E-14 0.67134E-15 0.90206E-15 0.88005E-11 0.19380E-13 0.21871E-13 0.37401E-14 0.85139E-11
 0.69389E-16 0.16029E-13 0.12698E-13 0.26105E-12 0.15751E-14 0.57218E-13 0.40523E-14 0.49960E-15 0.10963E-14 0.82157E-14
 0.53429E-15 0.19052E-11 0.59887E-12 0.10423E-10 0.90206E-16 0.56344E-14 0.12490E-15 0.15127E-14 0.94300E-14 0.47776E-12
 0.55511E-16 0.19651E-13 0.54831E-13 0.23918E-11 0.22482E-14 0.96312E-14 0.18874E-14 0.10131E-14 0.99920E-14 0.67890E-13
 0.18041E-15 0.33307E-15 0.12212E-14 0.79520E-12  0.0000     0.49949E-12 0.24258E-13 0.58842E-12 0.16704E-12 0.26997E-09
 0.13878E-16 0.31919E-15 0.38164E-15 0.10339E-14 0.97145E-16 0.13878E-15 0.97145E-16 0.41633E-16 0.41633E-16  0.0000    
 -.13878E-16 0.11935E-14 0.56816E-13 0.30496E-13 0.18041E-15 0.17757E-13 0.68410E-12 0.23331E-11 0.59480E-13 0.46907E-14
 0.15266E-15 0.76533E-12 0.62499E-13 0.79485E-14 0.86736E-16 0.38164E-16 0.27756E-16 0.71020E-13 0.36707E-14 0.17153E-13
 0.27756E-16 0.21989E-13 -.10408E-16 0.76328E-16 0.15959E-15 0.35041E-14 0.30456E-12 0.19978E-11 0.70652E-13 0.37758E-09
 0.13878E-16 0.13670E-14 0.21858E-15 0.83267E-16 -.83267E-16 0.69389E-16 0.81879E-15 0.52042E-15 0.65226E-15 0.48572E-15
 0.19429E-15 0.49682E-14 0.15994E-14 0.45103E-15 0.65226E-15 0.23185E-10 0.43923E-14 0.94508E-14 0.21233E-14 0.32910E-09
 -.13878E-16 0.94508E-14 0.68348E-14 0.10250E-12 0.11449E-14 0.30587E-13 0.19984E-14 0.40246E-15 0.40246E-15 0.21025E-14
 0.40939E-15 0.15246E-11 0.61462E-12 0.82840E-11 -.13878E-16 0.19151E-14 0.16653E-15 0.88818E-15 0.59536E-14 0.40520E-12
 0.13878E-16 0.12261E-13 0.53846E-13 0.31643E-11 0.18319E-14 0.62034E-14 0.91593E-15 0.42327E-15 0.28727E-14 0.20215E-12
 0.18735E-15 0.11102E-15 0.75218E-14 0.98955E-12 -.83267E-16 0.11383E-12 0.10873E-13 0.50997E-12 0.17472E-12 0.23676E-09
 0.55511E-16 0.37470E-15 0.43715E-15 0.95757E-15 0.97145E-16 0.16653E-15 0.18041E-15 0.48572E-16 0.41633E-16 0.69389E-17
  0.0000     0.34833E-14 0.63977E-13 0.91940E-13 0.14572E-15 0.15758E-13 0.34461E-12 0.25233E-11 0.10683E-12 0.50793E-14
 0.97145E-16 0.71058E-12 0.55816E-13 0.86667E-14 0.83267E-16 -.69389E-17 0.12490E-15 0.13980E-12 0.36082E-14 0.17653E-13
 0.41633E-16 0.66683E-14 0.13878E-16 0.48572E-16 0.13878E-15 0.33931E-14 0.13941E-12 0.18148E-11 0.66433E-13 0.29247E-08
 0.83267E-16 0.12698E-14 0.18041E-15 0.11102E-15  0.0000     0.76328E-16 0.70777E-15 0.47878E-15 0.59674E-15 0.39552E-15
 0.90206E-16 0.36360E-14 0.13670E-14 0.38858E-15 0.74246E-15 0.33453E-10 0.23107E-14 0.62103E-14 0.19637E-14 0.18982E-10
 0.13878E-16 0.51209E-14 0.46560E-14 0.48690E-13 0.11102E-14 0.21191E-13 0.16029E-14 0.22204E-15 0.31919E-15 0.11727E-14
 0.30531E-15 0.13086E-11 0.71024E-12 0.84288E-11 0.48572E-16 0.13461E-14 0.69389E-16 0.72164E-15 0.46282E-14 0.32437E-12
  0.0000     0.13503E-13 0.64615E-13 0.49092E-11 0.17070E-14 0.47809E-14 0.77022E-15 0.49266E-15 0.14572E-14 0.39016E-12
 0.16653E-15 0.55511E-16 0.10041E-13 0.10096E-11 0.13878E-16 0.85223E-13 0.73691E-14 0.41138E-12 0.21351E-12 0.12236E-10
 -.13878E-16 0.38164E-15 0.47878E-15 0.10547E-14 0.11102E-15 0.20817E-16 0.12490E-15 0.27756E-16 -.55511E-16 -.20817E-16
 0.55511E-16 0.99920E-14 0.70416E-13 0.10107E-12 0.20817E-16 0.11650E-13 0.21998E-12 0.27813E-11 0.14188E-12 0.54262E-14
 0.34694E-16 0.65535E-12 0.59591E-13 0.74662E-14 -.34694E-16 0.55511E-16 0.14572E-15 0.24162E-12 0.21788E-14 0.16084E-13
 -.20817E-16 0.18735E-14 -.69389E-17 -.20817E-16 0.15266E-15 0.30184E-14 0.79520E-13 0.16915E-11 0.48350E-13 0.33917E-06
 0.69389E-17 0.10547E-14 0.15266E-15 0.97145E-16 -.13878E-16 0.83267E-16 0.60368E-15 0.46491E-15 0.39552E-15 0.29143E-15
 0.20817E-16 0.19290E-14 0.86042E-15 0.32613E-15 0.55511E-15 0.17434E-09 0.79103E-15 0.32335E-14 0.10339E-14 0.25545E-11
 -.69389E-16 0.39205E-14 0.31850E-14 0.25840E-13 0.92287E-15 0.13579E-13 0.83267E-15 0.16653E-15 0.11102E-15 0.30531E-15
 0.30531E-15 0.10823E-11 0.71716E-12 0.17302E-10 0.27756E-16 0.54123E-15 0.20817E-16 0.31225E-15 0.29005E-14 0.34615E-12
 0.34694E-16 0.12088E-13 0.78902E-13 0.58492E-11 0.14433E-14 0.31572E-14 0.34694E-15 0.55511E-16 0.11102E-15 0.12956E-11
 0.76328E-16 0.27756E-16 0.17125E-13 0.97358E-12 0.69389E-16 0.40003E-13 0.39066E-14 0.38183E-12 0.21496E-12 0.51756E-11
 -.13878E-16 0.43715E-15 0.44409E-15 0.86042E-15 -.69389E-17 0.90206E-16 0.83267E-16 -.13878E-16  0.0000     0.83267E-16
 0.55511E-16 0.17514E-13 0.73545E-13 0.21283E-12 0.69389E-16 0.99712E-14 0.13697E-12 0.30786E-11 0.19355E-12 0.53846E-14
 0.48572E-16 0.63642E-12 0.67786E-13 0.73969E-14 0.48572E-16 0.10408E-15 0.26368E-15 0.34013E-12 0.12559E-14 0.17104E-13
 0.13878E-16 0.99920E-15  0.0000     -.20817E-16 0.15959E-15 0.33307E-14 0.57301E-13 0.14621E-11 0.39413E-13 0.17947E-08
 -.34694E-16 0.11727E-14 0.16653E-15 -.13878E-16  0.0000     0.11796E-15 0.44409E-15 0.33307E-15 0.34001E-15 0.23592E-15
 0.76328E-16 0.10339E-14 0.73552E-15 0.24980E-15 0.55511E-15 0.41618E-08 0.29143E-15 0.21858E-14 0.92981E-15 0.12473E-11
 0.20817E-16 0.24217E-14 0.22968E-14 0.14724E-13 0.74940E-15 0.98810E-14 0.61756E-15 0.76328E-16  0.0000     0.12490E-15
 0.20817E-15 0.92209E-12 0.76698E-12 0.10761E-10 -.62450E-16 0.32613E-15 0.69389E-17 0.26368E-15 0.23662E-14 0.34608E-12
 0.69389E-17 0.11519E-13 0.92357E-13 0.80989E-11 0.12906E-14 0.24702E-14 0.25674E-15 0.11102E-15 0.27756E-16 0.13539E-10
 0.97145E-16 0.34694E-16 0.21289E-13 0.92675E-12 -.69389E-17 0.27915E-13 0.26160E-14 0.35100E-12 0.24140E-12 0.33372E-11
 0.27756E-16 0.52736E-15 0.53429E-15 0.88818E-15 0.27756E-16 0.69389E-17 0.13184E-15 0.48572E-16 -.62450E-16 0.55511E-16
 0.55511E-16 0.38532E-13 0.68008E-13 0.39070E-12 0.83267E-16 0.82434E-14 0.11675E-12 0.34137E-11 0.27186E-12 0.54956E-14
 0.13878E-16 0.64584E-12 0.70097E-13 0.75773E-14 0.97145E-16 0.14572E-15 0.39552E-15 0.42635E-12 0.11033E-14 0.16064E-13
 -.20817E-16 0.14544E-13 -.27756E-16 0.97145E-16 0.15266E-15 0.31503E-14 0.50168E-13 0.13547E-11 0.40884E-13 0.46116E-09
 -.13878E-16 0.14572E-14 0.17347E-15 0.27756E-16 0.13878E-16 0.48572E-16 0.34694E-15 0.27062E-15 0.26368E-15 0.19429E-15
 0.62450E-16 0.65226E-15 0.56899E-15 0.18041E-15 0.54123E-15 0.13238E-08 0.17347E-15 0.13670E-14 0.64532E-15 0.59913E-12
 0.13878E-16 0.17208E-14 0.16723E-14 0.93051E-14 0.64532E-15 0.71540E-14 0.47878E-15 0.12837E-15 0.53776E-16 0.41633E-16
 0.22204E-15 0.77572E-12 0.11928E-11 0.14897E-10 0.76328E-16 0.12490E-15 0.57246E-16 0.15266E-15 0.18180E-14 0.36320E-12
 0.69389E-16 0.10623E-13 0.13271E-12 0.10824E-10 0.12212E-14 0.19082E-14 0.30184E-15 0.11796E-15 0.55511E-16 0.61057E-10
 0.10408E-15 0.55511E-16 0.27152E-13 0.83468E-12 0.97145E-16 0.17701E-13 0.19776E-14 0.37485E-12 0.28245E-12 0.25509E-11
 0.27756E-16 0.49960E-15 0.44409E-15 0.78410E-15 -.97145E-16 -.41633E-16 0.83267E-16 0.76328E-16 -.20817E-16 0.55511E-16
 0.34694E-16 0.91427E-13 0.64428E-13 0.45890E-12 -.97145E-16 0.59883E-14 0.84259E-13 0.39364E-11 0.30911E-12 0.63560E-14
 0.34694E-16 0.70495E-12 0.68549E-13 0.55927E-14 0.69389E-17 0.13184E-15 0.33307E-15 0.49612E-12 0.19429E-15 0.12712E-13
 0.13878E-16 0.30552E-13 -.69389E-17 0.83267E-16 0.11102E-15 0.25396E-14 0.42237E-13 0.11871E-11 0.31898E-13 0.23285E-09
 0.41633E-16 0.10547E-14 0.13878E-15 -.13878E-16 -.13878E-16 0.62450E-16 0.23592E-15 0.23592E-15 0.16306E-15 0.45103E-16
 0.13878E-16 0.62450E-16 0.32613E-15 0.19429E-15 0.44409E-15 0.43480E-10 -.13878E-16 0.81532E-15 0.44062E-15 0.33828E-12
 0.41633E-16 0.12282E-14 0.11588E-14 0.59397E-14 0.51348E-15 0.58183E-14 0.23419E-15 -.34694E-17 -.13357E-15 0.38164E-16
 0.13878E-15 0.68809E-12 0.14795E-11 0.13051E-10 0.55511E-16 0.78063E-16 0.59848E-16 0.15526E-15 0.12022E-14 0.39037E-12
 0.69389E-17 0.87430E-14 0.13274E-12 0.13101E-10 0.12525E-14 0.11935E-14 0.12490E-15 0.85001E-16 0.36429E-15 0.39281E-11
 0.55511E-16 0.11102E-15 0.42681E-13 0.76043E-12 0.55511E-16 0.10433E-13 0.10894E-14 0.37912E-12 0.29469E-12 0.21116E-11
 0.41633E-16 0.68001E-15 0.59674E-15 0.86042E-15 0.16653E-15 0.13878E-15 0.15266E-15 0.16653E-15  0.0000     0.90206E-16
 0.41633E-16 0.11895E-12 0.61090E-13 0.95034E-12 0.62450E-16 0.57315E-14 0.59577E-13 0.39989E-11 0.45808E-12 0.10006E-13
 0.27756E-16 0.67180E-12 0.66842E-13 0.74801E-14 0.34694E-16 0.12490E-15 0.49960E-15 0.63233E-12 0.43021E-15 0.13795E-13
  0.0000     0.11912E-12 0.20817E-16 0.10408E-15 0.17347E-15 0.34694E-14 0.30649E-13 0.12022E-11 0.25174E-13 0.10043E-09
 0.83267E-16 0.15682E-14 0.15959E-15 0.20817E-16 0.13878E-16  0.0000     0.23592E-15 0.27756E-15 0.15266E-15 0.17694E-15
 0.83267E-16 0.15266E-15 0.40246E-15 0.83267E-16 0.56899E-15 0.34486E-10 0.19429E-15 0.86563E-15 0.39552E-15 0.43786E-12
 0.20817E-16 0.86042E-15 0.86042E-15 0.37401E-14 0.44409E-15 0.73275E-14 0.36429E-15 0.11102E-15 0.11059E-16 0.10408E-15
 0.23592E-15 0.54989E-12 0.11990E-11 0.17102E-10 0.11102E-15 0.11666E-15  0.0000     0.11623E-15 0.11692E-14 0.45769E-12
 0.83267E-16 0.99781E-14 0.20792E-12 0.16270E-10 0.14190E-14 0.14155E-14 0.28970E-15 -.52042E-16 0.68695E-15 0.14626E-11
 0.55511E-16 0.16653E-15 0.48406E-13 0.67552E-12 0.76328E-16 0.10733E-13 0.98532E-15 0.44044E-12 0.32014E-12 0.18733E-11
 -.13878E-16 0.72164E-15 0.55511E-15 0.73552E-15 -.55511E-16 -.18041E-15 0.12490E-15  0.0000     -.27756E-16  0.0000    
 -.69389E-17 0.33637E-12 0.55365E-13 0.11360E-11 -.10408E-15 0.45935E-14 0.63921E-13 0.44251E-11 0.63761E-12 0.10686E-13
 0.97145E-16 0.73631E-12 0.90150E-13 0.71818E-14 -.27756E-16 0.83267E-16 0.24980E-15 0.67084E-12 0.27756E-16 0.13933E-13
 0.27756E-16 0.17509E-12 -.69389E-17 -.13878E-16 0.13878E-15 0.33584E-14 0.35347E-13 0.12254E-11 0.22669E-13 0.64687E-10
 0.55511E-16 0.16445E-14 0.69389E-16 -.27756E-16 0.83267E-16 0.41633E-16 0.17347E-15 0.24286E-15 0.90206E-16 0.11102E-15
 0.97145E-16 0.27756E-16 0.30531E-15 0.13878E-15 0.56899E-15 0.14103E-10 0.16653E-15 0.42674E-15 0.33307E-15 0.24974E-12
 0.48572E-16 0.74246E-15 0.81879E-15 0.28380E-14 0.42327E-15 0.52042E-14 0.15959E-15 0.55511E-16 -.78063E-16 0.69389E-16
 0.16653E-15 0.48211E-12 0.17948E-11 0.19314E-10 0.34694E-16 0.41633E-16 0.69389E-16 0.21164E-15 0.86042E-15 0.45202E-12
 0.41633E-16 0.92357E-14 0.22339E-12 0.19065E-10 0.18943E-14 0.94369E-15 0.13878E-16 -.13878E-16 0.54123E-15 0.74463E-12
 0.13878E-15 0.22204E-15 0.54526E-13 0.61777E-12 -.55511E-16 0.56274E-14 0.54123E-15 0.42280E-12 0.36235E-12 0.17404E-11
 0.27756E-16 0.80491E-15 0.70777E-15 0.84655E-15 0.97145E-16 0.41633E-16 0.15266E-15 0.69389E-16 0.13878E-16 0.55511E-16
 0.13878E-16 0.70954E-12 0.50432E-13 0.22633E-11 0.10408E-15 0.38580E-14 0.54234E-13 0.45995E-11 0.82925E-12 0.13767E-13
 0.69389E-16 0.74164E-12 0.79381E-13 0.66683E-14 0.27756E-16 0.19429E-15 0.44409E-15 0.72549E-12 0.12490E-15 0.14114E-13
 -.55511E-16 0.29443E-12 0.62450E-16 0.16653E-15 0.24980E-15 0.32474E-14 0.32870E-13 0.14050E-11 0.22982E-13 0.35672E-10
 0.13878E-16 0.18666E-14 0.16653E-15  0.0000     0.27756E-16 0.27756E-16 0.22204E-15 0.15266E-15 0.76328E-16 0.11102E-15
 0.83267E-16 0.11102E-15 0.26368E-15 0.11102E-15 0.68001E-15 0.69851E-11 0.27756E-16 0.42327E-15 0.19429E-15 0.30614E-12
 0.41633E-16 0.74246E-15 0.47184E-15 0.20817E-14 0.33307E-15 0.63005E-14 0.21511E-15 0.13878E-16 0.17347E-16 0.16653E-15
 0.22204E-15 0.39807E-12 0.21931E-11 0.28669E-10 0.69389E-16 0.69389E-16 0.12490E-15 0.27756E-16 0.10825E-14 0.50736E-12
 0.41633E-16 0.90067E-14 0.34900E-12 0.25052E-10 0.20678E-14 0.11657E-14 0.18041E-15 0.27756E-16 0.83961E-15 0.51381E-12
 0.13878E-15 0.27756E-15 0.62575E-13 0.53797E-12 0.55511E-16 0.55095E-14 0.63838E-15 0.45334E-12 0.40037E-12 0.16725E-11
  0.0000     0.97145E-15 0.58287E-15 0.76328E-15 -.83267E-16 -.18041E-15 -.69389E-16 -.11102E-15 -.12490E-15 0.55511E-16
 -.13878E-16 0.57989E-11 0.45949E-13 0.34380E-11 -.27756E-16 0.32474E-14 0.50543E-13 0.51531E-11 0.96143E-12 0.25174E-13
 0.69389E-16 0.78833E-12 0.99420E-13 0.68001E-14 0.13878E-16 0.16653E-15 0.18041E-15 0.76009E-12 -.55511E-16 0.12990E-13
 0.13878E-16 0.54257E-12 0.69389E-16 -.27756E-16 0.23592E-15 0.35527E-14 0.31405E-13 0.13648E-11 0.16334E-13 0.25234E-10
 0.41633E-16 0.19151E-14 0.16653E-15 0.69389E-16 0.13878E-16 0.69389E-16 0.11102E-15 0.18041E-15 0.97145E-16 0.83267E-16
  0.0000     0.13878E-15 0.16653E-15 0.12490E-15 0.62450E-15 0.55837E-11 0.11102E-15 0.29143E-15 0.26368E-15 0.24884E-12
 0.83267E-16 0.47184E-15 0.55511E-15 0.15266E-14 0.34694E-15 0.52736E-14 0.16653E-15  0.0000     -.12490E-15 0.83267E-16
 0.16653E-15 0.35051E-12 0.28562E-11 0.27276E-10 0.27756E-16 0.27756E-16 -.27756E-16 0.97145E-16 0.74940E-15 0.54415E-12
 0.27756E-16 0.80491E-14 0.32956E-12 0.27441E-10 0.19845E-14 0.62450E-15 -.97145E-16 0.27756E-16 0.65226E-15 0.32845E-12
 0.11102E-15 0.18041E-15 0.86070E-13 0.47677E-12  0.0000     0.37054E-14 0.16653E-15 0.47416E-12 0.40740E-12 0.16170E-11
 -.13878E-16 0.10131E-14 0.79103E-15 0.98532E-15 0.55511E-16 -.69389E-16 0.11102E-15 0.97145E-16 -.27756E-16  0.0000    
  0.0000     0.95900E-10 0.41175E-13 0.31732E-11 0.13878E-16 0.29698E-14 0.52028E-13 0.58712E-11 0.13044E-11 0.28103E-13
 0.41633E-16 0.88693E-12 0.96978E-13 0.73552E-14 0.13878E-16 -.41633E-16 0.24980E-15 0.76349E-12 0.13878E-16 0.12809E-13
 -.41633E-16 0.46416E-12 0.13878E-16 0.83267E-16 0.11102E-15 0.38441E-14 0.33765E-13 0.17980E-11 0.15890E-13 0.15848E-10
 0.27756E-16 0.20955E-14 0.16653E-15 -.27756E-16  0.0000     0.41633E-16 0.16653E-15 0.19429E-15 0.69389E-16 0.97145E-16
 0.27756E-16 0.83267E-16 0.16653E-15 0.97145E-16 0.69389E-15 0.22755E-11 0.11102E-15 0.20817E-15 0.19429E-15 0.26618E-12
  0.0000     0.54123E-15 0.37470E-15 0.12768E-14 0.29143E-15 0.63421E-14 0.23592E-15 0.97145E-16 -.27756E-16 0.27756E-16
 0.22204E-15 0.30938E-12 0.41321E-11 0.85216E-10 0.12490E-15 -.27756E-16 0.55511E-16 -.41633E-16 0.83267E-15 0.59791E-12
  0.0000     0.80075E-14 0.56029E-12 0.33279E-10 0.24841E-14 0.83267E-15 0.69389E-16 -.69389E-16 0.86042E-15 0.27245E-12
 0.22204E-15 0.40246E-15 0.97561E-13 0.42311E-12  0.0000     0.34694E-14 0.27756E-15 0.50500E-12 0.47046E-12 0.15527E-11
 0.20817E-16 0.12629E-14 0.72164E-15 0.11102E-14 -.55511E-16 -.69389E-16 0.69389E-16 0.27756E-16 0.13878E-16 0.13878E-16
  0.0000     0.21950E-11 0.37401E-13 0.47991E-10 0.11102E-15 0.25535E-14 0.46407E-13 0.58518E-11 0.16628E-11 0.41619E-13
 0.83267E-16 0.89416E-12 0.11338E-12 0.71471E-14 0.55511E-16 0.18041E-15 0.18041E-15 0.78994E-12 -.27756E-16 0.13683E-13
 0.13878E-16 0.31320E-11 0.27756E-16 0.27756E-16 0.15266E-15 0.34694E-14 0.32682E-13 0.16672E-11 0.12615E-13 0.11277E-10
 -.27756E-16 0.24286E-14 0.15266E-15 0.27756E-16 -.83267E-16 0.55511E-16 0.16653E-15 0.19429E-15 0.12490E-15 0.11102E-15
 0.13878E-16 0.11102E-15 0.13878E-15 0.83267E-16 0.83267E-15 0.27544E-11 0.97145E-16 0.20817E-15 0.24980E-15 0.25313E-12
 0.27756E-16 0.36082E-15 0.33307E-15 0.94369E-15 0.19429E-15 0.61062E-14 0.26368E-15 -.13878E-16 0.55511E-16 0.11102E-15
 0.19429E-15 0.26046E-12 0.51210E-11 0.46533E-10 0.83267E-16 0.27756E-16 0.27756E-16 0.22204E-15 0.99920E-15 0.61828E-12
 0.97145E-16 0.82712E-14 0.61631E-12 0.34486E-10 0.26368E-14 0.83267E-15 0.16653E-15 0.13878E-16 0.73552E-15 0.21434E-12
 0.13878E-15 0.33307E-15 0.10685E-12 0.37444E-12 0.12490E-15 0.26368E-14 0.19429E-15 0.52887E-12 0.48823E-12 0.15767E-11
 -.34694E-17 0.13496E-14 0.77022E-15 0.94369E-15 -.55511E-16 -.55511E-16 0.11102E-15 0.27756E-16 -.13878E-16 0.58981E-16
 0.62450E-16 0.64661E-12 0.33640E-13 0.72821E-11 0.69389E-16 0.28311E-14 0.49377E-13 0.65399E-11 0.20753E-11 0.53142E-13
 0.55511E-16 0.98109E-12 0.12844E-12 0.99781E-14 0.27756E-16 0.83267E-16 0.18041E-15 0.79084E-12 -.13878E-16 0.13191E-13
 -.27756E-16 0.13360E-11 0.27756E-16 0.69389E-16 0.83267E-16 0.56483E-14 0.35333E-13 0.18803E-11 0.81601E-14 0.93659E-11
 0.41633E-16 0.27756E-14 0.24980E-15 -.13878E-16 0.13878E-16 0.41633E-16 0.97145E-16 0.12490E-15 -.27756E-16 0.55511E-16
 0.27756E-16 0.11102E-15 0.12490E-15 0.12490E-15 0.97145E-15 0.14529E-11 0.55511E-16 0.18041E-15 0.83267E-16 0.26625E-12
 0.41633E-16 0.40246E-15 0.29143E-15 0.83267E-15 0.15266E-15 0.68973E-14 0.22204E-15 0.41633E-16 -.13878E-16 0.55511E-16
 0.15266E-15 0.22878E-12 0.53919E-11 0.74943E-10 0.55511E-16 0.13878E-16  0.0000     0.27756E-16 0.10825E-14 0.68372E-12
 0.55511E-16 0.78756E-14 0.67030E-12 0.35559E-10 0.32058E-14 0.12212E-14 0.97145E-16  0.0000     0.56899E-15 0.16938E-12
 0.18735E-15 0.47184E-15 0.13364E-12 0.33429E-12 0.13878E-16 0.26229E-14 0.19429E-15 0.57046E-12 0.50827E-12 0.15418E-11
 -.34694E-17 0.13461E-14 0.97838E-15 0.11519E-14 0.13878E-16 -.13878E-15 0.27756E-16 0.55511E-16 -.58981E-16 -.17347E-16
 -.34694E-17 0.36337E-12 0.29712E-13 0.17351E-11 -.27756E-16 0.34972E-14 0.51931E-13 0.76452E-11 0.28405E-11 0.69823E-13
 0.11449E-15 0.11052E-11 0.14315E-12 0.89512E-14 -.27756E-16 0.13878E-16 0.18041E-15 0.71379E-12 0.69389E-17 0.16036E-13
 0.27756E-16 0.61362E-12 0.12490E-15 0.13878E-16 0.16653E-15 0.47046E-14 0.37595E-13 0.23663E-11 0.13003E-13 0.72408E-11
 -.13878E-16 0.34139E-14 0.19429E-15 0.11102E-15 -.13878E-16 0.83267E-16 0.12490E-15 0.83267E-16 0.27756E-16 0.55511E-16
 0.27756E-16 0.41633E-16 0.15266E-15 0.69389E-16 0.12074E-14 0.31620E-11 0.69389E-16 0.15266E-15 0.83267E-16 0.34425E-12
 0.41633E-16 0.30531E-15 0.33307E-15 0.77716E-15 0.36082E-15 0.81185E-14 0.24980E-15  0.0000     0.13878E-16 0.83267E-16
 0.23592E-15 0.20856E-12 0.13694E-10 0.12674E-08 0.13878E-16 -.13878E-16  0.0000     0.55511E-16 0.12490E-14 0.79350E-12
 0.34694E-16 0.86806E-14 0.11161E-11 0.47089E-10 0.38025E-14 0.10963E-14 0.41633E-16 -.27756E-16 0.61062E-15 0.16437E-12
 0.14225E-15 0.43021E-15 0.14052E-12 0.28094E-12 0.27756E-16 0.22760E-14 0.18041E-15 0.64865E-12 0.62800E-12 0.16867E-11
 0.51174E-16 0.17112E-14 0.10003E-14 0.12095E-14 0.48139E-16 0.52042E-16 0.69389E-16 0.53560E-16 -.37432E-16 0.52652E-17
 0.93015E-17 0.18078E-12 0.26596E-13 0.78947E-12 0.56379E-16 0.44270E-14 0.66959E-13 0.80925E-11 0.36420E-11 0.10881E-12
 0.70039E-16 0.12128E-11 0.17935E-12 0.13187E-13 0.12143E-16 0.15179E-16 0.11872E-15 0.69117E-12 0.16697E-16 0.15037E-13
 -.78063E-17 0.40447E-12 -.17347E-17 0.62450E-16 0.16827E-15 0.71887E-14 0.52792E-13 0.26631E-11 0.10911E-13 0.66488E-11