 vasp.5.4.4.18Apr17-6-g9f103f2a35 (build Jun 30 2017 11:15:00) complex          
  
 executed on    STALLO_VASP_5.4.4 date 2019.10.11  13:49:29
 running on    4 total cores
 distrk:  each k-point on    4 cores,    1 groups
 distr:  one band on NCORES_PER_BAND=   2 cores,    2 groups


--------------------------------------------------------------------------------------------------------


 INCAR:
 POTCAR:   PAW_PBE Cu 05Jan2001                   
 POTCAR:   PAW_PBE H 15Jun2001                    
 POTCAR:   PAW_PBE Cu 05Jan2001                   
   VRHFIN =Cu: d10 p1                                                           
   LEXCH  = PE                                                                  
   EATOM  =  1390.9800 eV,  102.2341 Ry                                         
                                                                                
   TITEL  = PAW_PBE Cu 05Jan2001                                                
   LULTRA =        F    use ultrasoft PP ?                                      
   IUNSCR =        1    unscreen: 0-lin 1-nonlin 2-no                           
   RPACOR =    2.000    partial core radius                                     
   POMASS =   63.546; ZVAL   =   11.000    mass and valenz                      
   RCORE  =    2.300    outmost cutoff radius                                   
   RWIGS  =    2.480; RWIGS  =    1.312    wigner-seitz radius (au A)           
   ENMAX  =  273.214; ENMIN  =  204.910 eV                                      
   RCLOC  =    1.712    cutoff for local pot                                    
   LCOR   =        T    correct aug charges                                     
   LPAW   =        T    paw PP                                                  
   EAUG   =  516.456                                                            
   DEXC   =    -.008                                                            
   RMAX   =    2.789    core radius for proj-oper                               
   RAUG   =    1.300    factor for augmentation sphere                          
   RDEP   =    2.302    radius for radial grids                                 
   QCUT   =   -4.481; QGAM   =    8.962    optimization parameters              
                                                                                
   Description                                                                  
     l     E      TYP  RCUT    TYP  RCUT                                        
     2   .000     23  2.300                                                     
     2   .000     23  2.300                                                     
     0   .000     23  2.300                                                     
     0   .000     23  2.300                                                     
     1  -.200     23  2.300                                                     
     1   .000     23  2.300                                                     
     3   .000      7   .000                                                     
  local pseudopotential read in
  partial core-charges read in
  atomic valenz-charges read in
  non local Contribution for L=           2  read in
    real space projection operators read in
  non local Contribution for L=           2  read in
    real space projection operators read in
  non local Contribution for L=           0  read in
    real space projection operators read in
  non local Contribution for L=           0  read in
    real space projection operators read in
  non local Contribution for L=           1  read in
    real space projection operators read in
  non local Contribution for L=           1  read in
    real space projection operators read in
    PAW grid and wavefunctions read in
 
   number of l-projection  operators is LMAX  =           6
   number of lm-projection operators is LMMAX =          18
 
 POTCAR:   PAW_PBE H 15Jun2001                    
   VRHFIN =H: ultrasoft test                                                    
   LEXCH  = PE                                                                  
   EATOM  =    12.4884 eV,     .9179 Ry                                         
                                                                                
   TITEL  = PAW_PBE H 15Jun2001                                                 
   LULTRA =        F    use ultrasoft PP ?                                      
   IUNSCR =        0    unscreen: 0-lin 1-nonlin 2-no                           
   RPACOR =     .000    partial core radius                                     
   POMASS =    1.000; ZVAL   =    1.000    mass and valenz                      
   RCORE  =    1.100    outmost cutoff radius                                   
   RWIGS  =     .700; RWIGS  =     .370    wigner-seitz radius (au A)           
   ENMAX  =  250.000; ENMIN  =  200.000 eV                                      
   RCLOC  =     .701    cutoff for local pot                                    
   LCOR   =        T    correct aug charges                                     
   LPAW   =        T    paw PP                                                  
   EAUG   =  400.000                                                            
   RMAX   =    2.174    core radius for proj-oper                               
   RAUG   =    1.200    factor for augmentation sphere                          
   RDEP   =    1.112    radius for radial grids                                 
   QCUT   =   -5.749; QGAM   =   11.498    optimization parameters              
                                                                                
   Description                                                                  
     l     E      TYP  RCUT    TYP  RCUT                                        
     0   .000     23  1.100                                                     
     0   .500     23  1.100                                                     
     1  -.300     23  1.100                                                     
  local pseudopotential read in
  atomic valenz-charges read in
  non local Contribution for L=           0  read in
    real space projection operators read in
  non local Contribution for L=           0  read in
    real space projection operators read in
  non local Contribution for L=           1  read in
    real space projection operators read in
    PAW grid and wavefunctions read in
 
   number of l-projection  operators is LMAX  =           3
   number of lm-projection operators is LMMAX =           5
 

 ----------------------------------------------------------------------------- 
|                                                                             |
|  ADVICE TO THIS USER RUNNING 'VASP/VAMP'   (HEAR YOUR MASTER'S VOICE ...):  |
|                                                                             |
|      You have a (more or less) 'small supercell' and for smaller cells      |
|      it is recommended  to use the reciprocal-space projection scheme!      |
|      The real space optimization is not  efficient for small cells and it   |
|      is also less accurate ...                                              |
|      Therefore set LREAL=.FALSE. in the  INCAR file                         |
|                                                                             |
 ----------------------------------------------------------------------------- 

 Optimization of the real space projectors (new method)

 maximal supplied QI-value         = 16.25
 optimisation between [QCUT,QGAM] = [  7.96, 16.09] = [ 17.76, 72.49] Ry 
 Optimized for a Real-space Cutoff    1.70 Angstroem

   l    n(q)    QCUT    max X(q) W(low)/X(q) W(high)/X(q)  e(spline) 
   2      7     7.963     4.977    0.65E-04    0.90E-04    0.59E-07
   2      7     7.963    13.467    0.48E-03    0.73E-03    0.12E-06
   0      8     7.963    13.303    0.22E-04    0.12E-04    0.51E-08
   0      8     7.963    44.613    0.10E-03    0.16E-03    0.47E-07
   1      8     7.963     5.276    0.66E-04    0.10E-04    0.22E-07
   1      8     7.963     7.322    0.38E-03    0.18E-03    0.17E-06
 Optimization of the real space projectors (new method)

 maximal supplied QI-value         = 34.20
 optimisation between [QCUT,QGAM] = [  7.87, 16.08] = [ 17.33, 72.37] Ry 
 Optimized for a Real-space Cutoff    1.85 Angstroem

   l    n(q)    QCUT    max X(q) W(low)/X(q) W(high)/X(q)  e(spline) 
   0      9     7.867     4.436    0.44E-04    0.71E-04    0.23E-06
   0      9     7.867    15.341    0.29E-03    0.73E-03    0.99E-06
   1      8     7.867     4.196    0.27E-03    0.13E-02    0.91E-06
 PAW_PBE Cu 05Jan2001                   :
 energy of atom  1       EATOM=-1390.9800
 kinetic energy error for atom=    0.0930 (will be added to EATOM!!)
 PAW_PBE H 15Jun2001                    :
 energy of atom  2       EATOM=  -12.4884
 kinetic energy error for atom=    0.0868 (will be added to EATOM!!)
 
 
 POSCAR: Cu  H                                   
  positions in cartesian coordinates
  velocities in cartesian coordinates
 exchange correlation table for  LEXCH =        8
   RHO(1)=    0.500       N(1)  =     2000
   RHO(2)=  100.500       N(2)  =     4000
 


--------------------------------------------------------------------------------------------------------


 ion  position               nearest neighbor table
   1  1.000  0.001  0.397-   2 2.55   2 2.55   2 2.56
   2  0.333  0.334  0.465-   3 2.55   3 2.55   3 2.55   1 2.55   1 2.55   1 2.56
   3  0.666  0.668  0.534-   2 2.55   2 2.55   2 2.55   4 2.60   4 2.60   4 2.61
   4  0.001  0.998  0.604-   5 1.64   5 1.64   3 2.60   3 2.60   3 2.61
   5  0.523  0.954  0.638-   4 1.64   4 1.64
 
  LATTYP: Found a hexagonal cell.
 ALAT       =     2.5738686835
 C/A-ratio  =    11.7739747694
  
  Lattice vectors:
  
 A1 = (   1.2869343418,  -2.2290356659,   0.0000000000)
 A2 = (  -2.5738686835,   0.0000000000,   0.0000000000)
 A3 = (   0.0000000000,   0.0000000000, -30.3046649396)


Analysis of symmetry for initial positions (statically):
=====================================================================
 Subroutine PRICEL returns:
 Original cell was already a primitive cell.
 

 Routine SETGRP: Setting up the symmetry group for a 
 hexagonal supercell.


 Subroutine GETGRP returns: Found  2 space group operations
 (whereof  2 operations were pure point group operations)
 out of a pool of 24 trial point group operations.


The static configuration has the point symmetry C_1h.


Analysis of symmetry for dynamics (positions and initial velocities):
=====================================================================
 Subroutine PRICEL returns:
 Original cell was already a primitive cell.
 

 Routine SETGRP: Setting up the symmetry group for a 
 hexagonal supercell.


 Subroutine GETGRP returns: Found  2 space group operations
 (whereof  2 operations were pure point group operations)
 out of a pool of 24 trial point group operations.


The dynamic configuration has the point symmetry C_1h.


 Subroutine INISYM returns: Found  2 space group operations
 (whereof  2 operations are pure point group operations),
 and found     1 'primitive' translations

 
 
 KPOINTS: k-density: 4.0                          

Automatic generation of k-mesh.
Space group operators:
 irot       det(A)        alpha          n_x          n_y          n_z        tau_x        tau_y        tau_z
    1     1.000000     0.000001     1.000000     0.000000     0.000000     0.000000     0.000000     0.000000
    2    -1.000000   180.000000     1.000000     0.000000     0.000000     0.000000     0.000000     0.000000
 
 Subroutine IBZKPT returns following result:
 ===========================================
 
 Found     31 irreducible k-points:
 
 Following reciprocal coordinates:
            Coordinates               Weight
  0.000000  0.000000  0.000000      1.000000
  0.100000  0.000000  0.000000      4.000000
  0.200000 -0.000000  0.000000      4.000000
  0.300000 -0.000000  0.000000      4.000000
  0.400000 -0.000000  0.000000      4.000000
  0.500000 -0.000000  0.000000      2.000000
  0.000000  0.100000  0.000000      2.000000
  0.200000  0.100000  0.000000      2.000000
  0.300000  0.100000  0.000000      4.000000
  0.400000  0.100000  0.000000      4.000000
  0.500000  0.100000  0.000000      4.000000
 -0.400000  0.100000  0.000000      4.000000
 -0.300000  0.100000  0.000000      4.000000
 -0.200000  0.100000  0.000000      4.000000
 -0.100000  0.100000  0.000000      4.000000
  0.000000  0.200000  0.000000      2.000000
  0.400000  0.200000  0.000000      2.000000
  0.500000  0.200000  0.000000      4.000000
 -0.400000  0.200000  0.000000      4.000000
 -0.300000  0.200000  0.000000      4.000000
 -0.200000  0.200000  0.000000      4.000000
 -0.100000  0.200000  0.000000      4.000000
  0.000000  0.300000  0.000000      2.000000
 -0.400000  0.300000  0.000000      2.000000
 -0.300000  0.300000  0.000000      4.000000
 -0.200000  0.300000  0.000000      4.000000
 -0.100000  0.300000  0.000000      4.000000
  0.000000  0.400000  0.000000      2.000000
 -0.200000  0.400000  0.000000      2.000000
 -0.100000  0.400000  0.000000      4.000000
  0.000000  0.500000  0.000000      1.000000
 
 Following cartesian coordinates:
            Coordinates               Weight
  0.000000  0.000000  0.000000      1.000000
  0.038852 -0.022431  0.000000      4.000000
  0.077704 -0.044862  0.000000      4.000000
  0.116556 -0.067294  0.000000      4.000000
  0.155408 -0.089725  0.000000      4.000000
  0.194260 -0.112156  0.000000      2.000000
  0.000000  0.044862  0.000000      2.000000
  0.077704 -0.000000  0.000000      2.000000
  0.116556 -0.022431  0.000000      4.000000
  0.155408 -0.044862  0.000000      4.000000
  0.194260 -0.067294  0.000000      4.000000
 -0.155408  0.134587  0.000000      4.000000
 -0.116556  0.112156  0.000000      4.000000
 -0.077704  0.089725  0.000000      4.000000
 -0.038852  0.067294  0.000000      4.000000
  0.000000  0.089725  0.000000      2.000000
  0.155408  0.000000  0.000000      2.000000
  0.194260 -0.022431  0.000000      4.000000
 -0.155408  0.179450  0.000000      4.000000
 -0.116556  0.157019  0.000000      4.000000
 -0.077704  0.134587  0.000000      4.000000
 -0.038852  0.112156  0.000000      4.000000
  0.000000  0.134587  0.000000      2.000000
 -0.155408  0.224312  0.000000      2.000000
 -0.116556  0.201881  0.000000      4.000000
 -0.077704  0.179450  0.000000      4.000000
 -0.038852  0.157019  0.000000      4.000000
  0.000000  0.179450  0.000000      2.000000
 -0.077704  0.224312  0.000000      2.000000
 -0.038852  0.201881  0.000000      4.000000
  0.000000  0.224312  0.000000      1.000000
 


--------------------------------------------------------------------------------------------------------




 Dimension of arrays:
   k-points           NKPTS =     31   k-points in BZ     NKDIM =     31   number of bands    NBANDS=     28
   number of dos      NEDOS =   2401   number of ions     NIONS =      5
   non local maximal  LDIM  =      6   non local SUM 2l+1 LMDIM =     18
   total plane-waves  NPLWV =  12000
   max r-space proj   IRMAX =   1888   max aug-charges    IRDMAX=   2622
   dimension x,y,z NGX =    10 NGY =   10 NGZ =  120
   dimension x,y,z NGXF=    20 NGYF=   20 NGZF=  240
   support grid    NGXF=    20 NGYF=   20 NGZF=  240
   ions per type =               4   1
   NGX,Y,Z   is equivalent  to a cutoff of   6.46,  6.46,  6.58 a.u.
   NGXF,Y,Z  is equivalent  to a cutoff of  12.92, 12.92, 13.17 a.u.

 SYSTEM =  unknown system                          
 POSCAR =  Cu  H                                   

 Startparameter for this run:
   NWRITE =      2    write-flag & timer
   PREC   = normal    normal or accurate (medium, high low for compatibility)
   ISTART =      0    job   : 0-new  1-cont  2-samecut
   ICHARG =      2    charge: 1-file 2-atom 10-const
   ISPIN  =      1    spin polarized calculation?
   LNONCOLLINEAR =      F non collinear calculations
   LSORBIT =      F    spin-orbit coupling
   INIWAV =      1    electr: 0-lowe 1-rand  2-diag
   LASPH  =      F    aspherical Exc in radial PAW
   METAGGA=      F    non-selfconsistent MetaGGA calc.

 Electronic Relaxation 1
   ENCUT  =  250.0 eV  18.37 Ry    4.29 a.u.   3.32  3.32 39.07*2*pi/ulx,y,z
   ENINI  =  250.0     initial cutoff
   ENAUG  =  516.5 eV  augmentation charge cutoff
   NELM   =     60;   NELMIN=  4; NELMDL=  0     # of ELM steps 
   EDIFF  = 0.1E-05   stopping-criterion for ELM
   LREAL  =      T    real-space projection
   NLSPLINE    = F    spline interpolate recip. space projectors
   LCOMPAT=      F    compatible to vasp.4.4
   GGA_COMPAT  = T    GGA compatible to vasp.4.4-vasp.4.6
   LMAXPAW     = -100 max onsite density
   LMAXMIX     =    2 max onsite mixed and CHGCAR
   VOSKOWN=      0    Vosko Wilk Nusair interpolation
   ROPT   =   -0.00050  -0.00050
 Ionic relaxation
   EDIFFG = 0.1E-04   stopping-criterion for IOM
   NSW    =      0    number of steps for IOM
   NBLOCK =      1;   KBLOCK =      1    inner block; outer block 
   IBRION =     -1    ionic relax: 0-MD 1-quasi-New 2-CG
   NFREE  =      0    steps in history (QN), initial steepest desc. (CG)
   ISIF   =      2    stress and relaxation
   IWAVPR =     10    prediction:  0-non 1-charg 2-wave 3-comb
   ISYM   =      2    0-nonsym 1-usesym 2-fastsym
   LCORR  =      T    Harris-Foulkes like correction to forces

   POTIM  = 0.5000    time-step for ionic-motion
   TEIN   =    0.0    initial temperature
   TEBEG  =    0.0;   TEEND  =   0.0 temperature during run
   SMASS  =  -3.00    Nose mass-parameter (am)
   estimated Nose-frequenzy (Omega)   =  0.10E-29 period in steps =****** mass=  -0.151E-27a.u.
   SCALEE = 1.0000    scale energy and forces
   NPACO  =    256;   APACO  = 16.0  distance and # of slots for P.C.
   PSTRESS=    0.0 pullay stress

  Mass of Ions in am
   POMASS =  63.55  1.00
  Ionic Valenz
   ZVAL   =  11.00  1.00
  Atomic Wigner-Seitz radii
   RWIGS  =  -1.00 -1.00
  virtual crystal weights 
   VCA    =   1.00  1.00
   NELECT =      45.0000    total number of electrons
   NUPDOWN=      -1.0000    fix difference up-down

 DOS related values:
   EMIN   = -17.00;   EMAX   =  7.00  energy-range for DOS
   EFERMI =   0.00
   ISMEAR =     0;   SIGMA  =   0.10  broadening in eV -4-tet -1-fermi 0-gaus

 Electronic relaxation 2 (details)
   IALGO  =     68    algorithm
   LDIAG  =      T    sub-space diagonalisation (order eigenvalues)
   LSUBROT=      F    optimize rotation matrix (better conditioning)
   TURBO    =      0    0=normal 1=particle mesh
   IRESTART =      0    0=no restart 2=restart with 2 vectors
   NREBOOT  =      0    no. of reboots
   NMIN     =      0    reboot dimension
   EREF     =   0.00    reference energy to select bands
   IMIX   =      4    mixing-type and parameters
     AMIX     =   0.40;   BMIX     =  1.00
     AMIX_MAG =   1.60;   BMIX_MAG =  1.00
     AMIN     =   0.10
     WC   =   100.;   INIMIX=   1;  MIXPRE=   1;  MAXMIX= -45

 Intra band minimization:
   WEIMIN = 0.0000     energy-eigenvalue tresh-hold
   EBREAK =  0.89E-08  absolut break condition
   DEPER  =   0.30     relativ break condition  

   TIME   =   0.40     timestep for ELM

  volume/ion in A,a.u.               =      34.77       234.66
  Fermi-wavevector in a.u.,A,eV,Ry     =   1.043297  1.971546 14.809520  1.088469
  Thomas-Fermi vector in A             =   2.178000
 
 Write flags
   LWAVE        =      F    write WAVECAR
   LDOWNSAMPLE  =      F    k-point downsampling of WAVECAR
   LCHARG       =      T    write CHGCAR
   LVTOT        =      F    write LOCPOT, total local potential
   LVHAR        =      F    write LOCPOT, Hartree potential only
   LELF         =      T    write electronic localiz. function (ELF)
   LORBIT       =     11    0 simple, 1 ext, 2 COOP (PROOUT), +10 PAW based schemes


 Dipole corrections
   LMONO  =      F    monopole corrections only (constant potential shift)
   LDIPOL =      F    correct potential (dipole corrections)
   IDIPOL =      0    1-x, 2-y, 3-z, 4-all directions 
   EPSILON=  1.0000000 bulk dielectric constant

 Exchange correlation treatment:
   GGA     =    --    GGA type
   LEXCH   =     8    internal setting for exchange type
   VOSKOWN=      0    Vosko Wilk Nusair interpolation
   LHFCALC =     F    Hartree Fock is set to
   LHFONE  =     F    Hartree Fock one center treatment
   AEXX    =    0.0000 exact exchange contribution

 Linear response parameters
   LEPSILON=     F    determine dielectric tensor
   LRPA    =     F    only Hartree local field effects (RPA)
   LNABLA  =     F    use nabla operator in PAW spheres
   LVEL    =     F    velocity operator in full k-point grid
   LINTERFAST=   F  fast interpolation
   KINTER  =     0    interpolate to denser k-point grid
   CSHIFT  =0.1000    complex shift for real part using Kramers Kronig
   OMEGAMAX=  -1.0    maximum frequency
   DEG_THRESHOLD= 0.2000000E-02 threshold for treating states as degnerate
   RTIME   =   -0.100 relaxation time in fs
  (WPLASMAI=    0.000 imaginary part of plasma frequency in eV, 0.658/RTIME)
   DFIELD  = 0.0000000 0.0000000 0.0000000 field for delta impulse in time
 
 Orbital magnetization related:
   ORBITALMAG=     F  switch on orbital magnetization
   LCHIMAG   =     F  perturbation theory with respect to B field
   DQ        =  0.001000  dq finite difference perturbation B field
   LLRAUG    =     F  two centre corrections for induced B field



--------------------------------------------------------------------------------------------------------


 Static calculation
 charge density and potential will be updated during run
 non-spin polarized calculation
 RMM-DIIS sequential band-by-band and
  variant of blocked Davidson during initial phase
 perform sub-space diagonalisation
    before iterative eigenvector-optimisation
 modified Broyden-mixing scheme, WC =      100.0
 initial mixing is a Kerker type mixing with AMIX =  0.4000 and BMIX =      1.0000
 Hartree-type preconditioning will be used
 using additional bands            5
 real space projection scheme for non local part
 use partial core corrections
 calculate Harris-corrections to forces 
   (improved forces if not selfconsistent)
 use gradient corrections 
 use of overlap-Matrix (Vanderbilt PP)
 Gauss-broadening in eV      SIGMA  =   0.10


--------------------------------------------------------------------------------------------------------


  energy-cutoff  :      250.00
  volume of cell :      173.87
      direct lattice vectors                 reciprocal lattice vectors
     2.573868684  0.000000000  0.000000000     0.388520209 -0.224312248  0.000000000
     1.286934342  2.229035666  0.000000000     0.000000000  0.448624495  0.000000000
     0.000000000  0.000000000 30.304664940     0.000000000  0.000000000  0.032998220

  length of vectors
     2.573868684  2.573868684 30.304664940     0.448624495  0.448624495  0.032998220


 
 k-points in units of 2pi/SCALE and weight: k-density: 4.0                          
   0.00000000  0.00000000  0.00000000       0.010
   0.03885202 -0.02243122  0.00000000       0.040
   0.07770404 -0.04486245  0.00000000       0.040
   0.11655606 -0.06729367  0.00000000       0.040
   0.15540808 -0.08972490  0.00000000       0.040
   0.19426010 -0.11215612  0.00000000       0.020
   0.00000000  0.04486245  0.00000000       0.020
   0.07770404 -0.00000000  0.00000000       0.020
   0.11655606 -0.02243122  0.00000000       0.040
   0.15540808 -0.04486245  0.00000000       0.040
   0.19426010 -0.06729367  0.00000000       0.040
  -0.15540808  0.13458735  0.00000000       0.040
  -0.11655606  0.11215612  0.00000000       0.040
  -0.07770404  0.08972490  0.00000000       0.040
  -0.03885202  0.06729367  0.00000000       0.040
   0.00000000  0.08972490  0.00000000       0.020
   0.15540808  0.00000000  0.00000000       0.020
   0.19426010 -0.02243122  0.00000000       0.040
  -0.15540808  0.17944980  0.00000000       0.040
  -0.11655606  0.15701857  0.00000000       0.040
  -0.07770404  0.13458735  0.00000000       0.040
  -0.03885202  0.11215612  0.00000000       0.040
   0.00000000  0.13458735  0.00000000       0.020
  -0.15540808  0.22431225  0.00000000       0.020
  -0.11655606  0.20188102  0.00000000       0.040
  -0.07770404  0.17944980  0.00000000       0.040
  -0.03885202  0.15701857  0.00000000       0.040
   0.00000000  0.17944980  0.00000000       0.020
  -0.07770404  0.22431225  0.00000000       0.020
  -0.03885202  0.20188102  0.00000000       0.040
   0.00000000  0.22431225  0.00000000       0.010
 
 k-points in reciprocal lattice and weights: k-density: 4.0                          
   0.00000000  0.00000000  0.00000000       0.010
   0.10000000  0.00000000  0.00000000       0.040
   0.20000000 -0.00000000  0.00000000       0.040
   0.30000000 -0.00000000  0.00000000       0.040
   0.40000000 -0.00000000  0.00000000       0.040
   0.50000000 -0.00000000  0.00000000       0.020
   0.00000000  0.10000000  0.00000000       0.020
   0.20000000  0.10000000  0.00000000       0.020
   0.30000000  0.10000000  0.00000000       0.040
   0.40000000  0.10000000  0.00000000       0.040
   0.50000000  0.10000000  0.00000000       0.040
  -0.40000000  0.10000000  0.00000000       0.040
  -0.30000000  0.10000000  0.00000000       0.040
  -0.20000000  0.10000000  0.00000000       0.040
  -0.10000000  0.10000000  0.00000000       0.040
   0.00000000  0.20000000  0.00000000       0.020
   0.40000000  0.20000000  0.00000000       0.020
   0.50000000  0.20000000  0.00000000       0.040
  -0.40000000  0.20000000  0.00000000       0.040
  -0.30000000  0.20000000  0.00000000       0.040
  -0.20000000  0.20000000  0.00000000       0.040
  -0.10000000  0.20000000  0.00000000       0.040
   0.00000000  0.30000000  0.00000000       0.020
  -0.40000000  0.30000000  0.00000000       0.020
  -0.30000000  0.30000000  0.00000000       0.040
  -0.20000000  0.30000000  0.00000000       0.040
  -0.10000000  0.30000000  0.00000000       0.040
   0.00000000  0.40000000  0.00000000       0.020
  -0.20000000  0.40000000  0.00000000       0.020
  -0.10000000  0.40000000  0.00000000       0.040
   0.00000000  0.50000000  0.00000000       0.010
 
 position of ions in fractional coordinates (direct lattice) 
   0.99970615  0.00058770  0.39656700
   0.33318627  0.33362409  0.46513961
   0.66582910  0.66834283  0.53359442
   0.00080079  0.99839841  0.60421589
   0.52290732  0.95418198  0.63750284
 
 position of ions in cartesian coordinates  (Angst):
   2.57386868  0.00131000 12.01783000
   1.28693000  0.74366000 14.09590000
   2.57387000  1.48976000 16.17040000
   1.28693434  2.22546567 18.31056000
   2.57386434  2.12690567 19.31931000
 


--------------------------------------------------------------------------------------------------------


 k-point  1 :   0.0000 0.0000 0.0000  plane waves:    1609
 k-point  2 :   0.1000 0.0000 0.0000  plane waves:    1589
 k-point  3 :   0.2000-0.0000 0.0000  plane waves:    1586
 k-point  4 :   0.3000-0.0000 0.0000  plane waves:    1542
 k-point  5 :   0.4000-0.0000 0.0000  plane waves:    1568
 k-point  6 :   0.5000-0.0000 0.0000  plane waves:    1570
 k-point  7 :   0.0000 0.1000 0.0000  plane waves:    1589
 k-point  8 :   0.2000 0.1000 0.0000  plane waves:    1579
 k-point  9 :   0.3000 0.1000 0.0000  plane waves:    1569
 k-point 10 :   0.4000 0.1000 0.0000  plane waves:    1552
 k-point 11 :   0.5000 0.1000 0.0000  plane waves:    1549
 k-point 12 :  -0.4000 0.1000 0.0000  plane waves:    1549
 k-point 13 :  -0.3000 0.1000 0.0000  plane waves:    1552
 k-point 14 :  -0.2000 0.1000 0.0000  plane waves:    1569
 k-point 15 :  -0.1000 0.1000 0.0000  plane waves:    1579
 k-point 16 :   0.0000 0.2000 0.0000  plane waves:    1586
 k-point 17 :   0.4000 0.2000 0.0000  plane waves:    1545
 k-point 18 :   0.5000 0.2000 0.0000  plane waves:    1549
 k-point 19 :  -0.4000 0.2000 0.0000  plane waves:    1546
 k-point 20 :  -0.3000 0.2000 0.0000  plane waves:    1549
 k-point 21 :  -0.2000 0.2000 0.0000  plane waves:    1545
 k-point 22 :  -0.1000 0.2000 0.0000  plane waves:    1569
 k-point 23 :   0.0000 0.3000 0.0000  plane waves:    1542
 k-point 24 :  -0.4000 0.3000 0.0000  plane waves:    1547
 k-point 25 :  -0.3000 0.3000 0.0000  plane waves:    1547
 k-point 26 :  -0.2000 0.3000 0.0000  plane waves:    1549
 k-point 27 :  -0.1000 0.3000 0.0000  plane waves:    1552
 k-point 28 :   0.0000 0.4000 0.0000  plane waves:    1568
 k-point 29 :  -0.2000 0.4000 0.0000  plane waves:    1546
 k-point 30 :  -0.1000 0.4000 0.0000  plane waves:    1549
 k-point 31 :   0.0000 0.5000 0.0000  plane waves:    1570

 maximum and minimum number of plane-waves per node :       808      767

 maximum number of plane-waves:      1609
 maximum index in each direction: 
   IXMAX=    3   IYMAX=    3   IZMAX=   39
   IXMIN=   -3   IYMIN=   -3   IZMIN=  -39


 real space projection operators:
  total allocation   :        840.16 KBytes
  max/ min on nodes  :        424.13        416.03


 parallel 3D FFT for wavefunctions:
    minimum data exchange during FFTs selected (reduces bandwidth)
 parallel 3D FFT for charge:
    minimum data exchange during FFTs selected (reduces bandwidth)


 total amount of memory used by VASP MPI-rank0    39170. kBytes
=======================================================================

   base      :      30000. kBytes
   nonlr-proj:        677. kBytes
   fftplans  :        995. kBytes
   grid      :       1592. kBytes
   one-center:         46. kBytes
   wavefun   :       5860. kBytes
 
     INWAV:  cpu time    0.0000: real time    0.0000
 Broyden mixing: mesh for mixing (old mesh)
   NGX =  7   NGY =  7   NGZ = 79
  (NGX  = 20   NGY  = 20   NGZ  =240)
  gives a total of   3871 points

 initial charge density was supplied:
 charge density of overlapping atoms calculated
 number of electron      45.0000000 magnetization 
 keeping initial charge density in first step


--------------------------------------------------------------------------------------------------------


 Maximum index for non-local projection operator          893
 Maximum index for augmentation-charges          589 (set IRDMAX)


--------------------------------------------------------------------------------------------------------


 First call to EWALD:  gamma=   0.318
 Maximum number of real-space cells 6x 6x 1
 Maximum number of reciprocal cells 2x 2x13

    FEWALD:  cpu time    0.0010: real time    0.0016


--------------------------------------- Iteration      1(   1)  ---------------------------------------


    POTLOK:  cpu time    0.0150: real time    0.0206
    SETDIJ:  cpu time    0.0040: real time    0.0042
     EDDAV:  cpu time    0.6109: real time    0.6160
       DOS:  cpu time    0.0050: real time    0.0054
    --------------------------------------------
      LOOP:  cpu time    0.6349: real time    0.6461

 eigenvalue-minimisations  :  1808
 total energy-change (2. order) : 0.1964808E+03  (-0.1394514E+04)
 number of electron      45.0000000 magnetization 
 augmentation part       45.0000000 magnetization 

 Free energy of the ion-electron system (eV)
  ---------------------------------------------------
  alpha Z        PSCENC =       120.87645803
  Ewald energy   TEWEN  =     38084.27828387
  -Hartree energ DENC   =    -43204.85791254
  -exchange      EXHF   =         0.00000000
  -V(xc)+E(xc)   XCENC  =       177.43926543
  PAW double counting   =      4328.99049516    -4905.09836044
  entropy T*S    EENTRO =        -0.01230803
  eigenvalues    EBANDS =        18.91529332
  atomic energy  EATOM  =      5575.94961827
  Solvation  Ediel_sol  =         0.00000000
  ---------------------------------------------------
  free energy    TOTEN  =       196.48083307 eV

  energy without entropy =      196.49314111  energy(sigma->0) =      196.48698709


--------------------------------------------------------------------------------------------------------




--------------------------------------- Iteration      1(   2)  ---------------------------------------


     EDDAV:  cpu time    0.6129: real time    0.6140
       DOS:  cpu time    0.0060: real time    0.0056
    --------------------------------------------
      LOOP:  cpu time    0.6189: real time    0.6196

 eigenvalue-minimisations  :  1836
 total energy-change (2. order) :-0.2071419E+03  (-0.2011311E+03)
 number of electron      45.0000000 magnetization 
 augmentation part       45.0000000 magnetization 

 Free energy of the ion-electron system (eV)
  ---------------------------------------------------
  alpha Z        PSCENC =       120.87645803
  Ewald energy   TEWEN  =     38084.27828387
  -Hartree energ DENC   =    -43204.85791254
  -exchange      EXHF   =         0.00000000
  -V(xc)+E(xc)   XCENC  =       177.43926543
  PAW double counting   =      4328.99049516    -4905.09836044
  entropy T*S    EENTRO =        -0.01935603
  eigenvalues    EBANDS =      -188.21960197
  atomic energy  EATOM  =      5575.94961827
  Solvation  Ediel_sol  =         0.00000000
  ---------------------------------------------------
  free energy    TOTEN  =       -10.66111022 eV

  energy without entropy =      -10.64175418  energy(sigma->0) =      -10.65143220


--------------------------------------------------------------------------------------------------------




--------------------------------------- Iteration      1(   3)  ---------------------------------------


     EDDAV:  cpu time    0.6299: real time    0.6327
       DOS:  cpu time    0.0060: real time    0.0057
    --------------------------------------------
      LOOP:  cpu time    0.6359: real time    0.6384

 eigenvalue-minimisations  :  1900
 total energy-change (2. order) :-0.1022884E+02  (-0.1000689E+02)
 number of electron      45.0000000 magnetization 
 augmentation part       45.0000000 magnetization 

 Free energy of the ion-electron system (eV)
  ---------------------------------------------------
  alpha Z        PSCENC =       120.87645803
  Ewald energy   TEWEN  =     38084.27828387
  -Hartree energ DENC   =    -43204.85791254
  -exchange      EXHF   =         0.00000000
  -V(xc)+E(xc)   XCENC  =       177.43926543
  PAW double counting   =      4328.99049516    -4905.09836044
  entropy T*S    EENTRO =        -0.01289907
  eigenvalues    EBANDS =      -198.45489955
  atomic energy  EATOM  =      5575.94961827
  Solvation  Ediel_sol  =         0.00000000
  ---------------------------------------------------
  free energy    TOTEN  =       -20.88995083 eV

  energy without entropy =      -20.87705176  energy(sigma->0) =      -20.88350130


--------------------------------------------------------------------------------------------------------




--------------------------------------- Iteration      1(   4)  ---------------------------------------


     EDDAV:  cpu time    0.6289: real time    0.6294
       DOS:  cpu time    0.0050: real time    0.0057
    --------------------------------------------
      LOOP:  cpu time    0.6349: real time    0.6351

 eigenvalue-minimisations  :  1880
 total energy-change (2. order) :-0.1307795E+00  (-0.1301655E+00)
 number of electron      45.0000000 magnetization 
 augmentation part       45.0000000 magnetization 

 Free energy of the ion-electron system (eV)
  ---------------------------------------------------
  alpha Z        PSCENC =       120.87645803
  Ewald energy   TEWEN  =     38084.27828387
  -Hartree energ DENC   =    -43204.85791254
  -exchange      EXHF   =         0.00000000
  -V(xc)+E(xc)   XCENC  =       177.43926543
  PAW double counting   =      4328.99049516    -4905.09836044
  entropy T*S    EENTRO =        -0.01218343
  eigenvalues    EBANDS =      -198.58639465
  atomic energy  EATOM  =      5575.94961827
  Solvation  Ediel_sol  =         0.00000000
  ---------------------------------------------------
  free energy    TOTEN  =       -21.02073029 eV

  energy without entropy =      -21.00854686  energy(sigma->0) =      -21.01463858


--------------------------------------------------------------------------------------------------------




--------------------------------------- Iteration      1(   5)  ---------------------------------------


     EDDAV:  cpu time    0.6459: real time    0.6471
       DOS:  cpu time    0.0050: real time    0.0057
    CHARGE:  cpu time    0.0350: real time    0.0343
    MIXING:  cpu time    0.0010: real time    0.0007
    --------------------------------------------
      LOOP:  cpu time    0.6859: real time    0.6878

 eigenvalue-minimisations  :  1944
 total energy-change (2. order) :-0.1365151E-02  (-0.1365082E-02)
 number of electron      44.9999963 magnetization 
 augmentation part       26.6697437 magnetization 

 Broyden mixing:
  rms(total) = 0.14767E+01    rms(broyden)= 0.14764E+01
  rms(prec ) = 0.15290E+01
  weight for this iteration     100.00

 Free energy of the ion-electron system (eV)
  ---------------------------------------------------
  alpha Z        PSCENC =       120.87645803
  Ewald energy   TEWEN  =     38084.27828387
  -Hartree energ DENC   =    -43204.85791254
  -exchange      EXHF   =         0.00000000
  -V(xc)+E(xc)   XCENC  =       177.43926543
  PAW double counting   =      4328.99049516    -4905.09836044
  entropy T*S    EENTRO =        -0.01218124
  eigenvalues    EBANDS =      -198.58776199
  atomic energy  EATOM  =      5575.94961827
  Solvation  Ediel_sol  =         0.00000000
  ---------------------------------------------------
  free energy    TOTEN  =       -21.02209544 eV

  energy without entropy =      -21.00991420  energy(sigma->0) =      -21.01600482


--------------------------------------------------------------------------------------------------------




--------------------------------------- Iteration      1(   6)  ---------------------------------------


    POTLOK:  cpu time    0.0110: real time    0.0118
    SETDIJ:  cpu time    0.0030: real time    0.0032
    EDDIAG:  cpu time    0.1250: real time    0.1258
  RMM-DIIS:  cpu time    0.3689: real time    0.3683
    ORTHCH:  cpu time    0.0160: real time    0.0160
       DOS:  cpu time    0.0050: real time    0.0058
    CHARGE:  cpu time    0.0330: real time    0.0332
    MIXING:  cpu time    0.0010: real time    0.0007
    --------------------------------------------
      LOOP:  cpu time    0.5629: real time    0.5648

 eigenvalue-minimisations  :  1900
 total energy-change (2. order) : 0.2077417E+01  (-0.4402709E+01)
 number of electron      44.9999953 magnetization 
 augmentation part       30.0283042 magnetization 

 Broyden mixing:
  rms(total) = 0.74233E+00    rms(broyden)= 0.74206E+00
  rms(prec ) = 0.77183E+00
  weight for this iteration     100.00

 eigenvalues of (default mixing * dielectric matrix)
  average eigenvalue GAMMA=   0.6687
  0.6687

 Free energy of the ion-electron system (eV)
  ---------------------------------------------------
  alpha Z        PSCENC =       120.87645803
  Ewald energy   TEWEN  =     38084.27828387
  -Hartree energ DENC   =    -43083.50356338
  -exchange      EXHF   =         0.00000000
  -V(xc)+E(xc)   XCENC  =       172.26723233
  PAW double counting   =      4214.90994193    -4755.62602255
  entropy T*S    EENTRO =        -0.00741461
  eigenvalues    EBANDS =      -348.08921224
  atomic energy  EATOM  =      5575.94961827
  Solvation  Ediel_sol  =         0.00000000
  ---------------------------------------------------
  free energy    TOTEN  =       -18.94467835 eV

  energy without entropy =      -18.93726373  energy(sigma->0) =      -18.94097104


--------------------------------------------------------------------------------------------------------




--------------------------------------- Iteration      1(   7)  ---------------------------------------


    POTLOK:  cpu time    0.0120: real time    0.0135
    SETDIJ:  cpu time    0.0030: real time    0.0032
    EDDIAG:  cpu time    0.1250: real time    0.1257
  RMM-DIIS:  cpu time    0.3479: real time    0.3478
    ORTHCH:  cpu time    0.0160: real time    0.0160
       DOS:  cpu time    0.0060: real time    0.0058
    CHARGE:  cpu time    0.0340: real time    0.0337
    MIXING:  cpu time    0.0000: real time    0.0005
    --------------------------------------------
      LOOP:  cpu time    0.5439: real time    0.5462

 eigenvalue-minimisations  :  1796
 total energy-change (2. order) : 0.1830161E+01  (-0.7308601E+00)
 number of electron      44.9999957 magnetization 
 augmentation part       28.7334206 magnetization 

 Broyden mixing:
  rms(total) = 0.13280E+00    rms(broyden)= 0.13268E+00
  rms(prec ) = 0.14675E+00
  weight for this iteration     100.00

 eigenvalues of (default mixing * dielectric matrix)
  average eigenvalue GAMMA=   0.8821
  1.1518  0.6125

 Free energy of the ion-electron system (eV)
  ---------------------------------------------------
  alpha Z        PSCENC =       120.87645803
  Ewald energy   TEWEN  =     38084.27828387
  -Hartree energ DENC   =    -43136.58325014
  -exchange      EXHF   =         0.00000000
  -V(xc)+E(xc)   XCENC  =       173.94653293
  PAW double counting   =      4316.27217329    -4881.93241002
  entropy T*S    EENTRO =        -0.01568026
  eigenvalues    EBANDS =      -269.90624337
  atomic energy  EATOM  =      5575.94961827
  Solvation  Ediel_sol  =         0.00000000
  ---------------------------------------------------
  free energy    TOTEN  =       -17.11451741 eV

  energy without entropy =      -17.09883714  energy(sigma->0) =      -17.10667727


--------------------------------------------------------------------------------------------------------




--------------------------------------- Iteration      1(   8)  ---------------------------------------


    POTLOK:  cpu time    0.0120: real time    0.0115
    SETDIJ:  cpu time    0.0030: real time    0.0032
    EDDIAG:  cpu time    0.1250: real time    0.1255
  RMM-DIIS:  cpu time    0.3749: real time    0.3748
    ORTHCH:  cpu time    0.0160: real time    0.0159
       DOS:  cpu time    0.0050: real time    0.0058
    CHARGE:  cpu time    0.0330: real time    0.0334
    MIXING:  cpu time    0.0010: real time    0.0005
    --------------------------------------------
      LOOP:  cpu time    0.5699: real time    0.5707

 eigenvalue-minimisations  :  1934
 total energy-change (2. order) :-0.3899374E-01  (-0.1470231E-01)
 number of electron      44.9999957 magnetization 
 augmentation part       28.6815543 magnetization 

 Broyden mixing:
  rms(total) = 0.19764E+00    rms(broyden)= 0.19751E+00
  rms(prec ) = 0.26028E+00
  weight for this iteration     100.00

 eigenvalues of (default mixing * dielectric matrix)
  average eigenvalue GAMMA=   0.9173
  1.8748  0.6212  0.2558

 Free energy of the ion-electron system (eV)
  ---------------------------------------------------
  alpha Z        PSCENC =       120.87645803
  Ewald energy   TEWEN  =     38084.27828387
  -Hartree energ DENC   =    -43137.70805640
  -exchange      EXHF   =         0.00000000
  -V(xc)+E(xc)   XCENC  =       173.78554555
  PAW double counting   =      4348.30255312    -4918.75447162
  entropy T*S    EENTRO =        -0.01004954
  eigenvalues    EBANDS =      -263.87339243
  atomic energy  EATOM  =      5575.94961827
  Solvation  Ediel_sol  =         0.00000000
  ---------------------------------------------------
  free energy    TOTEN  =       -17.15351114 eV

  energy without entropy =      -17.14346161  energy(sigma->0) =      -17.14848637


--------------------------------------------------------------------------------------------------------




--------------------------------------- Iteration      1(   9)  ---------------------------------------


    POTLOK:  cpu time    0.0120: real time    0.0140
    SETDIJ:  cpu time    0.0040: real time    0.0032
    EDDIAG:  cpu time    0.1240: real time    0.1255
  RMM-DIIS:  cpu time    0.3759: real time    0.3756
    ORTHCH:  cpu time    0.0160: real time    0.0159
       DOS:  cpu time    0.0060: real time    0.0058
    CHARGE:  cpu time    0.0330: real time    0.0336
    MIXING:  cpu time    0.0010: real time    0.0006
    --------------------------------------------
      LOOP:  cpu time    0.5719: real time    0.5742

 eigenvalue-minimisations  :  1920
 total energy-change (2. order) : 0.9883788E-01  (-0.5608695E-02)
 number of electron      44.9999957 magnetization 
 augmentation part       28.7038603 magnetization 

 Broyden mixing:
  rms(total) = 0.79749E-01    rms(broyden)= 0.79593E-01
  rms(prec ) = 0.89347E-01
  weight for this iteration     100.00

 eigenvalues of (default mixing * dielectric matrix)
  average eigenvalue GAMMA=   0.7717
  1.8708  0.5957  0.4249  0.1955

 Free energy of the ion-electron system (eV)
  ---------------------------------------------------
  alpha Z        PSCENC =       120.87645803
  Ewald energy   TEWEN  =     38084.27828387
  -Hartree energ DENC   =    -43140.13198432
  -exchange      EXHF   =         0.00000000
  -V(xc)+E(xc)   XCENC  =       173.60194456
  PAW double counting   =      4376.00506608    -4950.33151863
  entropy T*S    EENTRO =        -0.01549956
  eigenvalues    EBANDS =      -257.28704157
  atomic energy  EATOM  =      5575.94961827
  Solvation  Ediel_sol  =         0.00000000
  ---------------------------------------------------
  free energy    TOTEN  =       -17.05467327 eV

  energy without entropy =      -17.03917371  energy(sigma->0) =      -17.04692349


--------------------------------------------------------------------------------------------------------




--------------------------------------- Iteration      1(  10)  ---------------------------------------


    POTLOK:  cpu time    0.0110: real time    0.0116
    SETDIJ:  cpu time    0.0040: real time    0.0032
    EDDIAG:  cpu time    0.1240: real time    0.1255
  RMM-DIIS:  cpu time    0.3719: real time    0.3708
    ORTHCH:  cpu time    0.0150: real time    0.0159
       DOS:  cpu time    0.0060: real time    0.0058
    CHARGE:  cpu time    0.0340: real time    0.0337
    MIXING:  cpu time    0.0000: real time    0.0006
    --------------------------------------------
      LOOP:  cpu time    0.5659: real time    0.5671

 eigenvalue-minimisations  :  1895
 total energy-change (2. order) : 0.1093634E-01  (-0.1833789E-02)
 number of electron      44.9999957 magnetization 
 augmentation part       28.7332242 magnetization 

 Broyden mixing:
  rms(total) = 0.43866E-01    rms(broyden)= 0.43856E-01
  rms(prec ) = 0.46914E-01
  weight for this iteration     100.00

 eigenvalues of (default mixing * dielectric matrix)
  average eigenvalue GAMMA=   0.9266
  2.2866  1.1100  0.6491  0.3760  0.2112

 Free energy of the ion-electron system (eV)
  ---------------------------------------------------
  alpha Z        PSCENC =       120.87645803
  Ewald energy   TEWEN  =     38084.27828387
  -Hartree energ DENC   =    -43140.71556182
  -exchange      EXHF   =         0.00000000
  -V(xc)+E(xc)   XCENC  =       173.51873731
  PAW double counting   =      4381.41544817    -4956.16830730
  entropy T*S    EENTRO =        -0.01600876
  eigenvalues    EBANDS =      -256.18240470
  atomic energy  EATOM  =      5575.94961827
  Solvation  Ediel_sol  =         0.00000000
  ---------------------------------------------------
  free energy    TOTEN  =       -17.04373693 eV

  energy without entropy =      -17.02772816  energy(sigma->0) =      -17.03573254


--------------------------------------------------------------------------------------------------------




--------------------------------------- Iteration      1(  11)  ---------------------------------------


    POTLOK:  cpu time    0.0120: real time    0.0134
    SETDIJ:  cpu time    0.0040: real time    0.0032
    EDDIAG:  cpu time    0.1240: real time    0.1253
  RMM-DIIS:  cpu time    0.3689: real time    0.3687
    ORTHCH:  cpu time    0.0160: real time    0.0160
       DOS:  cpu time    0.0050: real time    0.0058
    CHARGE:  cpu time    0.0340: real time    0.0338
    MIXING:  cpu time    0.0010: real time    0.0006
    --------------------------------------------
      LOOP:  cpu time    0.5649: real time    0.5668

 eigenvalue-minimisations  :  1881
 total energy-change (2. order) : 0.5696807E-02  (-0.1062494E-02)
 number of electron      44.9999957 magnetization 
 augmentation part       28.7805972 magnetization 

 Broyden mixing:
  rms(total) = 0.11605E-01    rms(broyden)= 0.11577E-01
  rms(prec ) = 0.14971E-01
  weight for this iteration     100.00

 eigenvalues of (default mixing * dielectric matrix)
  average eigenvalue GAMMA=   0.9459
  2.2785  1.2390  0.9174  0.6556  0.3707  0.2143

 Free energy of the ion-electron system (eV)
  ---------------------------------------------------
  alpha Z        PSCENC =       120.87645803
  Ewald energy   TEWEN  =     38084.27828387
  -Hartree energ DENC   =    -43140.70171065
  -exchange      EXHF   =         0.00000000
  -V(xc)+E(xc)   XCENC  =       173.38263588
  PAW double counting   =      4392.29234552    -4967.96540842
  entropy T*S    EENTRO =        -0.01548986
  eigenvalues    EBANDS =      -255.13477277
  atomic energy  EATOM  =      5575.94961827
  Solvation  Ediel_sol  =         0.00000000
  ---------------------------------------------------
  free energy    TOTEN  =       -17.03804012 eV

  energy without entropy =      -17.02255026  energy(sigma->0) =      -17.03029519


--------------------------------------------------------------------------------------------------------




--------------------------------------- Iteration      1(  12)  ---------------------------------------


    POTLOK:  cpu time    0.0120: real time    0.0116
    SETDIJ:  cpu time    0.0030: real time    0.0032
    EDDIAG:  cpu time    0.1250: real time    0.1253
  RMM-DIIS:  cpu time    0.3699: real time    0.3699
    ORTHCH:  cpu time    0.0160: real time    0.0160
       DOS:  cpu time    0.0050: real time    0.0058
    CHARGE:  cpu time    0.0330: real time    0.0337
    MIXING:  cpu time    0.0020: real time    0.0007
    --------------------------------------------
      LOOP:  cpu time    0.5659: real time    0.5661

 eigenvalue-minimisations  :  1898
 total energy-change (2. order) : 0.7951646E-03  (-0.1120837E-03)
 number of electron      44.9999957 magnetization 
 augmentation part       28.7717357 magnetization 

 Broyden mixing:
  rms(total) = 0.80738E-02    rms(broyden)= 0.80539E-02
  rms(prec ) = 0.10297E-01
  weight for this iteration     100.00

 eigenvalues of (default mixing * dielectric matrix)
  average eigenvalue GAMMA=   0.9870
  2.1123  2.1123  1.0181  0.6494  0.2140  0.3541  0.4487

 Free energy of the ion-electron system (eV)
  ---------------------------------------------------
  alpha Z        PSCENC =       120.87645803
  Ewald energy   TEWEN  =     38084.27828387
  -Hartree energ DENC   =    -43143.23420370
  -exchange      EXHF   =         0.00000000
  -V(xc)+E(xc)   XCENC  =       173.38732499
  PAW double counting   =      4395.23116860    -4971.19501036
  entropy T*S    EENTRO =        -0.01559275
  eigenvalues    EBANDS =      -252.31529192
  atomic energy  EATOM  =      5575.94961827
  Solvation  Ediel_sol  =         0.00000000
  ---------------------------------------------------
  free energy    TOTEN  =       -17.03724495 eV

  energy without entropy =      -17.02165220  energy(sigma->0) =      -17.02944858


--------------------------------------------------------------------------------------------------------




--------------------------------------- Iteration      1(  13)  ---------------------------------------


    POTLOK:  cpu time    0.0110: real time    0.0133
    SETDIJ:  cpu time    0.0040: real time    0.0032
    EDDIAG:  cpu time    0.1240: real time    0.1251
  RMM-DIIS:  cpu time    0.3719: real time    0.3716
    ORTHCH:  cpu time    0.0160: real time    0.0160
       DOS:  cpu time    0.0050: real time    0.0058
    CHARGE:  cpu time    0.0340: real time    0.0338
    MIXING:  cpu time    0.0010: real time    0.0007
    --------------------------------------------
      LOOP:  cpu time    0.5669: real time    0.5695

 eigenvalue-minimisations  :  1876
 total energy-change (2. order) : 0.4137293E-03  (-0.4977202E-04)
 number of electron      44.9999957 magnetization 
 augmentation part       28.7717946 magnetization 

 Broyden mixing:
  rms(total) = 0.44049E-02    rms(broyden)= 0.43702E-02
  rms(prec ) = 0.56819E-02
  weight for this iteration     100.00

 eigenvalues of (default mixing * dielectric matrix)
  average eigenvalue GAMMA=   1.0370
  2.4010  2.4010  1.0604  0.7942  0.6673  0.2139  0.3592  0.3988

 Free energy of the ion-electron system (eV)
  ---------------------------------------------------
  alpha Z        PSCENC =       120.87645803
  Ewald energy   TEWEN  =     38084.27828387
  -Hartree energ DENC   =    -43145.07620149
  -exchange      EXHF   =         0.00000000
  -V(xc)+E(xc)   XCENC  =       173.38625696
  PAW double counting   =      4396.60934565    -4972.63122877
  entropy T*S    EENTRO =        -0.01569756
  eigenvalues    EBANDS =      -250.41366619
  atomic energy  EATOM  =      5575.94961827
  Solvation  Ediel_sol  =         0.00000000
  ---------------------------------------------------
  free energy    TOTEN  =       -17.03683123 eV

  energy without entropy =      -17.02113366  energy(sigma->0) =      -17.02898245


--------------------------------------------------------------------------------------------------------




--------------------------------------- Iteration      1(  14)  ---------------------------------------


    POTLOK:  cpu time    0.0120: real time    0.0115
    SETDIJ:  cpu time    0.0030: real time    0.0032
    EDDIAG:  cpu time    0.1250: real time    0.1255
  RMM-DIIS:  cpu time    0.3609: real time    0.3613
    ORTHCH:  cpu time    0.0160: real time    0.0159
       DOS:  cpu time    0.0060: real time    0.0059
    CHARGE:  cpu time    0.0340: real time    0.0341
    MIXING:  cpu time    0.0010: real time    0.0013
    --------------------------------------------
      LOOP:  cpu time    0.5579: real time    0.5587

 eigenvalue-minimisations  :  1836
 total energy-change (2. order) : 0.1830574E-04  (-0.2600484E-04)
 number of electron      44.9999957 magnetization 
 augmentation part       28.7766509 magnetization 

 Broyden mixing:
  rms(total) = 0.26987E-02    rms(broyden)= 0.26433E-02
  rms(prec ) = 0.40395E-02
  weight for this iteration     100.00

 eigenvalues of (default mixing * dielectric matrix)
  average eigenvalue GAMMA=   1.1049
  2.4005  2.4005  1.4793  1.0145  1.0145  0.6564  0.2139  0.3614  0.4026

 Free energy of the ion-electron system (eV)
  ---------------------------------------------------
  alpha Z        PSCENC =       120.87645803
  Ewald energy   TEWEN  =     38084.27828387
  -Hartree energ DENC   =    -43147.20574867
  -exchange      EXHF   =         0.00000000
  -V(xc)+E(xc)   XCENC  =       173.38448593
  PAW double counting   =      4396.77459088    -4972.69522598
  entropy T*S    EENTRO =        -0.01562980
  eigenvalues    EBANDS =      -248.38364546
  atomic energy  EATOM  =      5575.94961827
  Solvation  Ediel_sol  =         0.00000000
  ---------------------------------------------------
  free energy    TOTEN  =       -17.03681292 eV

  energy without entropy =      -17.02118312  energy(sigma->0) =      -17.02899802


--------------------------------------------------------------------------------------------------------




--------------------------------------- Iteration      1(  15)  ---------------------------------------


    POTLOK:  cpu time    0.0110: real time    0.0129
    SETDIJ:  cpu time    0.0040: real time    0.0032
    EDDIAG:  cpu time    0.1240: real time    0.1252
  RMM-DIIS:  cpu time    0.3529: real time    0.3522
    ORTHCH:  cpu time    0.0160: real time    0.0160
       DOS:  cpu time    0.0060: real time    0.0058
    CHARGE:  cpu time    0.0330: real time    0.0338
    MIXING:  cpu time    0.0010: real time    0.0008
    --------------------------------------------
      LOOP:  cpu time    0.5479: real time    0.5499

 eigenvalue-minimisations  :  1798
 total energy-change (2. order) :-0.1708092E-03  (-0.1050154E-04)
 number of electron      44.9999957 magnetization 
 augmentation part       28.7732221 magnetization 

 Broyden mixing:
  rms(total) = 0.18842E-02    rms(broyden)= 0.18053E-02
  rms(prec ) = 0.24462E-02
  weight for this iteration     100.00

 eigenvalues of (default mixing * dielectric matrix)
  average eigenvalue GAMMA=   1.2115
  2.9373  2.9373  1.8854  1.0378  1.0378  0.2139  0.6483  0.6483  0.3629  0.4061

 Free energy of the ion-electron system (eV)
  ---------------------------------------------------
  alpha Z        PSCENC =       120.87645803
  Ewald energy   TEWEN  =     38084.27828387
  -Hartree energ DENC   =    -43148.99611609
  -exchange      EXHF   =         0.00000000
  -V(xc)+E(xc)   XCENC  =       173.39211896
  PAW double counting   =      4396.88278256    -4972.83155663
  entropy T*S    EENTRO =        -0.01580478
  eigenvalues    EBANDS =      -246.57276794
  atomic energy  EATOM  =      5575.94961827
  Solvation  Ediel_sol  =         0.00000000
  ---------------------------------------------------
  free energy    TOTEN  =       -17.03698373 eV

  energy without entropy =      -17.02117895  energy(sigma->0) =      -17.02908134


--------------------------------------------------------------------------------------------------------




--------------------------------------- Iteration      1(  16)  ---------------------------------------


    POTLOK:  cpu time    0.0110: real time    0.0119
    SETDIJ:  cpu time    0.0040: real time    0.0032
    EDDIAG:  cpu time    0.1250: real time    0.1261
  RMM-DIIS:  cpu time    0.3439: real time    0.3431
    ORTHCH:  cpu time    0.0150: real time    0.0160
       DOS:  cpu time    0.0060: real time    0.0058
    CHARGE:  cpu time    0.0340: real time    0.0336
    MIXING:  cpu time    0.0010: real time    0.0009
    --------------------------------------------
      LOOP:  cpu time    0.5399: real time    0.5406

 eigenvalue-minimisations  :  1761
 total energy-change (2. order) :-0.2967832E-03  (-0.9186997E-05)
 number of electron      44.9999957 magnetization 
 augmentation part       28.7740837 magnetization 

 Broyden mixing:
  rms(total) = 0.93854E-03    rms(broyden)= 0.76857E-03
  rms(prec ) = 0.12153E-02
  weight for this iteration     100.00
  WARNING: grid for Broyden might be to small

 eigenvalues of (default mixing * dielectric matrix)
  average eigenvalue GAMMA=   1.4217
  4.7212  2.8317  2.2433  1.4741  1.1123  0.8829  0.6588  0.7318  0.2139  0.3627
  0.4056

 Free energy of the ion-electron system (eV)
  ---------------------------------------------------
  alpha Z        PSCENC =       120.87645803
  Ewald energy   TEWEN  =     38084.27828387
  -Hartree energ DENC   =    -43150.71802607
  -exchange      EXHF   =         0.00000000
  -V(xc)+E(xc)   XCENC  =       173.39583554
  PAW double counting   =      4396.25354577    -4972.15315862
  entropy T*S    EENTRO =        -0.01583671
  eigenvalues    EBANDS =      -244.90400060
  atomic energy  EATOM  =      5575.94961827
  Solvation  Ediel_sol  =         0.00000000
  ---------------------------------------------------
  free energy    TOTEN  =       -17.03728051 eV

  energy without entropy =      -17.02144381  energy(sigma->0) =      -17.02936216


--------------------------------------------------------------------------------------------------------




--------------------------------------- Iteration      1(  17)  ---------------------------------------


    POTLOK:  cpu time    0.0110: real time    0.0127
    SETDIJ:  cpu time    0.0030: real time    0.0032
    EDDIAG:  cpu time    0.1260: real time    0.1261
  RMM-DIIS:  cpu time    0.3279: real time    0.3278
    ORTHCH:  cpu time    0.0160: real time    0.0160
       DOS:  cpu time    0.0050: real time    0.0058
    CHARGE:  cpu time    0.0340: real time    0.0337
    MIXING:  cpu time    0.0010: real time    0.0009
    --------------------------------------------
      LOOP:  cpu time    0.5239: real time    0.5262

 eigenvalue-minimisations  :  1665
 total energy-change (2. order) :-0.1499079E-03  (-0.5034287E-05)
 number of electron      44.9999957 magnetization 
 augmentation part       28.7736062 magnetization 

 Broyden mixing:
  rms(total) = 0.76528E-03    rms(broyden)= 0.54428E-03
  rms(prec ) = 0.74146E-03
  weight for this iteration     100.00
  WARNING: grid for Broyden might be to small

 eigenvalues of (default mixing * dielectric matrix)
  average eigenvalue GAMMA=   1.5792
  5.6117  3.2524  2.5180  1.9499  1.2792  1.0599  0.9146  0.6598  0.7227  0.2139
  0.3627  0.4056

 Free energy of the ion-electron system (eV)
  ---------------------------------------------------
  alpha Z        PSCENC =       120.87645803
  Ewald energy   TEWEN  =     38084.27828387
  -Hartree energ DENC   =    -43151.90856856
  -exchange      EXHF   =         0.00000000
  -V(xc)+E(xc)   XCENC  =       173.39777262
  PAW double counting   =      4395.96207572    -4971.86958385
  entropy T*S    EENTRO =        -0.01584695
  eigenvalues    EBANDS =      -243.70763958
  atomic energy  EATOM  =      5575.94961827
  Solvation  Ediel_sol  =         0.00000000
  ---------------------------------------------------
  free energy    TOTEN  =       -17.03743042 eV

  energy without entropy =      -17.02158347  energy(sigma->0) =      -17.02950694


--------------------------------------------------------------------------------------------------------




--------------------------------------- Iteration      1(  18)  ---------------------------------------


    POTLOK:  cpu time    0.0110: real time    0.0115
    SETDIJ:  cpu time    0.0040: real time    0.0032
    EDDIAG:  cpu time    0.1250: real time    0.1260
  RMM-DIIS:  cpu time    0.2890: real time    0.2892
    ORTHCH:  cpu time    0.0160: real time    0.0160
       DOS:  cpu time    0.0060: real time    0.0058
    CHARGE:  cpu time    0.0330: real time    0.0337
    MIXING:  cpu time    0.0010: real time    0.0009
    --------------------------------------------
      LOOP:  cpu time    0.4849: real time    0.4863

 eigenvalue-minimisations  :  1452
 total energy-change (2. order) :-0.7344705E-04  (-0.9027024E-06)
 number of electron      44.9999957 magnetization 
 augmentation part       28.7742486 magnetization 

 Broyden mixing:
  rms(total) = 0.64105E-03    rms(broyden)= 0.34860E-03
  rms(prec ) = 0.47143E-03
  weight for this iteration     100.00
  WARNING: grid for Broyden might be to small

 eigenvalues of (default mixing * dielectric matrix)
  average eigenvalue GAMMA=   1.6085
  5.7543  3.7411  2.3379  2.3379  1.4171  1.0714  0.9413  0.9413  0.6599  0.7259
  0.2139  0.3627  0.4056

 Free energy of the ion-electron system (eV)
  ---------------------------------------------------
  alpha Z        PSCENC =       120.87645803
  Ewald energy   TEWEN  =     38084.27828387
  -Hartree energ DENC   =    -43152.34750676
  -exchange      EXHF   =         0.00000000
  -V(xc)+E(xc)   XCENC  =       173.39594337
  PAW double counting   =      4396.06036387    -4971.97735956
  entropy T*S    EENTRO =        -0.01585282
  eigenvalues    EBANDS =      -243.25745215
  atomic energy  EATOM  =      5575.94961827
  Solvation  Ediel_sol  =         0.00000000
  ---------------------------------------------------
  free energy    TOTEN  =       -17.03750387 eV

  energy without entropy =      -17.02165105  energy(sigma->0) =      -17.02957746


--------------------------------------------------------------------------------------------------------




--------------------------------------- Iteration      1(  19)  ---------------------------------------


    POTLOK:  cpu time    0.0120: real time    0.0129
    SETDIJ:  cpu time    0.0030: real time    0.0032
    EDDIAG:  cpu time    0.1250: real time    0.1260
  RMM-DIIS:  cpu time    0.2520: real time    0.2516
    ORTHCH:  cpu time    0.0160: real time    0.0160
       DOS:  cpu time    0.0060: real time    0.0058
    CHARGE:  cpu time    0.0330: real time    0.0337
    MIXING:  cpu time    0.0020: real time    0.0010
    --------------------------------------------
      LOOP:  cpu time    0.4489: real time    0.4502

 eigenvalue-minimisations  :  1154
 total energy-change (2. order) :-0.2357146E-04  (-0.8129474E-07)
 number of electron      44.9999957 magnetization 
 augmentation part       28.7740853 magnetization 

 Broyden mixing:
  rms(total) = 0.59127E-03    rms(broyden)= 0.24558E-03
  rms(prec ) = 0.29954E-03
  weight for this iteration     100.00
  WARNING: grid for Broyden might be to small

 eigenvalues of (default mixing * dielectric matrix)
  average eigenvalue GAMMA=   1.7598
  6.5028  4.5571  2.5404  2.5404  1.9042  1.3058  0.2139  1.0116  0.9548  0.9548
  0.6600  0.7233  0.3627  0.4056

 Free energy of the ion-electron system (eV)
  ---------------------------------------------------
  alpha Z        PSCENC =       120.87645803
  Ewald energy   TEWEN  =     38084.27828387
  -Hartree energ DENC   =    -43152.51512535
  -exchange      EXHF   =         0.00000000
  -V(xc)+E(xc)   XCENC  =       173.39643795
  PAW double counting   =      4396.06786570    -4971.98000074
  entropy T*S    EENTRO =        -0.01585126
  eigenvalues    EBANDS =      -243.09521392
  atomic energy  EATOM  =      5575.94961827
  Solvation  Ediel_sol  =         0.00000000
  ---------------------------------------------------
  free energy    TOTEN  =       -17.03752744 eV

  energy without entropy =      -17.02167618  energy(sigma->0) =      -17.02960181


--------------------------------------------------------------------------------------------------------




--------------------------------------- Iteration      1(  20)  ---------------------------------------


    POTLOK:  cpu time    0.0110: real time    0.0113
    SETDIJ:  cpu time    0.0030: real time    0.0032
    EDDIAG:  cpu time    0.1250: real time    0.1260
  RMM-DIIS:  cpu time    0.2430: real time    0.2418
    ORTHCH:  cpu time    0.0150: real time    0.0160
       DOS:  cpu time    0.0060: real time    0.0058
    CHARGE:  cpu time    0.0330: real time    0.0337
    MIXING:  cpu time    0.0020: real time    0.0010
    --------------------------------------------
      LOOP:  cpu time    0.4379: real time    0.4389

 eigenvalue-minimisations  :  1119
 total energy-change (2. order) :-0.3334012E-04  (-0.1514088E-06)
 number of electron      44.9999957 magnetization 
 augmentation part       28.7739951 magnetization 

 Broyden mixing:
  rms(total) = 0.56725E-03    rms(broyden)= 0.18036E-03
  rms(prec ) = 0.19418E-03
  weight for this iteration     100.00
  WARNING: grid for Broyden might be to small

 eigenvalues of (default mixing * dielectric matrix)
  average eigenvalue GAMMA=   1.8538
  6.9504  5.1008  2.9503  2.5114  2.1052  1.5127  1.3332  0.2139  1.0278  1.0278
  0.9213  0.6600  0.7242  0.3627  0.4056

 Free energy of the ion-electron system (eV)
  ---------------------------------------------------
  alpha Z        PSCENC =       120.87645803
  Ewald energy   TEWEN  =     38084.27828387
  -Hartree energ DENC   =    -43152.67514817
  -exchange      EXHF   =         0.00000000
  -V(xc)+E(xc)   XCENC  =       173.39663012
  PAW double counting   =      4396.10148673    -4972.01244198
  entropy T*S    EENTRO =        -0.01585611
  eigenvalues    EBANDS =      -242.93659154
  atomic energy  EATOM  =      5575.94961827
  Solvation  Ediel_sol  =         0.00000000
  ---------------------------------------------------
  free energy    TOTEN  =       -17.03756078 eV

  energy without entropy =      -17.02170467  energy(sigma->0) =      -17.02963272


--------------------------------------------------------------------------------------------------------




--------------------------------------- Iteration      1(  21)  ---------------------------------------


    POTLOK:  cpu time    0.0110: real time    0.0114
    SETDIJ:  cpu time    0.0030: real time    0.0032
    EDDIAG:  cpu time    0.1260: real time    0.1264
  RMM-DIIS:  cpu time    0.2410: real time    0.2410
    ORTHCH:  cpu time    0.0160: real time    0.0160
       DOS:  cpu time    0.0060: real time    0.0058
    CHARGE:  cpu time    0.0340: real time    0.0339
    MIXING:  cpu time    0.0010: real time    0.0011
    --------------------------------------------
      LOOP:  cpu time    0.4379: real time    0.4388

 eigenvalue-minimisations  :  1067
 total energy-change (2. order) :-0.9419622E-05  (-0.3597496E-07)
 number of electron      44.9999957 magnetization 
 augmentation part       28.7739324 magnetization 

 Broyden mixing:
  rms(total) = 0.56667E-03    rms(broyden)= 0.17855E-03
  rms(prec ) = 0.18389E-03
  weight for this iteration     100.00
  WARNING: grid for Broyden might be to small

 eigenvalues of (default mixing * dielectric matrix)
  average eigenvalue GAMMA=   1.9525
  7.8939  5.5540  3.2598  2.6069  2.4678  1.8378  1.2790  0.2139  1.0282  1.0282
  0.9802  0.9375  0.6600  0.7239  0.3627  0.4056

 Free energy of the ion-electron system (eV)
  ---------------------------------------------------
  alpha Z        PSCENC =       120.87645803
  Ewald energy   TEWEN  =     38084.27828387
  -Hartree energ DENC   =    -43152.72383988
  -exchange      EXHF   =         0.00000000
  -V(xc)+E(xc)   XCENC  =       173.39671563
  PAW double counting   =      4396.10410330    -4972.01716701
  entropy T*S    EENTRO =        -0.01585787
  eigenvalues    EBANDS =      -242.88588454
  atomic energy  EATOM  =      5575.94961827
  Solvation  Ediel_sol  =         0.00000000
  ---------------------------------------------------
  free energy    TOTEN  =       -17.03757020 eV

  energy without entropy =      -17.02171233  energy(sigma->0) =      -17.02964126


--------------------------------------------------------------------------------------------------------




--------------------------------------- Iteration      1(  22)  ---------------------------------------


    POTLOK:  cpu time    0.0110: real time    0.0137
    SETDIJ:  cpu time    0.0040: real time    0.0032
    EDDIAG:  cpu time    0.1260: real time    0.1265
  RMM-DIIS:  cpu time    0.2340: real time    0.2338
    ORTHCH:  cpu time    0.0150: real time    0.0160
       DOS:  cpu time    0.0060: real time    0.0058
    CHARGE:  cpu time    0.0340: real time    0.0339
    MIXING:  cpu time    0.0010: real time    0.0011
    --------------------------------------------
      LOOP:  cpu time    0.4309: real time    0.4340

 eigenvalue-minimisations  :  1037
 total energy-change (2. order) :-0.3725223E-05  (-0.1263002E-07)
 number of electron      44.9999957 magnetization 
 augmentation part       28.7740350 magnetization 

 Broyden mixing:
  rms(total) = 0.56245E-03    rms(broyden)= 0.16466E-03
  rms(prec ) = 0.16607E-03
  weight for this iteration     100.00
  WARNING: grid for Broyden might be to small

 eigenvalues of (default mixing * dielectric matrix)
  average eigenvalue GAMMA=   2.0151
  8.4171  5.6808  3.7056  2.5024  2.3473  2.3473  1.6360  0.2139  0.3627  0.4056
  1.2517  0.6600  0.7240  1.0391  1.0391  0.9890  0.9344

 Free energy of the ion-electron system (eV)
  ---------------------------------------------------
  alpha Z        PSCENC =       120.87645803
  Ewald energy   TEWEN  =     38084.27828387
  -Hartree energ DENC   =    -43152.74374323
  -exchange      EXHF   =         0.00000000
  -V(xc)+E(xc)   XCENC  =       173.39658769
  PAW double counting   =      4396.08208484    -4971.99378941
  entropy T*S    EENTRO =        -0.01585642
  eigenvalues    EBANDS =      -242.86721758
  atomic energy  EATOM  =      5575.94961827
  Solvation  Ediel_sol  =         0.00000000
  ---------------------------------------------------
  free energy    TOTEN  =       -17.03757392 eV

  energy without entropy =      -17.02171751  energy(sigma->0) =      -17.02964572


--------------------------------------------------------------------------------------------------------




--------------------------------------- Iteration      1(  23)  ---------------------------------------


    POTLOK:  cpu time    0.0110: real time    0.0116
    SETDIJ:  cpu time    0.0040: real time    0.0032
    EDDIAG:  cpu time    0.1250: real time    0.1262
  RMM-DIIS:  cpu time    0.1950: real time    0.1945
    ORTHCH:  cpu time    0.0160: real time    0.0160
       DOS:  cpu time    0.0050: real time    0.0058
    --------------------------------------------
      LOOP:  cpu time    0.3559: real time    0.3572

 eigenvalue-minimisations  :   445
 total energy-change (2. order) :-0.1380849E-06  (-0.1314431E-08)
 number of electron      44.9999957 magnetization 
 augmentation part       28.7740350 magnetization 

 Free energy of the ion-electron system (eV)
  ---------------------------------------------------
  alpha Z        PSCENC =       120.87645803
  Ewald energy   TEWEN  =     38084.27828387
  -Hartree energ DENC   =    -43152.75301223
  -exchange      EXHF   =         0.00000000
  -V(xc)+E(xc)   XCENC  =       173.39665135
  PAW double counting   =      4396.08690343    -4971.99905451
  entropy T*S    EENTRO =        -0.01585776
  eigenvalues    EBANDS =      -242.85756452
  atomic energy  EATOM  =      5575.94961827
  Solvation  Ediel_sol  =         0.00000000
  ---------------------------------------------------
  free energy    TOTEN  =       -17.03757406 eV

  energy without entropy =      -17.02171630  energy(sigma->0) =      -17.02964518


--------------------------------------------------------------------------------------------------------




 average (electrostatic) potential at core
  the test charge radii are     1.0053  0.5201
  (the norm of the test charge is              1.0000)
       1 -45.8148       2 -46.0450       3 -46.0412       4 -46.3423       5 -39.0388
 
 
 
 E-fermi :  -2.3714     XC(G=0):  -4.4102     alpha+bet : -2.7756


 k-point     1 :       0.0000    0.0000    0.0000
  band No.  band energies     occupation 
      1     -11.5635      2.00000
      2     -10.6606      2.00000
      3      -9.0230      2.00000
      4      -7.5706      2.00000
      5      -6.2615      2.00000
      6      -5.6813      2.00000
      7      -5.5041      2.00000
      8      -5.4510      2.00000
      9      -5.3289      2.00000
     10      -5.3204      2.00000
     11      -5.3031      2.00000
     12      -5.2879      2.00000
     13      -5.2812      2.00000
     14      -5.0289      2.00000
     15      -5.0261      2.00000
     16      -4.8787      2.00000
     17      -4.8602      2.00000
     18      -4.6986      2.00000
     19      -4.5274      2.00000
     20      -4.5248      2.00000
     21      -4.3116      2.00000
     22      -4.2995      2.00000
     23      -4.0241      2.00000
     24      -4.0208      2.00000
     25      -2.9321      2.00000
     26       1.6103      0.00000
     27       1.9143      0.00000
     28       2.3400      0.00000

 k-point     2 :       0.1000    0.0000    0.0000
  band No.  band energies     occupation 
      1     -11.2557      2.00000
      2     -10.3643      2.00000
      3      -8.7625      2.00000
      4      -7.3526      2.00000
      5      -6.2813      2.00000
      6      -5.7285      2.00000
      7      -5.6115      2.00000
      8      -5.4575      2.00000
      9      -5.4056      2.00000
     10      -5.3627      2.00000
     11      -5.3279      2.00000
     12      -5.2207      2.00000
     13      -5.1902      2.00000
     14      -5.1307      2.00000
     15      -5.0426      2.00000
     16      -4.9397      2.00000
     17      -4.7806      2.00000
     18      -4.7087      2.00000
     19      -4.5357      2.00000
     20      -4.4991      2.00000
     21      -4.3272      2.00000
     22      -4.2971      2.00000
     23      -4.0163      2.00000
     24      -3.7859      2.00000
     25      -2.2431      0.06958
     26       1.8545      0.00000
     27       2.2181      0.00000
     28       2.6432      0.00000

 k-point     3 :       0.2000   -0.0000    0.0000
  band No.  band energies     occupation 
      1     -10.3702      2.00000
      2      -9.5278      2.00000
      3      -8.0912      2.00000
      4      -6.8465      2.00000
      5      -6.3860      2.00000
      6      -5.9638      2.00000
      7      -5.7792      2.00000
      8      -5.6976      2.00000
      9      -5.5341      2.00000
     10      -5.3067      2.00000
     11      -5.2485      2.00000
     12      -5.1971      2.00000
     13      -5.0851      2.00000
     14      -5.0309      2.00000
     15      -4.9217      2.00000
     16      -4.8672      2.00000
     17      -4.8179      2.00000
     18      -4.6414      2.00000
     19      -4.5884      2.00000
     20      -4.4776      2.00000
     21      -4.2971      2.00000
     22      -4.0926      2.00000
     23      -4.0089      2.00000
     24      -2.8892      2.00000
     25      -0.9097      0.00000
     26       2.5797      0.00000
     27       3.1286      0.00000
     28       3.5527      0.00000

 k-point     4 :       0.3000   -0.0000    0.0000
  band No.  band energies     occupation 
      1      -9.0700      2.00000
      2      -8.3844      2.00000
      3      -7.4467      2.00000
      4      -6.6782      2.00000
      5      -6.4037      2.00000
      6      -6.2364      2.00000
      7      -5.9193      2.00000
      8      -5.6954      2.00000
      9      -5.5800      2.00000
     10      -5.3163      2.00000
     11      -5.1811      2.00000
     12      -5.0924      2.00000
     13      -4.9146      2.00000
     14      -4.8741      2.00000
     15      -4.7715      2.00000
     16      -4.6354      2.00000
     17      -4.5651      2.00000
     18      -4.3941      2.00000
     19      -4.3631      2.00000
     20      -4.2884      2.00000
     21      -4.1728      2.00000
     22      -3.9938      2.00000
     23      -3.5883      2.00000
     24      -1.6846      0.00000
     25       0.7765      0.00000
     26       3.7651      0.00000
     27       4.6117      0.00000
     28       5.0301      0.00000

 k-point     5 :       0.4000   -0.0000    0.0000
  band No.  band energies     occupation 
      1      -8.0008      2.00000
      2      -7.4592      2.00000
      3      -7.1299      2.00000
      4      -6.7763      2.00000
      5      -6.5414      2.00000
      6      -6.4065      2.00000
      7      -6.0572      2.00000
      8      -5.5120      2.00000
      9      -5.3754      2.00000
     10      -5.2983      2.00000
     11      -5.2353      2.00000
     12      -4.9577      2.00000
     13      -4.8352      2.00000
     14      -4.5057      2.00000
     15      -4.4082      2.00000
     16      -4.3441      2.00000
     17      -4.1441      2.00000
     18      -4.1243      2.00000
     19      -4.0833      2.00000
     20      -3.9976      2.00000
     21      -3.8569      2.00000
     22      -3.5689      2.00000
     23      -2.5211      1.96574
     24      -0.2677      0.00000
     25       2.1390      0.00000
     26       2.8748      0.00000
     27       3.1796      0.00000
     28       4.3880      0.00000

 k-point     6 :       0.5000   -0.0000    0.0000
  band No.  band energies     occupation 
      1      -7.7866      2.00000
      2      -7.1572      2.00000
      3      -6.9397      2.00000
      4      -6.8360      2.00000
      5      -6.6100      2.00000
      6      -6.4626      2.00000
      7      -6.0894      2.00000
      8      -5.4364      2.00000
      9      -5.3820      2.00000
     10      -5.2571      2.00000
     11      -5.1518      2.00000
     12      -4.9440      2.00000
     13      -4.6031      2.00000
     14      -4.4547      2.00000
     15      -4.2930      2.00000
     16      -4.2175      2.00000
[...]
      3      -7.2980      2.00000
      4      -6.5011      2.00000
      5      -6.3440      2.00000
      6      -6.0408      2.00000
      7      -5.7519      2.00000
      8      -5.6540      2.00000
      9      -5.4494      2.00000
     10      -5.3232      2.00000
     11      -5.2592      2.00000
     12      -5.1263      2.00000
     13      -4.9786      2.00000
     14      -4.8852      2.00000
     15      -4.7585      2.00000
     16      -4.7345      2.00000
     17      -4.5667      2.00000
     18      -4.4133      2.00000
     19      -4.3771      2.00000
     20      -4.2916      2.00000
     21      -4.1729      2.00000
     22      -3.9964      2.00000
     23      -3.7810      2.00000
     24      -1.9834      0.00000
     25       0.5791      0.00000
     26       3.6383      0.00000
     27       4.6320      0.00000
     28       4.8692      0.00000

 k-point    24 :      -0.4000    0.3000    0.0000
  band No.  band energies     occupation 
      1      -7.5813      2.00000
      2      -6.4492      2.00000
      3      -6.3745      2.00000
      4      -6.3021      2.00000
      5      -6.1887      2.00000
      6      -6.0723      2.00000
      7      -6.0187      2.00000
      8      -5.9322      2.00000
      9      -5.7475      2.00000
     10      -5.5500      2.00000
     11      -5.4664      2.00000
     12      -5.0858      2.00000
     13      -5.0378      2.00000
     14      -4.8477      2.00000
     15      -4.6844      2.00000
     16      -4.5384      2.00000
     17      -4.4788      2.00000
     18      -4.1921      2.00000
     19      -4.1071      2.00000
     20      -4.0115      2.00000
     21      -2.1024      0.00014
     22      -0.4192      0.00000
     23       0.7753      0.00000
     24       2.1850      0.00000
     25       2.2893      0.00000
     26       2.5764      0.00000
     27       3.3103      0.00000
     28       3.9985      0.00000

 k-point    25 :      -0.3000    0.3000    0.0000
  band No.  band energies     occupation 
      1      -7.5376      2.00000
      2      -6.4522      2.00000
      3      -6.3996      2.00000
      4      -6.3019      2.00000
      5      -6.1942      2.00000
      6      -6.0729      2.00000
      7      -6.0213      2.00000
      8      -5.9160      2.00000
      9      -5.7063      2.00000
     10      -5.5911      2.00000
     11      -5.4722      2.00000
     12      -5.0874      2.00000
     13      -5.0373      2.00000
     14      -4.8635      2.00000
     15      -4.6962      2.00000
     16      -4.5508      2.00000
     17      -4.4775      2.00000
     18      -4.1804      2.00000
     19      -4.1040      2.00000
     20      -4.0126      2.00000
     21      -1.9533      0.00000
     22      -0.4476      0.00000
     23       0.6291      0.00000
     24       1.8138      0.00000
     25       2.3422      0.00000
     26       2.5612      0.00000
     27       3.2494      0.00000
     28       3.7824      0.00000

 k-point    26 :      -0.2000    0.3000    0.0000
  band No.  band energies     occupation 
      1      -7.9387      2.00000
      2      -6.8798      2.00000
      3      -6.6762      2.00000
      4      -6.4159      2.00000
      5      -6.2781      2.00000
      6      -6.0396      2.00000
      7      -5.9436      2.00000
      8      -5.7674      2.00000
      9      -5.6163      2.00000
     10      -5.5358      2.00000
     11      -5.3915      2.00000
     12      -5.1033      2.00000
     13      -5.0354      2.00000
     14      -4.8883      2.00000
     15      -4.6745      2.00000
     16      -4.6022      2.00000
     17      -4.4123      2.00000
     18      -4.2355      2.00000
     19      -4.0494      2.00000
     20      -3.9211      2.00000
     21      -3.0252      2.00000
     22      -2.4230      1.53416
     23      -1.4088      0.00000
     24       0.4068      0.00000
     25       2.1904      0.00000
     26       3.2480      0.00000
     27       4.2653      0.00000
     28       5.6053      0.00000

 k-point    27 :      -0.1000    0.3000    0.0000
  band No.  band energies     occupation 
      1      -8.6500      2.00000
      2      -7.6436      2.00000
      3      -6.9947      2.00000
      4      -6.4680      2.00000
      5      -6.3746      2.00000
      6      -6.0822      2.00000
      7      -5.8298      2.00000
      8      -5.6340      2.00000
      9      -5.4889      2.00000
     10      -5.3908      2.00000
     11      -5.2585      2.00000
     12      -5.1514      2.00000
     13      -5.0118      2.00000
     14      -4.7879      2.00000
     15      -4.7055      2.00000
     16      -4.5506      2.00000
     17      -4.4094      2.00000
     18      -4.2325      2.00000
     19      -4.1817      2.00000
     20      -4.0152      2.00000
     21      -3.9410      2.00000
     22      -3.6768      2.00000
     23      -3.0256      2.00000
     24      -1.0799      0.00000
     25       1.5064      0.00000
     26       3.6285      0.00000
     27       4.5478      0.00000
     28       5.4162      0.00000

 k-point    28 :       0.0000    0.4000    0.0000
  band No.  band energies     occupation 
      1      -8.5061      2.00000
      2      -7.3897      2.00000
      3      -7.0233      2.00000
      4      -6.5550      2.00000
      5      -6.5132      2.00000
      6      -6.1877      2.00000
      7      -5.7939      2.00000
      8      -5.4622      2.00000
      9      -5.3453      2.00000
     10      -5.3422      2.00000
     11      -5.0684      2.00000
     12      -5.0261      2.00000
     13      -4.7298      2.00000
     14      -4.5258      2.00000
     15      -4.3777      2.00000
     16      -4.3735      2.00000
     17      -4.1433      2.00000
     18      -4.0825      2.00000
     19      -4.0422      2.00000
     20      -4.0000      2.00000
     21      -3.8571      2.00000
     22      -3.5547      2.00000
     23      -2.8311      2.00000
     24      -0.8858      0.00000
     25       1.0643      0.00000
     26       2.6048      0.00000
     27       3.5028      0.00000
     28       4.9649      0.00000

 k-point    29 :      -0.2000    0.4000    0.0000
  band No.  band energies     occupation 
      1      -7.7986      2.00000
      2      -6.6660      2.00000
      3      -6.6182      2.00000
      4      -6.3464      2.00000
      5      -6.2625      2.00000
      6      -6.0254      2.00000
      7      -5.9679      2.00000
      8      -5.9040      2.00000
      9      -5.5259      2.00000
     10      -5.4645      2.00000
     11      -5.2526      2.00000
     12      -5.1283      2.00000
     13      -4.9906      2.00000
     14      -4.7449      2.00000
     15      -4.6241      2.00000
     16      -4.5240      2.00000
     17      -4.3127      2.00000
     18      -4.1354      2.00000
     19      -4.0920      2.00000
     20      -3.9882      2.00000
     21      -1.9414      0.00000
     22      -0.8494      0.00000
     23      -0.4401      0.00000
     24       0.1661      0.00000
     25       0.8243      0.00000
     26       2.4063      0.00000
     27       3.7331      0.00000
     28       5.0125      0.00000

 k-point    30 :      -0.1000    0.4000    0.0000
  band No.  band energies     occupation 
      1      -8.1897      2.00000
      2      -7.0288      2.00000
      3      -6.8928      2.00000
      4      -6.5205      2.00000
      5      -6.4514      2.00000
      6      -6.1746      2.00000
      7      -5.8321      2.00000
      8      -5.5966      2.00000
      9      -5.4195      2.00000
     10      -5.2813      2.00000
     11      -5.2195      2.00000
     12      -4.9439      2.00000
     13      -4.7791      2.00000
     14      -4.6311      2.00000
     15      -4.4459      2.00000
     16      -4.2988      2.00000
     17      -4.1647      2.00000
     18      -4.1017      2.00000
     19      -4.0426      2.00000
     20      -3.9041      2.00000
     21      -2.9252      2.00000
     22      -2.4187      1.49682
     23      -1.6567      0.00000
     24      -0.4856      0.00000
     25       0.3355      0.00000
     26       2.1796      0.00000
     27       3.3274      0.00000
     28       4.8599      0.00000

 k-point    31 :       0.0000    0.5000    0.0000
  band No.  band energies     occupation 
      1      -8.2890      2.00000
      2      -7.0999      2.00000
      3      -6.9961      2.00000
      4      -6.6136      2.00000
      5      -6.5404      2.00000
      6      -6.2535      2.00000
      7      -5.8017      2.00000
      8      -5.4393      2.00000
      9      -5.3748      2.00000
     10      -5.3176      2.00000
     11      -5.0470      2.00000
     12      -4.9426      2.00000
     13      -4.5083      2.00000
     14      -4.5058      2.00000
     15      -4.2681      2.00000
     16      -4.1212      2.00000
     17      -4.0796      2.00000
     18      -3.9867      2.00000
     19      -3.9271      2.00000
     20      -3.7419      2.00000
     21      -2.8830      2.00000
     22      -2.2815      0.20340
     23      -1.6904      0.00000
     24      -1.1677      0.00000
     25      -0.8160      0.00000
     26       1.8813      0.00000
     27       3.0104      0.00000
     28       4.4732      0.00000


--------------------------------------------------------------------------------------------------------


 soft charge-density along one line, spin component           1
         0         1         2         3         4         5         6         7         8         9
 total charge-density along one line
 
 pseudopotential strength for first ion, spin component:           1
-10.845   0.000   0.000  -0.005   0.000   1.742  -0.000  -0.000
  0.000 -10.823  -0.000   0.000  -0.004  -0.000   1.731   0.000
  0.000  -0.000 -10.824  -0.000   0.002  -0.000   0.000   1.731
 -0.005   0.000  -0.000 -10.825  -0.000   0.002  -0.000   0.000
  0.000  -0.004   0.002  -0.000 -10.845  -0.000   0.002  -0.001
  1.742  -0.000  -0.000   0.002  -0.000   0.775   0.000   0.000
 -0.000   1.731   0.000  -0.000   0.002   0.000   0.780  -0.000
 -0.000   0.000   1.731   0.000  -0.001   0.000  -0.000   0.780
  0.002  -0.000   0.000   1.732   0.000  -0.001   0.000  -0.000
 -0.000   0.002  -0.001   0.000   1.742   0.000  -0.001   0.000
 -0.000   0.000  -0.005   0.000   0.000  -0.000  -0.000   0.002
  0.000  -0.000   0.000  -0.000  -0.000  -0.000   0.000  -0.000
  0.000  -0.011   0.000  -0.000   0.000  -0.000   0.006  -0.000
 -0.000  -0.000  -0.011   0.000   0.000  -0.000   0.000   0.006
  0.000  -0.000  -0.000  -0.011   0.000   0.000  -0.000  -0.000
 -0.000   0.006  -0.000   0.000  -0.000   0.000  -0.003   0.000
  0.000  -0.000   0.006   0.000  -0.000  -0.000   0.000  -0.003
 -0.000   0.000   0.000   0.006  -0.000   0.000  -0.000  -0.000
 total augmentation occupancy for first ion, spin component:           1
  1.928   0.000   0.000  -0.002   0.000  -0.003   0.000   0.000   0.010   0.000   0.000   0.000   0.000   0.000   0.006   0.000
  0.000   1.932  -0.000   0.000  -0.002   0.000  -0.034   0.000   0.000   0.010   0.001   0.000  -0.003   0.000   0.000  -0.005
  0.000  -0.000   1.935   0.000   0.001   0.000   0.000  -0.025   0.000  -0.000   0.016   0.039   0.001   0.036   0.000  -0.000
 -0.002   0.000   0.000   1.932   0.000   0.010   0.000   0.000  -0.034   0.000   0.000   0.000   0.000   0.000  -0.001   0.000
  0.000  -0.002   0.001   0.000   1.927   0.000   0.010  -0.000   0.000  -0.003   0.001   0.000   0.006  -0.001   0.000  -0.001
 -0.003   0.000   0.000   0.010   0.000   0.060   0.000   0.000   0.001   0.000   0.000   0.000   0.000   0.000   0.006   0.000
  0.000  -0.034   0.000   0.000   0.010   0.000   0.040  -0.000   0.000   0.001  -0.000  -0.000   0.032  -0.000   0.000  -0.003
  0.000   0.000  -0.025   0.000  -0.000   0.000  -0.000   0.056   0.000   0.000  -0.074   0.013  -0.001   0.043   0.000   0.000
  0.010   0.000   0.000  -0.034   0.000   0.001   0.000   0.000   0.040   0.000   0.000   0.000   0.000   0.000   0.031   0.000
  0.000   0.010  -0.000   0.000  -0.003   0.000   0.001   0.000   0.000   0.060  -0.001  -0.000   0.005   0.000   0.000  -0.000
  0.000   0.001   0.016   0.000   0.001   0.000  -0.000  -0.074   0.000  -0.001   1.243  -0.282  -0.001   0.072   0.000   0.000
  0.000   0.000   0.039   0.000   0.000   0.000  -0.000   0.013   0.000  -0.000  -0.282   0.110  -0.000  -0.045   0.000  -0.000
  0.000  -0.003   0.001   0.000   0.006   0.000   0.032  -0.001   0.000   0.005  -0.001  -0.000   0.170  -0.001   0.000  -0.010
  0.000   0.000   0.036   0.000  -0.001   0.000  -0.000   0.043   0.000   0.000   0.072  -0.045  -0.001   0.091   0.000   0.000
  0.006   0.000   0.000  -0.001   0.000   0.006   0.000   0.000   0.031   0.000   0.000   0.000   0.000   0.000   0.171   0.000
  0.000  -0.005  -0.000   0.000  -0.001   0.000  -0.003   0.000   0.000  -0.000   0.000  -0.000  -0.010   0.000   0.000   0.001
  0.000   0.000  -0.009   0.000  -0.000   0.000  -0.000  -0.002   0.000  -0.000  -0.013   0.006   0.000  -0.007   0.000  -0.000
 -0.001   0.000   0.000  -0.005   0.000  -0.000   0.000   0.000  -0.003   0.000   0.000   0.000   0.000   0.000  -0.010   0.000


------------------------ aborting loop because EDIFF is reached ----------------------------------------


 


 total charge     
 
# of ion       s       p       d       tot
------------------------------------------
    1        0.456   0.286   9.220   9.963
    2        0.445   0.371   9.221  10.038
    3        0.453   0.369   9.209  10.030
    4        0.443   0.448   9.200  10.091
    5        0.511   0.016   0.000   0.527
--------------------------------------------------
tot          2.308   1.490  36.850  40.649
 
    CHARGE:  cpu time    0.0330: real time    0.0341
    FORLOC:  cpu time    0.0020: real time    0.0014
    FORNL :  cpu time    0.1790: real time    0.1783
    STRESS:  cpu time    0.5379: real time    0.5382
    FORCOR:  cpu time    0.0110: real time    0.0116
    FORHAR:  cpu time    0.0040: real time    0.0031
    MIXING:  cpu time    0.0010: real time    0.0012
    OFIELD:  cpu time    0.0000: real time    0.0000

  FORCE on cell =-STRESS in cart. coord.  units (eV):
  Direction    XX          YY          ZZ          XY          YZ          ZX
  --------------------------------------------------------------------------------------
  Alpha Z   120.87646   120.87646   120.87646
  Ewald   41036.08947 40987.83621-43939.65088    -0.00005    -1.42872     0.00030
  Hartree 42333.67034 42315.04360-41495.95400     0.00003    -0.39372    -0.00001
  E(xc)    -252.99913  -253.17334  -253.57801    -0.00254    -0.00534     0.00022
  Local  -83635.04882-83572.87450 85166.76429     0.00523     1.64629    -0.00116
  n-local  -155.59594  -155.76947  -156.29118     2.23004    -0.06449     0.23738
  augment   225.03542   226.60545   226.29727    -0.01275     0.05643     0.00325
  Kinetic   323.21560   326.60149   326.57141   -11.00631    -0.07408     0.50772
  Fock        0.00000     0.00000     0.00000     0.00000     0.00000     0.00000
  -------------------------------------------------------------------------------------
  Total      -4.75660    -4.85411    -4.96465     0.00000    -0.26363     0.00000
  in kB     -43.83230   -44.73085   -45.74947     0.00000    -2.42939     0.00000
  external pressure =      -44.77 kB  Pullay stress =        0.00 kB


 VOLUME and BASIS-vectors are now :
 -----------------------------------------------------------------------------
  energy-cutoff  :      250.00
  volume of cell :      173.87
      direct lattice vectors                 reciprocal lattice vectors
     2.573868684  0.000000000  0.000000000     0.388520209 -0.224312248  0.000000000
     1.286934342  2.229035666  0.000000000     0.000000000  0.448624495  0.000000000
     0.000000000  0.000000000 30.304664940     0.000000000  0.000000000  0.032998220

  length of vectors
     2.573868684  2.573868684 30.304664940     0.448624495  0.448624495  0.032998220


 FORCES acting on ions
    electron-ion (+dipol)            ewald-force                    non-local-force                 convergence-correction
 -----------------------------------------------------------------------------------------------
   -.185E-03 -.491E-01 0.422E+04   -.960E-04 -.145E-01 -.422E+04   -.347E-17 0.715E-01 -.151E+01   0.251E-09 -.272E-05 0.123E-02
   0.142E-03 -.127E+00 0.149E+04   0.222E-03 0.838E-01 -.149E+04   -.173E-17 0.476E-01 -.790E+00   0.117E-07 0.711E-05 0.389E-02
   0.374E-04 0.404E+00 -.125E+04   -.150E-03 -.290E+00 0.125E+04   0.000E+00 -.106E+00 0.158E+00   -.424E-08 0.428E-05 0.456E-02
   0.199E-03 -.224E+01 -.398E+04   -.282E-03 0.199E+01 0.398E+04   -.139E-16 0.393E+00 -.523E+00   -.425E-08 -.453E-05 0.223E-02
   -.575E-04 0.154E+01 -.482E+03   0.306E-03 -.177E+01 0.483E+03   -.347E-17 0.722E-01 -.156E+01   -.132E-09 0.979E-06 -.114E-04
 -----------------------------------------------------------------------------------------------
   0.137E-03 -.479E+00 0.423E+01   -.150E-12 0.335E-13 -.568E-13   -.226E-16 0.478E+00 -.422E+01   0.335E-08 0.513E-05 0.119E-01
 
 
 POSITION                                       TOTAL-FORCE (eV/Angst)
 -----------------------------------------------------------------------------------
      2.57387      0.00131     12.01783        -0.000000      0.008180      0.077139
      1.28693      0.74366     14.09590        -0.000000      0.004440     -0.036819
      2.57387      1.48976     16.17040        -0.000000      0.008425     -0.040855
      1.28693      2.22547     18.31056         0.000000      0.139788      0.023325
      2.57386      2.12691     19.31931        -0.000000     -0.160833     -0.022790
 -----------------------------------------------------------------------------------
    total drift:                                0.000137     -0.001224      0.020443


--------------------------------------------------------------------------------------------------------



  FREE ENERGIE OF THE ION-ELECTRON SYSTEM (eV)
  ---------------------------------------------------
  free  energy   TOTEN  =       -17.03757406 eV

  energy  without entropy=      -17.02171630  energy(sigma->0) =      -17.02964518
 


--------------------------------------------------------------------------------------------------------


    POTLOK:  cpu time    0.0140: real time    0.0143


--------------------------------------------------------------------------------------------------------


     LOOP+:  cpu time   13.3810: real time   13.4364
    4ORBIT:  cpu time    0.0000: real time    0.0000
 


 total charge     
 
# of ion       s       p       d       tot
------------------------------------------
    1        0.456   0.286   9.220   9.963
    2        0.445   0.371   9.221  10.038
    3        0.453   0.369   9.209  10.030
    4        0.443   0.448   9.200  10.091
    5        0.511   0.016   0.000   0.527
--------------------------------------------------
tot          2.308   1.490  36.850  40.649
 

 total amount of memory used by VASP MPI-rank0    39170. kBytes
=======================================================================

   base      :      30000. kBytes
   nonlr-proj:        677. kBytes
   fftplans  :        995. kBytes
   grid      :       1592. kBytes
   one-center:         46. kBytes
   wavefun   :       5860. kBytes
 
  
  
 General timing and accounting informations for this job:
 ========================================================
  
                  Total CPU time used (sec):       14.737
                            User time (sec):       14.432
                          System time (sec):        0.305
                         Elapsed time (sec):       14.951
  
                   Maximum memory used (kb):       39380.
                   Average memory used (kb):           0.
  
                          Minor page faults:        16474
                          Major page faults:          202
                 Voluntary context switches:         3131
