PROCAR lm decomposed
# of k-points:   31         # of bands:   28         # of ions:    5

 k-point     1 :    0.00000000 0.00000000 0.00000000     weight = 0.01000000

band     1 # energy  -11.56345621 # occ.  2.00000000
 
ion      s     py     pz     px    dxy    dyz    dz2    dxz  x2-y2    tot
    1  0.011  0.000  0.001  0.000  0.000  0.000  0.000  0.000  0.000  0.012
    2  0.058  0.000  0.002  0.000  0.000  0.000  0.000  0.000  0.000  0.060
    3  0.142  0.000  0.002  0.000  0.000  0.000  0.000  0.000  0.000  0.144
    4  0.286  0.000  0.000  0.000  0.000  0.000  0.006  0.000  0.005  0.298
    5  0.083  0.000  0.001  0.000  0.000  0.000  0.000  0.000  0.000  0.084
tot    0.580  0.000  0.006  0.000  0.000  0.000  0.006  0.000  0.005  0.598
 
band     2 # energy  -10.66055832 # occ.  2.00000000
 
ion      s     py     pz     px    dxy    dyz    dz2    dxz  x2-y2    tot
    1  0.117  0.000  0.010  0.000  0.000  0.000  0.000  0.000  0.000  0.128
    2  0.252  0.000  0.001  0.000  0.000  0.000  0.002  0.000  0.000  0.255
    3  0.040  0.000  0.019  0.000  0.000  0.000  0.000  0.000  0.000  0.059
    4  0.087  0.000  0.008  0.000  0.000  0.000  0.010  0.000  0.004  0.109
    5  0.047  0.000  0.000  0.000  0.000  0.000  0.000  0.000  0.000  0.048
tot    0.543  0.000  0.038  0.000  0.000  0.000  0.013  0.000  0.004  0.598
 
band     3 # energy   -9.02303980 # occ.  2.00000000
 
ion      s     py     pz     px    dxy    dyz    dz2    dxz  x2-y2    tot
    1  0.191  0.000  0.002  0.000  0.000  0.000  0.021  0.000  0.000  0.214
    2  0.003  0.000  0.048  0.000  0.000  0.000  0.001  0.000  0.000  0.051
    3  0.203  0.000  0.000  0.000  0.000  0.000  0.038  0.000  0.000  0.242
    4  0.010  0.000  0.031  0.000  0.000  0.000  0.021  0.000  0.006  0.067
    5  0.034  0.000  0.000  0.000  0.000  0.000  0.000  0.000  0.000  0.034
tot    0.441  0.000  0.081  0.000  0.000  0.000  0.081  0.000  0.006  0.608
 
band     4 # energy   -7.57062223 # occ.  2.00000000
 
ion      s     py     pz     px    dxy    dyz    dz2    dxz  x2-y2    tot
    1  0.104  0.000  0.005  0.000  0.000  0.000  0.133  0.000  0.000  0.242
    2  0.098  0.000  0.002  0.000  0.000  0.000  0.235  0.000  0.000  0.335
    3  0.033  0.000  0.014  0.000  0.000  0.000  0.090  0.000  0.000  0.138
    4  0.000  0.000  0.012  0.000  0.000  0.000  0.011  0.000  0.003  0.026
    5  0.006  0.000  0.000  0.000  0.000  0.000  0.000  0.000  0.000  0.006
tot    0.241  0.000  0.034  0.000  0.000  0.000  0.469  0.000  0.003  0.747
 
band     5 # energy   -6.26154528 # occ.  2.00000000
 
ion      s     py     pz     px    dxy    dyz    dz2    dxz  x2-y2    tot
    1  0.000  0.000  0.000  0.000  0.000  0.000  0.002  0.000  0.000  0.003
    2  0.001  0.000  0.000  0.000  0.000  0.000  0.000  0.000  0.000  0.001
    3  0.000  0.000  0.004  0.000  0.000  0.001  0.083  0.000  0.000  0.088
    4  0.011  0.000  0.039  0.000  0.000  0.000  0.498  0.000  0.131  0.680
    5  0.053  0.000  0.000  0.000  0.000  0.000  0.000  0.000  0.000  0.053
tot    0.066  0.000  0.044  0.000  0.000  0.001  0.583  0.000  0.131  0.825
 
band     6 # energy   -5.68127948 # occ.  2.00000000
 
ion      s     py     pz     px    dxy    dyz    dz2    dxz  x2-y2    tot
    1  0.000  0.000  0.001  0.000  0.000  0.000  0.022  0.000  0.000  0.023
    2  0.002  0.000  0.000  0.000  0.000  0.000  0.020  0.000  0.001  0.023
    3  0.000  0.000  0.014  0.000  0.000  0.006  0.245  0.000  0.003  0.267
    4  0.007  0.000  0.006  0.000  0.000  0.000  0.314  0.000  0.289  0.618
    5  0.001  0.000  0.001  0.000  0.000  0.000  0.000  0.000  0.000  0.002
tot    0.011  0.000  0.022  0.000  0.000  0.006  0.601  0.000  0.293  0.933
 
band     7 # energy   -5.50411432 # occ.  2.00000000
 
ion      s     py     pz     px    dxy    dyz    dz2    dxz  x2-y2    tot
    1  0.000  0.000  0.000  0.000  0.000  0.000  0.000  0.000  0.000  0.000
    2  0.000  0.000  0.000  0.000  0.018  0.000  0.000  0.000  0.000  0.018
    3  0.000  0.000  0.000  0.000  0.020  0.000  0.000  0.029  0.000  0.048
    4  0.000  0.000  0.000  0.000  0.900  0.000  0.000  0.000  0.000  0.900
    5  0.000  0.000  0.000  0.000  0.000  0.000  0.000  0.000  0.000  0.000
tot    0.000  0.000  0.000  0.000  0.938  0.000  0.000  0.029  0.000  0.967
 
band     8 # energy   -5.45099536 # occ.  2.00000000
 
ion      s     py     pz     px    dxy    dyz    dz2    dxz  x2-y2    tot
    1  0.002  0.000  0.000  0.000  0.000  0.000  0.017  0.000  0.000  0.019
    2  0.000  0.000  0.008  0.000  0.000  0.000  0.107  0.000  0.013  0.128
    3  0.003  0.000  0.001  0.000  0.000  0.015  0.402  0.000  0.006  0.427
    4  0.001  0.000  0.009  0.000  0.000  0.001  0.006  0.000  0.338  0.355
    5  0.002  0.000  0.000  0.000  0.000  0.000  0.000  0.000  0.000  0.002
tot    0.007  0.000  0.019  0.000  0.000  0.016  0.532  0.000  0.357  0.932
 
band     9 # energy   -5.32887881 # occ.  2.00000000
 
ion      s     py     pz     px    dxy    dyz    dz2    dxz  x2-y2    tot
    1  0.000  0.000  0.005  0.000  0.000  0.003  0.288  0.000  0.002  0.298
    2  0.003  0.000  0.001  0.000  0.000  0.000  0.408  0.000  0.107  0.519
    3  0.001  0.000  0.007  0.000  0.000  0.011  0.014  0.000  0.037  0.070
    4  0.000  0.000  0.006  0.000  0.000  0.000  0.000  0.000  0.041  0.048
    5  0.002  0.000  0.000  0.000  0.000  0.000  0.000  0.000  0.000  0.002
tot    0.007  0.000  0.019  0.000  0.000  0.014  0.711  0.000  0.186  0.938
 
band    10 # energy   -5.32036910 # occ.  2.00000000
 
ion      s     py     pz     px    dxy    dyz    dz2    dxz  x2-y2    tot
    1  0.000  0.000  0.000  0.000  0.021  0.000  0.000  0.001  0.000  0.022
    2  0.000  0.000  0.000  0.000  0.009  0.000  0.000  0.067  0.000  0.076
    3  0.000  0.000  0.000  0.000  0.684  0.000  0.000  0.024  0.000  0.708
    4  0.000  0.000  0.000  0.000  0.012  0.000  0.000  0.148  0.000  0.160
    5  0.000  0.000  0.000  0.000  0.000  0.000  0.000  0.000  0.000  0.000
tot    0.000  0.000  0.000  0.001  0.727  0.000  0.000  0.240  0.000  0.967
 
band    11 # energy   -5.30311119 # occ.  2.00000000
 
ion      s     py     pz     px    dxy    dyz    dz2    dxz  x2-y2    tot
    1  0.000  0.000  0.001  0.000  0.000  0.001  0.041  0.000  0.030  0.073
    2  0.000  0.000  0.001  0.000  0.000  0.046  0.031  0.000  0.141  0.219
    3  0.000  0.000  0.000  0.000  0.000  0.004  0.000  0.000  0.581  0.586
    4  0.000  0.000  0.001  0.000  0.000  0.051  0.000  0.000  0.032  0.084
    5  0.000  0.000  0.000  0.000  0.000  0.000  0.000  0.000  0.000  0.000
tot    0.001  0.000  0.002  0.000  0.000  0.101  0.073  0.000  0.784  0.962
 
band    12 # energy   -5.28788200 # occ.  2.00000000
 
ion      s     py     pz     px    dxy    dyz    dz2    dxz  x2-y2    tot
    1  0.000  0.000  0.000  0.000  0.007  0.000  0.000  0.031  0.000  0.039
    2  0.000  0.000  0.000  0.000  0.824  0.000  0.000  0.010  0.000  0.835
    3  0.000  0.000  0.000  0.000  0.000  0.000  0.000  0.051  0.000  0.052
    4  0.000  0.000  0.000  0.000  0.030  0.000  0.000  0.011  0.000  0.042
    5  0.000  0.000  0.000  0.000  0.000  0.000  0.000  0.000  0.000  0.000
tot    0.000  0.000  0.000  0.000  0.861  0.000  0.000  0.105  0.000  0.967
 
band    13 # energy   -5.28121827 # occ.  2.00000000
 
ion      s     py     pz     px    dxy    dyz    dz2    dxz  x2-y2    tot
    1  0.000  0.000  0.000  0.000  0.000  0.030  0.030  0.000  0.000  0.060
    2  0.000  0.000  0.001  0.000  0.000  0.043  0.015  0.000  0.592  0.651
    3  0.000  0.000  0.000  0.000  0.000  0.061  0.001  0.000  0.142  0.204
    4  0.000  0.000  0.000  0.000  0.000  0.027  0.000  0.000  0.021  0.050
    5  0.000  0.000  0.000  0.000  0.000  0.000  0.000  0.000  0.000  0.000
tot    0.001  0.000  0.002  0.000  0.000  0.162  0.045  0.000  0.755  0.965
 
band    14 # energy   -5.02894927 # occ.  2.00000000
 
ion      s     py     pz     px    dxy    dyz    dz2    dxz  x2-y2    tot
    1  0.000  0.000  0.000  0.000  0.801  0.000  0.000  0.008  0.003  0.812
    2  0.000  0.000  0.000  0.000  0.002  0.000  0.000  0.089  0.000  0.091
    3  0.000  0.000  0.000  0.000  0.028  0.000  0.000  0.002  0.000  0.030
    4  0.000  0.000  0.000  0.000  0.001  0.000  0.000  0.033  0.000  0.035
    5  0.000  0.000  0.000  0.000  0.000  0.000  0.000  0.000  0.000  0.000
tot    0.000  0.000  0.000  0.000  0.832  0.000  0.000  0.133  0.003  0.969
 
band    15 # energy   -5.02609591 # occ.  2.00000000
 
ion      s     py     pz     px    dxy    dyz    dz2    dxz  x2-y2    tot
    1  0.000  0.000  0.000  0.000  0.003  0.007  0.001  0.000  0.811  0.821
    2  0.000  0.000  0.000  0.000  0.000  0.078  0.000  0.000  0.000  0.079
    3  0.000  0.000  0.000  0.000  0.000  0.003  0.000  0.000  0.056  0.059
    4  0.000  0.000  0.000  0.000  0.000  0.008  0.000  0.000  0.001  0.009
    5  0.000  0.000  0.000  0.000  0.000  0.000  0.000  0.000  0.000  0.000
tot    0.000  0.000  0.000  0.000  0.003  0.096  0.001  0.000  0.868  0.968
 
band    16 # energy   -4.87867959 # occ.  2.00000000
 
ion      s     py     pz     px    dxy    dyz    dz2    dxz  x2-y2    tot
    1  0.000  0.000  0.000  0.000  0.015  0.000  0.000  0.003  0.000  0.018
    2  0.000  0.000  0.000  0.000  0.015  0.000  0.000  0.008  0.000  0.023
    3  0.000  0.000  0.000  0.000  0.179  0.000  0.000  0.037  0.000  0.216
    4  0.000  0.000  0.000  0.000  0.005  0.000  0.000  0.720  0.000  0.726
    5  0.000  0.000  0.000  0.003  0.000  0.000  0.000  0.000  0.000  0.003
tot    0.000  0.000  0.000  0.003  0.214  0.000  0.000  0.768  0.000  0.985
 
band    17 # energy   -4.86017367 # occ.  2.00000000
 
ion      s     py     pz     px    dxy    dyz    dz2    dxz  x2-y2    tot
    1  0.026  0.000  0.001  0.000  0.000  0.001  0.317  0.000  0.001  0.345
    2  0.014  0.000  0.037  0.000  0.000  0.000  0.058  0.000  0.006  0.115
    3  0.000  0.000  0.075  0.000  0.000  0.017  0.000  0.000  0.005  0.097
    4  0.009  0.000  0.049  0.000  0.000  0.026  0.020  0.000  0.054  0.158
    5  0.016  0.000  0.000  0.000  0.000  0.000  0.000  0.000  0.000  0.017
tot    0.066  0.000  0.162  0.000  0.000  0.043  0.395  0.000  0.065  0.732
 
band    18 # energy   -4.69864463 # occ.  2.00000000
 
ion      s     py     pz     px    dxy    dyz    dz2    dxz  x2-y2    tot
    1  0.001  0.000  0.000  0.000  0.000  0.004  0.010  0.000  0.000  0.015
    2  0.001  0.000  0.001  0.000  0.000  0.002  0.003  0.000  0.017  0.024
    3  0.000  0.000  0.003  0.000  0.000  0.110  0.000  0.000  0.091  0.205
    4  0.000  0.000  0.004  0.000  0.000  0.701  0.000  0.000  0.019  0.724
    5  0.001  0.000  0.000  0.000  0.000  0.000  0.000  0.000  0.000  0.001
tot    0.003  0.000  0.008  0.000  0.000  0.817  0.013  0.000  0.127  0.970
 
band    19 # energy   -4.52738954 # occ.  2.00000000
 
ion      s     py     pz     px    dxy    dyz    dz2    dxz  x2-y2    tot
    1  0.000  0.000  0.000  0.000  0.102  0.000  0.000  0.044  0.000  0.147
    2  0.000  0.000  0.000  0.000  0.075  0.000  0.000  0.420  0.000  0.495
    3  0.000  0.000  0.000  0.000  0.042  0.000  0.000  0.272  0.000  0.314
    4  0.000  0.000  0.000  0.000  0.010  0.000  0.000  0.019  0.000  0.029
    5  0.000  0.000  0.000  0.000  0.000  0.000  0.000  0.000  0.000  0.000
tot    0.000  0.000  0.000  0.000  0.229  0.001  0.000  0.755  0.000  0.984
 
band    20 # energy   -4.52480809 # occ.  2.00000000
 
ion      s     py     pz     px    dxy    dyz    dz2    dxz  x2-y2    tot
    1  0.000  0.000  0.000  0.000  0.000  0.052  0.000  0.000  0.104  0.157
    2  0.000  0.000  0.000  0.000  0.000  0.442  0.000  0.000  0.066  0.509
    3  0.000  0.000  0.000  0.000  0.000  0.213  0.000  0.000  0.030  0.243
    4  0.000  0.000  0.000  0.000  0.000  0.066  0.000  0.000  0.007  0.074
    5  0.000  0.000  0.000  0.000  0.000  0.000  0.000  0.000  0.000  0.000
tot    0.000  0.000  0.000  0.000  0.000  0.774  0.000  0.001  0.208  0.984
 
band    21 # energy   -4.31161915 # occ.  2.00000000
 
ion      s     py     pz     px    dxy    dyz    dz2    dxz  x2-y2    tot
    1  0.000  0.000  0.000  0.000  0.012  0.000  0.000  0.348  0.000  0.360
    2  0.000  0.000  0.000  0.000  0.000  0.000  0.000  0.109  0.000  0.109
    3  0.000  0.000  0.000  0.000  0.008  0.000  0.000  0.457  0.000  0.465
    4  0.000  0.000  0.000  0.000  0.009  0.000  0.000  0.044  0.000  0.052
    5  0.000  0.000  0.000  0.000  0.000  0.000  0.000  0.000  0.000  0.000
tot    0.000  0.000  0.000  0.001  0.028  0.000  0.000  0.957  0.000  0.986
 
band    22 # energy   -4.29945559 # occ.  2.00000000
 
ion      s     py     pz     px    dxy    dyz    dz2    dxz  x2-y2    tot
    1  0.000  0.000  0.000  0.000  0.000  0.346  0.000  0.000  0.010  0.356
    2  0.000  0.000  0.000  0.000  0.000  0.092  0.000  0.000  0.000  0.093
    3  0.000  0.000  0.000  0.000  0.000  0.427  0.000  0.000  0.010  0.438
    4  0.000  0.000  0.000  0.000  0.000  0.092  0.000  0.000  0.007  0.100
    5  0.000  0.000  0.000  0.000  0.000  0.000  0.000  0.000  0.000  0.000
tot    0.000  0.000  0.000  0.000  0.000  0.958  0.000  0.000  0.027  0.986
 
band    23 # energy   -4.02414909 # occ.  2.00000000
 
ion      s     py     pz     px    dxy    dyz    dz2    dxz  x2-y2    tot
    1  0.000  0.000  0.000  0.000  0.008  0.000  0.000  0.548  0.000  0.557
    2  0.000  0.000  0.000  0.000  0.026  0.000  0.000  0.280  0.000  0.306
    3  0.000  0.000  0.000  0.000  0.007  0.000  0.000  0.113  0.000  0.120
    4  0.000  0.000  0.000  0.000  0.001  0.000  0.000  0.006  0.000  0.008
    5  0.000  0.000  0.000  0.000  0.000  0.000  0.000  0.000  0.000  0.000
tot    0.000  0.000  0.000  0.000  0.042  0.000  0.000  0.947  0.000  0.990
 
band    24 # energy   -4.02082976 # occ.  2.00000000
 
ion      s     py     pz     px    dxy    dyz    dz2    dxz  x2-y2    tot
    1  0.000  0.000  0.000  0.000  0.000  0.541  0.000  0.000  0.008  0.550
    2  0.000  0.000  0.000  0.000  0.000  0.279  0.000  0.000  0.025  0.305
    3  0.000  0.000  0.000  0.000  0.000  0.115  0.000  0.000  0.008  0.123
    4  0.000  0.000  0.000  0.000  0.000  0.011  0.000  0.000  0.001  0.012
    5  0.000  0.000  0.000  0.000  0.000  0.000  0.000  0.000  0.000  0.000
tot    0.000  0.000  0.000  0.000  0.000  0.947  0.000  0.000  0.043  0.990
 
band    25 # energy   -2.93213005 # occ.  2.00000000
 
ion      s     py     pz     px    dxy    dyz    dz2    dxz  x2-y2    tot
    1  0.019  0.000  0.154  0.000  0.000  0.000  0.027  0.000  0.000  0.199
    2  0.014  0.000  0.081  0.000  0.000  0.000  0.022  0.000  0.000  0.118
    3  0.012  0.000  0.036  0.000  0.000  0.000  0.020  0.000  0.000  0.068
    4  0.009  0.000  0.013  0.000  0.000  0.000  0.009  0.000  0.001  0.032
    5  0.004  0.000  0.000  0.000  0.000  0.000  0.000  0.000  0.000  0.004
tot    0.058  0.000  0.285  0.000  0.000  0.000  0.077  0.000  0.001  0.421
 
band    26 # energy    1.61034352 # occ.  0.00000000
 
ion      s     py     pz     px    dxy    dyz    dz2    dxz  x2-y2    tot
    1  0.019  0.000  0.001  0.000  0.000  0.000  0.019  0.000  0.000  0.040
    2  0.025  0.000  0.001  0.000  0.000  0.000  0.023  0.000  0.000  0.049
    3  0.032  0.000  0.001  0.000  0.000  0.000  0.029  0.000  0.000  0.062
    4  0.035  0.000  0.000  0.000  0.000  0.000  0.034  0.000  0.000  0.069
    5  0.000  0.000  0.002  0.000  0.000  0.000  0.000  0.000  0.000  0.003
tot    0.112  0.000  0.005  0.000  0.000  0.000  0.106  0.000  0.000  0.223
 
band    27 # energy    1.91425340 # occ.  0.00000000
 
ion      s     py     pz     px    dxy    dyz    dz2    dxz  x2-y2    tot
    1  0.003  0.000  0.004  0.000  0.000  0.000  0.003  0.000  0.000  0.010
    2  0.000  0.000  0.005  0.000  0.000  0.000  0.000  0.000  0.000  0.005
    3  0.001  0.000  0.005  0.000  0.000  0.000  0.001  0.000  0.000  0.007
    4  0.006  0.000  0.002  0.000  0.000  0.000  0.008  0.000  0.000  0.017
    5  0.001  0.000  0.001  0.000  0.000  0.000  0.000  0.000  0.000  0.002
tot    0.011  0.000  0.017  0.000  0.000  0.000  0.012  0.000  0.000  0.041
 
band    28 # energy    2.33996538 # occ.  0.00000000
 
ion      s     py     pz     px    dxy    dyz    dz2    dxz  x2-y2    tot
    1  0.005  0.000  0.003  0.000  0.000  0.000  0.004  0.000  0.000  0.012
    2  0.001  0.000  0.003  0.000  0.000  0.000  0.001  0.000  0.000  0.005
    3  0.000  0.000  0.004  0.000  0.000  0.000  0.000  0.000  0.000  0.004
    4  0.003  0.000  0.002  0.000  0.000  0.000  0.004  0.000  0.000  0.009
    5  0.001  0.000  0.001  0.000  0.000  0.000  0.000  0.000  0.000  0.001
tot    0.009  0.000  0.012  0.000  0.000  0.000  0.009  0.000  0.000  0.030
 

 k-point     2 :    0.10000000 0.00000000 0.00000000     weight = 0.04000000

band     1 # energy  -11.25567461 # occ.  2.00000000
 
ion      s     py     pz     px    dxy    dyz    dz2    dxz  x2-y2    tot
    1  0.010  0.000  0.001  0.000  0.000  0.000  0.000  0.000  0.000  0.011
    2  0.054  0.000  0.002  0.001  0.000  0.000  0.000  0.000  0.000  0.058
    3  0.135  0.001  0.002  0.003  0.000  0.000  0.000  0.000  0.000  0.140
    4  0.278  0.002  0.000  0.009  0.000  0.000  0.005  0.001  0.005  0.300
    5  0.087  0.000  0.001  0.000  0.000  0.000  0.000  0.000  0.000  0.089
tot    0.565  0.003  0.006  0.013  0.000  0.000  0.006  0.001  0.005  0.598
 
band     2 # energy  -10.36432971 # occ.  2.00000000
 
ion      s     py     pz     px    dxy    dyz    dz2    dxz  x2-y2    tot
    1  0.112  0.001  0.010  0.002  0.000  0.000  0.000  0.001  0.000  0.126
    2  0.246  0.002  0.000  0.005  0.000  0.000  0.002  0.000  0.000  0.255
    3  0.042  0.000  0.018  0.001  0.000  0.000  0.000  0.001  0.000  0.063
    4  0.079  0.001  0.009  0.003  0.000  0.000  0.009  0.002  0.004  0.106
    5  0.048  0.000  0.000  0.000  0.000  0.000  0.000  0.000  0.000  0.049
tot    0.526  0.003  0.038  0.012  0.000  0.001  0.012  0.004  0.004  0.600
 
band     3 # energy   -8.76250052 # occ.  2.00000000
 
ion      s     py     pz     px    dxy    dyz    dz2    dxz  x2-y2    tot
    1  0.181  0.001  0.002  0.004  0.000  0.000  0.018  0.000  0.000  0.207
    2  0.004  0.000  0.047  0.000  0.000  0.002  0.001  0.005  0.000  0.058
    3  0.195  0.002  0.000  0.005  0.000  0.000  0.035  0.000  0.000  0.237
    4  0.007  0.000  0.031  0.001  0.000  0.001  0.021  0.008  0.006  0.075
    5  0.034  0.000  0.000  0.000  0.000  0.000  0.000  0.000  0.000  0.035
tot    0.420  0.003  0.080  0.010  0.001  0.003  0.074  0.013  0.006  0.612
 
band     4 # energy   -7.35264507 # occ.  2.00000000
 
ion      s     py     pz     px    dxy    dyz    dz2    dxz  x2-y2    tot
    1  0.100  0.001  0.005  0.004  0.001  0.000  0.135  0.000  0.000  0.246
    2  0.088  0.001  0.003  0.004  0.001  0.000  0.238  0.001  0.000  0.336
    3  0.026  0.000  0.015  0.001  0.000  0.001  0.086  0.003  0.000  0.133
    4  0.000  0.000  0.011  0.000  0.000  0.001  0.010  0.005  0.003  0.032
    5  0.006  0.000  0.000  0.000  0.000  0.000  0.000  0.000  0.000  0.006
tot    0.221  0.003  0.034  0.009  0.002  0.002  0.470  0.009  0.004  0.753
 
band     5 # energy   -6.28131367 # occ.  2.00000000
 
ion      s     py     pz     px    dxy    dyz    dz2    dxz  x2-y2    tot
    1  0.000  0.000  0.000  0.000  0.000  0.000  0.002  0.000  0.000  0.003
    2  0.001  0.000  0.000  0.000  0.001  0.000  0.001  0.000  0.000  0.003
    3  0.000  0.000  0.007  0.000  0.005  0.001  0.123  0.001  0.001  0.139
    4  0.014  0.001  0.036  0.000  0.007  0.010  0.379  0.088  0.109  0.644
    5  0.047  0.000  0.000  0.000  0.000  0.000  0.000  0.000  0.000  0.048
tot    0.063  0.001  0.044  0.001  0.013  0.011  0.504  0.089  0.111  0.836
 
band     6 # energy   -5.72852985 # occ.  2.00000000
 
ion      s     py     pz     px    dxy    dyz    dz2    dxz  x2-y2    tot
    1  0.001  0.000  0.001  0.000  0.001  0.000  0.027  0.000  0.000  0.030
    2  0.002  0.000  0.001  0.000  0.029  0.001  0.067  0.003  0.010  0.112
    3  0.000  0.000  0.018  0.000  0.011  0.019  0.188  0.051  0.005  0.293
    4  0.005  0.000  0.008  0.000  0.006  0.002  0.379  0.019  0.068  0.487
    5  0.001  0.000  0.001  0.000  0.000  0.000  0.000  0.000  0.000  0.001
tot    0.009  0.000  0.028  0.001  0.047  0.023  0.660  0.072  0.084  0.924
 
band     7 # energy   -5.61147084 # occ.  2.00000000
 
ion      s     py     pz     px    dxy    dyz    dz2    dxz  x2-y2    tot
    1  0.000  0.000  0.000  0.000  0.003  0.000  0.017  0.000  0.001  0.022
    2  0.000  0.000  0.004  0.000  0.013  0.004  0.034  0.013  0.005  0.072
    3  0.001  0.000  0.001  0.000  0.011  0.011  0.112  0.029  0.003  0.169
    4  0.000  0.000  0.002  0.000  0.478  0.005  0.004  0.029  0.163  0.683
    5  0.000  0.000  0.000  0.000  0.000  0.000  0.000  0.000  0.000  0.001
tot    0.002  0.000  0.007  0.001  0.506  0.021  0.167  0.072  0.172  0.948
 
band     8 # energy   -5.45745873 # occ.  2.00000000
 
ion      s     py     pz     px    dxy    dyz    dz2    dxz  x2-y2    tot
    1  0.002  0.000  0.000  0.000  0.008  0.003  0.009  0.010  0.003  0.036
    2  0.001  0.000  0.005  0.000  0.085  0.008  0.084  0.020  0.027  0.229
    3  0.000  0.000  0.006  0.000  0.084  0.007  0.080  0.011  0.013  0.201
    4  0.003  0.000  0.000  0.000  0.225  0.003  0.002  0.014  0.235  0.482
    5  0.000  0.000  0.000  0.000  0.000  0.000  0.000  0.000  0.000  0.001
tot    0.007  0.001  0.011  0.000  0.402  0.021  0.175  0.055  0.277  0.949
 
band     9 # energy   -5.40555913 # occ.  2.00000000
 
ion      s     py     pz     px    dxy    dyz    dz2    dxz  x2-y2    tot
    1  0.001  0.000  0.001  0.000  0.023  0.001  0.096  0.003  0.007  0.131
    2  0.000  0.000  0.006  0.000  0.019  0.029  0.009  0.115  0.000  0.178
    3  0.001  0.000  0.007  0.000  0.259  0.003  0.000  0.009  0.088  0.367
    4  0.001  0.000  0.001  0.000  0.098  0.008  0.041  0.083  0.038  0.269
    5  0.000  0.000  0.000  0.000  0.000  0.000  0.000  0.000  0.000  0.000
tot    0.002  0.000  0.014  0.001  0.398  0.040  0.146  0.211  0.133  0.946
 
band    10 # energy   -5.36270629 # occ.  2.00000000
 
ion      s     py     pz     px    dxy    dyz    dz2    dxz  x2-y2    tot
    1  0.002  0.000  0.001  0.000  0.016  0.007  0.033  0.016  0.006  0.081
    2  0.001  0.000  0.001  0.001  0.154  0.003  0.163  0.006  0.106  0.435
    3  0.000  0.000  0.007  0.000  0.023  0.029  0.052  0.005  0.017  0.134
    4  0.000  0.000  0.004  0.000  0.086  0.004  0.022  0.057  0.119  0.293
    5  0.001  0.000  0.000  0.000  0.000  0.000  0.000  0.000  0.000  0.002
tot    0.005  0.000  0.013  0.001  0.280  0.043  0.270  0.084  0.248  0.944
 
band    11 # energy   -5.32788650 # occ.  2.00000000
 
ion      s     py     pz     px    dxy    dyz    dz2    dxz  x2-y2    tot
    1  0.001  0.000  0.001  0.000  0.035  0.002  0.048  0.011  0.012  0.110
    2  0.002  0.000  0.001  0.000  0.301  0.006  0.140  0.008  0.063  0.521
    3  0.000  0.000  0.004  0.000  0.034  0.001  0.098  0.012  0.021  0.170
    4  0.000  0.000  0.003  0.000  0.019  0.001  0.009  0.028  0.087  0.147
    5  0.001  0.000  0.000  0.000  0.000  0.000  0.000  0.000  0.000  0.001
tot    0.004  0.000  0.009  0.001  0.389  0.010  0.295  0.059  0.183  0.950
 
band    12 # energy   -5.22068908 # occ.  2.00000000
 
ion      s     py     pz     px    dxy    dyz    dz2    dxz  x2-y2    tot
    1  0.000  0.000  0.000  0.000  0.003  0.010  0.007  0.001  0.019  0.041
    2  0.000  0.000  0.000  0.000  0.001  0.084  0.005  0.026  0.026  0.143
    3  0.000  0.000  0.000  0.000  0.110  0.039  0.001  0.011  0.501  0.663
    4  0.000  0.000  0.000  0.000  0.001  0.098  0.000  0.019  0.003  0.121
    5  0.000  0.000  0.000  0.000  0.000  0.000  0.000  0.000  0.000  0.000
tot    0.000  0.001  0.001  0.000  0.115  0.232  0.013  0.057  0.548  0.967
 
band    13 # energy   -5.19022692 # occ.  2.00000000
 
ion      s     py     pz     px    dxy    dyz    dz2    dxz  x2-y2    tot
    1  0.000  0.000  0.000  0.000  0.005  0.022  0.014  0.009  0.006  0.056
    2  0.000  0.001  0.001  0.000  0.204  0.003  0.006  0.000  0.556  0.770
    3  0.000  0.000  0.000  0.000  0.021  0.030  0.000  0.013  0.046  0.112
    4  0.000  0.000  0.000  0.000  0.011  0.001  0.000  0.001  0.015  0.028
    5  0.000  0.000  0.000  0.000  0.000  0.000  0.000  0.000  0.000  0.000
tot    0.000  0.001  0.001  0.000  0.241  0.056  0.020  0.023  0.624  0.966
 
band    14 # energy   -5.13073478 # occ.  2.00000000
 
ion      s     py     pz     px    dxy    dyz    dz2    dxz  x2-y2    tot
    1  0.003  0.000  0.002  0.000  0.030  0.003  0.301  0.009  0.019  0.368
    2  0.001  0.000  0.016  0.000  0.019  0.017  0.058  0.014  0.034  0.158
    3  0.000  0.000  0.009  0.000  0.251  0.007  0.001  0.032  0.037  0.338
    4  0.001  0.000  0.007  0.000  0.001  0.001  0.000  0.014  0.037  0.061
    5  0.002  0.000  0.000  0.000  0.000  0.000  0.000  0.000  0.000  0.002
tot    0.007  0.000  0.034  0.000  0.301  0.028  0.360  0.069  0.128  0.927
 
band    15 # energy   -5.04259918 # occ.  2.00000000
 
ion      s     py     pz     px    dxy    dyz    dz2    dxz  x2-y2    tot
    1  0.002  0.000  0.000  0.001  0.534  0.001  0.047  0.005  0.160  0.749
    2  0.000  0.000  0.008  0.000  0.008  0.002  0.020  0.011  0.003  0.051
    3  0.001  0.000  0.004  0.000  0.009  0.014  0.041  0.043  0.006  0.119
    4  0.000  0.000  0.001  0.000  0.010  0.001  0.000  0.013  0.008  0.034
    5  0.000  0.000  0.000  0.000  0.000  0.000  0.000  0.000  0.000  0.000
tot    0.003  0.000  0.014  0.001  0.560  0.018  0.108  0.072  0.176  0.952
 
band    16 # energy   -4.93973256 # occ.  2.00000000
 
ion      s     py     pz     px    dxy    dyz    dz2    dxz  x2-y2    tot
    1  0.000  0.001  0.000  0.000  0.171  0.010  0.001  0.004  0.534  0.720
    2  0.000  0.000  0.000  0.000  0.001  0.089  0.000  0.032  0.001  0.124
    3  0.000  0.000  0.000  0.000  0.018  0.008  0.000  0.003  0.044  0.074
    4  0.000  0.000  0.000  0.000  0.001  0.039  0.000  0.008  0.004  0.052
    5  0.000  0.000  0.000  0.000  0.000  0.000  0.000  0.000  0.000  0.000
tot    0.000  0.001  0.000  0.000  0.190  0.146  0.001  0.048  0.583  0.969
 
band    17 # energy   -4.78059239 # occ.  2.00000000
 
ion      s     py     pz     px    dxy    dyz    dz2    dxz  x2-y2    tot
    1  0.000  0.000  0.000  0.000  0.002  0.001  0.005  0.014  0.049  0.072
    2  0.000  0.000  0.000  0.000  0.026  0.014  0.000  0.001  0.006  0.049
    3  0.001  0.000  0.001  0.000  0.069  0.008  0.010  0.145  0.059  0.293
    4  0.000  0.000  0.005  0.000  0.009  0.262  0.001  0.264  0.009  0.551
    5  0.002  0.000  0.000  0.001  0.000  0.000  0.000  0.000  0.000  0.003
tot    0.003  0.000  0.006  0.001  0.106  0.285  0.017  0.425  0.123  0.967
 
band    18 # energy   -4.70874118 # occ.  2.00000000
 
ion      s     py     pz     px    dxy    dyz    dz2    dxz  x2-y2    tot
    1  0.000  0.000  0.000  0.000  0.045  0.015  0.004  0.019  0.005  0.091
    2  0.000  0.000  0.000  0.000  0.018  0.002  0.004  0.056  0.025  0.104
    3  0.002  0.000  0.000  0.000  0.017  0.166  0.016  0.111  0.057  0.371
    4  0.000  0.000  0.005  0.000  0.004  0.278  0.004  0.081  0.023  0.395
    5  0.003  0.000  0.000  0.000  0.000  0.000  0.000  0.000  0.000  0.003
tot    0.005  0.000  0.007  0.000  0.084  0.461  0.028  0.267  0.111  0.964
 
band    19 # energy   -4.53571895 # occ.  2.00000000
 
ion      s     py     pz     px    dxy    dyz    dz2    dxz  x2-y2    tot
    1  0.000  0.000  0.000  0.000  0.025  0.086  0.000  0.002  0.116  0.230
    2  0.000  0.000  0.000  0.000  0.006  0.285  0.000  0.054  0.064  0.409
    3  0.000  0.000  0.000  0.000  0.007  0.140  0.002  0.033  0.053  0.236
    4  0.000  0.000  0.000  0.000  0.001  0.063  0.000  0.039  0.003  0.107
    5  0.000  0.000  0.000  0.000  0.000  0.000  0.000  0.000  0.000  0.000
tot    0.000  0.000  0.001  0.000  0.040  0.574  0.002  0.128  0.236  0.982
 
band    20 # energy   -4.49906431 # occ.  2.00000000
 
ion      s     py     pz     px    dxy    dyz    dz2    dxz  x2-y2    tot
    1  0.000  0.000  0.004  0.000  0.041  0.051  0.001  0.317  0.008  0.423
    2  0.000  0.000  0.004  0.000  0.057  0.033  0.000  0.177  0.004  0.275
    3  0.003  0.000  0.001  0.000  0.018  0.004  0.023  0.072  0.001  0.123
    4  0.000  0.000  0.003  0.000  0.003  0.078  0.000  0.050  0.003  0.137
    5  0.002  0.000  0.000  0.000  0.000  0.000  0.000  0.000  0.000  0.002
tot    0.005  0.000  0.013  0.000  0.120  0.167  0.025  0.616  0.015  0.960
 
band    21 # energy   -4.32715881 # occ.  2.00000000
 
ion      s     py     pz     px    dxy    dyz    dz2    dxz  x2-y2    tot
    1  0.011  0.000  0.014  0.000  0.017  0.140  0.078  0.184  0.003  0.446
    2  0.001  0.000  0.001  0.000  0.010  0.056  0.002  0.269  0.005  0.345
    3  0.001  0.000  0.004  0.000  0.007  0.008  0.010  0.009  0.000  0.039
    4  0.000  0.000  0.006  0.000  0.000  0.013  0.000  0.048  0.002  0.070
    5  0.002  0.000  0.000  0.000  0.000  0.000  0.000  0.000  0.000  0.003
tot    0.016  0.000  0.025  0.001  0.033  0.217  0.090  0.510  0.011  0.902
 
band    22 # energy   -4.29711405 # occ.  2.00000000
 
ion      s     py     pz     px    dxy    dyz    dz2    dxz  x2-y2    tot
    1  0.000  0.000  0.000  0.000  0.001  0.205  0.003  0.129  0.011  0.350
    2  0.000  0.000  0.000  0.000  0.006  0.085  0.000  0.006  0.013  0.110
    3  0.000  0.000  0.000  0.000  0.000  0.315  0.001  0.111  0.005  0.433
    4  0.000  0.000  0.000  0.000  0.002  0.073  0.000  0.008  0.008  0.091
    5  0.000  0.000  0.000  0.000  0.000  0.000  0.000  0.000  0.000  0.000
tot    0.001  0.000  0.001  0.000  0.010  0.678  0.004  0.253  0.038  0.984
 
band    23 # energy   -4.01634410 # occ.  2.00000000
 
ion      s     py     pz     px    dxy    dyz    dz2    dxz  x2-y2    tot
    1  0.000  0.000  0.000  0.000  0.003  0.385  0.000  0.128  0.008  0.523
    2  0.000  0.000  0.000  0.000  0.006  0.231  0.000  0.073  0.018  0.327
    3  0.000  0.000  0.000  0.000  0.002  0.089  0.000  0.030  0.007  0.128