<?xml version="1.0" encoding="ISO-8859-1"?>
<modeling>
 <generator>
  <i name="program" type="string">vasp </i>
  <i name="version" type="string">5.4.4.18Apr17-6-g9f103f2a35  </i>
  <i name="subversion" type="string">(build Jun 30 2017 11:15:00) complex            parallel </i>
  <i name="platform" type="string">STALLO_VASP_5.4.4 </i>
  <i name="date" type="string">2019 10 11 </i>
  <i name="time" type="string">13:49:29 </i>
 </generator>
 <incar>
  <i type="string" name="PREC">normal    ! low/normal/accurate</i>
  <i type="string" name="ALGO"> Fast      ! Algorithm for electronic re</i>
  <i type="int" name="ISPIN">     1</i>
  <i type="int" name="NELMIN">     4</i>
  <i name="EDIFF">      0.00000100</i>
  <i type="int" name="NSW">     0</i>
  <i name="ENCUT">    250.00000000</i>
  <i type="int" name="NEDOS">  2401</i>
  <i type="string" name="LREAL"> Auto      ! Projection in reciprocal sp</i>
  <i name="EMIN">    -17.00000000</i>
  <i name="EMAX">      7.00000000</i>
  <i type="int" name="ISMEAR">     0</i>
  <i name="SIGMA">      0.10000000</i>
  <i type="logical" name="LWAVE"> F  </i>
  <i type="int" name="LORBIT">    11</i>
  <i type="logical" name="LELF"> T  </i>
  <v type="int" name="KPOINT_BSE">    -1     0     0     0</v>
 </incar>
 <structure name="primitive_cell" >
  <crystal>
   <varray name="basis" >
    <v>       2.57386868       0.00000000       0.00000000 </v>
    <v>       1.28693434       2.22903567       0.00000000 </v>
    <v>       0.00000000       0.00000000      30.30466494 </v>
   </varray>
   <i name="volume">    173.86529028 </i>
   <varray name="rec_basis" >
    <v>       0.38852021      -0.22431225       0.00000000 </v>
    <v>       0.00000000       0.44862450       0.00000000 </v>
    <v>       0.00000000       0.00000000       0.03299822 </v>
   </varray>
  </crystal>
  <varray name="positions" >
   <v>      -0.00029385       0.00058770       0.39656700 </v>
   <v>       0.33318627       0.33362409       0.46513961 </v>
   <v>      -0.33417090      -0.33165717      -0.46640558 </v>
   <v>       0.00080079      -0.00160159      -0.39578411 </v>
   <v>      -0.47709268      -0.04581802      -0.36249716 </v>
  </varray>
 </structure>
 <varray name="primitive_index" >
  <v type="int" >        1 </v>
  <v type="int" >        2 </v>
  <v type="int" >        3 </v>
  <v type="int" >        4 </v>
  <v type="int" >        5 </v>
 </varray>
 <kpoints>
  <generation param="Gamma">
   <v type="int" name="divisions">      10       10        1 </v>
   <v name="usershift">      0.00000000       0.00000000       0.00000000 </v>
   <v name="genvec1">      0.10000000       0.00000000       0.00000000 </v>
   <v name="genvec2">      0.00000000       0.10000000       0.00000000 </v>
   <v name="genvec3">      0.00000000       0.00000000       1.00000000 </v>
   <v name="shift">      0.00000000       0.00000000       0.00000000 </v>
  </generation>
  <varray name="kpointlist" >
   <v>       0.00000000       0.00000000       0.00000000 </v>
   <v>       0.10000000       0.00000000       0.00000000 </v>
   <v>       0.20000000      -0.00000000       0.00000000 </v>
   <v>       0.30000000      -0.00000000       0.00000000 </v>
   <v>       0.40000000      -0.00000000       0.00000000 </v>
   <v>       0.50000000      -0.00000000       0.00000000 </v>
   <v>       0.00000000       0.10000000       0.00000000 </v>
   <v>       0.20000000       0.10000000       0.00000000 </v>
   <v>       0.30000000       0.10000000       0.00000000 </v>
   <v>       0.40000000       0.10000000       0.00000000 </v>
   <v>       0.50000000       0.10000000       0.00000000 </v>
   <v>      -0.40000000       0.10000000       0.00000000 </v>
   <v>      -0.30000000       0.10000000       0.00000000 </v>
   <v>      -0.20000000       0.10000000       0.00000000 </v>
   <v>      -0.10000000       0.10000000       0.00000000 </v>
   <v>       0.00000000       0.20000000       0.00000000 </v>
   <v>       0.40000000       0.20000000       0.00000000 </v>
   <v>       0.50000000       0.20000000       0.00000000 </v>
   <v>      -0.40000000       0.20000000       0.00000000 </v>
   <v>      -0.30000000       0.20000000       0.00000000 </v>
   <v>      -0.20000000       0.20000000       0.00000000 </v>
   <v>      -0.10000000       0.20000000       0.00000000 </v>
   <v>       0.00000000       0.30000000       0.00000000 </v>
   <v>      -0.40000000       0.30000000       0.00000000 </v>
   <v>      -0.30000000       0.30000000       0.00000000 </v>
   <v>      -0.20000000       0.30000000       0.00000000 </v>
   <v>      -0.10000000       0.30000000       0.00000000 </v>
   <v>       0.00000000       0.40000000       0.00000000 </v>
   <v>      -0.20000000       0.40000000       0.00000000 </v>
   <v>      -0.10000000       0.40000000       0.00000000 </v>
   <v>       0.00000000       0.50000000       0.00000000 </v>
  </varray>
  <varray name="weights" >
   <v>       0.01000000 </v>
   <v>       0.04000000 </v>
   <v>       0.04000000 </v>
   <v>       0.04000000 </v>
   <v>       0.04000000 </v>
   <v>       0.02000000 </v>
   <v>       0.02000000 </v>
   <v>       0.02000000 </v>
   <v>       0.04000000 </v>
   <v>       0.04000000 </v>
   <v>       0.04000000 </v>
   <v>       0.04000000 </v>
   <v>       0.04000000 </v>
   <v>       0.04000000 </v>
   <v>       0.04000000 </v>
   <v>       0.02000000 </v>
   <v>       0.02000000 </v>
   <v>       0.04000000 </v>
   <v>       0.04000000 </v>
   <v>       0.04000000 </v>
   <v>       0.04000000 </v>
   <v>       0.04000000 </v>
   <v>       0.02000000 </v>
   <v>       0.02000000 </v>
   <v>       0.04000000 </v>
   <v>       0.04000000 </v>
   <v>       0.04000000 </v>
   <v>       0.02000000 </v>
   <v>       0.02000000 </v>
   <v>       0.04000000 </v>
   <v>       0.01000000 </v>
  </varray>
 </kpoints>
 <parameters>
  <separator name="general" >
   <i type="string" name="SYSTEM">unknown system</i>
   <i type="logical" name="LCOMPAT"> F  </i>
  </separator>
  <separator name="electronic" >
   <i type="string" name="PREC">normal</i>
   <i name="ENMAX">    250.00000000</i>
   <i name="ENAUG">    516.45600000</i>
   <i name="EDIFF">      0.00000100</i>
   <i type="int" name="IALGO">    68</i>
   <i type="int" name="IWAVPR">    10</i>
   <i type="int" name="NBANDS">    28</i>
   <i name="NELECT">     45.00000000</i>
   <i type="int" name="TURBO">     0</i>
   <i type="int" name="IRESTART">     0</i>
   <i type="int" name="NREBOOT">     0</i>
   <i type="int" name="NMIN">     0</i>
   <i name="EREF">      0.00000000</i>
   <separator name="electronic smearing" >
    <i type="int" name="ISMEAR">     0</i>
    <i name="SIGMA">      0.10000000</i>
    <i name="KSPACING">      0.50000000</i>
    <i type="logical" name="KGAMMA"> T  </i>
   </separator>
   <separator name="electronic projectors" >
    <i type="logical" name="LREAL"> T  </i>
    <v name="ROPT">     -0.00050000     -0.00050000</v>
    <i type="int" name="LMAXPAW">  -100</i>
    <i type="int" name="LMAXMIX">     2</i>
    <i type="logical" name="NLSPLINE"> F  </i>
   </separator>
   <separator name="electronic startup" >
    <i type="int" name="ISTART">     0</i>
    <i type="int" name="ICHARG">     2</i>
    <i type="int" name="INIWAV">     1</i>
   </separator>
   <separator name="electronic spin" >
    <i type="int" name="ISPIN">     1</i>
    <i type="logical" name="LNONCOLLINEAR"> F  </i>
    <v name="MAGMOM">      1.00000000      1.00000000      1.00000000      1.00000000      1.00000000</v>
    <i name="NUPDOWN">     -1.00000000</i>
    <i type="logical" name="LSORBIT"> F  </i>
    <v name="SAXIS">      0.00000000      0.00000000      1.00000000</v>
    <i type="logical" name="LSPIRAL"> F  </i>
    <v name="QSPIRAL">      0.00000000      0.00000000      0.00000000</v>
    <i type="logical" name="LZEROZ"> F  </i>
   </separator>
   <separator name="electronic exchange-correlation" >
    <i type="logical" name="LASPH"> F  </i>
    <i type="logical" name="LMETAGGA"> F  </i>
   </separator>
   <separator name="electronic convergence" >
    <i type="int" name="NELM">    60</i>
    <i type="int" name="NELMDL">     0</i>
    <i type="int" name="NELMIN">     4</i>
    <i name="ENINI">    250.00000000</i>
    <separator name="electronic convergence detail" >
     <i type="logical" name="LDIAG"> T  </i>
     <i type="logical" name="LSUBROT"> F  </i>
     <i name="WEIMIN">      0.00000000</i>
     <i name="EBREAK">      0.00000001</i>
     <i name="DEPER">      0.30000000</i>
     <i type="int" name="NRMM">     4</i>
     <i name="TIME">      0.40000000</i>
    </separator>
   </separator>
   <separator name="electronic mixer" >
    <i name="AMIX">      0.40000000</i>
    <i name="BMIX">      1.00000000</i>
    <i name="AMIN">      0.10000000</i>
    <i name="AMIX_MAG">      1.60000000</i>
    <i name="BMIX_MAG">      1.00000000</i>
    <separator name="electronic mixer details" >
     <i type="int" name="IMIX">     4</i>
     <i type="logical" name="MIXFIRST"> F  </i>
     <i type="int" name="MAXMIX">   -45</i>
     <i name="WC">    100.00000000</i>
     <i type="int" name="INIMIX">     1</i>
     <i type="int" name="MIXPRE">     1</i>
     <i type="int" name="MREMOVE">     5</i>
    </separator>
   </separator>
   <separator name="electronic dipolcorrection" >
    <i type="logical" name="LDIPOL"> F  </i>
    <i type="logical" name="LMONO"> F  </i>
    <i type="int" name="IDIPOL">     0</i>
    <i name="EPSILON">      1.00000000</i>
    <v name="DIPOL">   -100.00000000   -100.00000000   -100.00000000</v>
    <i name="EFIELD">      0.00000000</i>
   </separator>
  </separator>
  <separator name="grids" >
   <i type="int" name="NGX">    10</i>
   <i type="int" name="NGY">    10</i>
   <i type="int" name="NGZ">   120</i>
   <i type="int" name="NGXF">    20</i>
   <i type="int" name="NGYF">    20</i>
   <i type="int" name="NGZF">   240</i>
   <i type="logical" name="ADDGRID"> F  </i>
  </separator>
  <separator name="ionic" >
   <i type="int" name="NSW">     0</i>
   <i type="int" name="IBRION">    -1</i>
   <i type="int" name="MDALGO">     0</i>
   <i type="int" name="ISIF">     2</i>
   <i name="PSTRESS">      0.00000000</i>
   <i name="EDIFFG">      0.00001000</i>
   <i type="int" name="NFREE">     0</i>
   <i name="POTIM">      0.50000000</i>
   <i name="SMASS">     -3.00000000</i>
   <i name="SCALEE">      1.00000000</i>
  </separator>
  <separator name="ionic md" >
   <i name="TEBEG">      0.00010000</i>
   <i name="TEEND">      0.00010000</i>
   <i type="int" name="NBLOCK">     1</i>
   <i type="int" name="KBLOCK">     1</i>
   <i type="int" name="NPACO">   256</i>
   <i name="APACO">     16.00000000</i>
  </separator>
  <separator name="symmetry" >
   <i type="int" name="ISYM">     2</i>
   <i name="SYMPREC">      0.00001000</i>
  </separator>
  <separator name="dos" >
   <i type="int" name="LORBIT">    11</i>
   <v name="RWIGS">     -1.00000000     -1.00000000</v>
   <i type="int" name="NEDOS">  2401</i>
   <i name="EMIN">    -17.00000000</i>
   <i name="EMAX">      7.00000000</i>
   <i name="EFERMI">      0.00000000</i>
  </separator>
  <separator name="writing" >
   <i type="int" name="NWRITE">     2</i>
   <i type="logical" name="LWAVE"> F  </i>
   <i type="logical" name="LDOWNSAMPLE"> F  </i>
   <i type="logical" name="LCHARG"> T  </i>
   <i type="logical" name="LPARD"> F  </i>
   <i type="logical" name="LVTOT"> F  </i>
   <i type="logical" name="LVHAR"> F  </i>
   <i type="logical" name="LELF"> T  </i>
   <i type="logical" name="LOPTICS"> F  </i>
   <v name="STM">      0.00000000      0.00000000      0.00000000      0.00000000      0.00000000      0.00000000      0.00000000</v>
  </separator>
  <separator name="performance" >
   <i type="int" name="NPAR">     2</i>
   <i type="int" name="NSIM">     4</i>
   <i type="int" name="NBLK">    -1</i>
   <i type="logical" name="LPLANE"> T  </i>
   <i type="logical" name="LSCALAPACK"> T  </i>
   <i type="logical" name="LSCAAWARE"> F  </i>
   <i type="logical" name="LSCALU"> F  </i>
   <i type="logical" name="LASYNC"> F  </i>
   <i type="logical" name="LORBITALREAL"> F  </i>
  </separator>
  <separator name="miscellaneous" >
   <i type="int" name="IDIOT">     3</i>
   <i type="int" name="ISPECIAL">     0</i>
   <i type="logical" name="LMUSIC"> F  </i>
   <v name="POMASS">     63.54600000      1.00000000</v>
   <v name="DARWINR">      0.00000000      0.00000000</v>
   <v name="DARWINV">      1.00000000      1.00000000</v>
   <i type="logical" name="LCORR"> T  </i>
  </separator>
  <i type="logical" name="GGA_COMPAT"> T  </i>
  <i type="logical" name="LBERRY"> F  </i>
  <i type="int" name="ICORELEVEL">     0</i>
  <i type="logical" name="LDAU"> F  </i>
  <i type="int" name="I_CONSTRAINED_M">     0</i>
  <separator name="electronic exchange-correlation" >
   <i type="string" name="GGA">--</i>
   <i type="int" name="VOSKOWN">     0</i>
   <i type="logical" name="LHFCALC"> F  </i>
   <i type="string" name="PRECFOCK"></i>
   <i type="logical" name="LSYMGRAD"> F  </i>
   <i type="logical" name="LHFONE"> F  </i>
   <i type="logical" name="LRHFCALC"> F  </i>
   <i type="logical" name="LTHOMAS"> F  </i>
   <i type="logical" name="LMODELHF"> F  </i>
   <i name="ENCUT4O">     -1.00000000</i>
   <i type="int" name="EXXOEP">     0</i>
   <i type="int" name="FOURORBIT">     0</i>
   <i name="AEXX">      0.00000000</i>
   <i name="HFALPHA">      0.00000000</i>
   <i name="MCALPHA">      0.00000000</i>
   <i name="ALDAX">      1.00000000</i>
   <i name="AGGAX">      1.00000000</i>
   <i name="ALDAC">      1.00000000</i>
   <i name="AGGAC">      1.00000000</i>
   <i type="int" name="NKREDX">     1</i>
   <i type="int" name="NKREDY">     1</i>
   <i type="int" name="NKREDZ">     1</i>
   <i type="logical" name="SHIFTRED"> F  </i>
   <i type="logical" name="ODDONLY"> F  </i>
   <i type="logical" name="EVENONLY"> F  </i>
   <i type="int" name="LMAXFOCK">     0</i>
   <i type="int" name="NMAXFOCKAE">     0</i>
   <i type="logical" name="LFOCKAEDFT"> F  </i>
   <i name="HFSCREEN">      0.00000000</i>
   <i name="HFSCREENC">      0.00000000</i>
   <i type="int" name="NBANDSGWLOW">     0</i>
  </separator>
  <separator name="vdW DFT" >
   <i type="logical" name="LUSE_VDW"> F  </i>
   <i name="Zab_VDW">     -0.84910000</i>
   <i name="PARAM1">      0.12340000</i>
   <i name="PARAM2">      1.00000000</i>
   <i name="PARAM3">      0.00000000</i>
  </separator>
  <separator name="model GW" >
   <i type="int" name="MODEL_GW">     0</i>
   <i name="MODEL_EPS0">     20.86383483</i>
   <i name="MODEL_ALPHA">      1.00000000</i>
  </separator>
  <separator name="linear response parameters" >
   <i type="logical" name="LEPSILON"> F  </i>
   <i type="logical" name="LRPA"> F  </i>
   <i type="logical" name="LNABLA"> F  </i>
   <i type="logical" name="LVEL"> F  </i>
   <i type="int" name="KINTER">     0</i>
   <i name="CSHIFT">      0.10000000</i>
   <i name="OMEGAMAX">     -1.00000000</i>
   <i name="DEG_THRESHOLD">      0.00200000</i>
   <i name="RTIME">     -0.10000000</i>
   <i name="WPLASMAI">      0.00000000</i>
   <v name="DFIELD">      0.00000000      0.00000000      0.00000000</v>
   <v name="WPLASMA">      0.00000000      0.00000000      0.00000000      0.00000000      0.00000000      0.00000000      0.00000000      0.00000000      0.00000000</v>
  </separator>
  <separator name="orbital magnetization" >
   <i type="logical" name="NUCIND"> F  </i>
   <v name="MAGPOS">      0.00000000      0.00000000      0.00000000</v>
   <i type="logical" name="LNICSALL"> T  </i>
   <i type="logical" name="ORBITALMAG"> F  </i>
   <i type="logical" name="LMAGBLOCH"> F  </i>
   <i type="logical" name="LCHIMAG"> F  </i>
   <i type="logical" name="LGAUGE"> T  </i>
   <i type="int" name="MAGATOM">     0</i>
   <v name="MAGDIPOL">      0.00000000      0.00000000      0.00000000</v>
   <v name="AVECCONST">      0.00000000      0.00000000      0.00000000</v>
  </separator>
  <separator name="response functions" >
   <i type="logical" name="LADDER"> F  </i>
   <i type="logical" name="LRPAFORCE"> F  </i>
   <i type="logical" name="LFXC"> F  </i>
   <i type="logical" name="LHARTREE"> T  </i>
   <i type="int" name="IBSE">     0</i>
   <v type="int" name="KPOINT">    -1     0     0     0</v>
   <i type="logical" name="LTCTE"> F  </i>
   <i type="logical" name="LTETE"> F  </i>
   <i type="logical" name="LTRIPLET"> F  </i>
   <i type="logical" name="LFXCEPS"> F  </i>
   <i type="logical" name="LFXHEG"> F  </i>
   <i type="int" name="NATURALO">     2</i>
   <i type="logical" name="L2ORDER"> F  </i>
   <i type="logical" name="LMP2LT"> F  </i>
   <i type="logical" name="LUSEW"> F  </i>
   <i name="ENCUTGW">     -2.00000000</i>
   <i name="ENCUTGWSOFT">     -2.00000000</i>
   <i name="ENCUTLF">     -1.00000000</i>
   <i type="int" name="LMAXMP2">    -1</i>
   <i name="SCISSOR">      0.00000000</i>
   <i type="int" name="NOMEGA">     0</i>
   <i type="int" name="NOMEGAR">     0</i>
   <i type="int" name="NBANDSGW">    -1</i>
   <i type="int" name="NBANDSO">    -1</i>
   <i type="int" name="NBANDSV">    -1</i>
   <i type="int" name="NELM">     1</i>
   <i type="int" name="NELMHF">     1</i>
   <i type="int" name="DIM">     3</i>
   <i type="int" name="ANTIRES">     0</i>
   <i name="OMEGAMAX">    -30.00000000</i>
   <i name="OMEGAMIN">    -30.00000000</i>
   <i name="OMEGATL">   -200.00000000</i>
   <i type="int" name="OMEGAGRID">   140</i>
   <i name="CSHIFT">     -0.10000000</i>
   <i type="logical" name="SELFENERGY"> F  </i>
   <i type="logical" name="LSPECTRAL"> F  </i>
   <i type="logical" name="LSPECTRALGW"> F  </i>
   <i type="logical" name="LSINGLES"> F  </i>
   <i type="logical" name="LFERMIGW"> F  </i>
   <i type="logical" name="ODDONLYGW"> F  </i>
   <i type="logical" name="EVENONLYGW"> F  </i>
   <i type="int" name="NKREDLFX">     1</i>
   <i type="int" name="NKREDLFY">     1</i>
   <i type="int" name="NKREDLFZ">     1</i>
   <i type="int" name="MAXMEM">  2800</i>
   <i type="int" name="TELESCOPE">     0</i>
   <i type="int" name="TAUPAR">     1</i>
   <i type="int" name="OMEGAPAR">    -1</i>
   <i name="LAMBDA">      1.00000000</i>
  </separator>
  <separator name="External order field" >
   <i name="OFIELD_KAPPA">      0.00000000</i>
   <v name="OFIELD_K">      0.00000000      0.00000000      0.00000000</v>
   <i name="OFIELD_Q6_NEAR">      0.00000000</i>
   <i name="OFIELD_Q6_FAR">      0.00000000</i>
   <i name="OFIELD_A">      0.00000000</i>
  </separator>
 </parameters>
 <atominfo>
  <atoms>       5 </atoms>
  <types>       2 </types>
  <array name="atoms" >
   <dimension dim="1">ion</dimension>
   <field type="string">element</field>
   <field type="int">atomtype</field>
   <set>
    <rc><c>Cu</c><c>   1</c></rc>
    <rc><c>Cu</c><c>   1</c></rc>
    <rc><c>Cu</c><c>   1</c></rc>
    <rc><c>Cu</c><c>   1</c></rc>
    <rc><c>H </c><c>   2</c></rc>
   </set>
  </array>
  <array name="atomtypes" >
   <dimension dim="1">type</dimension>
   <field type="int">atomspertype</field>
   <field type="string">element</field>
   <field>mass</field>
   <field>valence</field>
   <field type="string">pseudopotential</field>
   <set>
    <rc><c>   4</c><c>Cu</c><c>     63.54600000</c><c>     11.00000000</c><c> PAW_PBE Cu 05Jan2001                   </c></rc>
    <rc><c>   1</c><c>H </c><c>      1.00000000</c><c>      1.00000000</c><c> PAW_PBE H 15Jun2001                    </c></rc>
   </set>
  </array>
 </atominfo>
 <structure name="initialpos" >
  <crystal>
   <varray name="basis" >
    <v>       2.57386868       0.00000000       0.00000000 </v>
    <v>       1.28693434       2.22903567       0.00000000 </v>
    <v>       0.00000000       0.00000000      30.30466494 </v>
   </varray>
   <i name="volume">    173.86529028 </i>
   <varray name="rec_basis" >
    <v>       0.38852021      -0.22431225       0.00000000 </v>
    <v>       0.00000000       0.44862450       0.00000000 </v>
    <v>       0.00000000       0.00000000       0.03299822 </v>
   </varray>
  </crystal>
  <varray name="positions" >
   <v>       0.99970615       0.00058770       0.39656700 </v>
   <v>       0.33318627       0.33362409       0.46513961 </v>
   <v>       0.66582910       0.66834283       0.53359442 </v>
   <v>       0.00080079       0.99839841       0.60421589 </v>
   <v>       0.52290732       0.95418198       0.63750284 </v>
  </varray>
 </structure>
 <calculation>
  <scstep>
   <time name="dav">    0.61    0.62</time>
   <time name="total">    0.63    0.65</time>
   <energy>
    <i name="alphaZ">    120.87645803 </i>
    <i name="ewald">  38084.27828387 </i>
    <i name="hartreedc"> -43204.85791254 </i>
    <i name="XCdc">    177.43926543 </i>
    <i name="pawpsdc">   4328.99049516 </i>
    <i name="pawaedc">  -4905.09836044 </i>
    <i name="eentropy">     -0.01230803 </i>
    <i name="bandstr">     18.91529332 </i>
    <i name="atom">   5575.94961827 </i>
    <i name="e_fr_energy">    196.48083307 </i>
    <i name="e_wo_entrp">    196.49314111 </i>
    <i name="e_0_energy">    196.48698709 </i>
   </energy>
  </scstep>
  <scstep>
   <time name="dav">    0.61    0.61</time>
   <time name="total">    0.62    0.62</time>
   <energy>
    <i name="e_fr_energy">    -10.66111022 </i>
    <i name="e_wo_entrp">    -10.64175418 </i>
    <i name="e_0_energy">    -10.65143220 </i>
   </energy>
  </scstep>
  <scstep>
   <time name="dav">    0.63    0.63</time>
   <time name="total">    0.64    0.64</time>
   <energy>
    <i name="e_fr_energy">    -20.88995083 </i>
    <i name="e_wo_entrp">    -20.87705176 </i>
    <i name="e_0_energy">    -20.88350130 </i>
   </energy>
  </scstep>
  <scstep>
   <time name="dav">    0.63    0.63</time>
   <time name="total">    0.63    0.64</time>
   <energy>
    <i name="e_fr_energy">    -21.02073029 </i>
    <i name="e_wo_entrp">    -21.00854686 </i>
    <i name="e_0_energy">    -21.01463858 </i>
   </energy>
  </scstep>
  <scstep>
   <time name="dav">    0.65    0.65</time>
   <time name="total">    0.69    0.69</time>
   <energy>
    <i name="e_fr_energy">    -21.02209544 </i>
    <i name="e_wo_entrp">    -21.00991420 </i>
    <i name="e_0_energy">    -21.01600482 </i>
   </energy>
  </scstep>
  <scstep>
   <time name="diag">    0.12    0.13</time>
   <time name="diis">    0.37    0.37</time>
   <time name="orth">    0.02    0.02</time>
   <time name="total">    0.56    0.56</time>
   <energy>
    <i name="e_fr_energy">    -18.94467835 </i>
    <i name="e_wo_entrp">    -18.93726373 </i>
    <i name="e_0_energy">    -18.94097104 </i>
   </energy>
  </scstep>
  <scstep>
   <time name="diag">    0.12    0.13</time>
   <time name="diis">    0.35    0.35</time>
   <time name="orth">    0.02    0.02</time>
   <time name="total">    0.54    0.55</time>
   <energy>
    <i name="e_fr_energy">    -17.11451741 </i>
    <i name="e_wo_entrp">    -17.09883714 </i>
    <i name="e_0_energy">    -17.10667727 </i>
   </energy>
  </scstep>
  <scstep>
   <time name="diag">    0.12    0.13</time>
   <time name="diis">    0.37    0.37</time>
   <time name="orth">    0.02    0.02</time>
   <time name="total">    0.57    0.57</time>
   <energy>
    <i name="e_fr_energy">    -17.15351114 </i>
    <i name="e_wo_entrp">    -17.14346161 </i>
    <i name="e_0_energy">    -17.14848637 </i>
   </energy>
  </scstep>
  <scstep>
   <time name="diag">    0.12    0.13</time>
   <time name="diis">    0.38    0.38</time>
   <time name="orth">    0.02    0.02</time>
   <time name="total">    0.57    0.57</time>
   <energy>
    <i name="e_fr_energy">    -17.05467327 </i>
    <i name="e_wo_entrp">    -17.03917371 </i>
    <i name="e_0_energy">    -17.04692349 </i>
   </energy>
  </scstep>
  <scstep>
   <time name="diag">    0.12    0.13</time>
   <time name="diis">    0.37    0.37</time>
   <time name="orth">    0.01    0.02</time>
   <time name="total">    0.57    0.57</time>
   <energy>
    <i name="e_fr_energy">    -17.04373693 </i>
    <i name="e_wo_entrp">    -17.02772816 </i>
    <i name="e_0_energy">    -17.03573254 </i>
   </energy>
  </scstep>
  <scstep>
   <time name="diag">    0.12    0.13</time>
   <time name="diis">    0.37    0.37</time>
   <time name="orth">    0.02    0.02</time>
   <time name="total">    0.56    0.57</time>
   <energy>
    <i name="e_fr_energy">    -17.03804012 </i>
    <i name="e_wo_entrp">    -17.02255026 </i>
    <i name="e_0_energy">    -17.03029519 </i>
   </energy>
  </scstep>
  <scstep>
   <time name="diag">    0.12    0.13</time>
   <time name="diis">    0.37    0.37</time>
   <time name="orth">    0.02    0.02</time>
   <time name="total">    0.57    0.57</time>
   <energy>
    <i name="e_fr_energy">    -17.03724495 </i>
    <i name="e_wo_entrp">    -17.02165220 </i>
    <i name="e_0_energy">    -17.02944858 </i>
   </energy>
  </scstep>
  <scstep>
   <time name="diag">    0.12    0.13</time>
   <time name="diis">    0.37    0.37</time>
   <time name="orth">    0.02    0.02</time>
   <time name="total">    0.57    0.57</time>
   <energy>
    <i name="e_fr_energy">    -17.03683123 </i>
    <i name="e_wo_entrp">    -17.02113366 </i>
    <i name="e_0_energy">    -17.02898245 </i>
   </energy>
  </scstep>
  <scstep>
   <time name="diag">    0.12    0.13</time>
   <time name="diis">    0.36    0.36</time>
   <time name="orth">    0.02    0.02</time>
   <time name="total">    0.56    0.56</time>
   <energy>
    <i name="e_fr_energy">    -17.03681292 </i>
    <i name="e_wo_entrp">    -17.02118312 </i>
    <i name="e_0_energy">    -17.02899802 </i>
   </energy>
  </scstep>
  <scstep>
   <time name="diag">    0.12    0.13</time>
   <time name="diis">    0.35    0.35</time>
   <time name="orth">    0.02    0.02</time>
   <time name="total">    0.55    0.55</time>
   <energy>
    <i name="e_fr_energy">    -17.03698373 </i>
    <i name="e_wo_entrp">    -17.02117895 </i>
    <i name="e_0_energy">    -17.02908134 </i>
   </energy>
  </scstep>
  <scstep>
   <time name="diag">    0.12    0.13</time>
   <time name="diis">    0.34    0.34</time>
   <time name="orth">    0.01    0.02</time>
   <time name="total">    0.54    0.54</time>
   <energy>
    <i name="e_fr_energy">    -17.03728051 </i>
    <i name="e_wo_entrp">    -17.02144381 </i>
    <i name="e_0_energy">    -17.02936216 </i>
   </energy>
  </scstep>
  <scstep>
   <time name="diag">    0.13    0.13</time>
   <time name="diis">    0.33    0.33</time>
   <time name="orth">    0.02    0.02</time>
   <time name="total">    0.52    0.53</time>
   <energy>
    <i name="e_fr_energy">    -17.03743042 </i>
    <i name="e_wo_entrp">    -17.02158347 </i>
    <i name="e_0_energy">    -17.02950694 </i>
   </energy>
  </scstep>
  <scstep>
   <time name="diag">    0.12    0.13</time>
   <time name="diis">    0.29    0.29</time>
   <time name="orth">    0.02    0.02</time>
   <time name="total">    0.48    0.49</time>
   <energy>
    <i name="e_fr_energy">    -17.03750387 </i>
    <i name="e_wo_entrp">    -17.02165105 </i>
    <i name="e_0_energy">    -17.02957746 </i>
   </energy>
  </scstep>
  <scstep>
   <time name="diag">    0.12    0.13</time>
   <time name="diis">    0.25    0.25</time>
   <time name="orth">    0.02    0.02</time>
   <time name="total">    0.45    0.45</time>
   <energy>
    <i name="e_fr_energy">    -17.03752744 </i>
    <i name="e_wo_entrp">    -17.02167618 </i>
    <i name="e_0_energy">    -17.02960181 </i>
   </energy>
  </scstep>
  <scstep>
   <time name="diag">    0.12    0.13</time>
   <time name="diis">    0.24    0.24</time>
   <time name="orth">    0.01    0.02</time>
   <time name="total">    0.44    0.44</time>
   <energy>
    <i name="e_fr_energy">    -17.03756078 </i>
    <i name="e_wo_entrp">    -17.02170467 </i>
    <i name="e_0_energy">    -17.02963272 </i>
   </energy>
  </scstep>
  <scstep>
   <time name="diag">    0.13    0.13</time>
   <time name="diis">    0.24    0.24</time>
   <time name="orth">    0.02    0.02</time>
   <time name="total">    0.44    0.44</time>
   <energy>
    <i name="e_fr_energy">    -17.03757020 </i>
    <i name="e_wo_entrp">    -17.02171233 </i>
    <i name="e_0_energy">    -17.02964126 </i>
   </energy>
  </scstep>
  <scstep>
   <time name="diag">    0.13    0.13</time>
   <time name="diis">    0.23    0.23</time>
   <time name="orth">    0.01    0.02</time>
   <time name="total">    0.43    0.43</time>
   <energy>
    <i name="e_fr_energy">    -17.03757392 </i>
    <i name="e_wo_entrp">    -17.02171751 </i>
    <i name="e_0_energy">    -17.02964572 </i>
   </energy>
  </scstep>
  <scstep>
   <time name="diag">    0.12    0.13</time>
   <time name="diis">    0.19    0.19</time>
   <time name="orth">    0.02    0.02</time>
   <time name="total">    0.36    0.36</time>
   <energy>
    <i name="alphaZ">    120.87645803 </i>
    <i name="ewald">  38084.27828387 </i>
    <i name="hartreedc"> -43152.75301223 </i>
    <i name="XCdc">    173.39665135 </i>
    <i name="pawpsdc">   4396.08690343 </i>
    <i name="pawaedc">  -4971.99905451 </i>
    <i name="eentropy">     -0.01585776 </i>
    <i name="bandstr">   -242.85756452 </i>
    <i name="atom">   5575.94961827 </i>
    <i name="e_fr_energy">    -17.03757406 </i>
    <i name="e_wo_entrp">    -17.02171630 </i>
    <i name="e_0_energy">    -17.02964518 </i>
   </energy>
  </scstep>
  <structure>
   <crystal>
    <varray name="basis" >
     <v>       2.57386868       0.00000000       0.00000000 </v>
     <v>       1.28693434       2.22903567       0.00000000 </v>
     <v>       0.00000000       0.00000000      30.30466494 </v>
    </varray>
    <i name="volume">    173.86529028 </i>
    <varray name="rec_basis" >
     <v>       0.38852021      -0.22431225       0.00000000 </v>
     <v>       0.00000000       0.44862450       0.00000000 </v>
     <v>       0.00000000       0.00000000       0.03299822 </v>
    </varray>
   </crystal>
   <varray name="positions" >
    <v>       0.99970615       0.00058770       0.39656700 </v>
    <v>       0.33318627       0.33362409       0.46513961 </v>
    <v>       0.66582910       0.66834283       0.53359442 </v>
    <v>       0.00080079       0.99839841       0.60421589 </v>
    <v>       0.52290732       0.95418198       0.63750284 </v>
   </varray>
  </structure>
  <varray name="forces" >
   <v>      -0.00000000       0.00817958       0.07713873 </v>
   <v>      -0.00000000       0.00443981      -0.03681871 </v>
   <v>      -0.00000000       0.00842545      -0.04085520 </v>
   <v>       0.00000000       0.13978806       0.02332490 </v>
   <v>      -0.00000000      -0.16083289      -0.02278971 </v>
  </varray>
  <varray name="stress" >
   <v>     -43.83230195       0.00000000       0.00000000 </v>
   <v>       0.00000000     -44.73085218      -2.42801491 </v>
   <v>       0.00000000      -2.42938856     -45.74946925 </v>
  </varray>
  <energy>
   <i name="e_fr_energy">    -17.03757406 </i>
   <i name="e_wo_entrp">    -17.02964518 </i>
   <i name="e_0_energy">     -0.01585776 </i>
  </energy>
  <time name="totalsc">   13.38   13.44</time>
  <eigenvalues>
   <array>
    <dimension dim="1">band</dimension>
    <dimension dim="2">kpoint</dimension>
    <dimension dim="3">spin</dimension>
    <field>eigene</field>
    <field>occ</field>
    <set>
     <set comment="spin 1">
      <set comment="kpoint 1">
       <r>  -11.5635    1.0000 </r>
       <r>  -10.6606    1.0000 </r>
       <r>   -9.0230    1.0000 </r>
       <r>   -7.5706    1.0000 </r>
       <r>   -6.2615    1.0000 </r>
       <r>   -5.6813    1.0000 </r>
       <r>   -5.5041    1.0000 </r>
       <r>   -5.4510    1.0000 </r>
       <r>   -5.3289    1.0000 </r>
       <r>   -5.3204    1.0000 </r>
       <r>   -5.3031    1.0000 </r>
       <r>   -5.2879    1.0000 </r>
       <r>   -5.2812    1.0000 </r>
       <r>   -5.0289    1.0000 </r>
       <r>   -5.0261    1.0000 </r>
       <r>   -4.8787    1.0000 </r>
       <r>   -4.8602    1.0000 </r>
       <r>   -4.6986    1.0000 </r>
       <r>   -4.5274    1.0000 </r>
       <r>   -4.5248    1.0000 </r>
       <r>   -4.3116    1.0000 </r>
       <r>   -4.2995    1.0000 </r>
       <r>   -4.0241    1.0000 </r>
       <r>   -4.0208    1.0000 </r>
       <r>   -2.9321    1.0000 </r>
       <r>    1.6103    0.0000 </r>
       <r>    1.9143    0.0000 </r>
       <r>    2.3400    0.0000 </r>
      </set>
      <set comment="kpoint 2">
       <r>  -11.2557    1.0000 </r>
       <r>  -10.3643    1.0000 </r>
       <r>   -8.7625    1.0000 </r>
       <r>   -7.3526    1.0000 </r>
       <r>   -6.2813    1.0000 </r>
       <r>   -5.7285    1.0000 </r>
       <r>   -5.6115    1.0000 </r>
       <r>   -5.4575    1.0000 </r>
       <r>   -5.4056    1.0000 </r>
       <r>   -5.3627    1.0000 </r>
       <r>   -5.3279    1.0000 </r>
       <r>   -5.2207    1.0000 </r>
       <r>   -5.1902    1.0000 </r>
       <r>   -5.1307    1.0000 </r>
       <r>   -5.0426    1.0000 </r>
       <r>   -4.9397    1.0000 </r>
       <r>   -4.7806    1.0000 </r>
       <r>   -4.7087    1.0000 </r>
       <r>   -4.5357    1.0000 </r>
       <r>   -4.4991    1.0000 </r>
       <r>   -4.3272    1.0000 </r>
       <r>   -4.2971    1.0000 </r>
       <r>   -4.0163    1.0000 </r>
       <r>   -3.7859    1.0000 </r>
       <r>   -2.2431    0.0348 </r>
       <r>    1.8545    0.0000 </r>
       <r>    2.2181    0.0000 </r>
       <r>    2.6432    0.0000 </r>
      </set>
      <set comment="kpoint 3">
       <r>  -10.3702    1.0000 </r>
       <r>   -9.5278    1.0000 </r>
       <r>   -8.0912    1.0000 </r>
       <r>   -6.8465    1.0000 </r>
       <r>   -6.3860    1.0000 </r>
       <r>   -5.9638    1.0000 </r>
       <r>   -5.7792    1.0000 </r>
       <r>   -5.6976    1.0000 </r>
       <r>   -5.5341    1.0000 </r>
       <r>   -5.3067    1.0000 </r>
       <r>   -5.2485    1.0000 </r>
       <r>   -5.1971    1.0000 </r>
       <r>   -5.0851    1.0000 </r>
       <r>   -5.0309    1.0000 </r>
       <r>   -4.9217    1.0000 </r>
       <r>   -4.8672    1.0000 </r>
       <r>   -4.8179    1.0000 </r>
       <r>   -4.6414    1.0000 </r>
       <r>   -4.5884    1.0000 </r>
       <r>   -4.4776    1.0000 </r>
       <r>   -4.2971    1.0000 </r>
       <r>   -4.0926    1.0000 </r>
       <r>   -4.0089    1.0000 </r>
       <r>   -2.8892    1.0000 </r>
       <r>   -0.9097    0.0000 </r>
       <r>    2.5797    0.0000 </r>
       <r>    3.1286    0.0000 </r>
       <r>    3.5527    0.0000 </r>
      </set>
      <set comment="kpoint 4">
       <r>   -9.0700    1.0000 </r>
       <r>   -8.3844    1.0000 </r>
       <r>   -7.4467    1.0000 </r>
       <r>   -6.6782    1.0000 </r>
       <r>   -6.4037    1.0000 </r>
       <r>   -6.2364    1.0000 </r>
       <r>   -5.9193    1.0000 </r>
       <r>   -5.6954    1.0000 </r>
       <r>   -5.5800    1.0000 </r>
       <r>   -5.3163    1.0000 </r>
       <r>   -5.1811    1.0000 </r>
       <r>   -5.0924    1.0000 </r>
       <r>   -4.9146    1.0000 </r>
       <r>   -4.8741    1.0000 </r>
       <r>   -4.7715    1.0000 </r>
       <r>   -4.6354    1.0000 </r>
       <r>   -4.5651    1.0000 </r>
       <r>   -4.3941    1.0000 </r>
       <r>   -4.3631    1.0000 </r>
       <r>   -4.2884    1.0000 </r>
       <r>   -4.1728    1.0000 </r>
       <r>   -3.9938    1.0000 </r>
       <r>   -3.5883    1.0000 </r>
       <r>   -1.6846    0.0000 </r>
       <r>    0.7765    0.0000 </r>
       <r>    3.7651    0.0000 </r>
       <r>    4.6117    0.0000 </r>
       <r>    5.0301    0.0000 </r>
      </set>
      <set comment="kpoint 5">
       <r>   -8.0008    1.0000 </r>
       <r>   -7.4592    1.0000 </r>
       <r>   -7.1299    1.0000 </r>
       <r>   -6.7763    1.0000 </r>
       <r>   -6.5414    1.0000 </r>
       <r>   -6.4065    1.0000 </r>
       <r>   -6.0572    1.0000 </r>
       <r>   -5.5120    1.0000 </r>
       <r>   -5.3754    1.0000 </r>
       <r>   -5.2983    1.0000 </r>
       <r>   -5.2353    1.0000 </r>
       <r>   -4.9577    1.0000 </r>
       <r>   -4.8352    1.0000 </r>
       <r>   -4.5057    1.0000 </r>
       <r>   -4.4082    1.0000 </r>
       <r>   -4.3441    1.0000 </r>
       <r>   -4.1441    1.0000 </r>
       <r>   -4.1243    1.0000 </r>
       <r>   -4.0833    1.0000 </r>
       <r>   -3.9976    1.0000 </r>
       <r>   -3.8569    1.0000 </r>
       <r>   -3.5689    1.0000 </r>
       <r>   -2.5211    0.9829 </r>
       <r>   -0.2677    0.0000 </r>
       <r>    2.1390    0.0000 </r>
       <r>    2.8748    0.0000 </r>
       <r>    3.1796    0.0000 </r>
       <r>    4.3880    0.0000 </r>
      </set>
      <set comment="kpoint 6">
       <r>   -7.7866    1.0000 </r>
       <r>   -7.1572    1.0000 </r>
       <r>   -6.9397    1.0000 </r>
       <r>   -6.8360    1.0000 </r>
       <r>   -6.6100    1.0000 </r>
       <r>   -6.4626    1.0000 </r>
       <r>   -6.0894    1.0000 </r>
       <r>   -5.4364    1.0000 </r>
       <r>   -5.3820    1.0000 </r>
       <r>   -5.2571    1.0000 </r>
       <r>   -5.1518    1.0000 </r>
       <r>   -4.9440    1.0000 </r>
       <r>   -4.6031    1.0000 </r>
       <r>   -4.4547    1.0000 </r>
       <r>   -4.2930    1.0000 </r>
       <r>   -4.2175    1.0000 </r>
       <r>   -4.0765    1.0000 </r>
       <r>   -3.9870    1.0000 </r>
       <r>   -3.9275    1.0000 </r>
       <r>   -3.7421    1.0000 </r>
       <r>   -3.6511    1.0000 </r>
       <r>   -2.2489    0.0416 </r>
       <r>   -1.3846    0.0000 </r>
       <r>   -0.8502    0.0000 </r>
       <r>    1.3509    0.0000 </r>
       <r>    2.1612    0.0000 </r>
       <r>    2.7759    0.0000 </r>
       <r>    3.6846    0.0000 </r>
      </set>
      <set comment="kpoint 7">
       <r>  -11.2685    1.0000 </r>
       <r>  -10.3661    1.0000 </r>
       <r>   -8.7537    1.0000 </r>
       <r>   -7.3480    1.0000 </r>
       <r>   -6.2094    1.0000 </r>
       <r>   -5.7511    1.0000 </r>
       <r>   -5.5481    1.0000 </r>
       <r>   -5.4014    1.0000 </r>
       <r>   -5.3999    1.0000 </r>
       <r>   -5.3689    1.0000 </r>
       <r>   -5.3173    1.0000 </r>
       <r>   -5.2523    1.0000 </r>
       <r>   -5.1864    1.0000 </r>
       <r>   -5.1336    1.0000 </r>
       <r>   -5.0420    1.0000 </r>
       <r>   -4.9600    1.0000 </r>
       <r>   -4.8674    1.0000 </r>
       <r>   -4.7259    1.0000 </r>
       <r>   -4.5434    1.0000 </r>
       <r>   -4.4919    1.0000 </r>
       <r>   -4.3301    1.0000 </r>
       <r>   -4.3065    1.0000 </r>
       <r>   -4.0189    1.0000 </r>
       <r>   -3.8075    1.0000 </r>
       <r>   -2.2521    0.0457 </r>
       <r>    1.8554    0.0000 </r>
       <r>    2.2179    0.0000 </r>
       <r>    2.6427    0.0000 </r>
      </set>
      <set comment="kpoint 8">
       <r>  -10.6490    1.0000 </r>
       <r>   -9.7972    1.0000 </r>
       <r>   -8.3032    1.0000 </r>
       <r>   -6.9826    1.0000 </r>
       <r>   -6.3647    1.0000 </r>
       <r>   -5.8543    1.0000 </r>
       <r>   -5.7676    1.0000 </r>
       <r>   -5.6205    1.0000 </r>
       <r>   -5.5183    1.0000 </r>
       <r>   -5.3939    1.0000 </r>
       <r>   -5.2934    1.0000 </r>
       <r>   -5.1899    1.0000 </r>
       <r>   -5.1332    1.0000 </r>
       <r>   -5.0903    1.0000 </r>
       <r>   -4.9809    1.0000 </r>
       <r>   -4.8678    1.0000 </r>
       <r>   -4.7420    1.0000 </r>
       <r>   -4.6411    1.0000 </r>
       <r>   -4.5899    1.0000 </r>
       <r>   -4.4770    1.0000 </r>
       <r>   -4.3755    1.0000 </r>
       <r>   -4.1088    1.0000 </r>
       <r>   -4.0475    1.0000 </r>
       <r>   -3.1230    1.0000 </r>
       <r>   -1.2921    0.0000 </r>
       <r>    2.3392    0.0000 </r>
       <r>    2.8258    0.0000 </r>
       <r>    3.2500    0.0000 </r>
      </set>
      <set comment="kpoint 9">
       <r>   -9.5456    1.0000 </r>
       <r>   -8.7947    1.0000 </r>
       <r>   -7.6308    1.0000 </r>
       <r>   -6.6148    1.0000 </r>
       <r>   -6.3214    1.0000 </r>
       <r>   -6.0741    1.0000 </r>
       <r>   -5.8834    1.0000 </r>
       <r>   -5.8066    1.0000 </r>
       <r>   -5.6458    1.0000 </r>
       <r>   -5.3507    1.0000 </r>
       <r>   -5.3109    1.0000 </r>
       <r>   -5.1841    1.0000 </r>
       <r>   -5.0863    1.0000 </r>
       <r>   -4.9663    1.0000 </r>
       <r>   -4.8867    1.0000 </r>
       <r>   -4.7801    1.0000 </r>
       <r>   -4.6449    1.0000 </r>
       <r>   -4.4963    1.0000 </r>
       <r>   -4.3736    1.0000 </r>
       <r>   -4.3327    1.0000 </r>
       <r>   -4.1840    1.0000 </r>
       <r>   -4.0713    1.0000 </r>
       <r>   -3.7030    1.0000 </r>
       <r>   -2.0879    0.0000 </r>
       <r>    0.1737    0.0000 </r>
       <r>    3.3145    0.0000 </r>
       <r>    4.0355    0.0000 </r>
       <r>    4.4760    0.0000 </r>
      </set>
      <set comment="kpoint 10">
       <r>   -8.3405    1.0000 </r>
       <r>   -7.7254    1.0000 </r>
       <r>   -7.1524    1.0000 </r>
       <r>   -6.6365    1.0000 </r>
       <r>   -6.3930    1.0000 </r>
       <r>   -6.2381    1.0000 </r>
       <r>   -5.9692    1.0000 </r>
       <r>   -5.6658    1.0000 </r>
       <r>   -5.5786    1.0000 </r>
       <r>   -5.3175    1.0000 </r>
       <r>   -5.2575    1.0000 </r>
       <r>   -5.1093    1.0000 </r>
       <r>   -4.9428    1.0000 </r>
       <r>   -4.7785    1.0000 </r>
       <r>   -4.6904    1.0000 </r>
       <r>   -4.5318    1.0000 </r>
       <r>   -4.4190    1.0000 </r>
       <r>   -4.3039    1.0000 </r>
       <r>   -4.2012    1.0000 </r>
       <r>   -4.0195    1.0000 </r>
       <r>   -3.9709    1.0000 </r>
       <r>   -3.6603    1.0000 </r>
       <r>   -2.8070    1.0000 </r>
       <r>   -0.6608    0.0000 </r>
       <r>    1.9690    0.0000 </r>
       <r>    3.9826    0.0000 </r>
       <r>    4.4440    0.0000 </r>
       <r>    5.1069    0.0000 </r>
      </set>
      <set comment="kpoint 11">
       <r>   -7.8121    1.0000 </r>
       <r>   -7.0755    1.0000 </r>
       <r>   -6.8948    1.0000 </r>
       <r>   -6.6914    1.0000 </r>
       <r>   -6.5139    1.0000 </r>
       <r>   -6.3443    1.0000 </r>
       <r>   -6.0572    1.0000 </r>
       <r>   -5.5397    1.0000 </r>
       <r>   -5.4318    1.0000 </r>
       <r>   -5.3191    1.0000 </r>
       <r>   -5.2087    1.0000 </r>
       <r>   -5.0329    1.0000 </r>
       <r>   -4.8115    1.0000 </r>
       <r>   -4.5689    1.0000 </r>
       <r>   -4.4284    1.0000 </r>
       <r>   -4.2825    1.0000 </r>
       <r>   -4.1621    1.0000 </r>
       <r>   -4.1280    1.0000 </r>
       <r>   -4.0565    1.0000 </r>
       <r>   -3.9054    1.0000 </r>
       <r>   -3.4572    1.0000 </r>
       <r>   -2.3709    0.4975 </r>
       <r>   -1.3473    0.0000 </r>
       <r>    0.0957    0.0000 </r>
       <r>    1.6473    0.0000 </r>
       <r>    2.5352    0.0000 </r>
       <r>    2.9690    0.0000 </r>
       <r>    4.1624    0.0000 </r>
      </set>
      <set comment="kpoint 12">
       <r>   -7.7328    1.0000 </r>
       <r>   -7.0765    1.0000 </r>
       <r>   -6.8833    1.0000 </r>
       <r>   -6.7120    1.0000 </r>
       <r>   -6.5139    1.0000 </r>
       <r>   -6.3745    1.0000 </r>
       <r>   -6.0772    1.0000 </r>
       <r>   -5.6012    1.0000 </r>
       <r>   -5.4159    1.0000 </r>
       <r>   -5.3272    1.0000 </r>
       <r>   -5.2508    1.0000 </r>
       <r>   -5.0393    1.0000 </r>
       <r>   -4.8346    1.0000 </r>
       <r>   -4.5448    1.0000 </r>
       <r>   -4.4376    1.0000 </r>
       <r>   -4.2809    1.0000 </r>
       <r>   -4.1680    1.0000 </r>
       <r>   -4.1027    1.0000 </r>
       <r>   -4.0568    1.0000 </r>
       <r>   -3.9014    1.0000 </r>
       <r>   -3.3779    1.0000 </r>
       <r>   -2.3720    0.5032 </r>
       <r>   -1.3714    0.0000 </r>
       <r>    0.0854    0.0000 </r>
       <r>    1.6386    0.0000 </r>
       <r>    2.5008    0.0000 </r>
       <r>    3.0147    0.0000 </r>
       <r>    4.1411    0.0000 </r>
      </set>
      <set comment="kpoint 13">
       <r>   -8.2939    1.0000 </r>
       <r>   -7.6922    1.0000 </r>
       <r>   -7.1293    1.0000 </r>
       <r>   -6.6488    1.0000 </r>
       <r>   -6.3971    1.0000 </r>
       <r>   -6.2768    1.0000 </r>
       <r>   -6.0063    1.0000 </r>
       <r>   -5.7070    1.0000 </r>
       <r>   -5.6023    1.0000 </r>
       <r>   -5.3393    1.0000 </r>
       <r>   -5.2961    1.0000 </r>
       <r>   -5.1215    1.0000 </r>
       <r>   -4.9493    1.0000 </r>
       <r>   -4.7818    1.0000 </r>
       <r>   -4.6351    1.0000 </r>
       <r>   -4.5330    1.0000 </r>
       <r>   -4.4030    1.0000 </r>
       <r>   -4.2500    1.0000 </r>
       <r>   -4.1727    1.0000 </r>
       <r>   -4.0069    1.0000 </r>
       <r>   -3.9420    1.0000 </r>
       <r>   -3.6570    1.0000 </r>
       <r>   -2.8608    1.0000 </r>
       <r>   -0.7579    0.0000 </r>
       <r>    1.8962    0.0000 </r>
       <r>    4.0423    0.0000 </r>
       <r>    4.5058    0.0000 </r>
       <r>    5.1258    0.0000 </r>
      </set>
      <set comment="kpoint 14">
       <r>   -9.5892    1.0000 </r>
       <r>   -8.7729    1.0000 </r>
       <r>   -7.5525    1.0000 </r>
       <r>   -6.5786    1.0000 </r>
       <r>   -6.3039    1.0000 </r>
       <r>   -6.0962    1.0000 </r>
       <r>   -5.9113    1.0000 </r>
       <r>   -5.8137    1.0000 </r>
       <r>   -5.6433    1.0000 </r>
       <r>   -5.3555    1.0000 </r>
       <r>   -5.3125    1.0000 </r>
       <r>   -5.2145    1.0000 </r>
       <r>   -5.0596    1.0000 </r>
       <r>   -4.9483    1.0000 </r>
       <r>   -4.8273    1.0000 </r>
       <r>   -4.7794    1.0000 </r>
       <r>   -4.6187    1.0000 </r>
       <r>   -4.5319    1.0000 </r>
       <r>   -4.3949    1.0000 </r>
       <r>   -4.3290    1.0000 </r>
       <r>   -4.1815    1.0000 </r>
       <r>   -4.0763    1.0000 </r>
       <r>   -3.7549    1.0000 </r>
       <r>   -2.1973    0.0069 </r>
       <r>    0.1197    0.0000 </r>
       <r>    3.3106    0.0000 </r>
       <r>    4.0355    0.0000 </r>
       <r>    4.4800    0.0000 </r>
      </set>
      <set comment="kpoint 15">
       <r>  -10.6852    1.0000 </r>
       <r>   -9.7970    1.0000 </r>
       <r>   -8.2674    1.0000 </r>
       <r>   -6.9642    1.0000 </r>
       <r>   -6.2390    1.0000 </r>
       <r>   -5.8587    1.0000 </r>
       <r>   -5.7598    1.0000 </r>
       <r>   -5.6108    1.0000 </r>
       <r>   -5.5058    1.0000 </r>
       <r>   -5.3675    1.0000 </r>
       <r>   -5.2146    1.0000 </r>
       <r>   -5.1952    1.0000 </r>
       <r>   -5.1420    1.0000 </r>
       <r>   -5.1248    1.0000 </r>
       <r>   -4.9832    1.0000 </r>
       <r>   -4.9027    1.0000 </r>
       <r>   -4.7475    1.0000 </r>
       <r>   -4.6719    1.0000 </r>
       <r>   -4.6419    1.0000 </r>
       <r>   -4.5032    1.0000 </r>
       <r>   -4.3872    1.0000 </r>
       <r>   -4.1157    1.0000 </r>
       <r>   -4.0620    1.0000 </r>
       <r>   -3.2042    1.0000 </r>
       <r>   -1.3219    0.0000 </r>
       <r>    2.3406    0.0000 </r>
       <r>    2.8254    0.0000 </r>
       <r>    3.2494    0.0000 </r>
      </set>
      <set comment="kpoint 16">
       <r>  -10.4384    1.0000 </r>
       <r>   -9.5320    1.0000 </r>
       <r>   -8.0409    1.0000 </r>
       <r>   -6.8149    1.0000 </r>
       <r>   -6.1661    1.0000 </r>
       <r>   -5.9081    1.0000 </r>
       <r>   -5.7287    1.0000 </r>
       <r>   -5.6381    1.0000 </r>
       <r>   -5.5322    1.0000 </r>
       <r>   -5.3303    1.0000 </r>
       <r>   -5.2402    1.0000 </r>
       <r>   -5.2084    1.0000 </r>
       <r>   -5.1042    1.0000 </r>
       <r>   -5.0761    1.0000 </r>
       <r>   -4.9509    1.0000 </r>
       <r>   -4.8907    1.0000 </r>
       <r>   -4.8566    1.0000 </r>
       <r>   -4.6589    1.0000 </r>
       <r>   -4.6207    1.0000 </r>
       <r>   -4.4901    1.0000 </r>
       <r>   -4.3039    1.0000 </r>
       <r>   -4.1617    1.0000 </r>
       <r>   -4.0117    1.0000 </r>
       <r>   -3.0157    1.0000 </r>
       <r>   -0.9591    0.0000 </r>
       <r>    2.5773    0.0000 </r>
       <r>    3.1282    0.0000 </r>
       <r>    3.5533    0.0000 </r>
      </set>
      <set comment="kpoint 17">
       <r>   -8.4893    1.0000 </r>
       <r>   -7.8165    1.0000 </r>
       <r>   -7.1075    1.0000 </r>
       <r>   -6.5116    1.0000 </r>
       <r>   -6.1819    1.0000 </r>
       <r>   -6.0846    1.0000 </r>
       <r>   -5.9688    1.0000 </r>
       <r>   -5.8796    1.0000 </r>
       <r>   -5.6184    1.0000 </r>
       <r>   -5.4739    1.0000 </r>
       <r>   -5.3578    1.0000 </r>
       <r>   -5.2775    1.0000 </r>
       <r>   -5.0247    1.0000 </r>
       <r>   -4.9656    1.0000 </r>
       <r>   -4.7597    1.0000 </r>
       <r>   -4.6948    1.0000 </r>
       <r>   -4.4566    1.0000 </r>
       <r>   -4.3416    1.0000 </r>
       <r>   -4.2431    1.0000 </r>
       <r>   -4.0130    1.0000 </r>
       <r>   -3.9678    1.0000 </r>
       <r>   -3.6070    1.0000 </r>
       <r>   -2.8107    1.0000 </r>
       <r>   -0.7907    0.0000 </r>
       <r>    1.7504    0.0000 </r>
       <r>    4.5539    0.0000 </r>
       <r>    5.2059    0.0000 </r>
       <r>    5.6193    0.0000 </r>
      </set>
      <set comment="kpoint 18">
       <r>   -7.8539    1.0000 </r>
       <r>   -6.9150    1.0000 </r>
       <r>   -6.7011    1.0000 </r>
       <r>   -6.4803    1.0000 </r>
       <r>   -6.2938    1.0000 </r>
       <r>   -6.1522    1.0000 </r>
       <r>   -5.9684    1.0000 </r>
       <r>   -5.8010    1.0000 </r>
       <r>   -5.6094    1.0000 </r>
       <r>   -5.5089    1.0000 </r>
       <r>   -5.3571    1.0000 </r>
       <r>   -5.0960    1.0000 </r>
       <r>   -4.9987    1.0000 </r>
       <r>   -4.8568    1.0000 </r>
       <r>   -4.6734    1.0000 </r>
       <r>   -4.5626    1.0000 </r>
       <r>   -4.4146    1.0000 </r>
       <r>   -4.2276    1.0000 </r>
       <r>   -4.0860    1.0000 </r>
       <r>   -3.9212    1.0000 </r>
       <r>   -3.2988    1.0000 </r>
       <r>   -2.3902    0.6049 </r>
       <r>   -1.2023    0.0000 </r>
       <r>    0.8772    0.0000 </r>
       <r>    2.7639    0.0000 </r>
       <r>    3.6291    0.0000 </r>
       <r>    3.8047    0.0000 </r>
       <r>    4.9607    0.0000 </r>
      </set>
      <set comment="kpoint 19">
       <r>   -7.6154    1.0000 </r>
       <r>   -6.6873    1.0000 </r>
       <r>   -6.6140    1.0000 </r>
       <r>   -6.4163    1.0000 </r>
       <r>   -6.3111    1.0000 </r>
       <r>   -6.1847    1.0000 </r>
       <r>   -5.9958    1.0000 </r>
       <r>   -5.8494    1.0000 </r>
       <r>   -5.5831    1.0000 </r>
       <r>   -5.4939    1.0000 </r>
       <r>   -5.3284    1.0000 </r>
       <r>   -5.1321    1.0000 </r>
       <r>   -4.9240    1.0000 </r>
       <r>   -4.7421    1.0000 </r>
       <r>   -4.5965    1.0000 </r>
       <r>   -4.4930    1.0000 </r>
       <r>   -4.3097    1.0000 </r>
       <r>   -4.1490    1.0000 </r>
       <r>   -4.0934    1.0000 </r>
       <r>   -3.9880    1.0000 </r>
       <r>   -2.4849    0.9457 </r>
       <r>   -0.7454    0.0000 </r>
       <r>   -0.1712    0.0000 </r>
       <r>    0.5990    0.0000 </r>
       <r>    1.7539    0.0000 </r>
       <r>    2.8065    0.0000 </r>
       <r>    3.3502    0.0000 </r>
       <r>    4.2988    0.0000 </r>
      </set>
      <set comment="kpoint 20">
       <r>   -7.7160    1.0000 </r>
       <r>   -6.9210    1.0000 </r>
       <r>   -6.7104    1.0000 </r>
       <r>   -6.4840    1.0000 </r>
       <r>   -6.3002    1.0000 </r>
       <r>   -6.1978    1.0000 </r>
       <r>   -5.9847    1.0000 </r>
       <r>   -5.8391    1.0000 </r>
       <r>   -5.6153    1.0000 </r>
       <r>   -5.5422    1.0000 </r>
       <r>   -5.4173    1.0000 </r>
       <r>   -5.0991    1.0000 </r>
       <r>   -5.0032    1.0000 </r>
       <r>   -4.8558    1.0000 </r>
       <r>   -4.6863    1.0000 </r>
       <r>   -4.5702    1.0000 </r>
       <r>   -4.4093    1.0000 </r>
       <r>   -4.2266    1.0000 </r>
       <r>   -4.0561    1.0000 </r>
       <r>   -3.9212    1.0000 </r>
       <r>   -3.1322    1.0000 </r>
       <r>   -2.4032    0.6734 </r>
       <r>   -1.3006    0.0000 </r>
       <r>    0.7151    0.0000 </r>
       <r>    2.7507    0.0000 </r>
       <r>    3.6174    0.0000 </r>
       <r>    3.7965    0.0000 </r>
       <r>    4.8727    0.0000 </r>
      </set>
      <set comment="kpoint 21">
       <r>   -8.5734    1.0000 </r>
       <r>   -7.7405    1.0000 </r>
       <r>   -6.9849    1.0000 </r>
       <r>   -6.4834    1.0000 </r>
       <r>   -6.1576    1.0000 </r>
       <r>   -6.0869    1.0000 </r>
       <r>   -5.9606    1.0000 </r>
       <r>   -5.8868    1.0000 </r>
       <r>   -5.6210    1.0000 </r>
       <r>   -5.4782    1.0000 </r>
       <r>   -5.4067    1.0000 </r>
       <r>   -5.3458    1.0000 </r>
       <r>   -5.0222    1.0000 </r>
       <r>   -4.9679    1.0000 </r>
       <r>   -4.8238    1.0000 </r>
       <r>   -4.6345    1.0000 </r>
       <r>   -4.4685    1.0000 </r>
       <r>   -4.3024    1.0000 </r>
       <r>   -4.1682    1.0000 </r>
       <r>   -4.0157    1.0000 </r>
       <r>   -3.9113    1.0000 </r>
       <r>   -3.6166    1.0000 </r>
       <r>   -2.9308    1.0000 </r>
       <r>   -1.0263    0.0000 </r>
       <r>    1.5671    0.0000 </r>
       <r>    4.4308    0.0000 </r>
       <r>    5.4106    0.0000 </r>
       <r>    5.5870    0.0000 </r>
      </set>
      <set comment="kpoint 22">
       <r>   -9.6725    1.0000 </r>
       <r>   -8.7757    1.0000 </r>
       <r>   -7.5008    1.0000 </r>
       <r>   -6.5009    1.0000 </r>
       <r>   -6.2318    1.0000 </r>
       <r>   -6.0057    1.0000 </r>
       <r>   -5.8430    1.0000 </r>
       <r>   -5.7722    1.0000 </r>
       <r>   -5.6535    1.0000 </r>
       <r>   -5.3416    1.0000 </r>
       <r>   -5.3088    1.0000 </r>
       <r>   -5.2411    1.0000 </r>
       <r>   -5.1363    1.0000 </r>
       <r>   -4.9745    1.0000 </r>
       <r>   -4.8339    1.0000 </r>
       <r>   -4.7906    1.0000 </r>
       <r>   -4.6178    1.0000 </r>
       <r>   -4.5452    1.0000 </r>
       <r>   -4.4297    1.0000 </r>
       <r>   -4.3314    1.0000 </r>
       <r>   -4.1815    1.0000 </r>
       <r>   -4.0775    1.0000 </r>
       <r>   -3.8141    1.0000 </r>
       <r>   -2.3028    0.1661 </r>
       <r>    0.0638    0.0000 </r>
       <r>    3.2927    0.0000 </r>
       <r>    4.0364    0.0000 </r>
       <r>    4.4676    0.0000 </r>
      </set>
      <set comment="kpoint 23">
       <r>   -9.3164    1.0000 </r>
       <r>   -8.3648    1.0000 </r>
       <r>   -7.2980    1.0000 </r>
       <r>   -6.5011    1.0000 </r>
       <r>   -6.3440    1.0000 </r>
       <r>   -6.0408    1.0000 </r>
       <r>   -5.7519    1.0000 </r>
       <r>   -5.6540    1.0000 </r>
       <r>   -5.4494    1.0000 </r>
       <r>   -5.3232    1.0000 </r>
       <r>   -5.2592    1.0000 </r>
       <r>   -5.1263    1.0000 </r>
       <r>   -4.9786    1.0000 </r>
       <r>   -4.8852    1.0000 </r>
       <r>   -4.7585    1.0000 </r>
       <r>   -4.7345    1.0000 </r>
       <r>   -4.5667    1.0000 </r>
       <r>   -4.4133    1.0000 </r>
       <r>   -4.3771    1.0000 </r>
       <r>   -4.2916    1.0000 </r>
       <r>   -4.1729    1.0000 </r>
       <r>   -3.9964    1.0000 </r>
       <r>   -3.7810    1.0000 </r>
       <r>   -1.9834    0.0000 </r>
       <r>    0.5791    0.0000 </r>
       <r>    3.6383    0.0000 </r>
       <r>    4.6320    0.0000 </r>
       <r>    4.8692    0.0000 </r>
      </set>
      <set comment="kpoint 24">
       <r>   -7.5813    1.0000 </r>
       <r>   -6.4492    1.0000 </r>
       <r>   -6.3745    1.0000 </r>
       <r>   -6.3021    1.0000 </r>
       <r>   -6.1887    1.0000 </r>
       <r>   -6.0723    1.0000 </r>
       <r>   -6.0187    1.0000 </r>
       <r>   -5.9322    1.0000 </r>
       <r>   -5.7475    1.0000 </r>
       <r>   -5.5500    1.0000 </r>
       <r>   -5.4664    1.0000 </r>
       <r>   -5.0858    1.0000 </r>
       <r>   -5.0378    1.0000 </r>
       <r>   -4.8477    1.0000 </r>
       <r>   -4.6844    1.0000 </r>
       <r>   -4.5384    1.0000 </r>
       <r>   -4.4788    1.0000 </r>
       <r>   -4.1921    1.0000 </r>
       <r>   -4.1071    1.0000 </r>
       <r>   -4.0115    1.0000 </r>
       <r>   -2.1024    0.0001 </r>
       <r>   -0.4192    0.0000 </r>
       <r>    0.7753    0.0000 </r>
       <r>    2.1850    0.0000 </r>
       <r>    2.2893    0.0000 </r>
       <r>    2.5764    0.0000 </r>
       <r>    3.3103    0.0000 </r>
       <r>    3.9985    0.0000 </r>
      </set>
      <set comment="kpoint 25">
       <r>   -7.5376    1.0000 </r>
       <r>   -6.4522    1.0000 </r>
       <r>   -6.3996    1.0000 </r>
       <r>   -6.3019    1.0000 </r>
       <r>   -6.1942    1.0000 </r>
       <r>   -6.0729    1.0000 </r>
       <r>   -6.0213    1.0000 </r>
       <r>   -5.9160    1.0000 </r>
       <r>   -5.7063    1.0000 </r>
       <r>   -5.5911    1.0000 </r>
       <r>   -5.4722    1.0000 </r>
       <r>   -5.0874    1.0000 </r>
       <r>   -5.0373    1.0000 </r>
       <r>   -4.8635    1.0000 </r>
       <r>   -4.6962    1.0000 </r>
       <r>   -4.5508    1.0000 </r>
       <r>   -4.4775    1.0000 </r>
       <r>   -4.1804    1.0000 </r>
       <r>   -4.1040    1.0000 </r>
       <r>   -4.0126    1.0000 </r>
       <r>   -1.9533    0.0000 </r>
       <r>   -0.4476    0.0000 </r>
       <r>    0.6291    0.0000 </r>
       <r>    1.8138    0.0000 </r>
       <r>    2.3422    0.0000 </r>
       <r>    2.5612    0.0000 </r>
       <r>    3.2494    0.0000 </r>
       <r>    3.7824    0.0000 </r>
      </set>
      <set comment="kpoint 26">
       <r>   -7.9387    1.0000 </r>
       <r>   -6.8798    1.0000 </r>
       <r>   -6.6762    1.0000 </r>
       <r>   -6.4159    1.0000 </r>
       <r>   -6.2781    1.0000 </r>
       <r>   -6.0396    1.0000 </r>
       <r>   -5.9436    1.0000 </r>
       <r>   -5.7674    1.0000 </r>
       <r>   -5.6163    1.0000 </r>
       <r>   -5.5358    1.0000 </r>
       <r>   -5.3915    1.0000 </r>
       <r>   -5.1033    1.0000 </r>
       <r>   -5.0354    1.0000 </r>
       <r>   -4.8883    1.0000 </r>
       <r>   -4.6745    1.0000 </r>
       <r>   -4.6022    1.0000 </r>
       <r>   -4.4123    1.0000 </r>
       <r>   -4.2355    1.0000 </r>
       <r>   -4.0494    1.0000 </r>
       <r>   -3.9211    1.0000 </r>
       <r>   -3.0252    1.0000 </r>
       <r>   -2.4230    0.7671 </r>
       <r>   -1.4088    0.0000 </r>
       <r>    0.4068    0.0000 </r>
       <r>    2.1904    0.0000 </r>
       <r>    3.2480    0.0000 </r>
       <r>    4.2653    0.0000 </r>
       <r>    5.6053    0.0000 </r>
      </set>
      <set comment="kpoint 27">
       <r>   -8.6500    1.0000 </r>
       <r>   -7.6436    1.0000 </r>
       <r>   -6.9947    1.0000 </r>
       <r>   -6.4680    1.0000 </r>
       <r>   -6.3746    1.0000 </r>
       <r>   -6.0822    1.0000 </r>
       <r>   -5.8298    1.0000 </r>
       <r>   -5.6340    1.0000 </r>
       <r>   -5.4889    1.0000 </r>
       <r>   -5.3908    1.0000 </r>
       <r>   -5.2585    1.0000 </r>
       <r>   -5.1514    1.0000 </r>
       <r>   -5.0118    1.0000 </r>
       <r>   -4.7879    1.0000 </r>
       <r>   -4.7055    1.0000 </r>
       <r>   -4.5506    1.0000 </r>
       <r>   -4.4094    1.0000 </r>
       <r>   -4.2325    1.0000 </r>
       <r>   -4.1817    1.0000 </r>
       <r>   -4.0152    1.0000 </r>
       <r>   -3.9410    1.0000 </r>
       <r>   -3.6768    1.0000 </r>
       <r>   -3.0256    1.0000 </r>
       <r>   -1.0799    0.0000 </r>
       <r>    1.5064    0.0000 </r>
       <r>    3.6285    0.0000 </r>
       <r>    4.5478    0.0000 </r>
       <r>    5.4162    0.0000 </r>
      </set>
      <set comment="kpoint 28">
       <r>   -8.5061    1.0000 </r>
       <r>   -7.3897    1.0000 </r>
       <r>   -7.0233    1.0000 </r>
       <r>   -6.5550    1.0000 </r>
       <r>   -6.5132    1.0000 </r>
       <r>   -6.1877    1.0000 </r>
       <r>   -5.7939    1.0000 </r>
       <r>   -5.4622    1.0000 </r>
       <r>   -5.3453    1.0000 </r>
       <r>   -5.3422    1.0000 </r>
       <r>   -5.0684    1.0000 </r>
       <r>   -5.0261    1.0000 </r>
       <r>   -4.7298    1.0000 </r>
       <r>   -4.5258    1.0000 </r>
       <r>   -4.3777    1.0000 </r>
       <r>   -4.3735    1.0000 </r>
       <r>   -4.1433    1.0000 </r>
       <r>   -4.0825    1.0000 </r>
       <r>   -4.0422    1.0000 </r>
       <r>   -4.0000    1.0000 </r>
       <r>   -3.8571    1.0000 </r>
       <r>   -3.5547    1.0000 </r>
       <r>   -2.8311    1.0000 </r>
       <r>   -0.8858    0.0000 </r>
       <r>    1.0643    0.0000 </r>
       <r>    2.6048    0.0000 </r>
       <r>    3.5028    0.0000 </r>
       <r>    4.9649    0.0000 </r>
      </set>
      <set comment="kpoint 29">
       <r>   -7.7986    1.0000 </r>
       <r>   -6.6660    1.0000 </r>
       <r>   -6.6182    1.0000 </r>
       <r>   -6.3464    1.0000 </r>
       <r>   -6.2625    1.0000 </r>
       <r>   -6.0254    1.0000 </r>
       <r>   -5.9679    1.0000 </r>
       <r>   -5.9040    1.0000 </r>
       <r>   -5.5259    1.0000 </r>
       <r>   -5.4645    1.0000 </r>
       <r>   -5.2526    1.0000 </r>
       <r>   -5.1283    1.0000 </r>
       <r>   -4.9906    1.0000 </r>
       <r>   -4.7449    1.0000 </r>
       <r>   -4.6241    1.0000 </r>
       <r>   -4.5240    1.0000 </r>
       <r>   -4.3127    1.0000 </r>
       <r>   -4.1354    1.0000 </r>
       <r>   -4.0920    1.0000 </r>
       <r>   -3.9882    1.0000 </r>
       <r>   -1.9414    0.0000 </r>
       <r>   -0.8494    0.0000 </r>
       <r>   -0.4401    0.0000 </r>
       <r>    0.1661    0.0000 </r>
       <r>    0.8243    0.0000 </r>
       <r>    2.4063    0.0000 </r>
       <r>    3.7331    0.0000 </r>
       <r>    5.0125    0.0000 </r>
      </set>
      <set comment="kpoint 30">
       <r>   -8.1897    1.0000 </r>
       <r>   -7.0288    1.0000 </r>
       <r>   -6.8928    1.0000 </r>
       <r>   -6.5205    1.0000 </r>
       <r>   -6.4514    1.0000 </r>
       <r>   -6.1746    1.0000 </r>
       <r>   -5.8321    1.0000 </r>
       <r>   -5.5966    1.0000 </r>
       <r>   -5.4195    1.0000 </r>
       <r>   -5.2813    1.0000 </r>
       <r>   -5.2195    1.0000 </r>
       <r>   -4.9439    1.0000 </r>
       <r>   -4.7791    1.0000 </r>
       <r>   -4.6311    1.0000 </r>
       <r>   -4.4459    1.0000 </r>
       <r>   -4.2988    1.0000 </r>
       <r>   -4.1647    1.0000 </r>
       <r>   -4.1017    1.0000 </r>
       <r>   -4.0426    1.0000 </r>
       <r>   -3.9041    1.0000 </r>
       <r>   -2.9252    1.0000 </r>
       <r>   -2.4187    0.7484 </r>
       <r>   -1.6567    0.0000 </r>
       <r>   -0.4856    0.0000 </r>
       <r>    0.3355    0.0000 </r>
       <r>    2.1796    0.0000 </r>
       <r>    3.3274    0.0000 </r>
       <r>    4.8599    0.0000 </r>
      </set>
      <set comment="kpoint 31">
       <r>   -8.2890    1.0000 </r>
       <r>   -7.0999    1.0000 </r>
       <r>   -6.9961    1.0000 </r>
       <r>   -6.6136    1.0000 </r>
       <r>   -6.5404    1.0000 </r>
       <r>   -6.2535    1.0000 </r>
       <r>   -5.8017    1.0000 </r>
       <r>   -5.4393    1.0000 </r>
       <r>   -5.3748    1.0000 </r>
       <r>   -5.3176    1.0000 </r>
       <r>   -5.0470    1.0000 </r>
       <r>   -4.9426    1.0000 </r>
       <r>   -4.5083    1.0000 </r>
       <r>   -4.5058    1.0000 </r>
       <r>   -4.2681    1.0000 </r>
       <r>   -4.1212    1.0000 </r>
       <r>   -4.0796    1.0000 </r>
       <r>   -3.9867    1.0000 </r>
       <r>   -3.9271    1.0000 </r>
       <r>   -3.7419    1.0000 </r>
       <r>   -2.8830    1.0000 </r>
       <r>   -2.2815    0.1017 </r>
       <r>   -1.6904    0.0000 </r>
       <r>   -1.1677    0.0000 </r>
       <r>   -0.8160    0.0000 </r>
       <r>    1.8813    0.0000 </r>
       <r>    3.0104    0.0000 </r>
       <r>    4.4732    0.0000 </r>
      </set>
     </set>
    </set>
   </array>
  </eigenvalues>
  <separator name="orbital magnetization" >
   <v name="MAGDIPOLOUT">      0.00000000      0.00000000      0.00000000</v>
  </separator>
  <dos>
   <i name="efermi">     -2.37138990 </i>
   <total>
    <array>
     <dimension dim="1">gridpoints</dimension>
     <dimension dim="2">spin</dimension>
     <field>energy</field>
     <field>total</field>
     <field>integrated</field>
     <set>
      <set comment="spin 1">
       <r>   -17.0000     0.0000     0.0000 </r>
       <r>   -16.9900     0.0000     0.0000 </r>
       <r>   -16.9800     0.0000     0.0000 </r>
       <r>   -16.9700     0.0000     0.0000 </r>
       <r>   -16.9600     0.0000     0.0000 </r>
       <r>   -16.9500     0.0000     0.0000 </r>
       <r>   -16.9400     0.0000     0.0000 </r>
       <r>   -16.9300     0.0000     0.0000 </r>
       <r>   -16.9200     0.0000     0.0000 </r>
       <r>   -16.9100     0.0000     0.0000 </r>
       <r>   -16.9000     0.0000     0.0000 </r>
       <r>   -16.8900     0.0000     0.0000 </r>
       <r>   -16.8800     0.0000     0.0000 </r>
       <r>   -16.8700     0.0000     0.0000 </r>
       <r>   -16.8600     0.0000     0.0000 </r>
       <r>   -16.8500     0.0000     0.0000 </r>
       <r>   -16.8400     0.0000     0.0000 </r>
       <r>   -16.8300     0.0000     0.0000 </r>
       <r>   -16.8200     0.0000     0.0000 </r>
       <r>   -16.8100     0.0000     0.0000 </r>
       <r>   -16.8000     0.0000     0.0000 </r>
       <r>   -16.7900     0.0000     0.0000 </r>
       <r>   -16.7800     0.0000     0.0000 </r>
       <r>   -16.7700     0.0000     0.0000 </r>
       <r>   -16.7600     0.0000     0.0000 </r>
       <r>   -16.7500     0.0000     0.0000 </r>
       <r>   -16.7400     0.0000     0.0000 </r>
       <r>   -16.7300     0.0000     0.0000 </r>
       <r>   -16.7200     0.0000     0.0000 </r>
       <r>   -16.7100     0.0000     0.0000 </r>
       <r>   -16.7000     0.0000     0.0000 </r>
       <r>   -16.6900     0.0000     0.0000 </r>
       <r>   -16.6800     0.0000     0.0000 </r>
       <r>   -16.6700     0.0000     0.0000 </r>
       <r>   -16.6600     0.0000     0.0000 </r>
       <r>   -16.6500     0.0000     0.0000 </r>
       <r>   -16.6400     0.0000     0.0000 </r>
       <r>   -16.6300     0.0000     0.0000 </r>
       <r>   -16.6200     0.0000     0.0000 </r>
       <r>   -16.6100     0.0000     0.0000 </r>
       <r>   -16.6000     0.0000     0.0000 </r>
       <r>   -16.5900     0.0000     0.0000 </r>
       <r>   -16.5800     0.0000     0.0000 </r>
       <r>   -16.5700     0.0000     0.0000 </r>
       <r>   -16.5600     0.0000     0.0000 </r>
       <r>   -16.5500     0.0000     0.0000 </r>
       <r>   -16.5400     0.0000     0.0000 </r>
       <r>   -16.5300     0.0000     0.0000 </r>
       <r>   -16.5200     0.0000     0.0000 </r>
       <r>   -16.5100     0.0000     0.0000 </r>
       <r>   -16.5000     0.0000     0.0000 </r>
       <r>   -16.4900     0.0000     0.0000 </r>
       <r>   -16.4800     0.0000     0.0000 </r>
       <r>   -16.4700     0.0000     0.0000 </r>
       <r>   -16.4600     0.0000     0.0000 </r>
       <r>   -16.4500     0.0000     0.0000 </r>
       <r>   -16.4400     0.0000     0.0000 </r>
       <r>   -16.4300     0.0000     0.0000 </r>
       <r>   -16.4200     0.0000     0.0000 </r>
       <r>   -16.4100     0.0000     0.0000 </r>
       <r>   -16.4000     0.0000     0.0000 </r>
       <r>   -16.3900     0.0000     0.0000 </r>
       <r>   -16.3800     0.0000     0.0000 </r>
       <r>   -16.3700     0.0000     0.0000 </r>
       <r>   -16.3600     0.0000     0.0000 </r>
       <r>   -16.3500     0.0000     0.0000 </r>
       <r>   -16.3400     0.0000     0.0000 </r>
       <r>   -16.3300     0.0000     0.0000 </r>
       <r>   -16.3200     0.0000     0.0000 </r>
       <r>   -16.3100     0.0000     0.0000 </r>
       <r>   -16.3000     0.0000     0.0000 </r>
       <r>   -16.2900     0.0000     0.0000 </r>
       <r>   -16.2800     0.0000     0.0000 </r>
       <r>   -16.2700     0.0000     0.0000 </r>
       <r>   -16.2600     0.0000     0.0000 </r>
       <r>   -16.2500     0.0000     0.0000 </r>
       <r>   -16.2400     0.0000     0.0000 </r>
       <r>   -16.2300     0.0000     0.0000 </r>
       <r>   -16.2200     0.0000     0.0000 </r>
       <r>   -16.2100     0.0000     0.0000 </r>
       <r>   -16.2000     0.0000     0.0000 </r>
       <r>   -16.1900     0.0000     0.0000 </r>
       <r>   -16.1800     0.0000     0.0000 </r>
       <r>   -16.1700     0.0000     0.0000 </r>
       <r>   -16.1600     0.0000     0.0000 </r>
       <r>   -16.1500     0.0000     0.0000 </r>
       <r>   -16.1400     0.0000     0.0000 </r>
       <r>   -16.1300     0.0000     0.0000 </r>
       <r>   -16.1200     0.0000     0.0000 </r>
       <r>   -16.1100     0.0000     0.0000 </r>
       <r>   -16.1000     0.0000     0.0000 </r>
       <r>   -16.0900     0.0000     0.0000 </r>
       <r>   -16.0800     0.0000     0.0000 </r>
       <r>   -16.0700     0.0000     0.0000 </r>
       <r>   -16.0600     0.0000     0.0000 </r>
       <r>   -16.0500     0.0000     0.0000 </r>
       <r>   -16.0400     0.0000     0.0000 </r>
       <r>   -16.0300     0.0000     0.0000 </r>
       <r>   -16.0200     0.0000     0.0000 </r>
       <r>   -16.0100     0.0000     0.0000 </r>
       <r>   -16.0000     0.0000     0.0000 </r>
       <r>   -15.9900     0.0000     0.0000 </r>
       <r>   -15.9800     0.0000     0.0000 </r>
       <r>   -15.9700     0.0000     0.0000 </r>
       <r>   -15.9600     0.0000     0.0000 </r>
       <r>   -15.9500     0.0000     0.0000 </r>
       <r>   -15.9400     0.0000     0.0000 </r>
       <r>   -15.9300     0.0000     0.0000 </r>
       <r>   -15.9200     0.0000     0.0000 </r>
       <r>   -15.9100     0.0000     0.0000 </r>
       <r>   -15.9000     0.0000     0.0000 </r>
       <r>   -15.8900     0.0000     0.0000 </r>
       <r>   -15.8800     0.0000     0.0000 </r>
       <r>   -15.8700     0.0000     0.0000 </r>
       <r>   -15.8600     0.0000     0.0000 </r>
       <r>   -15.8500     0.0000     0.0000 </r>
       <r>   -15.8400     0.0000     0.0000 </r>
       <r>   -15.8300     0.0000     0.0000 </r>
       <r>   -15.8200     0.0000     0.0000 </r>
       <r>   -15.8100     0.0000     0.0000 </r>
       <r>   -15.8000     0.0000     0.0000 </r>
       <r>   -15.7900     0.0000     0.0000 </r>
       <r>   -15.7800     0.0000     0.0000 </r>
       <r>   -15.7700     0.0000     0.0000 </r>
       <r>   -15.7600     0.0000     0.0000 </r>
       <r>   -15.7500     0.0000     0.0000 </r>
       <r>   -15.7400     0.0000     0.0000 </r>
       <r>   -15.7300     0.0000     0.0000 </r>
       <r>   -15.7200     0.0000     0.0000 </r>
       <r>   -15.7100     0.0000     0.0000 </r>
       <r>   -15.7000     0.0000     0.0000 </r>
       <r>   -15.6900     0.0000     0.0000 </r>
       <r>   -15.6800     0.0000     0.0000 </r>
       <r>   -15.6700     0.0000     0.0000 </r>
       <r>   -15.6600     0.0000     0.0000 </r>
       <r>   -15.6500     0.0000     0.0000 </r>
       <r>   -15.6400     0.0000     0.0000 </r>
       <r>   -15.6300     0.0000     0.0000 </r>
       <r>   -15.6200     0.0000     0.0000 </r>
       <r>   -15.6100     0.0000     0.0000 </r>
       <r>   -15.6000     0.0000     0.0000 </r>
       <r>   -15.5900     0.0000     0.0000 </r>
       <r>   -15.5800     0.0000     0.0000 </r>
       <r>   -15.5700     0.0000     0.0000 </r>
       <r>   -15.5600     0.0000     0.0000 </r>
       <r>   -15.5500     0.0000     0.0000 </r>
       <r>   -15.5400     0.0000     0.0000 </r>
       <r>   -15.5300     0.0000     0.0000 </r>
       <r>   -15.5200     0.0000     0.0000 </r>
       <r>   -15.5100     0.0000     0.0000 </r>
       <r>   -15.5000     0.0000     0.0000 </r>
       <r>   -15.4900     0.0000     0.0000 </r>
       <r>   -15.4800     0.0000     0.0000 </r>
       <r>   -15.4700     0.0000     0.0000 </r>
       <r>   -15.4600     0.0000     0.0000 </r>
       <r>   -15.4500     0.0000     0.0000 </r>
       <r>   -15.4400     0.0000     0.0000 </r>
       <r>   -15.4300     0.0000     0.0000 </r>
       <r>   -15.4200     0.0000     0.0000 </r>
       <r>   -15.4100     0.0000     0.0000 </r>
       <r>   -15.4000     0.0000     0.0000 </r>
       <r>   -15.3900     0.0000     0.0000 </r>
       <r>   -15.3800     0.0000     0.0000 </r>
       <r>   -15.3700     0.0000     0.0000 </r>
       <r>   -15.3600     0.0000     0.0000 </r>
       <r>   -15.3500     0.0000     0.0000 </r>
       <r>   -15.3400     0.0000     0.0000 </r>
       <r>   -15.3300     0.0000     0.0000 </r>
       <r>   -15.3200     0.0000     0.0000 </r>
       <r>   -15.3100     0.0000     0.0000 </r>
       <r>   -15.3000     0.0000     0.0000 </r>
       <r>   -15.2900     0.0000     0.0000 </r>
       <r>   -15.2800     0.0000     0.0000 </r>
       <r>   -15.2700     0.0000     0.0000 </r>
       <r>   -15.2600     0.0000     0.0000 </r>
       <r>   -15.2500     0.0000     0.0000 </r>
       <r>   -15.2400     0.0000     0.0000 </r>
       <r>   -15.2300     0.0000     0.0000 </r>
       <r>   -15.2200     0.0000     0.0000 </r>
       <r>   -15.2100     0.0000     0.0000 </r>
       <r>   -15.2000     0.0000     0.0000 </r>
       <r>   -15.1900     0.0000     0.0000 </r>
       <r>   -15.1800     0.0000     0.0000 </r>
       <r>   -15.1700     0.0000     0.0000 </r>
       <r>   -15.1600     0.0000     0.0000 </r>
       <r>   -15.1500     0.0000     0.0000 </r>
       <r>   -15.1400     0.0000     0.0000 </r>
       <r>   -15.1300     0.0000     0.0000 </r>
       <r>   -15.1200     0.0000     0.0000 </r>
       <r>   -15.1100     0.0000     0.0000 </r>
       <r>   -15.1000     0.0000     0.0000 </r>
       <r>   -15.0900     0.0000     0.0000 </r>
       <r>   -15.0800     0.0000     0.0000 </r>
       <r>   -15.0700     0.0000     0.0000 </r>
       <r>   -15.0600     0.0000     0.0000 </r>
       <r>   -15.0500     0.0000     0.0000 </r>
       <r>   -15.0400     0.0000     0.0000 </r>
       <r>   -15.0300     0.0000     0.0000 </r>
       <r>   -15.0200     0.0000     0.0000 </r>
       <r>   -15.0100     0.0000     0.0000 </r>
       <r>   -15.0000     0.0000     0.0000 </r>
       <r>   -14.9900     0.0000     0.0000 </r>
       <r>   -14.9800     0.0000     0.0000 </r>
       <r>   -14.9700     0.0000     0.0000 </r>
       <r>   -14.9600     0.0000     0.0000 </r>
       <r>   -14.9500     0.0000     0.0000 </r>
       <r>   -14.9400     0.0000     0.0000 </r>
       <r>   -14.9300     0.0000     0.0000 </r>
       <r>   -14.9200     0.0000     0.0000 </r>
       <r>   -14.9100     0.0000     0.0000 </r>
       <r>   -14.9000     0.0000     0.0000 </r>
       <r>   -14.8900     0.0000     0.0000 </r>
       <r>   -14.8800     0.0000     0.0000 </r>
       <r>   -14.8700     0.0000     0.0000 </r>
       <r>   -14.8600     0.0000     0.0000 </r>
       <r>   -14.8500     0.0000     0.0000 </r>
       <r>   -14.8400     0.0000     0.0000 </r>
       <r>   -14.8300     0.0000     0.0000 </r>
       <r>   -14.8200     0.0000     0.0000 </r>
       <r>   -14.8100     0.0000     0.0000 </r>
       <r>   -14.8000     0.0000     0.0000 </r>
       <r>   -14.7900     0.0000     0.0000 </r>
       <r>   -14.7800     0.0000     0.0000 </r>
       <r>   -14.7700     0.0000     0.0000 </r>
       <r>   -14.7600     0.0000     0.0000 </r>
       <r>   -14.7500     0.0000     0.0000 </r>
       <r>   -14.7400     0.0000     0.0000 </r>
       <r>   -14.7300     0.0000     0.0000 </r>
       <r>   -14.7200     0.0000     0.0000 </r>
       <r>   -14.7100     0.0000     0.0000 </r>
       <r>   -14.7000     0.0000     0.0000 </r>
       <r>   -14.6900     0.0000     0.0000 </r>
       <r>   -14.6800     0.0000     0.0000 </r>
       <r>   -14.6700     0.0000     0.0000 </r>
       <r>   -14.6600     0.0000     0.0000 </r>
       <r>   -14.6500     0.0000     0.0000 </r>
       <r>   -14.6400     0.0000     0.0000 </r>
       <r>   -14.6300     0.0000     0.0000 </r>
       <r>   -14.6200     0.0000     0.0000 </r>
       <r>   -14.6100     0.0000     0.0000 </r>
       <r>   -14.6000     0.0000     0.0000 </r>
       <r>   -14.5900     0.0000     0.0000 </r>
       <r>   -14.5800     0.0000     0.0000 </r>
       <r>   -14.5700     0.0000     0.0000 </r>
       <r>   -14.5600     0.0000     0.0000 </r>
       <r>   -14.5500     0.0000     0.0000 </r>
       <r>   -14.5400     0.0000     0.0000 </r>
       <r>   -14.5300     0.0000     0.0000 </r>
       <r>   -14.5200     0.0000     0.0000 </r>
       <r>   -14.5100     0.0000     0.0000 </r>
       <r>   -14.5000     0.0000     0.0000 </r>
       <r>   -14.4900     0.0000     0.0000 </r>
       <r>   -14.4800     0.0000     0.0000 </r>
       <r>   -14.4700     0.0000     0.0000 </r>
       <r>   -14.4600     0.0000     0.0000 </r>
       <r>   -14.4500     0.0000     0.0000 </r>
       <r>   -14.4400     0.0000     0.0000 </r>
       <r>   -14.4300     0.0000     0.0000 </r>
       <r>   -14.4200     0.0000     0.0000 </r>
       <r>   -14.4100     0.0000     0.0000 </r>
       <r>   -14.4000     0.0000     0.0000 </r>
       <r>   -14.3900     0.0000     0.0000 </r>
       <r>   -14.3800     0.0000     0.0000 </r>
       <r>   -14.3700     0.0000     0.0000 </r>
       <r>   -14.3600     0.0000     0.0000 </r>
       <r>   -14.3500     0.0000     0.0000 </r>
       <r>   -14.3400     0.0000     0.0000 </r>
       <r>   -14.3300     0.0000     0.0000 </r>
       <r>   -14.3200     0.0000     0.0000 </r>
       <r>   -14.3100     0.0000     0.0000 </r>
       <r>   -14.3000     0.0000     0.0000 </r>
       <r>   -14.2900     0.0000     0.0000 </r>
       <r>   -14.2800     0.0000     0.0000 </r>
       <r>   -14.2700     0.0000     0.0000 </r>
       <r>   -14.2600     0.0000     0.0000 </r>
       <r>   -14.2500     0.0000     0.0000 </r>
       <r>   -14.2400     0.0000     0.0000 </r>
       <r>   -14.2300     0.0000     0.0000 </r>
       <r>   -14.2200     0.0000     0.0000 </r>
       <r>   -14.2100     0.0000     0.0000 </r>
       <r>   -14.2000     0.0000     0.0000 </r>
       <r>   -14.1900     0.0000     0.0000 </r>
       <r>   -14.1800     0.0000     0.0000 </r>
       <r>   -14.1700     0.0000     0.0000 </r>
       <r>   -14.1600     0.0000     0.0000 </r>
       <r>   -14.1500     0.0000     0.0000 </r>
       <r>   -14.1400     0.0000     0.0000 </r>
       <r>   -14.1300     0.0000     0.0000 </r>
       <r>   -14.1200     0.0000     0.0000 </r>
       <r>   -14.1100     0.0000     0.0000 </r>
       <r>   -14.1000     0.0000     0.0000 </r>
       <r>   -14.0900     0.0000     0.0000 </r>
       <r>   -14.0800     0.0000     0.0000 </r>
       <r>   -14.0700     0.0000     0.0000 </r>
       <r>   -14.0600     0.0000     0.0000 </r>
       <r>   -14.0500     0.0000     0.0000 </r>
       <r>   -14.0400     0.0000     0.0000 </r>
       <r>   -14.0300     0.0000     0.0000 </r>
       <r>   -14.0200     0.0000     0.0000 </r>
       <r>   -14.0100     0.0000     0.0000 </r>
       <r>   -14.0000     0.0000     0.0000 </r>
       <r>   -13.9900     0.0000     0.0000 </r>
       <r>   -13.9800     0.0000     0.0000 </r>
       <r>   -13.9700     0.0000     0.0000 </r>
       <r>   -13.9600     0.0000     0.0000 </r>
       <r>   -13.9500     0.0000     0.0000 </r>
       <r>   -13.9400     0.0000     0.0000 </r>
       <r>   -13.9300     0.0000     0.0000 </r>
       <r>   -13.9200     0.0000     0.0000 </r>
       <r>   -13.9100     0.0000     0.0000 </r>
       <r>   -13.9000     0.0000     0.0000 </r>
       <r>   -13.8900     0.0000     0.0000 </r>
       <r>   -13.8800     0.0000     0.0000 </r>
       <r>   -13.8700     0.0000     0.0000 </r>
       <r>   -13.8600     0.0000     0.0000 </r>
       <r>   -13.8500     0.0000     0.0000 </r>
       <r>   -13.8400     0.0000     0.0000 </r>
       <r>   -13.8300     0.0000     0.0000 </r>
       <r>   -13.8200     0.0000     0.0000 </r>
[...]
        <r>  0.0002  0.0003  0.0006  0.0002  0.0097  0.0004  0.1001  0.0341  0.0145 </r>
        <r>  0.0001  0.0011  0.0007  0.0001  0.0376  0.0097  0.0056  0.0021  0.0024 </r>
        <r>  0.0006  0.0000  0.0000  0.0000  0.0000  0.0000  0.0000  0.0000  0.0000 </r>
       </set>
       <set comment="band 19">
        <r>  0.0012  0.0029  0.0008  0.0000  0.1163  0.0063  0.1941  0.0239  0.0235 </r>
        <r>  0.0001  0.0003  0.0002  0.0001  0.0739  0.0846  0.0390  0.0025  0.0114 </r>
        <r>  0.0003  0.0005  0.0005  0.0000  0.2179  0.0063  0.0952  0.0060  0.0145 </r>
        <r>  0.0001  0.0013  0.0001  0.0000  0.0396  0.0091  0.0019  0.0043  0.0023 </r>
        <r>  0.0000  0.0000  0.0000  0.0000  0.0000  0.0000  0.0000  0.0000  0.0000 </r>
       </set>
       <set comment="band 20">
        <r>  0.0016  0.0033  0.0003  0.0000  0.4396  0.0139  0.0512  0.0076  0.0082 </r>
        <r>  0.0000  0.0001  0.0004  0.0000  0.1236  0.0074  0.1452  0.0143  0.0335 </r>
        <r>  0.0000  0.0004  0.0001  0.0000  0.0800  0.0140  0.0104  0.0143  0.0066 </r>
        <r>  0.0000  0.0000  0.0003  0.0000  0.0021  0.0002  0.0027  0.0035  0.0008 </r>
        <r>  0.0002  0.0000  0.0000  0.0000  0.0000  0.0000  0.0000  0.0000  0.0000 </r>
       </set>
       <set comment="band 21">
        <r>  0.0012  0.0036  0.0006  0.0000  0.0100  0.0041  0.0092  0.0003  0.0032 </r>
        <r>  0.0032  0.0114  0.0013  0.0001  0.0192  0.0054  0.0093  0.0003  0.0050 </r>
        <r>  0.0069  0.0231  0.0040  0.0001  0.0401  0.0055  0.0204  0.0024  0.0144 </r>
        <r>  0.0546  0.0740  0.0127  0.0017  0.0876  0.0013  0.0497  0.0216  0.2107 </r>
        <r>  0.0745  0.0012  0.0000  0.0002  0.0000  0.0000  0.0000  0.0000  0.0000 </r>
       </set>
       <set comment="band 22">
        <r>  0.0146  0.0326  0.0041  0.0003  0.0354  0.0108  0.0322  0.0015  0.0238 </r>
        <r>  0.0335  0.0789  0.0017  0.0008  0.0621  0.0003  0.0284  0.0006  0.0420 </r>
        <r>  0.0245  0.0498  0.0027  0.0007  0.0398  0.0081  0.0379  0.0002  0.0343 </r>
        <r>  0.0168  0.0012  0.0136  0.0006  0.0010  0.0109  0.0206  0.0085  0.0674 </r>
        <r>  0.0365  0.0001  0.0000  0.0001  0.0000  0.0000  0.0000  0.0000  0.0000 </r>
       </set>
       <set comment="band 23">
        <r>  0.0324  0.0985  0.0009  0.0010  0.0441  0.0044  0.0046  0.0008  0.0233 </r>
        <r>  0.0156  0.0184  0.0217  0.0004  0.0071  0.0240  0.0186  0.0047  0.0172 </r>
        <r>  0.0212  0.0824  0.0064  0.0009  0.0306  0.0063  0.0056  0.0025  0.0130 </r>
        <r>  0.0049  0.0265  0.0316  0.0002  0.0071  0.0125  0.0043  0.0131  0.0247 </r>
        <r>  0.0480  0.0004  0.0000  0.0001  0.0000  0.0000  0.0000  0.0000  0.0000 </r>
       </set>
       <set comment="band 24">
        <r>  0.0123  0.1003  0.0067  0.0005  0.0187  0.0008  0.0083  0.0010  0.0053 </r>
        <r>  0.0042  0.0491  0.0164  0.0001  0.0078  0.0109  0.0105  0.0025  0.0036 </r>
        <r>  0.0120  0.0103  0.0266  0.0001  0.0016  0.0158  0.0106  0.0037  0.0094 </r>
        <r>  0.0035  0.1431  0.0117  0.0002  0.0201  0.0011  0.0144  0.0045  0.0330 </r>
        <r>  0.0375  0.0030  0.0000  0.0000  0.0000  0.0000  0.0000  0.0000  0.0000 </r>
       </set>
       <set comment="band 25">
        <r>  0.0125  0.0508  0.0125  0.0003  0.0060  0.0023  0.0121  0.0013  0.0113 </r>
        <r>  0.0142  0.1060  0.0143  0.0002  0.0112  0.0008  0.0288  0.0018  0.0219 </r>
        <r>  0.0138  0.0983  0.0201  0.0003  0.0103  0.0012  0.0284  0.0021  0.0217 </r>
        <r>  0.0139  0.0671  0.0138  0.0005  0.0066  0.0009  0.0134  0.0013  0.0213 </r>
        <r>  0.0062  0.0018  0.0001  0.0000  0.0000  0.0000  0.0000  0.0000  0.0000 </r>
       </set>
       <set comment="band 26">
        <r>  0.0775  0.0263  0.0097  0.0019  0.0016  0.0103  0.0087  0.0004  0.0368 </r>
        <r>  0.1385  0.0050  0.0010  0.0044  0.0002  0.0336  0.0063  0.0000  0.0625 </r>
        <r>  0.1027  0.0065  0.0038  0.0033  0.0003  0.0432  0.0055  0.0001  0.0488 </r>
        <r>  0.0306  0.0148  0.0185  0.0006  0.0009  0.0078  0.0033  0.0010  0.0119 </r>
        <r>  0.0029  0.0008  0.0001  0.0000  0.0000  0.0000  0.0000  0.0000  0.0000 </r>
       </set>
       <set comment="band 27">
        <r>  0.1782  0.0200  0.0333  0.0052  0.0009  0.0142  0.0058  0.0009  0.0679 </r>
        <r>  0.0055  0.0152  0.0285  0.0003  0.0008  0.0071  0.0006  0.0008  0.0008 </r>
        <r>  0.0732  0.0121  0.0020  0.0030  0.0006  0.0148  0.0015  0.0000  0.0294 </r>
        <r>  0.0208  0.0145  0.0089  0.0005  0.0007  0.0188  0.0007  0.0005  0.0069 </r>
        <r>  0.0032  0.0014  0.0001  0.0000  0.0000  0.0000  0.0000  0.0000  0.0000 </r>
       </set>
       <set comment="band 28">
        <r>  0.0256  0.0320  0.0683  0.0005  0.0011  0.0261  0.0014  0.0016  0.0100 </r>
        <r>  0.0543  0.0073  0.0130  0.0036  0.0003  0.0501  0.0003  0.0003  0.0223 </r>
        <r>  0.0001  0.0286  0.0552  0.0001  0.0011  0.0125  0.0013  0.0013  0.0006 </r>
        <r>  0.0511  0.0037  0.0182  0.0017  0.0002  0.0251  0.0000  0.0010  0.0139 </r>
        <r>  0.0050  0.0018  0.0008  0.0000  0.0000  0.0000  0.0000  0.0000  0.0000 </r>
       </set>
      </set>
      <set comment="kpoint 31">
       <set comment="band 1">
        <r>  0.0000  0.0000  0.0000  0.0000  0.0000  0.0000  0.0000  0.0000  0.0000 </r>
        <r>  0.0004  0.0000  0.0001  0.0000  0.0000  0.0002  0.0001  0.0000  0.0008 </r>
        <r>  0.0033  0.0026  0.0010  0.0000  0.0000  0.0180  0.0069  0.0000  0.0009 </r>
        <r>  0.1153  0.0010  0.0052  0.0000  0.0000  0.0016  0.0003  0.0000  0.5244 </r>
        <r>  0.1406  0.0000  0.0028  0.0000  0.0000  0.0000  0.0000  0.0000  0.0000 </r>
       </set>
       <set comment="band 2">
        <r>  0.0110  0.0016  0.0023  0.0000  0.0000  0.0140  0.0066  0.0000  0.0287 </r>
        <r>  0.0409  0.0018  0.0004  0.0000  0.0000  0.1016  0.0187  0.0000  0.1494 </r>
        <r>  0.0632  0.0023  0.0009  0.0000  0.0000  0.0067  0.0153  0.0000  0.2760 </r>
        <r>  0.0002  0.0036  0.0017  0.0000  0.0000  0.0781  0.0123  0.0000  0.0055 </r>
        <r>  0.0011  0.0000  0.0000  0.0000  0.0000  0.0000  0.0000  0.0000  0.0000 </r>
       </set>
       <set comment="band 3">
        <r>  0.0000  0.0066  0.0001  0.0000  0.0000  0.0699  0.0028  0.0000  0.0024 </r>
        <r>  0.0466  0.0013  0.0000  0.0000  0.0000  0.1080  0.0009  0.0000  0.2896 </r>
        <r>  0.0097  0.0048  0.0006  0.0000  0.0000  0.1726  0.0000  0.0000  0.0682 </r>
        <r>  0.0002  0.0026  0.0002  0.0000  0.0000  0.0503  0.0004  0.0000  0.0039 </r>
        <r>  0.0007  0.0000  0.0000  0.0000  0.0000  0.0000  0.0000  0.0000  0.0000 </r>
       </set>
       <set comment="band 4">
        <r>  0.0069  0.0006  0.0021  0.0000  0.0000  0.0090  0.0172  0.0000  0.0062 </r>
        <r>  0.0005  0.0004  0.0020  0.0000  0.0000  0.1264  0.0721  0.0000  0.1418 </r>
        <r>  0.0021  0.0001  0.0009  0.0000  0.0000  0.1328  0.0849  0.0000  0.2235 </r>
        <r>  0.0027  0.0004  0.0019  0.0000  0.0000  0.0162  0.0511  0.0000  0.0066 </r>
        <r>  0.0000  0.0000  0.0000  0.0000  0.0000  0.0000  0.0000  0.0000  0.0000 </r>
       </set>
       <set comment="band 5">
        <r>  0.0458  0.0003  0.0016  0.0000  0.0000  0.0079  0.0028  0.0000  0.4520 </r>
        <r>  0.0003  0.0127  0.0007  0.0000  0.0000  0.0779  0.0280  0.0000  0.0165 </r>
        <r>  0.0051  0.0012  0.0017  0.0000  0.0000  0.0360  0.0082  0.0000  0.0140 </r>
        <r>  0.0000  0.0022  0.0001  0.0000  0.0000  0.1424  0.0021  0.0000  0.0019 </r>
        <r>  0.0000  0.0002  0.0000  0.0000  0.0000  0.0000  0.0000  0.0000  0.0000 </r>
       </set>
       <set comment="band 6">
        <r>  0.0026  0.0046  0.0009  0.0000  0.0000  0.1209  0.0470  0.0000  0.1684 </r>
        <r>  0.0016  0.0003  0.0038  0.0000  0.0000  0.1301  0.0605  0.0000  0.0193 </r>
        <r>  0.0005  0.0108  0.0044  0.0000  0.0000  0.0283  0.0042  0.0000  0.0216 </r>
        <r>  0.0011  0.0007  0.0007  0.0000  0.0000  0.2149  0.0410  0.0000  0.0094 </r>
        <r>  0.0001  0.0003  0.0000  0.0000  0.0000  0.0000  0.0000  0.0000  0.0000 </r>
       </set>
       <set comment="band 7">
        <r>  0.0001  0.0022  0.0000  0.0000  0.0000  0.2321  0.0000  0.0000  0.0013 </r>
        <r>  0.0010  0.0121  0.0071  0.0000  0.0000  0.0023  0.0031  0.0000  0.0043 </r>
        <r>  0.0001  0.0005  0.0041  0.0000  0.0000  0.2444  0.0255  0.0000  0.0447 </r>
        <r>  0.0011  0.0013  0.0022  0.0000  0.0000  0.2655  0.0404  0.0000  0.0028 </r>
        <r>  0.0015  0.0006  0.0001  0.0000  0.0000  0.0000  0.0000  0.0000  0.0000 </r>
       </set>
       <set comment="band 8">
        <r>  0.0009  0.0001  0.0002  0.0000  0.0000  0.1814  0.0138  0.0000  0.0665 </r>
        <r>  0.0000  0.0066  0.0006  0.0000  0.0000  0.1297  0.1153  0.0000  0.1059 </r>
        <r>  0.0005  0.0029  0.0011  0.0000  0.0000  0.0320  0.1547  0.0000  0.0859 </r>
        <r>  0.0003  0.0000  0.0006  0.0000  0.0000  0.0001  0.0352  0.0000  0.0060 </r>
        <r>  0.0003  0.0000  0.0000  0.0000  0.0000  0.0000  0.0000  0.0000  0.0000 </r>
       </set>
       <set comment="band 9">
        <r>  0.0000  0.0000  0.0000  0.0001  0.0001  0.0000  0.0000  0.0180  0.0000 </r>
        <r>  0.0000  0.0000  0.0000  0.0002  0.0009  0.0000  0.0000  0.1317  0.0000 </r>
        <r>  0.0000  0.0000  0.0000  0.0001  0.0018  0.0000  0.0000  0.2903  0.0000 </r>
        <r>  0.0000  0.0000  0.0000  0.0001  0.0002  0.0000  0.0000  0.5218  0.0000 </r>
        <r>  0.0000  0.0000  0.0000  0.0019  0.0000  0.0000  0.0000  0.0000  0.0000 </r>
       </set>
       <set comment="band 10">
        <r>  0.0003  0.0001  0.0010  0.0000  0.0000  0.0197  0.0664  0.0000  0.0359 </r>
        <r>  0.0027  0.0098  0.0029  0.0000  0.0000  0.0175  0.1211  0.0000  0.0073 </r>
        <r>  0.0002  0.0228  0.0005  0.0000  0.0000  0.0395  0.0197  0.0000  0.0043 </r>
        <r>  0.0093  0.0008  0.0006  0.0000  0.0000  0.0001  0.5096  0.0000  0.0156 </r>
        <r>  0.0107  0.0000  0.0002  0.0000  0.0000  0.0000  0.0000  0.0000  0.0000 </r>
       </set>
       <set comment="band 11">
        <r>  0.0000  0.0000  0.0000  0.0006  0.0009  0.0000  0.0000  0.1584  0.0000 </r>
        <r>  0.0000  0.0000  0.0000  0.0000  0.0017  0.0000  0.0000  0.4509  0.0000 </r>
        <r>  0.0000  0.0000  0.0000  0.0015  0.0002  0.0000  0.0000  0.0379  0.0000 </r>
        <r>  0.0000  0.0000  0.0000  0.0001  0.0003  0.0000  0.0000  0.3175  0.0000 </r>
        <r>  0.0000  0.0000  0.0000  0.0012  0.0000  0.0000  0.0000  0.0000  0.0000 </r>
       </set>
       <set comment="band 12">
        <r>  0.0094  0.0008  0.0018  0.0000  0.0000  0.0544  0.2933  0.0000  0.0004 </r>
        <r>  0.0000  0.0374  0.0047  0.0000  0.0000  0.0057  0.0008  0.0000  0.0005 </r>
        <r>  0.0091  0.0003  0.0020  0.0000  0.0000  0.0095  0.3134  0.0000  0.0093 </r>
        <r>  0.0014  0.0073  0.0023  0.0000  0.0000  0.0687  0.0673  0.0000  0.0013 </r>
        <r>  0.0051  0.0005  0.0000  0.0000  0.0000  0.0000  0.0000  0.0000  0.0000 </r>
       </set>
       <set comment="band 13">
        <r>  0.0000  0.0000  0.0000  0.0001  0.0003  0.0000  0.0000  0.3779  0.0000 </r>
        <r>  0.0000  0.0000  0.0000  0.0021  0.0000  0.0000  0.0000  0.0126  0.0000 </r>
        <r>  0.0000  0.0000  0.0000  0.0001  0.0000  0.0000  0.0000  0.4543  0.0000 </r>
        <r>  0.0000  0.0000  0.0000  0.0006  0.0164  0.0000  0.0000  0.1144  0.0000 </r>
        <r>  0.0000  0.0000  0.0000  0.0005  0.0000  0.0000  0.0000  0.0000  0.0000 </r>
       </set>
       <set comment="band 14">
        <r>  0.0004  0.0130  0.0000  0.0000  0.0000  0.1476  0.0579  0.0000  0.0020 </r>
        <r>  0.0025  0.0013  0.0000  0.0000  0.0000  0.0476  0.3269  0.0000  0.0092 </r>
        <r>  0.0000  0.0185  0.0003  0.0000  0.0000  0.1197  0.0238  0.0001  0.0049 </r>
        <r>  0.0001  0.0136  0.0081  0.0000  0.0000  0.0187  0.0817  0.0000  0.0023 </r>
        <r>  0.0122  0.0002  0.0000  0.0000  0.0000  0.0000  0.0000  0.0000  0.0000 </r>
       </set>
       <set comment="band 15">
        <r>  0.0000  0.0000  0.0000  0.0000  0.0000  0.0000  0.0000  0.0162  0.0000 </r>
        <r>  0.0000  0.0000  0.0000  0.0000  0.0001  0.0000  0.0000  0.0034  0.0000 </r>
        <r>  0.0000  0.0000  0.0000  0.0000  0.0027  0.0000  0.0000  0.0039  0.0000 </r>
        <r>  0.0000  0.0000  0.0000  0.0000  0.9666  0.0000  0.0000  0.0008  0.0000 </r>
        <r>  0.0000  0.0000  0.0000  0.0000  0.0000  0.0000  0.0000  0.0000  0.0000 </r>
       </set>
       <set comment="band 16">
        <r>  0.0031  0.0020  0.0011  0.0000  0.0000  0.0073  0.3590  0.0000  0.0422 </r>
        <r>  0.0005  0.0028  0.0000  0.0000  0.0000  0.0987  0.1019  0.0000  0.0479 </r>
        <r>  0.0004  0.0002  0.0039  0.0000  0.0000  0.0030  0.1967  0.0000  0.0405 </r>
        <r>  0.0000  0.0119  0.0019  0.0000  0.0000  0.0179  0.0102  0.0000  0.0019 </r>
        <r>  0.0015  0.0004  0.0000  0.0000  0.0000  0.0000  0.0000  0.0000  0.0000 </r>
       </set>
       <set comment="band 17">
        <r>  0.0000  0.0000  0.0000  0.0003  0.0021  0.0000  0.0000  0.3527  0.0000 </r>
        <r>  0.0000  0.0000  0.0000  0.0001  0.0885  0.0000  0.0000  0.3350  0.0000 </r>
        <r>  0.0000  0.0000  0.0000  0.0003  0.0282  0.0000  0.0000  0.1609  0.0000 </r>
        <r>  0.0000  0.0000  0.0000  0.0002  0.0061  0.0000  0.0000  0.0145  0.0000 </r>
        <r>  0.0000  0.0000  0.0000  0.0000  0.0000  0.0000  0.0000  0.0000  0.0000 </r>
       </set>
       <set comment="band 18">
        <r>  0.0000  0.0000  0.0000  0.0000  0.0047  0.0000  0.0000  0.0079  0.0000 </r>
        <r>  0.0000  0.0000  0.0000  0.0000  0.4787  0.0000  0.0000  0.0001  0.0000 </r>
        <r>  0.0000  0.0000  0.0000  0.0000  0.4960  0.0000  0.0000  0.0049  0.0000 </r>
        <r>  0.0000  0.0000  0.0000  0.0000  0.0014  0.0000  0.0000  0.0000  0.0000 </r>
        <r>  0.0000  0.0000  0.0000  0.0000  0.0000  0.0000  0.0000  0.0000  0.0000 </r>
       </set>
       <set comment="band 19">
        <r>  0.0000  0.0000  0.0000  0.0001  0.0159  0.0000  0.0000  0.0429  0.0000 </r>
        <r>  0.0000  0.0000  0.0000  0.0000  0.4104  0.0000  0.0000  0.0340  0.0000 </r>
        <r>  0.0000  0.0000  0.0000  0.0000  0.4645  0.0000  0.0000  0.0197  0.0000 </r>
        <r>  0.0000  0.0000  0.0000  0.0000  0.0031  0.0000  0.0000  0.0038  0.0000 </r>
        <r>  0.0000  0.0000  0.0000  0.0000  0.0000  0.0000  0.0000  0.0000  0.0000 </r>
       </set>
       <set comment="band 20">
        <r>  0.0000  0.0000  0.0000  0.0000  0.9704  0.0000  0.0000  0.0013  0.0000 </r>
        <r>  0.0000  0.0000  0.0000  0.0000  0.0140  0.0000  0.0000  0.0061  0.0000 </r>
        <r>  0.0000  0.0000  0.0000  0.0000  0.0009  0.0000  0.0000  0.0016  0.0000 </r>
        <r>  0.0000  0.0000  0.0000  0.0000  0.0000  0.0000  0.0000  0.0001  0.0000 </r>
        <r>  0.0000  0.0000  0.0000  0.0000  0.0000  0.0000  0.0000  0.0000  0.0000 </r>
       </set>
       <set comment="band 21">
        <r>  0.0012  0.0331  0.0026  0.0000  0.0000  0.0189  0.0368  0.0000  0.0093 </r>
        <r>  0.0013  0.0578  0.0095  0.0000  0.0000  0.0106  0.0189  0.0000  0.0059 </r>
        <r>  0.0000  0.1092  0.0071  0.0000  0.0000  0.0042  0.0005  0.0000  0.0004 </r>
        <r>  0.0055  0.1027  0.0308  0.0000  0.0000  0.0011  0.0029  0.0000  0.0737 </r>
        <r>  0.0721  0.0016  0.0000  0.0000  0.0000  0.0000  0.0000  0.0000  0.0000 </r>
       </set>
       <set comment="band 22">
        <r>  0.0023  0.0326  0.0026  0.0000  0.0000  0.0068  0.0180  0.0000  0.0078 </r>
        <r>  0.0000  0.0579  0.0033  0.0000  0.0000  0.0000  0.0001  0.0000  0.0001 </r>
        <r>  0.0017  0.0263  0.0038  0.0000  0.0000  0.0068  0.0084  0.0000  0.0056 </r>
        <r>  0.0703  0.0021  0.0169  0.0000  0.0000  0.0099  0.0953  0.0000  0.2750 </r>
        <r>  0.1187  0.0002  0.0000  0.0000  0.0000  0.0000  0.0000  0.0000  0.0000 </r>
       </set>
       <set comment="band 23">
        <r>  0.0032  0.0776  0.0025  0.0000  0.0000  0.0047  0.0101  0.0000  0.0065 </r>
        <r>  0.0177  0.0628  0.0001  0.0000  0.0000  0.0086  0.0390  0.0000  0.0290 </r>
        <r>  0.0387  0.0151  0.0001  0.0000  0.0000  0.0175  0.0864  0.0000  0.0636 </r>
        <r>  0.0135  0.1256  0.0028  0.0000  0.0000  0.0005  0.0090  0.0000  0.0324 </r>
        <r>  0.0134  0.0029  0.0000  0.0000  0.0000  0.0000  0.0000  0.0000  0.0000 </r>
       </set>
       <set comment="band 24">
        <r>  0.0010  0.0792  0.0005  0.0000  0.0000  0.0007  0.0014  0.0000  0.0015 </r>
        <r>  0.0580  0.0001  0.0002  0.0000  0.0000  0.0095  0.0683  0.0000  0.0733 </r>
        <r>  0.0168  0.1077  0.0177  0.0000  0.0000  0.0025  0.0204  0.0000  0.0211 </r>
        <r>  0.0065  0.1129  0.0263  0.0000  0.0000  0.0012  0.0111  0.0000  0.0039 </r>
        <r>  0.0066  0.0027  0.0001  0.0000  0.0000  0.0000  0.0000  0.0000  0.0000 </r>
       </set>
       <set comment="band 25">
        <r>  0.0350  0.1470  0.0157  0.0000  0.0000  0.0000  0.0352  0.0000  0.0438 </r>
        <r>  0.0035  0.1161  0.0528  0.0000  0.0000  0.0006  0.0031  0.0000  0.0034 </r>
        <r>  0.0080  0.0591  0.0295  0.0000  0.0000  0.0011  0.0063  0.0000  0.0089 </r>
        <r>  0.0057  0.0196  0.0108  0.0000  0.0000  0.0007  0.0053  0.0000  0.0040 </r>
        <r>  0.0017  0.0005  0.0000  0.0000  0.0000  0.0000  0.0000  0.0000  0.0000 </r>
       </set>
       <set comment="band 26">
        <r>  0.0991  0.0218  0.0008  0.0000  0.0000  0.0066  0.0076  0.0000  0.0462 </r>
        <r>  0.1072  0.0002  0.0039  0.0000  0.0000  0.0571  0.0051  0.0000  0.0524 </r>
        <r>  0.1482  0.0010  0.0023  0.0000  0.0000  0.0404  0.0078  0.0000  0.0700 </r>
        <r>  0.0255  0.0123  0.0155  0.0000  0.0000  0.0113  0.0021  0.0000  0.0089 </r>
        <r>  0.0026  0.0007  0.0001  0.0000  0.0000  0.0000  0.0000  0.0000  0.0000 </r>
       </set>
       <set comment="band 27">
        <r>  0.2276  0.0033  0.0329  0.0000  0.0000  0.0019  0.0044  0.0000  0.0834 </r>
        <r>  0.0057  0.0367  0.0087  0.0000  0.0000  0.0066  0.0001  0.0000  0.0018 </r>
        <r>  0.0367  0.0013  0.0121  0.0000  0.0000  0.0352  0.0002  0.0000  0.0151 </r>
        <r>  0.0357  0.0069  0.0198  0.0000  0.0000  0.0141  0.0010  0.0000  0.0103 </r>
        <r>  0.0040  0.0008  0.0002  0.0000  0.0000  0.0000  0.0000  0.0000  0.0000 </r>
       </set>
       <set comment="band 28">
        <r>  0.0110  0.0238  0.0617  0.0000  0.0000  0.0368  0.0001  0.0000  0.0024 </r>
        <r>  0.1444  0.0013  0.0080  0.0000  0.0000  0.0094  0.0002  0.0000  0.0475 </r>
        <r>  0.0344  0.0382  0.0378  0.0000  0.0000  0.0004  0.0000  0.0000  0.0104 </r>
        <r>  0.0194  0.0090  0.0049  0.0000  0.0000  0.0537  0.0000  0.0000  0.0052 </r>
        <r>  0.0024  0.0031  0.0002  0.0000  0.0000  0.0000  0.0000  0.0000  0.0000 </r>
       </set>
      </set>
     </set>
    </set>
   </array>
  </projected>
 </calculation>
 <structure name="finalpos" >
  <crystal>
   <varray name="basis" >
    <v>       2.57386868       0.00000000       0.00000000 </v>
    <v>       1.28693434       2.22903567       0.00000000 </v>
    <v>       0.00000000       0.00000000      30.30466494 </v>
   </varray>
   <i name="volume">    173.86529028 </i>
   <varray name="rec_basis" >
    <v>       0.38852021      -0.22431225       0.00000000 </v>
    <v>       0.00000000       0.44862450       0.00000000 </v>
    <v>       0.00000000       0.00000000       0.03299822 </v>
   </varray>
  </crystal>
  <varray name="positions" >
   <v>       0.99970615       0.00058770       0.39656700 </v>
   <v>       0.33318627       0.33362409       0.46513961 </v>
   <v>       0.66582910       0.66834283       0.53359442 </v>
   <v>       0.00080079       0.99839841       0.60421589 </v>
   <v>       0.52290732       0.95418198       0.63750284 </v>
  </varray>
 </structure>
</modeling>
