unknown system                          
   1.00000000000000     
     2.573869    0.000000    0.000000
     1.286934    2.229036    0.000000
     0.000000    0.000000   30.304665
   Cu   H 
     4     1
Direct
  0.000000  0.000000  0.395979
  0.333333  0.333333  0.465326
  0.666667  0.666667  0.534674
  0.000000  0.000000  0.604021
  0.977569  0.044862  0.663418
 
   20   20  240
 -.59580E-02 -.56563E-02 -.43576E-02 -.23971E-02 -.40400E-03 0.96507E-03 0.12892E-02 0.53325E-03 -.91248E-03 -.23242E-02
 -.29351E-02 -.23673E-02 -.91959E-03 0.57647E-03 0.12840E-02 0.85587E-03 -.48368E-03 -.22388E-02 -.39583E-02 -.53025E-02
 -.55854E-02 -.49534E-02 -.29618E-02 -.42560E-03 0.13354E-02 0.13414E-02 -.45022E-03 -.31515E-02 -.54380E-02 -.62132E-02
 -.51529E-02 -.28830E-02 -.62088E-03 0.57839E-03 0.44866E-03 -.50653E-03 -.16321E-02 -.26942E-02 -.38248E-02 -.49745E-02
 -.42185E-02 -.30114E-02 -.96821E-03 0.79533E-03 0.94462E-03 -.12756E-02 -.54979E-02 -.10272E-01 -.13701E-01 -.14385E-01
 -.12162E-01 -.81780E-02 -.41811E-02 -.15059E-02 -.48590E-03 -.65169E-03 -.13875E-02 -.23661E-02 -.34303E-02 -.42375E-02
 -.18787E-02 -.89673E-03 -.80119E-04 -.23914E-03 -.24111E-02 -.72500E-02 -.14244E-01 -.21459E-01 -.26253E-01 -.26646E-01
 -.22445E-01 -.15334E-01 -.79239E-02 -.24330E-02 0.19706E-03 0.36708E-03 -.75774E-03 -.19978E-02 -.26516E-02 -.25590E-02
 0.28807E-03 0.28777E-03 -.64845E-03 -.32884E-02 -.87213E-02 -.17364E-01 -.27869E-01 -.37098E-01 -.41518E-01 -.39150E-01
 -.30719E-01 -.19271E-01 -.86018E-02 -.15020E-02 0.12804E-02 0.93107E-03 -.47905E-03 -.13037E-02 -.10755E-02 -.30578E-03
 0.14750E-02 0.72875E-03 -.20277E-02 -.81248E-02 -.18352E-01 -.31671E-01 -.44764E-01 -.53197E-01 -.53666E-01 -.45838E-01
 -.32542E-01 -.18268E-01 -.69936E-02 -.61111E-03 0.13596E-02 0.87985E-03 0.77598E-05 -.13812E-03 0.44543E-03 0.11815E-02
 0.18303E-02 0.64843E-03 -.44860E-02 -.14945E-01 -.29991E-01 -.46227E-01 -.58622E-01 -.62801E-01 -.57310E-01 -.44362E-01
 -.28578E-01 -.14596E-01 -.51036E-02 -.33288E-03 0.10885E-02 0.86948E-03 0.26344E-03 -.36726E-04 0.28626E-03 0.11615E-02
 0.12802E-02 -.73965E-03 -.84632E-02 -.22146E-01 -.39151E-01 -.54585E-01 -.63296E-01 -.62297E-01 -.52259E-01 -.37071E-01
 -.21731E-01 -.99412E-02 -.29387E-02 0.10354E-04 0.32861E-03 -.73099E-03 -.21219E-02 -.28048E-02 -.20290E-02 -.74613E-04
 -.59433E-03 -.35644E-02 -.12465E-01 -.26285E-01 -.41567E-01 -.53513E-01 -.57960E-01 -.53328E-01 -.41442E-01 -.26591E-01
 -.13378E-01 -.47191E-02 -.11654E-02 -.15566E-02 -.40958E-02 -.70096E-02 -.87588E-02 -.83013E-02 -.56288E-02 -.21857E-02
 -.30026E-02 -.60050E-02 -.14036E-01 -.25503E-01 -.37111E-01 -.44866E-01 -.45724E-01 -.39115E-01 -.27374E-01 -.14724E-01
 -.53532E-02 -.16694E-02 -.35918E-02 -.89938E-02 -.14850E-01 -.18478E-01 -.18445E-01 -.14935E-01 -.95612E-02 -.47594E-02
 -.39855E-02 -.62395E-02 -.12618E-01 -.21080E-01 -.28584E-01 -.32122E-01 -.30021E-01 -.22824E-01 -.13243E-01 -.51278E-02
 -.18825E-02 -.49578E-02 -.13114E-01 -.22905E-01 -.30253E-01 -.32341E-01 -.28742E-01 -.21275E-01 -.12895E-01 -.64661E-02
 -.27650E-02 -.45766E-02 -.95569E-02 -.15033E-01 -.18449E-01 -.18304E-01 -.14633E-01 -.89446E-02 -.37690E-02 -.19298E-02
 -.55241E-02 -.14783E-01 -.27438E-01 -.39293E-01 -.46022E-01 -.45223E-01 -.37463E-01 -.25781E-01 -.14149E-01 -.59016E-02
 -.65924E-03 -.24146E-02 -.59061E-02 -.85017E-02 -.88202E-02 -.69425E-02 -.39688E-02 -.14755E-02 -.12242E-02 -.49331E-02
 -.13669E-01 -.26865E-01 -.41693E-01 -.53641E-01 -.58389E-01 -.53980E-01 -.41892E-01 -.26358E-01 -.12356E-01 -.34667E-02
 0.84934E-03 -.42131E-03 -.22418E-02 -.30086E-02 -.24032E-02 -.99255E-03 0.24182E-03 0.86707E-04 -.28940E-02 -.10092E-01
 -.22051E-01 -.37433E-01 -.52627E-01 -.62733E-01 -.63795E-01 -.54995E-01 -.39330E-01 -.22166E-01 -.85594E-02 -.10547E-02
 0.14738E-02 0.97582E-03 0.79159E-04 -.49154E-03 -.42311E-03 0.22060E-03 0.72749E-03 -.41346E-03 -.51184E-02 -.14730E-01
 -.28858E-01 -.44732E-01 -.57738E-01 -.63268E-01 -.59051E-01 -.46529E-01 -.30190E-01 -.15195E-01 -.48941E-02 0.16946E-03
 0.11547E-02 0.79427E-03 -.11484E-03 -.90511E-03 -.87628E-03 0.56221E-04 0.75773E-03 -.94529E-03 -.71517E-02 -.18410E-01
 -.32787E-01 -.46200E-01 -.54074E-01 -.53567E-01 -.45073E-01 -.31960E-01 -.18677E-01 -.84975E-02 -.24072E-02 0.38643E-03
 -.50098E-03 -.12083E-02 -.18973E-02 -.20104E-02 -.11883E-02 0.15783E-03 0.56556E-03 -.19804E-02 -.88287E-02 -.19418E-01
 -.30952E-01 -.39464E-01 -.41807E-01 -.37327E-01 -.28108E-01 -.17665E-01 -.90350E-02 -.35645E-02 -.96810E-03 -.24031E-03
 -.30692E-02 -.35913E-02 -.33163E-02 -.24296E-02 -.12423E-02 -.27128E-03 -.42834E-03 -.28452E-02 -.81222E-02 -.15475E-01
 -.22633E-01 -.26845E-01 -.26404E-01 -.21599E-01 -.14440E-01 -.74895E-02 -.26488E-02 -.54971E-03 -.66935E-03 -.18778E-02
 -.51170E-02 -.49518E-02 -.39296E-02 -.27613E-02 -.17973E-02 -.10850E-02 -.85957E-03 -.17540E-02 -.43211E-02 -.82737E-02
 -.12253E-01 -.14474E-01 -.13786E-01 -.10368E-01 -.56254E-02 -.14577E-02 0.65555E-03 0.31255E-03 -.16978E-02 -.39187E-02
 -.58998E-02 -.54735E-02 -.43975E-02 -.31501E-02 -.18906E-02 -.64482E-03 0.32418E-03 0.45471E-03 -.69289E-03 -.28967E-02
 -.51671E-02 -.62665E-02 -.54983E-02 -.31860E-02 -.51105E-03 0.11579E-02 0.10190E-02 -.76168E-03 -.32111E-02 -.51587E-02
 0.15400E-02 0.15438E-02 0.13408E-02 0.10317E-02 0.78219E-03 0.65028E-03 0.54765E-03 0.38222E-03 0.19192E-03 0.93936E-04
 0.12382E-03 0.18585E-03 0.18207E-03 0.14549E-03 0.19988E-03 0.40409E-03 0.68782E-03 0.95055E-03 0.11719E-02 0.13802E-02
 0.12816E-02 0.95941E-03 0.10958E-02 0.14674E-02 0.15114E-02 0.85311E-03 -.31769E-03 -.13462E-02 -.15973E-02 -.92920E-03
 0.20036E-03 0.10595E-02 0.11559E-02 0.57536E-03 -.99374E-04 -.24089E-03 0.33340E-03 0.12263E-02 0.18060E-02 0.17453E-02
 0.81131E-03 0.69265E-03 0.10515E-02 0.13483E-02 0.10319E-02 0.62297E-04 -.10681E-02 -.17496E-02 -.16803E-02 -.99754E-03
 -.13870E-03 0.41678E-03 0.42180E-03 0.44330E-04 -.21292E-03 0.92728E-04 0.91520E-03 0.16981E-02 0.18680E-02 0.13917E-02
 0.86908E-03 0.71669E-03 0.52813E-03 0.25855E-03 -.29002E-04 -.25771E-03 -.48817E-03 -.87884E-03 -.14501E-02 -.19443E-02
 -.20050E-02 -.15121E-02 -.70116E-03 0.64174E-04 0.59457E-03 0.93032E-03 0.11577E-02 0.12677E-02 0.12170E-02 0.10487E-02
 0.11525E-02 0.48494E-03 -.32626E-03 -.74196E-03 -.58797E-03 -.24013E-03 -.32875E-03 -.11849E-02 -.24900E-02 -.34446E-02
 -.33510E-02 -.21506E-02 -.48356E-03 0.77762E-03 0.11474E-02 0.81511E-03 0.40190E-03 0.41503E-03 0.85145E-03 0.12552E-02
 0.99559E-03 0.19180E-03 -.57995E-03 -.10097E-02 -.12131E-02 -.15200E-02 -.21093E-02 -.28362E-02 -.33348E-02 -.32496E-02
 -.24531E-02 -.11745E-02 0.50798E-04 0.67635E-03 0.54781E-03 0.64709E-04 -.13277E-03 0.26722E-03 0.96027E-03 0.13214E-02
 0.64851E-03 0.41079E-03 -.16199E-03 -.12029E-02 -.25487E-02 -.36780E-02 -.40468E-02 -.35404E-02 -.25653E-02 -.16741E-02
 -.11219E-02 -.79542E-03 -.49504E-03 -.18190E-03 0.62636E-04 0.21496E-03 0.34803E-03 0.51061E-03 0.65546E-03 0.71119E-03
 0.60852E-03 0.77253E-03 0.26943E-04 -.15969E-02 -.33729E-02 -.43613E-02 -.41070E-02 -.29709E-02 -.18030E-02 -.12466E-02
 -.12803E-02 -.13609E-02 -.98035E-03 -.11969E-03 0.76309E-03 0.11439E-02 0.86953E-03 0.27682E-03 -.81001E-04 0.10651E-03
 0.45732E-03 0.39882E-03 -.30909E-03 -.14452E-02 -.25453E-02 -.32121E-02 -.33063E-02 -.29561E-02 -.24307E-02 -.19454E-02
 -.15069E-02 -.93601E-03 -.98269E-04 0.84941E-03 0.14797E-02 0.14392E-02 0.81000E-03 0.10230E-03 -.16444E-03 0.91156E-04
 -.28763E-03 -.55084E-03 -.60980E-03 -.72646E-03 -.12541E-02 -.22192E-02 -.31421E-02 -.33753E-02 -.26688E-02 -.13886E-02
 -.17586E-03 0.57339E-03 0.89588E-03 0.10315E-02 0.11263E-02 0.11701E-02 0.11101E-02 0.92257E-03 0.59690E-03 0.15370E-03
 -.91490E-03 -.10802E-02 -.74041E-03 -.56126E-03 -.10389E-02 -.19854E-02 -.26364E-02 -.23225E-02 -.10843E-02 0.34805E-03
 0.11723E-02 0.11437E-02 0.68273E-03 0.44808E-03 0.79632E-03 0.15432E-02 0.21327E-02 0.20469E-02 0.11856E-02 -.25691E-04
 -.50927E-03 -.89480E-03 -.10492E-02 -.11418E-02 -.12095E-02 -.11486E-02 -.83674E-03 -.27521E-03 0.35847E-03 0.79773E-03
 0.87687E-03 0.69065E-03 0.56874E-03 0.83274E-03 0.15071E-02 0.22422E-02 0.25502E-02 0.21716E-02 0.12606E-02 0.24275E-03
 0.46859E-03 -.49584E-03 -.12104E-02 -.11965E-02 -.49566E-03 0.31106E-03 0.61837E-03 0.33699E-03 -.78651E-04 -.99928E-04
 0.41828E-03 0.12024E-02 0.18650E-02 0.21839E-02 0.21571E-02 0.19229E-02 0.16704E-02 0.15305E-02 0.14464E-02 0.11638E-02
 0.94026E-03 -.20561E-04 -.53397E-03 -.25769E-03 0.42243E-03 0.75428E-03 0.36313E-03 -.36451E-03 -.63513E-03 0.24026E-04
 0.13573E-02 0.26108E-02 0.31150E-02 0.27141E-02 0.17929E-02 0.98260E-03 0.75751E-03 0.11282E-02 0.16207E-02 0.16288E-02
 0.88690E-03 0.72988E-03 0.59985E-03 0.50292E-03 0.36624E-03 0.14892E-03 -.50138E-04 -.13112E-04 0.43419E-03 0.12464E-02
 0.21288E-02 0.26988E-02 0.27223E-02 0.22531E-02 0.15794E-02 0.10323E-02 0.79356E-03 0.82496E-03 0.94524E-03 0.98230E-03
 0.95773E-03 0.13794E-02 0.11133E-02 0.44350E-03 0.96623E-05 0.20079E-03 0.83042E-03 0.13794E-02 0.15065E-02 0.13116E-02
 0.11635E-02 0.13396E-02 0.18128E-02 0.22882E-02 0.23957E-02 0.19225E-02 0.10000E-02 0.10663E-03 -.21613E-03 0.20162E-03
 0.10985E-02 0.13857E-02 0.98565E-03 0.46107E-03 0.44200E-03 0.98280E-03 0.15383E-02 0.15391E-02 0.94853E-03 0.27820E-03
 0.12901E-03 0.72263E-03 0.17666E-02 0.26509E-02 0.28023E-02 0.20373E-02 0.74391E-03 -.29805E-03 -.45563E-03 0.23957E-03
 0.92037E-03 0.11188E-02 0.11385E-02 0.10582E-02 0.95868E-03 0.83596E-03 0.65641E-03 0.46002E-03 0.36827E-03 0.48324E-03
 0.79613E-03 0.11949E-02 0.15353E-02 0.16936E-02 0.15916E-02 0.12377E-02 0.77029E-03 0.42133E-03 0.37029E-03 0.60206E-03
 0.78016E-03 0.13073E-02 0.16691E-02 0.13963E-02 0.57338E-03 -.19978E-03 -.32016E-03 0.31571E-03 0.12482E-02 0.18301E-02
 0.16935E-02 0.96921E-03 0.16296E-03 -.19090E-03 0.11482E-03 0.81497E-03 0.13667E-02 0.13847E-02 0.97412E-03 0.63521E-03
 0.11527E-02 0.17053E-02 0.17690E-02 0.10974E-02 0.15563E-03 -.29740E-03 0.98707E-04 0.10150E-02 0.17492E-02 0.17767E-02
 0.10674E-02 0.35925E-04 -.72624E-03 -.77619E-03 -.93058E-04 0.86353E-03 0.14542E-02 0.13771E-02 0.94349E-03 0.77376E-03
 0.63176E-02 0.61823E-02 0.48939E-02 0.28509E-02 0.87432E-03 -.34386E-03 -.57427E-03 0.55560E-04 0.12566E-02 0.25530E-02
 0.32514E-02 0.27806E-02 0.12428E-02 -.46559E-03 -.12697E-02 -.72889E-03 0.76702E-03 0.25325E-02 0.41570E-02 0.55001E-02
 0.54851E-02 0.44728E-02 0.32020E-02 0.19360E-02 0.79525E-03 -.17103E-04 -.85623E-04 0.99012E-03 0.31107E-02 0.54092E-02
 0.66095E-02 0.58721E-02 0.34650E-02 0.67054E-03 -.10313E-02 -.86815E-03 0.87504E-03 0.31956E-02 0.50365E-02 0.58010E-02
 0.35294E-02 0.23778E-02 0.14805E-02 0.83554E-03 0.66773E-03 0.16491E-02 0.43528E-02 0.84445E-02 0.12497E-01 0.14722E-01
 0.14041E-01 0.10686E-01 0.60201E-02 0.18476E-02 -.39025E-03 -.23037E-03 0.16252E-02 0.37432E-02 0.48555E-02 0.46040E-02
 0.18529E-02 0.83529E-03 0.54395E-04 0.26783E-03 0.26714E-02 0.80421E-02 0.15616E-01 0.22930E-01 0.27088E-01 0.26492E-01
 0.21662E-01 0.14658E-01 0.78324E-02 0.28829E-02 0.50402E-03 0.40990E-03 0.15773E-02 0.27698E-02 0.31856E-02 0.27558E-02
 0.84017E-03 -.23929E-03 -.45594E-03 0.21272E-02 0.89709E-02 0.19628E-01 0.31241E-01 0.39698E-01 0.41853E-01 0.37229E-01
 0.28043E-01 0.17711E-01 0.90591E-02 0.33797E-02 0.56256E-03 -.22207E-03 0.10638E-03 0.83244E-03 0.14390E-02 0.15146E-02
 -.16852E-03 -.71466E-03 0.11323E-02 0.74211E-02 0.18670E-01 0.32955E-01 0.46241E-01 0.54019E-01 0.53490E-01 0.45033E-01
 0.31958E-01 0.18661E-01 0.84089E-02 0.22274E-02 -.63316E-03 -.14339E-02 -.10887E-02 -.18865E-03 0.61340E-03 0.64481E-03
 -.87890E-03 0.29952E-03 0.51686E-02 0.14889E-01 0.28915E-01 0.44560E-01 0.57455E-01 0.63105E-01 0.59108E-01 0.46705E-01
 0.30356E-01 0.15355E-01 0.51202E-02 0.96543E-04 -.13076E-02 -.99615E-03 -.20689E-03 0.39691E-03 0.38544E-03 -.29601E-03
 -.20568E-03 0.28332E-02 0.10194E-01 0.22175E-01 0.37363E-01 0.52347E-01 0.62463E-01 0.63739E-01 0.55140E-01 0.39538E-01
 0.22394E-01 0.88965E-02 0.15286E-02 -.39026E-03 0.68123E-03 0.23085E-02 0.30646E-02 0.25636E-02 0.11592E-02 -.22818E-03
 0.14814E-02 0.52328E-02 0.14001E-01 0.27125E-01 0.41785E-01 0.53578E-01 0.58275E-01 0.53905E-01 0.41889E-01 0.26431E-01
 0.12519E-01 0.37175E-02 0.94069E-03 0.26483E-02 0.60777E-02 0.86870E-02 0.91005E-02 0.73058E-02 0.43236E-02 0.17620E-02
 0.24636E-02 0.59561E-02 0.15151E-01 0.27788E-01 0.39574E-01 0.46124E-01 0.45135E-01 0.37332E-01 0.25773E-01 0.14282E-01
 0.60541E-02 0.28501E-02 0.46567E-02 0.97596E-02 0.15391E-01 0.18877E-01 0.18723E-01 0.15068E-01 0.94584E-02 0.43427E-02
 0.22153E-02 0.51354E-02 0.13300E-01 0.23190E-01 0.30533E-01 0.32472E-01 0.28772E-01 0.21409E-01 0.13236E-01 0.68808E-02
 0.42872E-02 0.64489E-02 0.12944E-01 0.21647E-01 0.29259E-01 0.32681E-01 0.30419E-01 0.23213E-01 0.13730E-01 0.56184E-02
 0.17801E-02 0.36523E-02 0.91235E-02 0.15078E-01 0.18743E-01 0.18720E-01 0.15288E-01 0.10060E-01 0.53522E-02 0.35605E-02
 0.64850E-02 0.14549E-01 0.26177E-01 0.37916E-01 0.45623E-01 0.46294E-01 0.39521E-01 0.27724E-01 0.15053E-01 0.55924E-02
 0.15386E-02 0.19231E-02 0.44263E-02 0.73456E-02 0.91718E-02 0.88026E-02 0.61487E-02 0.26515E-02 0.10101E-02 0.39992E-02
 0.12976E-01 0.26878E-01 0.42224E-01 0.54226E-01 0.58707E-01 0.54043E-01 0.42034E-01 0.27028E-01 0.13720E-01 0.50604E-02
 0.80481E-03 0.39792E-03 0.13129E-02 0.26819E-02 0.34378E-02 0.26423E-02 0.50296E-03 -.10435E-02 0.96395E-03 0.88276E-02
 0.22619E-01 0.39624E-01 0.55080E-01 0.63958E-01 0.63178E-01 0.53185E-01 0.37817E-01 0.22277E-01 0.10490E-01 0.36548E-02
 -.17120E-03 -.22614E-04 0.52315E-03 0.85755E-03 0.55940E-03 -.42944E-03 -.13017E-02 -.23579E-03 0.49437E-02 0.15490E-01
 0.30534E-01 0.46729E-01 0.59194E-01 0.63572E-01 0.58223E-01 0.45195E-01 0.29195E-01 0.15110E-01 0.57424E-02 0.11754E-02
 -.23890E-04 0.95393E-03 0.11618E-02 0.61176E-03 -.11690E-03 -.44083E-03 0.23218E-03 0.28896E-02 0.88946E-02 0.19064E-01
 0.32369E-01 0.45477E-01 0.53923E-01 0.54367E-01 0.46460E-01 0.33058E-01 0.18706E-01 0.74386E-02 0.11594E-02 -.65378E-03
 0.15341E-02 0.25105E-02 0.22732E-02 0.14614E-02 0.90744E-03 0.95721E-03 0.17906E-02 0.41688E-02 0.93778E-02 0.18002E-01
 0.28622E-01 0.37877E-01 0.42146E-01 0.39594E-01 0.31122E-01 0.19767E-01 0.91754E-02 0.20772E-02 -.66680E-03 -.13317E-03
 0.33038E-02 0.39460E-02 0.37103E-02 0.29403E-02 0.19702E-02 0.11056E-02 0.10255E-02 0.28865E-02 0.75941E-02 0.14704E-01
 0.22075E-01 0.26847E-01 0.27088E-01 0.22837E-01 0.15888E-01 0.87038E-02 0.33127E-02 0.67611E-03 0.57005E-03 0.18908E-02
 0.45989E-02 0.53257E-02 0.51899E-02 0.38893E-02 0.17628E-02 -.13187E-03 -.46381E-03 0.16059E-02 0.57917E-02 0.10626E-01
 0.14117E-01 0.14809E-01 0.12589E-01 0.86793E-02 0.48318E-02 0.23108E-02 0.13968E-02 0.16402E-02 0.24645E-02 0.35240E-02
 0.57132E-02 0.63921E-02 0.57586E-02 0.36709E-02 0.10390E-02 -.73586E-03 -.72360E-03 0.10062E-02 0.35567E-02 0.57270E-02
 0.65204E-02 0.55563E-02 0.33211E-02 0.99666E-03 -.24597E-03 -.28113E-04 0.11048E-02 0.23548E-02 0.34253E-02 0.45294E-02
 -.13113E-02 -.61218E-03 -.31009E-03 -.38185E-03 -.32934E-03 0.77739E-04 0.48923E-03 0.48995E-03 0.19068E-03 0.63755E-04
 0.26869E-03 0.42808E-03 0.17249E-03 -.31856E-03 -.55727E-03 -.44687E-03 -.44763E-03 -.93590E-03 -.16157E-02 -.18145E-02
 -.13507E-02 -.12454E-02 -.77297E-03 -.65487E-04 0.49997E-03 0.51350E-03 -.68155E-04 -.72343E-03 -.71840E-03 0.20238E-03
 0.14746E-02 0.21489E-02 0.17226E-02 0.54644E-03 -.56672E-03 -.10754E-02 -.10518E-02 -.91522E-03 -.96509E-03 -.11830E-02
 -.18477E-02 -.17418E-02 -.85946E-03 0.62896E-04 0.38504E-03 0.14212E-03 -.11341E-03 0.97207E-04 0.81067E-03 0.17055E-02
 0.23581E-02 0.24143E-02 0.17318E-02 0.55656E-03 -.48683E-03 -.81349E-03 -.43311E-03 -.15671E-04 -.25170E-03 -.11143E-02
 -.14594E-02 -.11176E-02 -.53785E-03 -.13462E-03 0.23976E-03 0.10224E-02 0.21852E-02 0.30659E-02 0.30752E-02 0.23771E-02
 0.16560E-02 0.12955E-02 0.10495E-02 0.57240E-03 0.29417E-05 -.22913E-03 -.74739E-04 -.23934E-04 -.47593E-03 -.11673E-02
 -.76814E-04 -.15602E-03 -.33262E-03 -.84709E-04 0.10849E-02 0.29915E-02 0.46407E-02 0.49886E-02 0.39058E-02 0.23066E-02
 0.12664E-02 0.10696E-02 0.11595E-02 0.90204E-03 0.22988E-03 -.45332E-03 -.79437E-03 -.76497E-03 -.52525E-03 -.24108E-03
 0.61055E-03 0.74516E-04 -.11126E-03 0.58370E-03 0.20619E-02 0.37078E-02 0.48342E-02 0.50762E-02 0.45159E-02 0.35552E-02
 0.26457E-02 0.20051E-02 0.14985E-02 0.82074E-03 -.12092E-03 -.99055E-03 -.12596E-02 -.73116E-03 0.17944E-03 0.75269E-03
 0.11656E-03 0.15574E-03 0.69751E-03 0.14836E-02 0.22256E-02 0.30491E-02 0.42140E-02 0.54751E-02 0.60394E-02 0.53343E-02
 0.36800E-02 0.20049E-02 0.93247E-03 0.34228E-03 -.15455E-03 -.56782E-03 -.58258E-03 -.14995E-03 0.29448E-03 0.33579E-03
 -.81429E-04 0.93373E-03 0.18621E-02 0.22996E-02 0.25283E-02 0.32751E-02 0.47664E-02 0.61832E-02 0.63071E-02 0.47525E-02
 0.24188E-02 0.65478E-03 0.78945E-04 0.28060E-03 0.50939E-03 0.40517E-03 0.55079E-04 -.35401E-03 -.66874E-03 -.65482E-03
 0.44723E-03 0.15635E-02 0.24694E-02 0.31679E-02 0.38526E-02 0.45939E-02 0.51275E-02 0.49938E-02 0.39496E-02 0.22824E-02
 0.70307E-03 -.13149E-03 -.77263E-04 0.43301E-03 0.75067E-03 0.48946E-03 -.23500E-03 -.93561E-03 -.11134E-02 -.58245E-03
 0.28644E-03 0.92926E-03 0.21915E-02 0.37743E-02 0.48292E-02 0.47226E-02 0.36675E-02 0.24671E-02 0.16863E-02 0.12324E-02
 0.74970E-03 0.19767E-03 -.14478E-03 -.15273E-03 -.75265E-04 -.19533E-03 -.44251E-03 -.51687E-03 -.31874E-03 -.29157E-04
 -.76238E-03 -.19033E-03 0.14813E-02 0.32652E-02 0.39181E-02 0.31768E-02 0.19921E-02 0.14629E-02 0.16972E-02 0.18716E-02
 0.12937E-02 0.15481E-03 -.80186E-03 -.11029E-02 -.84802E-03 -.35991E-03 0.13614E-03 0.43208E-03 0.26807E-03 -.33580E-03
 -.88688E-03 -.36223E-03 0.70327E-03 0.16777E-02 0.20744E-02 0.19651E-02 0.17896E-02 0.17998E-02 0.17851E-02 0.13682E-02
 0.48697E-03 -.48944E-03 -.10883E-02 -.11018E-02 -.65627E-03 -.51438E-04 0.38770E-03 0.40269E-03 -.51579E-04 -.66457E-03
 0.42384E-03 0.17286E-03 -.20155E-04 0.30144E-03 0.10827E-02 0.17069E-02 0.15954E-02 0.79844E-03 -.83740E-04 -.52068E-03
 -.49091E-03 -.32198E-03 -.25517E-03 -.28322E-03 -.32941E-03 -.39084E-03 -.44345E-03 -.35170E-03 -.30791E-04 0.33708E-03
 0.12591E-02 0.29179E-03 -.38486E-03 -.69785E-04 0.76331E-03 0.98868E-03 0.12060E-03 -.11321E-02 -.16591E-02 -.11063E-02
 -.10070E-03 0.52924E-03 0.49176E-03 0.30497E-05 -.63537E-03 -.11640E-02 -.12323E-02 -.55452E-03 0.62309E-03 0.14595E-02
 0.59055E-03 0.37685E-04 -.26569E-03 -.12950E-03 0.42968E-04 -.19294E-03 -.73410E-03 -.10358E-02 -.75667E-03 -.13423E-03
 0.31881E-03 0.34704E-03 0.70262E-04 -.31470E-03 -.72626E-03 -.10513E-02 -.10233E-02 -.47197E-03 0.33109E-03 0.79343E-03
 -.18761E-03 0.51477E-04 -.20244E-03 -.63278E-03 -.72098E-03 -.26642E-03 0.40485E-03 0.74920E-03 0.50195E-03 -.12362E-03
 -.66841E-03 -.80683E-03 -.53945E-03 -.12632E-03 0.10452E-03 -.50074E-04 -.53044E-03 -.10116E-02 -.11150E-02 -.73605E-03
 -.11656E-03 0.17062E-04 -.63452E-03 -.11579E-02 -.71536E-03 0.45927E-03 0.12836E-02 0.98273E-03 -.16090E-03 -.12128E-02
 -.15186E-02 -.11018E-02 -.34213E-03 0.40276E-03 0.80757E-03 0.55430E-03 -.36448E-03 -.13657E-02 -.16375E-02 -.97676E-03
 -.21869E-03 -.55036E-03 -.10422E-02 -.10845E-02 -.53442E-03 0.53288E-04 0.67872E-04 -.45272E-03 -.92450E-03 -.93673E-03
 -.64316E-03 -.40179E-03 -.26189E-03 -.19116E-04 0.32094E-03 0.42566E-03 0.89170E-04 -.39742E-03 -.55384E-03 -.33702E-03
 -.10668E-02 -.10109E-02 -.77476E-03 -.70909E-03 -.93408E-03 -.12189E-02 -.11738E-02 -.61860E-03 0.18772E-03 0.69477E-03
 0.50429E-03 -.26345E-03 -.10227E-02 -.11771E-02 -.59490E-03 0.29705E-03 0.86255E-03 0.73883E-03 0.65854E-04 -.67922E-03
 -.15748E-02 -.76949E-03 -.25447E-03 -.53023E-03 -.11282E-02 -.11966E-02 -.44672E-03 0.60113E-03 0.12102E-02 0.10697E-02
 0.36407E-03 -.53319E-03 -.12395E-02 -.13832E-02 -.79237E-03 0.18236E-03 0.73436E-03 0.28156E-03 -.86846E-03 -.17180E-02
 -.59887E-02 -.46400E-02 -.32273E-02 -.19245E-02 -.38754E-03 0.12286E-02 0.19768E-02 0.11041E-02 -.90214E-03 -.26015E-02
 -.29453E-02 -.20997E-02 -.92347E-03 0.97241E-05 0.58100E-03 0.56599E-03 -.51600E-03 -.27147E-02 -.51031E-02 -.63637E-02
 -.53126E-02 -.43987E-02 -.26918E-02 -.58026E-03 0.11427E-02 0.14546E-02 -.17470E-03 -.30909E-02 -.56503E-02 -.63688E-02
 -.50243E-02 -.26766E-02 -.67443E-03 0.29651E-03 0.30681E-03 -.34503E-03 -.14917E-02 -.29700E-02 -.44024E-02 -.52936E-02
 -.47633E-02 -.37354E-02 -.15401E-02 0.39809E-03 0.55384E-03 -.17147E-02 -.58504E-02 -.10424E-01 -.13721E-01 -.14405E-01
 -.12169E-01 -.80304E-02 -.38299E-02 -.10883E-02 -.13434E-03 -.28836E-03 -.83041E-03 -.16474E-02 -.28971E-02 -.42462E-02
 -.29168E-02 -.15093E-02 -.54183E-05 -.60544E-04 -.26648E-02 -.77288E-02 -.14386E-01 -.21186E-01 -.26062E-01 -.26861E-01
 -.22736E-01 -.15207E-01 -.74664E-02 -.22123E-02 -.20913E-04 0.25882E-03 -.16340E-03 -.96170E-03 -.21248E-02 -.30781E-02
 0.24599E-03 0.90013E-03 0.24422E-03 -.27743E-02 -.87081E-02 -.17366E-01 -.27527E-01 -.36684E-01 -.41524E-01 -.39579E-01
 -.31078E-01 -.19291E-01 -.86442E-02 -.20512E-02 0.35114E-03 0.28806E-03 -.45525E-03 -.99015E-03 -.10755E-02 -.62492E-03
 0.21342E-02 0.12678E-02 -.17172E-02 -.79930E-02 -.18269E-01 -.31550E-01 -.44631E-01 -.53141E-01 -.53734E-01 -.45982E-01
 -.32677E-01 -.18370E-01 -.71488E-02 -.94856E-03 0.79260E-03 0.19427E-03 -.56381E-03 -.36719E-03 0.65244E-03 0.17292E-02
 0.15079E-02 -.13367E-03 -.50559E-02 -.15064E-01 -.30027E-01 -.46515E-01 -.58968E-01 -.62802E-01 -.56971E-01 -.44091E-01
 -.28560E-01 -.14487E-01 -.45386E-02 0.44044E-03 0.13921E-02 0.44845E-03 -.31890E-03 -.48362E-04 0.84380E-03 0.15573E-02
 0.19391E-03 -.16330E-02 -.86456E-02 -.21958E-01 -.39258E-01 -.55061E-01 -.63573E-01 -.62016E-01 -.51793E-01 -.36986E-01
 -.21939E-01 -.97642E-02 -.20387E-02 0.11031E-02 0.83611E-03 -.88577E-03 -.23130E-02 -.26314E-02 -.18870E-02 -.58514E-03
 -.62263E-03 -.32095E-02 -.11906E-01 -.25909E-01 -.41555E-01 -.53660E-01 -.57962E-01 -.53187E-01 -.41466E-01 -.26987E-01
 -.13957E-01 -.50840E-02 -.11289E-02 -.12880E-02 -.38686E-02 -.69245E-02 -.87685E-02 -.83959E-02 -.58465E-02 -.24361E-02
 -.20609E-02 -.54603E-02 -.13866E-01 -.25367E-01 -.36881E-01 -.44742E-01 -.45861E-01 -.39360E-01 -.27527E-01 -.14916E-01
 -.59177E-02 -.26233E-02 -.44482E-02 -.92613E-02 -.14615E-01 -.18296E-01 -.18635E-01 -.15172E-01 -.92918E-02 -.39051E-02
 -.39638E-02 -.68816E-02 -.13188E-01 -.21051E-01 -.28266E-01 -.32129E-01 -.30355E-01 -.22874E-01 -.12693E-01 -.45039E-02
 -.19238E-02 -.56500E-02 -.13698E-01 -.22855E-01 -.29907E-01 -.32340E-01 -.29094E-01 -.21346E-01 -.12341E-01 -.58001E-02
 -.37229E-02 -.54758E-02 -.98831E-02 -.14846E-01 -.18289E-01 -.18485E-01 -.14835E-01 -.86276E-02 -.28806E-02 -.99255E-03
 -.50247E-02 -.14672E-01 -.27344E-01 -.39074E-01 -.45895E-01 -.45356E-01 -.37700E-01 -.25908E-01 -.14298E-01 -.64339E-02
 -.70032E-03 -.22038E-02 -.56929E-02 -.84094E-02 -.88369E-02 -.70584E-02 -.41868E-02 -.16815E-02 -.11860E-02 -.45360E-02
 -.13114E-01 -.26519E-01 -.41707E-01 -.53800E-01 -.58397E-01 -.53836E-01 -.41898E-01 -.26731E-01 -.12938E-01 -.38821E-02
 0.19380E-02 0.13040E-03 -.23379E-02 -.31788E-02 -.22685E-02 -.92006E-03 -.31628E-03 -.99524E-03 -.37429E-02 -.10224E-01
 -.21831E-01 -.37532E-01 -.53109E-01 -.63022E-01 -.63521E-01 -.54530E-01 -.39251E-01 -.22398E-01 -.84279E-02 -.19716E-03
 0.18544E-02 0.61277E-03 -.48054E-03 -.51114E-03 0.10184E-03 0.56044E-03 0.33755E-03 -.12447E-02 -.56929E-02 -.14815E-01
 -.28856E-01 -.45005E-01 -.58091E-01 -.63275E-01 -.58712E-01 -.46266E-01 -.30198E-01 -.15109E-01 -.43152E-02 0.10019E-02
 0.46748E-03 0.18299E-03 -.37210E-03 -.68190E-03 -.28969E-03 0.72704E-03 0.12614E-02 -.68695E-03 -.70467E-02 -.18319E-01
 -.32649E-01 -.46061E-01 -.54020E-01 -.53635E-01 -.45217E-01 -.32098E-01 -.18773E-01 -.86173E-02 -.26841E-02 -.13338E-03
 -.56689E-03 -.96793E-03 -.19062E-02 -.22676E-02 -.11383E-02 0.83885E-03 0.14783E-02 -.14812E-02 -.88367E-02 -.19431E-01
 -.30611E-01 -.39049E-01 -.41814E-01 -.37753E-01 -.28458E-01 -.17663E-01 -.90448E-02 -.40871E-02 -.19038E-02 -.93985E-03
 -.20693E-02 -.30837E-02 -.38320E-02 -.34385E-02 -.18036E-02 -.13908E-03 -.20669E-03 -.30820E-02 -.86050E-02 -.15628E-01
 -.22367E-01 -.26656E-01 -.26617E-01 -.21883E-01 -.14299E-01 -.70173E-02 -.24266E-02 -.78864E-03 -.81721E-03 -.13281E-02
 -.45268E-02 -.49643E-02 -.45358E-02 -.35539E-02 -.23966E-02 -.14639E-02 -.12177E-02 -.21735E-02 -.46678E-02 -.84218E-02
 -.12268E-01 -.14494E-01 -.13798E-01 -.10222E-01 -.52725E-02 -.10451E-02 0.99416E-03 0.67677E-03 -.11004E-02 -.31279E-02
 -.61752E-02 -.52437E-02 -.39385E-02 -.29635E-02 -.20797E-02 -.83499E-03 0.44805E-03 0.73839E-03 -.62015E-03 -.30930E-02
 -.53159E-02 -.61470E-02 -.53061E-02 -.32452E-02 -.79251E-03 0.10139E-02 0.11866E-02 -.57767E-03 -.33957E-02 -.56364E-02
 0.17500E-02 0.27726E-02 0.26144E-02 0.15835E-02 0.85007E-03 0.96497E-03 0.12780E-02 0.95299E-03 0.13254E-03 -.31642E-03
 -.43499E-04 0.32248E-03 0.10885E-03 -.42460E-03 -.46388E-03 0.16634E-03 0.71135E-03 0.55627E-03 0.16788E-03 0.52758E-03
 0.17723E-02 0.16843E-02 0.14721E-02 0.13765E-02 0.13672E-02 0.99675E-03 -.68039E-04 -.14115E-02 -.20454E-02 -.13908E-02
 0.25720E-04 0.10348E-02 0.97754E-03 0.26360E-03 -.21550E-03 -.32359E-04 0.53832E-03 0.10561E-02 0.13957E-02 0.16425E-02
 0.41812E-03 0.76446E-04 0.54923E-03 0.99584E-03 0.64474E-03 -.47535E-03 -.16997E-02 -.24025E-02 -.23857E-02 -.17737E-02
 -.82789E-03 0.67516E-04 0.49521E-03 0.36117E-03 0.13879E-03 0.49868E-03 0.15420E-02 0.25258E-02 0.25539E-02 0.15549E-02
 -.79133E-04 0.17086E-03 0.64662E-03 0.42691E-03 -.43477E-03 -.11567E-02 -.14179E-02 -.17604E-02 -.26443E-02 -.35441E-02
 -.34507E-02 -.21737E-02 -.66356E-03 0.13342E-03 0.36759E-03 0.86827E-03 0.18223E-02 0.23970E-02 0.18549E-02 0.63943E-03
 0.11743E-02 0.11510E-02 0.56943E-03 -.38222E-03 -.10546E-02 -.12147E-02 -.15208E-02 -.27593E-02 -.46633E-02 -.58674E-02
 -.52494E-02 -.31443E-02 -.10023E-02 0.77517E-04 0.22259E-03 0.22642E-03 0.49114E-03 0.79889E-03 0.92337E-03 0.10046E-02
 0.17169E-02 0.76809E-03 -.36545E-03 -.13002E-02 -.21056E-02 -.30833E-02 -.43376E-02 -.55598E-02 -.61846E-02 -.57595E-02
 -.42730E-02 -.22496E-02 -.52370E-03 0.24206E-03 0.13614E-04 -.56347E-03 -.65457E-03 0.81048E-04 0.12109E-02 0.19216E-02
 0.37655E-03 -.38947E-03 -.10053E-02 -.21105E-02 -.41229E-02 -.63297E-02 -.74078E-02 -.68031E-02 -.52386E-02 -.37630E-02
 -.26404E-02 -.14757E-02 -.20494E-03 0.57080E-03 0.41296E-03 -.17862E-03 -.23900E-03 0.48247E-03 0.12117E-02 0.11391E-02
 -.47159E-03 -.23936E-03 -.65183E-03 -.25625E-02 -.54699E-02 -.76177E-02 -.76473E-02 -.59507E-02 -.41141E-02 -.31501E-02
 -.26435E-02 -.16824E-02 -.19918E-03 0.98140E-03 0.12503E-02 0.88910E-03 0.52087E-03 0.29178E-03 -.41600E-04 -.42750E-03
 0.36380E-03 0.52144E-03 -.43724E-03 -.24553E-02 -.46985E-02 -.61391E-02 -.63227E-02 -.55958E-02 -.46202E-02 -.37280E-02
 -.27737E-02 -.15334E-02 -.12461E-03 0.10043E-02 0.14385E-02 0.11102E-02 0.32672E-03 -.41143E-03 -.65763E-03 -.27843E-03
 0.52090E-03 -.31358E-03 -.11997E-02 -.19787E-02 -.30176E-02 -.44607E-02 -.56435E-02 -.56122E-02 -.42097E-02 -.23424E-02
 -.10492E-02 -.51240E-03 -.18585E-03 0.27458E-03 0.58084E-03 0.38803E-03 -.42442E-04 -.92430E-04 0.37695E-03 0.78072E-03
 -.10540E-02 -.20284E-02 -.19957E-02 -.16893E-02 -.22628E-02 -.36816E-02 -.45115E-02 -.35276E-02 -.12195E-02 0.66543E-03
 0.97093E-03 0.15128E-03 -.57780E-03 -.65180E-03 -.39254E-03 -.13648E-03 0.25202E-03 0.83426E-03 0.10668E-02 0.34010E-03
 -.15994E-02 -.20260E-02 -.18732E-02 -.17444E-02 -.20262E-02 -.23097E-02 -.18329E-02 -.45699E-03 0.10184E-02 0.16064E-02
 0.10766E-02 0.50428E-04 -.71667E-03 -.94025E-03 -.73570E-03 -.26139E-03 0.32272E-03 0.66838E-03 0.36401E-03 -.58882E-03
 0.36047E-03 -.41262E-03 -.12810E-02 -.15293E-02 -.99424E-03 -.23375E-03 0.11402E-03 0.48996E-05 -.10445E-03 0.72698E-04
 0.29570E-03 0.16832E-03 -.31353E-03 -.76127E-03 -.87580E-03 -.72622E-03 -.50701E-03 -.22381E-03 0.18827E-03 0.52356E-03
 0.20238E-02 0.49023E-03 -.74636E-03 -.59266E-03 0.39377E-03 0.71376E-03 -.23376E-03 -.14523E-02 -.16055E-02 -.60040E-03
 0.42714E-03 0.52216E-03 -.15203E-03 -.84490E-03 -.12052E-02 -.13417E-02 -.11569E-02 -.25553E-03 0.12614E-02 0.23676E-02
 0.12948E-02 0.37318E-03 0.17945E-04 0.45180E-03 0.87221E-03 0.49829E-03 -.41254E-03 -.87842E-03 -.41909E-03 0.37459E-03
 0.59470E-03 0.58072E-04 -.65370E-03 -.10268E-02 -.11031E-02 -.10696E-02 -.74949E-03 0.12544E-03 0.12477E-02 0.17828E-02
 0.30381E-03 0.79238E-03 0.87369E-03 0.68460E-03 0.62017E-03 0.90318E-03 0.13450E-02 0.15271E-02 0.11876E-02 0.42981E-03
 -.38447E-03 -.89305E-03 -.92673E-03 -.57040E-03 -.11453E-03 0.10256E-03 -.68931E-04 -.43905E-03 -.60372E-03 -.30532E-03
 0.10702E-02 0.16664E-02 0.10190E-02 0.24465E-03 0.52813E-03 0.16886E-02 0.24285E-02 0.18692E-02 0.45884E-03 -.70396E-03
 -.10665E-02 -.86030E-03 -.41516E-03 0.23001E-03 0.91890E-03 0.10659E-02 0.24594E-03 -.99304E-03 -.14120E-02 -.43155E-03
 0.19867E-02 0.17058E-02 0.70178E-03 0.11498E-03 0.44311E-03 0.98707E-03 0.83981E-03 0.51148E-04 -.53818E-03 -.44883E-03
 -.85223E-04 -.10511E-05 -.63104E-04 0.26101E-03 0.95123E-03 0.12851E-02 0.81906E-03 0.14244E-03 0.23993E-03 0.11973E-02
 0.14987E-02 0.14379E-02 0.11874E-02 0.69062E-03 0.25135E-04 -.55689E-03 -.69971E-03 -.21761E-03 0.62482E-03 0.11953E-02
 0.10053E-02 0.19761E-03 -.52835E-03 -.53560E-03 0.19551E-03 0.11215E-02 0.16861E-02 0.17657E-02 0.16178E-02 0.15142E-02
 0.10786E-02 0.21356E-02 0.23806E-02 0.13751E-02 0.17183E-04 -.45185E-03 0.24196E-03 0.12683E-02 0.17011E-02 0.13553E-02
 0.62196E-03 -.14355E-03 -.76310E-03 -.95682E-03 -.40073E-03 0.74396E-03 0.16594E-02 0.16109E-02 0.84942E-03 0.44943E-03
 0.63056E-02 0.72115E-02 0.60209E-02 0.33130E-02 0.88793E-03 -.74536E-04 0.11598E-03 0.62005E-03 0.12619E-02 0.22842E-02
 0.32594E-02 0.30592E-02 0.12345E-02 -.10418E-02 -.19726E-02 -.10098E-02 0.73870E-03 0.20493E-02 0.30049E-02 0.44461E-02
 0.57703E-02 0.50315E-02 0.34680E-02 0.17798E-02 0.60863E-03 0.10315E-03 0.18943E-03 0.10462E-02 0.29023E-02 0.52708E-02
 0.67586E-02 0.60886E-02 0.34101E-02 0.38631E-03 -.11694E-02 -.70176E-03 0.10134E-02 0.29130E-02 0.44580E-02 0.54919E-02