unknown system                          
   1.00000000000000     
     2.573869    0.000000    0.000000
     1.286934    2.229036    0.000000
     0.000000    0.000000   30.304665
   Cu   H 
     4     1
Direct
  0.000000  0.000000  0.395979
  0.333333  0.333333  0.465326
  0.666667  0.666667  0.534674
  0.000000  0.000000  0.604021
  0.977569  0.044862  0.663418
 
   20   20  240
 -.59580492070E-02 -.56563179295E-02 -.43575705528E-02 -.23971213283E-02 -.40399952979E-03
 0.96506913729E-03 0.12891562040E-02 0.53324999172E-03 -.91247804749E-03 -.23241977973E-02
 -.29351293399E-02 -.23672618743E-02 -.91959406673E-03 0.57646745326E-03 0.12840174169E-02
 0.85587446682E-03 -.48367621662E-03 -.22388179309E-02 -.39582707961E-02 -.53025383245E-02
 -.55853869758E-02 -.49533955629E-02 -.29618156238E-02 -.42559818297E-03 0.13354300018E-02
 0.13414097559E-02 -.45021968779E-03 -.31514556310E-02 -.54380480893E-02 -.62132006498E-02
 -.51528913327E-02 -.28829649789E-02 -.62087932656E-03 0.57839022264E-03 0.44865778113E-03
 -.50652712233E-03 -.16321348987E-02 -.26942230544E-02 -.38247504252E-02 -.49744733733E-02
 -.42185275702E-02 -.30114407386E-02 -.96821216482E-03 0.79533415348E-03 0.94461837200E-03
 -.12756271884E-02 -.54979249953E-02 -.10272091805E-01 -.13701479963E-01 -.14384980003E-01
 -.12161673926E-01 -.81780332338E-02 -.41810966243E-02 -.15059163210E-02 -.48589566310E-03
 -.65169235339E-03 -.13875325703E-02 -.23660541038E-02 -.34303116061E-02 -.42375351172E-02
 -.18786808980E-02 -.89672831058E-03 -.80119440668E-04 -.23914374813E-03 -.24110610084E-02
 -.72499913963E-02 -.14244105004E-01 -.21459029584E-01 -.26252651790E-01 -.26646409838E-01
 -.22445268440E-01 -.15333870312E-01 -.79238596838E-02 -.24330433453E-02 0.19706046757E-03
 0.36708074859E-03 -.75773575759E-03 -.19978162469E-02 -.26515567199E-02 -.25590262418E-02
 0.28806994277E-03 0.28777243205E-03 -.64844640613E-03 -.32883536183E-02 -.87212652836E-02
 -.17364105633E-01 -.27869366583E-01 -.37098479920E-01 -.41518195830E-01 -.39150269441E-01
 -.30719430096E-01 -.19270752071E-01 -.86018493710E-02 -.15019513897E-02 0.12804222212E-02
 0.93106920312E-03 -.47905264557E-03 -.13037391548E-02 -.10754723230E-02 -.30577677973E-03
 0.14750111086E-02 0.72874588611E-03 -.20276556625E-02 -.81247895095E-02 -.18351962869E-01
 -.31670905010E-01 -.44764302214E-01 -.53197465139E-01 -.53666280643E-01 -.45837724997E-01
 -.32542203798E-01 -.18268215931E-01 -.69936478217E-02 -.61111473168E-03 0.13596089242E-02
 0.87984737533E-03 0.77597884172E-05 -.13812158511E-03 0.44543231286E-03 0.11815027676E-02
 0.18303250681E-02 0.64842662934E-03 -.44859659219E-02 -.14944941992E-01 -.29990515507E-01
 -.46227345475E-01 -.58621958691E-01 -.62801162148E-01 -.57310417663E-01 -.44362210702E-01
 -.28577530194E-01 -.14595635319E-01 -.51035724847E-02 -.33288423155E-03 0.10884542543E-02
 0.86948254578E-03 0.26344115830E-03 -.36725647760E-04 0.28626112490E-03 0.11615174853E-02
 0.12802014364E-02 -.73965470780E-03 -.84631924577E-02 -.22145955104E-01 -.39151052889E-01
 -.54585410328E-01 -.63295832729E-01 -.62297482912E-01 -.52258813781E-01 -.37070773787E-01
 -.21730907788E-01 -.99412320065E-02 -.29387281311E-02 0.10353723702E-04 0.32861386255E-03
 -.73099002687E-03 -.21218794579E-02 -.28047877234E-02 -.20289537105E-02 -.74612773219E-04
 -.59433041827E-03 -.35643767314E-02 -.12464599136E-01 -.26284632659E-01 -.41566757376E-01
 -.53513468504E-01 -.57959676720E-01 -.53327931040E-01 -.41441715207E-01 -.26591371587E-01
 -.13378130764E-01 -.47191385315E-02 -.11654204422E-02 -.15565518251E-02 -.40958301597E-02
 -.70095860024E-02 -.87588094065E-02 -.83012642034E-02 -.56287960713E-02 -.21857446180E-02
 -.30026343784E-02 -.60049533265E-02 -.14035966471E-01 -.25502849486E-01 -.37111068359E-01
 -.44865612957E-01 -.45724020790E-01 -.39114849567E-01 -.27373901090E-01 -.14724403209E-01
 -.53531865819E-02 -.16694244358E-02 -.35917516321E-02 -.89937544879E-02 -.14849764402E-01
 -.18477553734E-01 -.18444767123E-01 -.14935398602E-01 -.95611843384E-02 -.47594453589E-02
 -.39855372194E-02 -.62395337630E-02 -.12617544874E-01 -.21080083179E-01 -.28584475878E-01
 -.32122464161E-01 -.30020769036E-01 -.22824184459E-01 -.13242836238E-01 -.51277701902E-02
 -.18824661705E-02 -.49577759123E-02 -.13114399615E-01 -.22904645260E-01 -.30253416115E-01
 -.32340884555E-01 -.28741823530E-01 -.21274659106E-01 -.12894876284E-01 -.64661443746E-02
 -.27649763494E-02 -.45766284723E-02 -.95568942945E-02 -.15032910250E-01 -.18449321347E-01
 -.18304082051E-01 -.14632812988E-01 -.89445721145E-02 -.37690315804E-02 -.19297637670E-02
 -.55240824956E-02 -.14783323522E-01 -.27438180780E-01 -.39293082453E-01 -.46021980052E-01
 -.45222507208E-01 -.37463396464E-01 -.25781349777E-01 -.14149136690E-01 -.59015934265E-02
 -.65923768859E-03 -.24146427724E-02 -.59060827384E-02 -.85016887742E-02 -.88202298824E-02
 -.69424889361E-02 -.39688454656E-02 -.14754893235E-02 -.12242255894E-02 -.49330945953E-02
 -.13668783348E-01 -.26865327363E-01 -.41692982159E-01 -.53640502350E-01 -.58389398441E-01
 -.53979686831E-01 -.41892171469E-01 -.26358118134E-01 -.12355736795E-01 -.34666544970E-02
 0.84933570879E-03 -.42130708339E-03 -.22418033819E-02 -.30086185037E-02 -.24031565390E-02
 -.99254967098E-03 0.24181600097E-03 0.86707435678E-04 -.28939729469E-02 -.10092017360E-01
 -.22050677098E-01 -.37433390563E-01 -.52626737230E-01 -.62733475672E-01 -.63794828581E-01
 -.54994931067E-01 -.39330403987E-01 -.22165585206E-01 -.85594419334E-02 -.10547022954E-02
 0.14738068631E-02 0.97582285819E-03 0.79159388449E-04 -.49153705558E-03 -.42310849634E-03
 0.22060279055E-03 0.72748911114E-03 -.41345839145E-03 -.51183795973E-02 -.14730183963E-01
 -.28858065285E-01 -.44731726507E-01 -.57738478472E-01 -.63267906741E-01 -.59050963787E-01
 -.46529255721E-01 -.30190362057E-01 -.15194856703E-01 -.48941411879E-02 0.16945591575E-03
 0.11547098472E-02 0.79426908800E-03 -.11484463624E-03 -.90510677569E-03 -.87627884494E-03
 0.56220702447E-04 0.75773129204E-03 -.94528538277E-03 -.71517267251E-02 -.18409716073E-01
 -.32787038203E-01 -.46200336077E-01 -.54073883917E-01 -.53567424539E-01 -.45072843461E-01
 -.31959902430E-01 -.18677020839E-01 -.84975496577E-02 -.24072054704E-02 0.38643018601E-03
 -.50098077111E-03 -.12082893423E-02 -.18972552164E-02 -.20103766469E-02 -.11882665147E-02
 0.15782902094E-03 0.56556221148E-03 -.19803883112E-02 -.88286995900E-02 -.19418423311E-01
 -.30952175860E-01 -.39464209206E-01 -.41807109481E-01 -.37326627829E-01 -.28108075412E-01
 -.17664764503E-01 -.90349906331E-02 -.35645355287E-02 -.96810271293E-03 -.24030832276E-03
 -.30691781429E-02 -.35912695652E-02 -.33162881888E-02 -.24295975277E-02 -.12422634769E-02
 -.27127966848E-03 -.42834288661E-03 -.28452486276E-02 -.81221705461E-02 -.15475468191E-01
 -.22633284180E-01 -.26844624986E-01 -.26404377507E-01 -.21599093552E-01 -.14439553110E-01
 -.74895494296E-02 -.26488299082E-02 -.54970860299E-03 -.66935121583E-03 -.18777990106E-02
 -.51169575327E-02 -.49518151158E-02 -.39295697218E-02 -.27612551307E-02 -.17973211874E-02
 -.10850261160E-02 -.85957416098E-03 -.17540365955E-02 -.43210579725E-02 -.82736902195E-02
 -.12253295224E-01 -.14473984714E-01 -.13785878196E-01 -.10367682411E-01 -.56253914242E-02
 -.14577005632E-02 0.65555002757E-03 0.31254900262E-03 -.16978343303E-02 -.39186878572E-02
 -.58998198890E-02 -.54734724177E-02 -.43975071852E-02 -.31500871424E-02 -.18905859514E-02
 -.64482444276E-03 0.32418088094E-03 0.45470952097E-03 -.69288850453E-03 -.28967139381E-02
 -.51671402883E-02 -.62664619189E-02 -.54983348826E-02 -.31859560715E-02 -.51104853915E-03
 0.11578885802E-02 0.10189813040E-02 -.76168105312E-03 -.32111327916E-02 -.51586969630E-02
 0.15400429301E-02 0.15437937170E-02 0.13407825672E-02 0.10317409778E-02 0.78219467355E-03
 0.65027651232E-03 0.54764805756E-03 0.38221765051E-03 0.19192225650E-03 0.93936444891E-04
 0.12382324924E-03 0.18584656276E-03 0.18207102052E-03 0.14549412118E-03 0.19987627198E-03
 0.40408638762E-03 0.68781728237E-03 0.95054736892E-03 0.11719180169E-02 0.13801565842E-02
 0.12815608821E-02 0.95941279869E-03 0.10957685042E-02 0.14673573434E-02 0.15114323448E-02
 0.85310847722E-03 -.31769391361E-03 -.13462103494E-02 -.15972825112E-02 -.92920310153E-03
 0.20036115206E-03 0.10594980797E-02 0.11559106613E-02 0.57536490189E-03 -.99373822593E-04
 -.24088928154E-03 0.33339900796E-03 0.12263373090E-02 0.18059584650E-02 0.17452645934E-02
 0.81130503020E-03 0.69264682475E-03 0.10514872242E-02 0.13482899016E-02 0.10318843927E-02
 0.62296892210E-04 -.10680513519E-02 -.17496463056E-02 -.16803467028E-02 -.99754124346E-03
 -.13869955668E-03 0.41677694135E-03 0.42179812553E-03 0.44330128659E-04 -.21292091897E-03
 0.92728427092E-04 0.91520077297E-03 0.16981090166E-02 0.18680262217E-02 0.13916926539E-02
 0.86908467898E-03 0.71669368305E-03 0.52813167241E-03 0.25855306214E-03 -.29002184725E-04
 -.25770598179E-03 -.48816978676E-03 -.87883876066E-03 -.14500745946E-02 -.19443076762E-02
 -.20049634325E-02 -.15121228350E-02 -.70115863549E-03 0.64174086141E-04 0.59457435660E-03
 0.93031780415E-03 0.11577321760E-02 0.12677273300E-02 0.12170086309E-02 0.10486721702E-02
 0.11524865337E-02 0.48493973344E-03 -.32625610413E-03 -.74196245265E-03 -.58796734911E-03
 -.24012670871E-03 -.32874827743E-03 -.11849425725E-02 -.24900098882E-02 -.34446187281E-02
 -.33510052143E-02 -.21505716048E-02 -.48355980459E-03 0.77762123802E-03 0.11474014173E-02
 0.81510969267E-03 0.40189677077E-03 0.41503072828E-03 0.85145444137E-03 0.12552131998E-02
 0.99559346546E-03 0.19179812972E-03 -.57994574969E-03 -.10097174752E-02 -.12130863972E-02
 -.15200404211E-02 -.21092732793E-02 -.28361619663E-02 -.33347893380E-02 -.32495763909E-02
 -.24531168045E-02 -.11745290915E-02 0.50797706727E-04 0.67635091771E-03 0.54781385515E-03
 0.64708942347E-04 -.13276794425E-03 0.26721525759E-03 0.96026947097E-03 0.13214470834E-02
 0.64851165122E-03 0.41078837793E-03 -.16198967750E-03 -.12029453615E-02 -.25487429100E-02
 -.36779945426E-02 -.40467878299E-02 -.35403720151E-02 -.25653395666E-02 -.16740870141E-02
 -.11219047757E-02 -.79541987740E-03 -.49504285689E-03 -.18190013704E-03 0.62636212675E-04
 0.21496298208E-03 0.34803123327E-03 0.51061086705E-03 0.65546362138E-03 0.71119182336E-03
 0.60851780727E-03 0.77252807085E-03 0.26943437376E-04 -.15968848827E-02 -.33729414712E-02
 -.43612906596E-02 -.41069536291E-02 -.29708908877E-02 -.18030188492E-02 -.12466221524E-02
 -.12803352198E-02 -.13609306426E-02 -.98034552359E-03 -.11968725952E-03 0.76309211374E-03
 0.11439443279E-02 0.86953380340E-03 0.27681776762E-03 -.81000935531E-04 0.10650785204E-03
 0.45732443584E-03 0.39881525057E-03 -.30909061381E-03 -.14451895709E-02 -.25453169037E-02
 -.32121462402E-02 -.33062949152E-02 -.29561351225E-02 -.24307285069E-02 -.19453646587E-02
 -.15068721856E-02 -.93601070694E-03 -.98269476585E-04 0.84941008893E-03 0.14797067729E-02
 0.14391894265E-02 0.81000084738E-03 0.10229595559E-03 -.16443866246E-03 0.91156370040E-04
 -.28763347156E-03 -.55083915620E-03 -.60979547275E-03 -.72645830015E-03 -.12541189596E-02
 -.22192178929E-02 -.31421298409E-02 -.33752965256E-02 -.26687712103E-02 -.13885540419E-02
 -.17586364186E-03 0.57339494915E-03 0.89588357665E-03 0.10314588164E-02 0.11263017728E-02
 0.11700769193E-02 0.11100564880E-02 0.92256869800E-03 0.59690360566E-03 0.15369938075E-03
 -.91490146443E-03 -.10802228349E-02 -.74040956158E-03 -.56126232171E-03 -.10388727549E-02
 -.19854148486E-02 -.26363983879E-02 -.23225248011E-02 -.10843241282E-02 0.34805391205E-03
 0.11722822776E-02 0.11436715566E-02 0.68272715819E-03 0.44808042117E-03 0.79632031625E-03
 0.15431542455E-02 0.21327188447E-02 0.20468510056E-02 0.11855530108E-02 -.25691023744E-04
 -.50927199840E-03 -.89480420696E-03 -.10491904339E-02 -.11417749661E-02 -.12095475765E-02
 -.11486048973E-02 -.83674487749E-03 -.27520752745E-03 0.35847053464E-03 0.79773408811E-03
 0.87686958846E-03 0.69064953914E-03 0.56874183174E-03 0.83274006683E-03 0.15070970797E-02
 0.22422174885E-02 0.25502420672E-02 0.21715698083E-02 0.12606035020E-02 0.24275032483E-03
 0.46859177644E-03 -.49583770697E-03 -.12104345132E-02 -.11964554657E-02 -.49565734070E-03
 0.31105789178E-03 0.61837277555E-03 0.33699490024E-03 -.78650641512E-04 -.99928322904E-04
 0.41827655587E-03 0.12023968357E-02 0.18650382340E-02 0.21839086648E-02 0.21570657885E-02
 0.19229452507E-02 0.16703547485E-02 0.15304762500E-02 0.14463961699E-02 0.11637952561E-02
 0.94025974153E-03 -.20561293510E-04 -.53396784662E-03 -.25768798430E-03 0.42243108138E-03
 0.75428484664E-03 0.36313252670E-03 -.36450964492E-03 -.63512842290E-03 0.24026085971E-04
 0.13572632329E-02 0.26108311288E-02 0.31149795213E-02 0.27140536102E-02 0.17929118124E-02
 0.98260424562E-03 0.75751065770E-03 0.11282493305E-02 0.16207128537E-02 0.16288148341E-02
 0.88689650069E-03 0.72988040623E-03 0.59985056835E-03 0.50291503106E-03 0.36623923295E-03
 0.14892193670E-03 -.50137718219E-04 -.13111960449E-04 0.43418934419E-03 0.12463661215E-02
 0.21288260526E-02 0.26987629152E-02 0.27223117105E-02 0.22530600280E-02 0.15794097313E-02
 0.10323248380E-02 0.79355545013E-03 0.82496374647E-03 0.94524360451E-03 0.98230141435E-03
 0.95772710623E-03 0.13794449174E-02 0.11132590343E-02 0.44350154189E-03 0.96622750902E-05
 0.20079408199E-03 0.83042051483E-03 0.13794053615E-02 0.15065272836E-02 0.13116142352E-02
 0.11634620263E-02 0.13396275422E-02 0.18127615067E-02 0.22882115387E-02 0.23956756372E-02
 0.19225358013E-02 0.10000129781E-02 0.10662637708E-03 -.21612606234E-03 0.20162090314E-03
 0.10985244970E-02 0.13856975191E-02 0.98565220259E-03 0.46106608767E-03 0.44200215871E-03
 0.98280090702E-03 0.15382542366E-02 0.15390649169E-02 0.94853365048E-03 0.27820198427E-03
 0.12900570993E-03 0.72262524277E-03 0.17666148128E-02 0.26509344818E-02 0.28023055177E-02
 0.20372643641E-02 0.74391287687E-03 -.29804689579E-03 -.45562967119E-03 0.23956738420E-03
 0.92037409718E-03 0.11188452254E-02 0.11385180552E-02 0.10582246745E-02 0.95867660730E-03
 0.83596178916E-03 0.65640607281E-03 0.46001526403E-03 0.36827464566E-03 0.48323700789E-03
 0.79613213661E-03 0.11949415632E-02 0.15353211395E-02 0.16935579284E-02 0.15915888708E-02
 0.12376885744E-02 0.77028622457E-03 0.42133076280E-03 0.37028757819E-03 0.60206263782E-03
 0.78015525196E-03 0.13073022703E-02 0.16691084084E-02 0.13962724971E-02 0.57337511601E-03
 -.19978034388E-03 -.32015554828E-03 0.31571182563E-03 0.12481720317E-02 0.18300590348E-02
 0.16934796589E-02 0.96920707650E-03 0.16296135274E-03 -.19090163498E-03 0.11482231025E-03
 0.81496794782E-03 0.13667067786E-02 0.13846912052E-02 0.97411570215E-03 0.63521118454E-03
 0.11527248334E-02 0.17052853896E-02 0.17689793001E-02 0.10973563092E-02 0.15563259620E-03
 -.29739788627E-03 0.98707253557E-04 0.10149515527E-02 0.17492103111E-02 0.17767294758E-02
 0.10674027343E-02 0.35924709195E-04 -.72624150905E-03 -.77618720693E-03 -.93058255686E-04
 0.86352874020E-03 0.14541901467E-02 0.13770866074E-02 0.94348534594E-03 0.77375506726E-03
 0.63175563621E-02 0.61823121623E-02 0.48939044771E-02 0.28509165554E-02 0.87432374022E-03
 -.34385751667E-03 -.57426612618E-03 0.55560097245E-04 0.12566222791E-02 0.25529737184E-02
 0.32514008989E-02 0.27805706083E-02 0.12427718473E-02 -.46559330063E-03 -.12697265453E-02
 -.72889381627E-03 0.76702159370E-03 0.25324607597E-02 0.41569831179E-02 0.55001423774E-02
 0.54850531195E-02 0.44728310509E-02 0.32020473785E-02 0.19360100006E-02 0.79525349778E-03
 -.17102975050E-04 -.85623086214E-04 0.99012374208E-03 0.31107423201E-02 0.54091857953E-02
 0.66095109479E-02 0.58720757785E-02 0.34649931481E-02 0.67054142055E-03 -.10313398379E-02
 -.86814914550E-03 0.87504207693E-03 0.31956288712E-02 0.50364887602E-02 0.58010237867E-02
 0.35293727398E-02 0.23777853606E-02 0.14804900547E-02 0.83554352031E-03 0.66772644919E-03
 0.16490800787E-02 0.43528370686E-02 0.84445377580E-02 0.12496845302E-01 0.14721646500E-01
 0.14040693497E-01 0.10685563825E-01 0.60200970613E-02 0.18475768606E-02 -.39024681942E-03
 -.23037357178E-03 0.16252315370E-02 0.37431842893E-02 0.48554992875E-02 0.46040015574E-02
 0.18528641051E-02 0.83529386006E-03 0.54394704421E-04 0.26782739684E-03 0.26713554740E-02
 0.80421475795E-02 0.15615813119E-01 0.22930425432E-01 0.27087999622E-01 0.26491889956E-01
 0.21662206831E-01 0.14658039130E-01 0.78324273242E-02 0.28828621325E-02 0.50402275025E-03
 0.40989610847E-03 0.15773438971E-02 0.27697968949E-02 0.31855530179E-02 0.27558023559E-02
 0.84016859890E-03 -.23928906882E-03 -.45593681733E-03 0.21272207767E-02 0.89709430870E-02
 0.19628063212E-01 0.31240721576E-01 0.39698370577E-01 0.41852860406E-01 0.37228563240E-01
 0.28043123696E-01 0.17711305304E-01 0.90590907640E-02 0.33796650254E-02 0.56256017507E-03
 -.22206805488E-03 0.10638042485E-03 0.83244087318E-03 0.14389746518E-02 0.15146146786E-02
 -.16851928699E-03 -.71465526540E-03 0.11323327134E-02 0.74210643152E-02 0.18669941487E-01
 0.32954837711E-01 0.46240876063E-01 0.54018671613E-01 0.53489922885E-01 0.45032660679E-01
 0.31958143185E-01 0.18660980850E-01 0.84089078484E-02 0.22274022955E-02 -.63315970260E-03
 -.14339342825E-02 -.10886557830E-02 -.18864826956E-03 0.61340489091E-03 0.64481465478E-03
 -.87889575807E-03 0.29952382081E-03 0.51686391685E-02 0.14889399173E-01 0.28914873776E-01
 0.44559847496E-01 0.57454798916E-01 0.63105482324E-01 0.59108181244E-01 0.46704664563E-01
 0.30356232717E-01 0.15354761162E-01 0.51202209759E-02 0.96543463826E-04 -.13076243157E-02
 -.99614818103E-03 -.20689292759E-03 0.39690796631E-03 0.38544082432E-03 -.29600716776E-03
 -.20568433704E-03 0.28332457718E-02 0.10193856174E-01 0.22175462472E-01 0.37363298800E-01
 0.52346620008E-01 0.62463275378E-01 0.63739020547E-01 0.55140484429E-01 0.39538085070E-01
 0.22393750191E-01 0.88964946015E-02 0.15285628045E-02 -.39026317661E-03 0.68123480063E-03
 0.23085037604E-02 0.30646364633E-02 0.25636104863E-02 0.11591816153E-02 -.22818322083E-03
 0.14814438118E-02 0.52327713326E-02 0.14001135171E-01 0.27124715627E-01 0.41784573277E-01
 0.53578274025E-01 0.58275066981E-01 0.53905231067E-01 0.41889235593E-01 0.26431303156E-01
 0.12518938074E-01 0.37174853850E-02 0.94069188630E-03 0.26482716281E-02 0.60776852250E-02
 0.86870277937E-02 0.91005170849E-02 0.73058415114E-02 0.43236362011E-02 0.17620017798E-02
 0.24635720885E-02 0.59561479434E-02 0.15150709630E-01 0.27788097631E-01 0.39573775789E-01
 0.46124310949E-01 0.45135137301E-01 0.37331817651E-01 0.25772709334E-01 0.14281836311E-01
 0.60540843095E-02 0.28501010489E-02 0.46566981239E-02 0.97596333961E-02 0.15391272694E-01
 0.18876819760E-01 0.18722813144E-01 0.15067639880E-01 0.94583645439E-02 0.43427323875E-02
 0.22153065249E-02 0.51354137477E-02 0.13299657409E-01 0.23189936201E-01 0.30532917124E-01
 0.32471918595E-01 0.28771891132E-01 0.21409086615E-01 0.13236339012E-01 0.68807976384E-02
 0.42871757070E-02 0.64489131479E-02 0.12944399220E-01 0.21646676362E-01 0.29258815860E-01
 0.32681120016E-01 0.30418519253E-01 0.23212674792E-01 0.13729941027E-01 0.56184251546E-02
 0.17801046515E-02 0.36522929117E-02 0.91235220380E-02 0.15078094629E-01 0.18743163945E-01
 0.18719854247E-01 0.15288244878E-01 0.10059656583E-01 0.53522395062E-02 0.35604629531E-02
 0.64849885341E-02 0.14548947484E-01 0.26176867183E-01 0.37915977017E-01 0.45623379821E-01
 0.46293974901E-01 0.39520669870E-01 0.27724458027E-01 0.15052909885E-01 0.55923715603E-02
 0.15385887408E-02 0.19230986606E-02 0.44263338815E-02 0.73455539991E-02 0.91718445992E-02
 0.88025869087E-02 0.61486532865E-02 0.26514820845E-02 0.10101113901E-02 0.39992428540E-02
 0.12976168052E-01 0.26878124004E-01 0.42223945368E-01 0.54225832142E-01 0.58707344570E-01
 0.54043195933E-01 0.42034234488E-01 0.27027964021E-01 0.13720224797E-01 0.50603685652E-02
 0.80480751177E-03 0.39791859561E-03 0.13128696905E-02 0.26818913993E-02 0.34378224457E-02
 0.26422758597E-02 0.50296160980E-03 -.10434657062E-02 0.96395222581E-03 0.88276176797E-02
 0.22618851728E-01 0.39624211703E-01 0.55079760492E-01 0.63957982794E-01 0.63178108083E-01
 0.53185462486E-01 0.37816510958E-01 0.22277058705E-01 0.10490062522E-01 0.36547537521E-02
 -.17119902697E-03 -.22613932146E-04 0.52315417669E-03 0.85754781220E-03 0.55940432325E-03
 -.42944047549E-03 -.13017241606E-02 -.23579076733E-03 0.49437262789E-02 0.15490092418E-01
 0.30534123049E-01 0.46728728702E-01 0.59193875605E-01 0.63572170296E-01 0.58222516713E-01
 0.45194538024E-01 0.29194619221E-01 0.15110218095E-01 0.57423566235E-02 0.11754026303E-02
 -.23889660270E-04 0.95392864546E-03 0.11618109706E-02 0.61175794661E-03 -.11690356823E-03
 -.44083146928E-03 0.23217937274E-03 0.28896308952E-02 0.88946061860E-02 0.19064377330E-01
 0.32369186244E-01 0.45477481604E-01 0.53923020694E-01 0.54366747961E-01 0.46460203326E-01
 0.33057725410E-01 0.18705983482E-01 0.74385946682E-02 0.11594372215E-02 -.65377872068E-03
 0.15341163331E-02 0.25104781703E-02 0.22731860222E-02 0.14613535456E-02 0.90743876433E-03
 0.95720705119E-03 0.17906272829E-02 0.41688174035E-02 0.93777651532E-02 0.18002163994E-01
 0.28621663939E-01 0.37877196075E-01 0.42146316923E-01 0.39593975819E-01 0.31122307448E-01
 0.19766791509E-01 0.91753509362E-02 0.20771630758E-02 -.66679658221E-03 -.13317042388E-03
 0.33038146054E-02 0.39460427765E-02 0.37103218160E-02 0.29403396048E-02 0.19701669989E-02
 0.11055559008E-02 0.10255390365E-02 0.28865268945E-02 0.75941012645E-02 0.14704188998E-01
 0.22075254681E-01 0.26847420904E-01 0.27088049495E-01 0.22836915875E-01 0.15887642993E-01
 0.87037625309E-02 0.33126776637E-02 0.67610647679E-03 0.57005150020E-03 0.18907600931E-02
 0.45989111477E-02 0.53257058559E-02 0.51898641283E-02 0.38892826423E-02 0.17628337121E-02
 -.13186889359E-03 -.46380535782E-03 0.16058722893E-02 0.57917285934E-02 0.10625832467E-01
 0.14116884385E-01 0.14809378001E-01 0.12588969300E-01 0.86793378223E-02 0.48317635985E-02
 0.23107587682E-02 0.13968027642E-02 0.16402382653E-02 0.24645387630E-02 0.35239538161E-02
 0.57132466773E-02 0.63921398216E-02 0.57585625574E-02 0.36709244584E-02 0.10390039832E-02
 -.73585732991E-03 -.72360307476E-03 0.10062417971E-02 0.35566574795E-02 0.57269757767E-02
 0.65204273624E-02 0.55562731116E-02 0.33210918371E-02 0.99665640287E-03 -.24596901817E-03
 -.28113106737E-04 0.11047626034E-02 0.23548479095E-02 0.34253447529E-02 0.45294363198E-02
 -.13113466936E-02 -.61217660902E-03 -.31009429051E-03 -.38185077665E-03 -.32933907573E-03
 0.77738538081E-04 0.48922625067E-03 0.48994969058E-03 0.19068107871E-03 0.63755221603E-04
 0.26869342836E-03 0.42808436111E-03 0.17249324936E-03 -.31855991186E-03 -.55726950636E-03
 -.44687284321E-03 -.44763105157E-03 -.93589973068E-03 -.16156983750E-02 -.18144529249E-02
 -.13506794176E-02 -.12454181756E-02 -.77297478720E-03 -.65486699356E-04 0.49997455152E-03
 0.51349901164E-03 -.68154832611E-04 -.72342886385E-03 -.71839600736E-03 0.20237834191E-03
 0.14746124275E-02 0.21489246535E-02 0.17226003622E-02 0.54643676835E-03 -.56672344377E-03
 -.10753615283E-02 -.10518279073E-02 -.91522436503E-03 -.96508778245E-03 -.11829759804E-02
 -.18477474581E-02 -.17418081417E-02 -.85945953319E-03 0.62895753786E-04 0.38503732128E-03
 0.14211717828E-03 -.11341419212E-03 0.97207322469E-04 0.81066755767E-03 0.17054529505E-02
 0.23580516781E-02 0.24143495510E-02 0.17317992943E-02 0.55656008989E-03 -.48682964766E-03
 -.81349218226E-03 -.43310586955E-03 -.15671231552E-04 -.25169746004E-03 -.11143095996E-02
 -.14594241412E-02 -.11176225263E-02 -.53785378313E-03 -.13462361854E-03 0.23975707039E-03
 0.10223691794E-02 0.21852106968E-02 0.30659073685E-02 0.30752286920E-02 0.23771499353E-02
 0.16559926562E-02 0.12955285725E-02 0.10495408706E-02 0.57240087302E-03 0.29416602274E-05
 -.22913022320E-03 -.74739252739E-04 -.23934221588E-04 -.47592799115E-03 -.11673188594E-02
 -.76814486704E-04 -.15601735375E-03 -.33261971068E-03 -.84709142570E-04 0.10849395348E-02
 0.29914588400E-02 0.46407202872E-02 0.49885854233E-02 0.39058075587E-02 0.23065948003E-02
 0.12663831312E-02 0.10696316178E-02 0.11595483720E-02 0.90203963952E-03 0.22987662814E-03
 -.45331693674E-03 -.79437241399E-03 -.76496736122E-03 -.52525177111E-03 -.24108239722E-03
 0.61054550034E-03 0.74516429194E-04 -.11125843496E-03 0.58369720597E-03 0.20618569103E-02
 0.37078046772E-02 0.48342059391E-02 0.50761874952E-02 0.45159066317E-02 0.35552482896E-02
 0.26456868364E-02 0.20051266202E-02 0.14984834595E-02 0.82073577823E-03 -.12092360359E-03
 -.99054854398E-03 -.12596439681E-02 -.73115664088E-03 0.17943779568E-03 0.75268575577E-03
 0.11656330130E-03 0.15573624529E-03 0.69750666421E-03 0.14835529629E-02 0.22256231070E-02
 0.30491053215E-02 0.42140173759E-02 0.54750691110E-02 0.60393875112E-02 0.53342942502E-02
 0.36800128659E-02 0.20048751725E-02 0.93247025841E-03 0.34228251998E-03 -.15455303485E-03
 -.56781976995E-03 -.58257834620E-03 -.14995250473E-03 0.29448196051E-03 0.33578835552E-03
 -.81429225443E-04 0.93373301749E-03 0.18621447632E-02 0.22996381567E-02 0.25282907668E-02
 0.32751112591E-02 0.47663968020E-02 0.61831794880E-02 0.63070642007E-02 0.47525133941E-02
 0.24187564030E-02 0.65478482838E-03 0.78944764528E-04 0.28060013140E-03 0.50938720911E-03
 0.40517025171E-03 0.55079227195E-04 -.35400806831E-03 -.66873544375E-03 -.65482299123E-03
 0.44722655891E-03 0.15635487767E-02 0.24693718980E-02 0.31678611938E-02 0.38525890856E-02
 0.45938796994E-02 0.51275168613E-02 0.49938108375E-02 0.39496396683E-02 0.22823639992E-02
 0.70306999275E-03 -.13148882508E-03 -.77262952583E-04 0.43300965405E-03 0.75066711099E-03
 0.48946398163E-03 -.23499618745E-03 -.93560595671E-03 -.11134296904E-02 -.58245101528E-03
 0.28643979327E-03 0.92925604310E-03 0.21914820651E-02 0.37743196627E-02 0.48292256100E-02
 0.47225768103E-02 0.36674643476E-02 0.24671459146E-02 0.16862767913E-02 0.12324213203E-02
 0.74970145358E-03 0.19767140618E-03 -.14478474946E-03 -.15273399135E-03 -.75265383121E-04
 -.19533342486E-03 -.44251134454E-03 -.51687408171E-03 -.31873638290E-03 -.29157457863E-04
 -.76238198990E-03 -.19033173298E-03 0.14812933687E-02 0.32652389084E-02 0.39181153749E-02
 0.31768317984E-02 0.19921411439E-02 0.14628774820E-02 0.16972034810E-02 0.18715642456E-02
 0.12937319861E-02 0.15481368666E-03 -.80185535440E-03 -.11029288890E-02 -.84801514945E-03
 -.35990858274E-03 0.13613699361E-03 0.43208308350E-03 0.26806715601E-03 -.33580298870E-03
 -.88687649496E-03 -.36222849221E-03 0.70326864528E-03 0.16777127909E-02 0.20743740956E-02
 0.19651058654E-02 0.17896432546E-02 0.17997718843E-02 0.17851164311E-02 0.13682489650E-02
 0.48697328890E-03 -.48943582313E-03 -.10882738347E-02 -.11017747030E-02 -.65626676941E-03
 -.51438068640E-04 0.38769909087E-03 0.40268765302E-03 -.51579131553E-04 -.66457149544E-03
 0.42383509647E-03 0.17286043568E-03 -.20155073742E-04 0.30144401639E-03 0.10826726271E-02
 0.17068876259E-02 0.15954099795E-02 0.79843555894E-03 -.83740122960E-04 -.52068297476E-03
 -.49091079276E-03 -.32198078922E-03 -.25517416135E-03 -.28322275953E-03 -.32940865422E-03
 -.39083663174E-03 -.44344936067E-03 -.35169824882E-03 -.30791380361E-04 0.33708192453E-03
 0.12590849973E-02 0.29179348962E-03 -.38486265450E-03 -.69784750750E-04 0.76331347660E-03
 0.98867598216E-03 0.12059633174E-03 -.11321397411E-02 -.16590716334E-02 -.11062539652E-02
 -.10070408087E-03 0.52924154690E-03 0.49175673160E-03 0.30496933050E-05 -.63536540938E-03
 -.11640376592E-02 -.12323341792E-02 -.55451580629E-03 0.62308520615E-03 0.14594699975E-02
 0.59055281555E-03 0.37684734515E-04 -.26568672597E-03 -.12950048335E-03 0.42968404117E-04
 -.19293889770E-03 -.73410319135E-03 -.10358337214E-02 -.75667440818E-03 -.13422709777E-03
 0.31881024087E-03 0.34704270448E-03 0.70261778042E-04 -.31469718873E-03 -.72626064131E-03
 -.10512914236E-02 -.10232594577E-02 -.47197241830E-03 0.33108944948E-03 0.79343205546E-03
 -.18761153805E-03 0.51476864058E-04 -.20244485660E-03 -.63277529316E-03 -.72097757882E-03
 -.26642176810E-03 0.40485472488E-03 0.74920196332E-03 0.50195390656E-03 -.12361755919E-03
 -.66841274026E-03 -.80682814302E-03 -.53944952901E-03 -.12631861624E-03 0.10452051045E-03
 -.50073525275E-04 -.53044182025E-03 -.10116454794E-02 -.11150441974E-02 -.73605156100E-03
 -.11655715184E-03 0.17062039319E-04 -.63451813978E-03 -.11578551141E-02 -.71536402706E-03
 0.45927186571E-03 0.12836380509E-02 0.98273108311E-03 -.16089649969E-03 -.12128400756E-02
 -.15186121411E-02 -.11018412258E-02 -.34213457144E-03 0.40275579051E-03 0.80757062289E-03
 0.55429624645E-03 -.36447875772E-03 -.13656806276E-02 -.16375094010E-02 -.97676199721E-03
 -.21869431384E-03 -.55036191094E-03 -.10421525200E-02 -.10844785928E-02 -.53441693757E-03
 0.53287570978E-04 0.67872276830E-04 -.45271827641E-03 -.92450438696E-03 -.93673011068E-03
 -.64315672411E-03 -.40178620859E-03 -.26189434254E-03 -.19115801514E-04 0.32093731221E-03
 0.42566010287E-03 0.89169688067E-04 -.39742004097E-03 -.55384063836E-03 -.33701731803E-03
 -.10667992541E-02 -.10109045717E-02 -.77476135107E-03 -.70908597525E-03 -.93407792872E-03
 -.12188970313E-02 -.11737847125E-02 -.61859999629E-03 0.18771823099E-03 0.69477406062E-03
 0.50428679079E-03 -.26344957978E-03 -.10226968937E-02 -.11771138903E-02 -.59490404895E-03
 0.29704877003E-03 0.86254684638E-03 0.73883243368E-03 0.65854322941E-04 -.67922221797E-03
 -.15748244218E-02 -.76949091476E-03 -.25447133135E-03 -.53022751860E-03 -.11282335416E-02
 -.11965536498E-02 -.44672168777E-03 0.60112555938E-03 0.12102194305E-02 0.10696907682E-02
 0.36406765993E-03 -.53319077892E-03 -.12394747146E-02 -.13831550783E-02 -.79236840321E-03
 0.18236324653E-03 0.73436286117E-03 0.28155848921E-03 -.86845662400E-03 -.17180208946E-02
 -.59886768281E-02 -.46399660395E-02 -.32272780682E-02 -.19245133888E-02 -.38754258725E-03
 0.12285508382E-02 0.19767779493E-02 0.11040625077E-02 -.90213745310E-03 -.26014712009E-02
 -.29452517679E-02 -.20997127647E-02 -.92346628123E-03 0.97241150705E-05 0.58099562246E-03
 0.56599372535E-03 -.51599772900E-03 -.27146585916E-02 -.51030646146E-02 -.63636509586E-02
 -.53125968129E-02 -.43986804391E-02 -.26918435063E-02 -.58026445754E-03 0.11426536670E-02