    5    5    1    1
  0.3477306E+02  0.2573869E-09  0.2573869E-09  0.3030466E-08  0.5000000E-15
  1.000000000000000E-004
  CAR 
 unknown system                          
     45     31     28
 
  0.0000000E+00  0.0000000E+00  0.0000000E+00  0.1000000E-01
    1      -11.284301   1.000000
    2      -10.142351   1.000000
    3       -8.667464   1.000000
    4       -7.687557   1.000000
    5       -6.998333   1.000000
    6       -5.652117   1.000000
    7       -5.568135   1.000000
    8       -5.522124   1.000000
    9       -5.521327   1.000000
   10       -5.481938   1.000000
   11       -5.481065   1.000000
   12       -5.351524   1.000000
   13       -5.350574   1.000000
   14       -5.252978   1.000000
   15       -5.252630   1.000000
   16       -5.076016   1.000000
   17       -4.771397   1.000000
   18       -4.769799   1.000000
   19       -4.671382   1.000000
   20       -4.671211   1.000000
   21       -4.437265   1.000000
   22       -4.435181   1.000000
   23       -4.240293   1.000000
   24       -4.239547   1.000000
   25       -3.216202   1.000000
   26        0.145746   0.000000
   27        1.757734   0.000000
   28        2.378610   0.000000
 
  0.1000000E+00  0.6938894E-17  0.0000000E+00  0.4000000E-01
    1      -10.970941   1.000000
    2       -9.842323   1.000000
    3       -8.389997   1.000000
    4       -7.462912   1.000000
    5       -6.869566   1.000000
    6       -5.752572   1.000000
    7       -5.667406   1.000000
    8       -5.609470   1.000000
    9       -5.466798   1.000000
   10       -5.415263   1.000000
   11       -5.405989   1.000000
   12       -5.404269   1.000000
   13       -5.349419   1.000000
   14       -5.251714   1.000000
   15       -5.249623   1.000000
   16       -5.157282   1.000000
   17       -4.840517   1.000000
   18       -4.818960   1.000000
   19       -4.664691   1.000000
   20       -4.661484   1.000000
   21       -4.525214   1.000000
   22       -4.432103   1.000000
   23       -4.234413   1.000000
   24       -4.035280   1.000000
   25       -2.586866   0.185112
   26        0.419683   0.000000
   27        2.054366   0.000000
   28        2.693887   0.000000
 
  0.2000000E+00 -0.1387779E-16  0.0000000E+00  0.4000000E-01
    1      -10.069001   1.000000
    2       -9.001313   1.000000
    3       -7.658205   1.000000
    4       -6.919689   1.000000
    5       -6.579299   1.000000
    6       -6.046066   1.000000
    7       -5.869335   1.000000
    8       -5.779410   1.000000
    9       -5.596807   1.000000
   10       -5.499103   1.000000
   11       -5.464990   1.000000
   12       -5.282288   1.000000
   13       -5.246882   1.000000
   14       -5.138489   1.000000
   15       -5.039559   1.000000
   16       -5.030659   1.000000
   17       -4.925763   1.000000
   18       -4.814588   1.000000
   19       -4.781849   1.000000
   20       -4.637256   1.000000
   21       -4.435949   1.000000
   22       -4.360083   1.000000
   23       -4.226089   1.000000
   24       -3.368617   1.000000
   25       -1.441116   0.000000
   26        1.236391   0.000000
   27        2.947232   0.000000
   28        3.629266   0.000000
 
  0.3000000E+00 -0.2775558E-16  0.0000000E+00  0.4000000E-01
    1       -8.754148   1.000000
    2       -7.917012   1.000000
    3       -7.021968   1.000000
    4       -6.610224   1.000000
    5       -6.393326   1.000000
    6       -6.269657   1.000000
    7       -5.983384   1.000000
    8       -5.786671   1.000000
    9       -5.618328   1.000000
   10       -5.424696   1.000000
   11       -5.315453   1.000000
   12       -5.263514   1.000000
   13       -5.107201   1.000000
   14       -4.991786   1.000000
   15       -4.931827   1.000000
   16       -4.752653   1.000000
   17       -4.624658   1.000000
   18       -4.588001   1.000000
   19       -4.521506   1.000000
   20       -4.442365   1.000000
   21       -4.392543   1.000000
   22       -4.212395   1.000000
   23       -3.991222   1.000000
   24       -2.451296   0.002452
   25       -0.098620   0.000000
   26        2.541919   0.000000
   27        4.411214   0.000000
   28        5.030376   0.000000
 
  0.4000000E+00 -0.2775558E-16  0.0000000E+00  0.4000000E-01
    1       -7.618077   1.000000
    2       -7.291490   1.000000
    3       -6.936721   1.000000
    4       -6.724578   1.000000
    5       -6.570194   1.000000
    6       -6.329797   1.000000
    7       -5.887709   1.000000
    8       -5.720818   1.000000
    9       -5.546622   1.000000
   10       -5.401494   1.000000
   11       -5.219079   1.000000
   12       -5.017935   1.000000
   13       -4.813422   1.000000
   14       -4.588958   1.000000
   15       -4.528761   1.000000
   16       -4.339441   1.000000
   17       -4.315147   1.000000
   18       -4.238251   1.000000
   19       -4.195522   1.000000
   20       -4.113768   1.000000
   21       -4.098933   1.000000
   22       -3.624088   1.000000
   23       -3.047264   1.000000
   24       -1.321197   0.000000
   25        0.772241   0.000000
   26        2.439559   0.000000
   27        3.371898   0.000000
   28        4.763659   0.000000
 
  0.5000000E+00 -0.2775558E-16  0.0000000E+00  0.2000000E-01
    1       -7.317675   1.000000
    2       -7.181895   1.000000
    3       -6.858664   1.000000
    4       -6.770253   1.000000
    5       -6.713807   1.000000
    6       -6.392463   1.000000
    7       -5.844037   1.000000
    8       -5.660629   1.000000
    9       -5.570672   1.000000
   10       -5.435747   1.000000
   11       -5.080087   1.000000
   12       -5.033528   1.000000
   13       -4.675124   1.000000
   14       -4.573920   1.000000
   15       -4.316028   1.000000
   16       -4.287532   1.000000
   17       -4.205045   1.000000
   18       -4.153458   1.000000
   19       -4.097998   1.000000
   20       -3.984880   1.000000
   21       -2.855342   0.998139
   22       -2.236323   0.000000
   23       -1.775363   0.000000
   24       -1.241503   0.000000
   25       -0.990916   0.000000
   26        1.675467   0.000000
   27        2.775368   0.000000
   28        4.243506   0.000000
 
  0.0000000E+00  0.1000000E+00  0.0000000E+00  0.2000000E-01
    1      -10.970943   1.000000
    2       -9.842299   1.000000
    3       -8.389997   1.000000
    4       -7.462966   1.000000
    5       -6.869639   1.000000
    6       -5.753300   1.000000
    7       -5.666300   1.000000
    8       -5.610208   1.000000
    9       -5.467340   1.000000
   10       -5.414877   1.000000
   11       -5.405424   1.000000
   12       -5.405181   1.000000
   13       -5.348522   1.000000
   14       -5.252336   1.000000
   15       -5.249955   1.000000
   16       -5.157590   1.000000
   17       -4.840309   1.000000
   18       -4.818161   1.000000
   19       -4.662153   1.000000
   20       -4.661100   1.000000
   21       -4.525135   1.000000
   22       -4.433687   1.000000
   23       -4.235013   1.000000
   24       -4.035631   1.000000
   25       -2.586994   0.185595
   26        0.419785   0.000000
   27        2.054359   0.000000
   28        2.693517   0.000000
 
  0.2000000E+00  0.1000000E+00  0.0000000E+00  0.2000000E-01
    1      -10.361633   1.000000
    2       -9.268456   1.000000
    3       -7.876641   1.000000
    4       -7.066206   1.000000
    5       -6.656071   1.000000
    6       -5.896824   1.000000
    7       -5.876743   1.000000
    8       -5.748985   1.000000
    9       -5.574780   1.000000
   10       -5.525758   1.000000
   11       -5.443301   1.000000
   12       -5.338832   1.000000
   13       -5.271685   1.000000
   14       -5.204661   1.000000
   15       -5.049398   1.000000
   16       -5.009636   1.000000
   17       -4.923815   1.000000
   18       -4.856598   1.000000
   19       -4.770704   1.000000
   20       -4.600619   1.000000
   21       -4.561680   1.000000
   22       -4.308062   1.000000
   23       -4.281773   1.000000
   24       -3.555888   1.000000
   25       -1.767255   0.000000
   26        0.967897   0.000000
   27        2.649767   0.000000
   28        3.325020   0.000000
 
  0.3000000E+00  0.1000000E+00  0.0000000E+00  0.4000000E-01
    1       -9.233421   1.000000
    2       -8.267727   1.000000
    3       -7.116698   1.000000
    4       -6.559786   1.000000
    5       -6.398323   1.000000
    6       -6.170173   1.000000
    7       -5.987789   1.000000
    8       -5.890022   1.000000
    9       -5.687407   1.000000
   10       -5.588893   1.000000
   11       -5.526053   1.000000
   12       -5.366785   1.000000
   13       -5.237198   1.000000
   14       -5.115535   1.000000
   15       -4.962114   1.000000
   16       -4.849789   1.000000
   17       -4.761590   1.000000
   18       -4.632652   1.000000
   19       -4.528733   1.000000
   20       -4.504163   1.000000
   21       -4.410655   1.000000
   22       -4.291811   1.000000
   23       -4.057462   1.000000
   24       -2.778056   0.964680
   25       -0.569321   0.000000
   26        2.055688   0.000000
   27        3.842586   0.000000
   28        4.507458   0.000000
 
  0.4000000E+00  0.1000000E+00  0.0000000E+00  0.4000000E-01
    1       -7.923937   1.000000
    2       -7.370251   1.000000
    3       -6.850289   1.000000
    4       -6.577982   1.000000
    5       -6.366038   1.000000
    6       -6.241935   1.000000
    7       -5.975148   1.000000
    8       -5.809854   1.000000
    9       -5.564737   1.000000
   10       -5.467622   1.000000
   11       -5.317901   1.000000
   12       -5.242556   1.000000
   13       -5.101115   1.000000
   14       -4.973932   1.000000
   15       -4.847838   1.000000
   16       -4.657480   1.000000
   17       -4.584007   1.000000
   18       -4.411641   1.000000
   19       -4.308852   1.000000
   20       -4.220608   1.000000
   21       -3.975460   1.000000
   22       -3.861625   1.000000
   23       -3.304967   1.000000
   24       -1.629858   0.000000
   25        0.799323   0.000000
   26        3.329036   0.000000
   27        4.318873   0.000000
   28        5.369945   0.000000
 
  0.5000000E+00  0.1000000E+00  0.0000000E+00  0.4000000E-01
    1       -7.237486   1.000000
    2       -7.088812   1.000000
    3       -6.781738   1.000000
    4       -6.691462   1.000000
    5       -6.551871   1.000000
    6       -6.322502   1.000000
    7       -5.893664   1.000000
    8       -5.677174   1.000000
    9       -5.580369   1.000000
   10       -5.432389   1.000000
   11       -5.298075   1.000000
   12       -4.981023   1.000000
   13       -4.832379   1.000000
   14       -4.697285   1.000000
   15       -4.571905   1.000000
   16       -4.456219   1.000000
   17       -4.355792   1.000000
   18       -4.298466   1.000000
   19       -4.210616   1.000000
   20       -4.129334   1.000000
   21       -2.824186   0.993056
   22       -2.518607   0.031345
   23       -1.946138   0.000000
   24       -0.660733   0.000000
   25        0.215388   0.000000
   26        1.981461   0.000000
   27        3.141205   0.000000
   28        4.454572   0.000000
 
 -0.4000000E+00  0.1000000E+00  0.0000000E+00  0.4000000E-01
    1       -7.237299   1.000000
    2       -7.088784   1.000000
    3       -6.781522   1.000000
    4       -6.691175   1.000000
    5       -6.551983   1.000000
    6       -6.323994   1.000000
    7       -5.892602   1.000000
    8       -5.679562   1.000000
    9       -5.578197   1.000000
   10       -5.430218   1.000000
   11       -5.302947   1.000000
   12       -4.966672   1.000000
   13       -4.843063   1.000000
   14       -4.704860   1.000000
   15       -4.564338   1.000000
   16       -4.460790   1.000000
   17       -4.353378   1.000000
   18       -4.298154   1.000000
   19       -4.210434   1.000000
   20       -4.129718   1.000000
   21       -2.828663   0.994190
   22       -2.511619   0.024986
   23       -1.943147   0.000000
   24       -0.663419   0.000000
   25        0.212823   0.000000
   26        1.982003   0.000000
   27        3.141643   0.000000
   28        4.454745   0.000000
 
 -0.3000000E+00  0.1000000E+00  0.0000000E+00  0.4000000E-01
    1       -7.923881   1.000000
    2       -7.369813   1.000000
    3       -6.849824   1.000000
    4       -6.577674   1.000000
    5       -6.365528   1.000000
    6       -6.248053   1.000000
    7       -5.974452   1.000000
    8       -5.803731   1.000000
    9       -5.565702   1.000000
   10       -5.464416   1.000000
   11       -5.329336   1.000000
   12       -5.239888   1.000000
   13       -5.093912   1.000000
   14       -4.966268   1.000000
   15       -4.866905   1.000000
   16       -4.662309   1.000000
   17       -4.579280   1.000000
   18       -4.405843   1.000000
   19       -4.308142   1.000000
   20       -4.223399   1.000000
   21       -3.976688   1.000000
   22       -3.856116   1.000000
   23       -3.300656   1.000000
   24       -1.632186   0.000000
   25        0.798129   0.000000
   26        3.329099   0.000000
   27        4.318540   0.000000
   28        5.368405   0.000000
 
 -0.2000000E+00  0.1000000E+00  0.0000000E+00  0.4000000E-01
    1       -9.233407   1.000000
    2       -8.267391   1.000000
    3       -7.115955   1.000000
    4       -6.557378   1.000000
    5       -6.407509   1.000000
    6       -6.167745   1.000000
    7       -5.989529   1.000000
    8       -5.886402   1.000000
    9       -5.687728   1.000000
   10       -5.586941   1.000000
   11       -5.525196   1.000000
   12       -5.365550   1.000000
   13       -5.237161   1.000000
   14       -5.122677   1.000000
   15       -4.961559   1.000000
   16       -4.854765   1.000000
   17       -4.762193   1.000000
   18       -4.628999   1.000000
   19       -4.523540   1.000000
   20       -4.503054   1.000000
   21       -4.410162   1.000000
   22       -4.294838   1.000000
   23       -4.051488   1.000000
   24       -2.780294   0.967074
   25       -0.569930   0.000000
   26        2.055663   0.000000
   27        3.842491   0.000000
   28        4.507401   0.000000
 
 -0.1000000E+00  0.1000000E+00  0.0000000E+00  0.4000000E-01
    1      -10.361623   1.000000
    2       -9.268320   1.000000
    3       -7.876529   1.000000
    4       -7.066487   1.000000
    5       -6.656786   1.000000
    6       -5.896814   1.000000
    7       -5.877592   1.000000
    8       -5.749322   1.000000
    9       -5.571931   1.000000
   10       -5.527025   1.000000
   11       -5.443719   1.000000
   12       -5.339584   1.000000
   13       -5.271688   1.000000
   14       -5.204375   1.000000
   15       -5.049109   1.000000
   16       -5.012277   1.000000
   17       -4.925127   1.000000
   18       -4.857685   1.000000
   19       -4.762324   1.000000
   20       -4.599723   1.000000
   21       -4.566216   1.000000
   22       -4.302639   1.000000
   23       -4.283031   1.000000
   24       -3.557924   1.000000
   25       -1.767667   0.000000
   26        0.967775   0.000000
   27        2.649737   0.000000
   28        3.312253   0.000000
 
  0.0000000E+00  0.2000000E+00  0.0000000E+00  0.2000000E-01
    1      -10.069008   1.000000
    2       -9.001101   1.000000
    3       -7.658274   1.000000
    4       -6.921610   1.000000
    5       -6.574930   1.000000
    6       -6.051465   1.000000
    7       -5.869166   1.000000
    8       -5.783894   1.000000
    9       -5.593333   1.000000
   10       -5.499621   1.000000
   11       -5.464364   1.000000
   12       -5.283726   1.000000
   13       -5.244824   1.000000
   14       -5.137866   1.000000
   15       -5.038061   1.000000
   16       -5.031343   1.000000
   17       -4.926624   1.000000
   18       -4.811329   1.000000
   19       -4.781042   1.000000
   20       -4.636551   1.000000
   21       -4.436967   1.000000
   22       -4.358353   1.000000
   23       -4.226814   1.000000
   24       -3.370165   1.000000
   25       -1.441614   0.000000
   26        1.236332   0.000000
   27        2.947193   0.000000
   28        3.629573   0.000000
 
  0.4000000E+00  0.2000000E+00  0.0000000E+00  0.2000000E-01
    1       -8.043499   1.000000
    2       -7.370191   1.000000
    3       -6.724473   1.000000
    4       -6.367472   1.000000
    5       -6.273949   1.000000
    6       -6.110771   1.000000
    7       -5.988374   1.000000
    8       -5.864333   1.000000
    9       -5.768629   1.000000
   10       -5.627675   1.000000
   11       -5.576265   1.000000
   12       -5.407629   1.000000
   13       -5.247706   1.000000
   14       -5.196120   1.000000
   15       -4.946377   1.000000
   16       -4.726445   1.000000
   17       -4.660682   1.000000
   18       -4.522472   1.000000
   19       -4.297111   1.000000
   20       -4.226868   1.000000
   21       -3.902961   1.000000
   22       -3.849780   1.000000
   23       -3.294936   1.000000
   24       -1.708089   0.000000
   25        0.711272   0.000000
   26        3.382646   0.000000
   27        5.299838   0.000000
   28        5.847174   0.000000
 
  0.5000000E+00  0.2000000E+00  0.0000000E+00  0.4000000E-01
    1       -7.065006   1.000000
    2       -6.875543   1.000000
    3       -6.645581   1.000000
    4       -6.475960   1.000000
    5       -6.276531   1.000000
    6       -6.143755   1.000000
    7       -6.015986   1.000000
    8       -5.802898   1.000000
    9       -5.707718   1.000000
   10       -5.444969   1.000000
   11       -5.324594   1.000000
   12       -5.304833   1.000000
   13       -5.194693   1.000000
   14       -5.059576   1.000000
   15       -4.882708   1.000000
   16       -4.732955   1.000000
   17       -4.614171   1.000000
   18       -4.445789   1.000000
   19       -4.233802   1.000000
   20       -4.137554   1.000000
   21       -2.849108   0.997543
   22       -2.667851   0.598417
   23       -1.852500   0.000000
   24       -0.189226   0.000000
   25        1.918318   0.000000
   26        3.059309   0.000000
   27        4.106791   0.000000
   28        5.316706   0.000000
 
 -0.4000000E+00  0.2000000E+00  0.0000000E+00  0.4000000E-01
    1       -6.843579   1.000000
    2       -6.813157   1.000000
    3       -6.543229   1.000000
    4       -6.460381   1.000000
    5       -6.366479   1.000000
    6       -6.177142   1.000000
    7       -6.044708   1.000000
    8       -5.749645   1.000000
    9       -5.664816   1.000000
   10       -5.467869   1.000000
   11       -5.366093   1.000000
   12       -5.087675   1.000000
   13       -5.049464   1.000000
   14       -4.956589   1.000000
   15       -4.854697   1.000000
   16       -4.656477   1.000000
   17       -4.530657   1.000000
   18       -4.325207   1.000000
   19       -4.299706   1.000000
   20       -4.200206   1.000000
   21       -1.973309   0.000000
   22       -0.980398   0.000000
   23       -0.532117   0.000000
   24        0.030181   0.000000
   25        0.578243   0.000000
   26        2.209133   0.000000
   27        3.406429   0.000000
   28        4.864531   0.000000
 
 -0.3000000E+00  0.2000000E+00  0.0000000E+00  0.4000000E-01
    1       -7.064332   1.000000
    2       -6.874697   1.000000
    3       -6.645205   1.000000
    4       -6.475922   1.000000
    5       -6.278135   1.000000
    6       -6.147224   1.000000
    7       -6.016052   1.000000
    8       -5.804922   1.000000
    9       -5.701662   1.000000
   10       -5.430972   1.000000
   11       -5.340752   1.000000
   12       -5.306570   1.000000
   13       -5.193481   1.000000
   14       -5.060112   1.000000
   15       -4.890788   1.000000
   16       -4.726333   1.000000
   17       -4.617284   1.000000
   18       -4.440306   1.000000
   19       -4.233707   1.000000
   20       -4.138011   1.000000
   21       -2.855045   0.998114
   22       -2.657306   0.539875
   23       -1.848814   0.000000
   24       -0.193483   0.000000
   25        1.913152   0.000000
   26        3.060209   0.000000
   27        4.108542   0.000000
   28        5.318394   0.000000
 
 -0.2000000E+00  0.2000000E+00  0.0000000E+00  0.4000000E-01
    1       -8.043441   1.000000
    2       -7.368786   1.000000
    3       -6.722659   1.000000
    4       -6.369877   1.000000
    5       -6.274180   1.000000
    6       -6.112923   1.000000
    7       -5.989007   1.000000
    8       -5.870325   1.000000
    9       -5.768215   1.000000
   10       -5.627646   1.000000
   11       -5.575666   1.000000
   12       -5.387497   1.000000
   13       -5.266801   1.000000
   14       -5.200705   1.000000
   15       -4.937168   1.000000
   16       -4.738837   1.000000
   17       -4.658770   1.000000
   18       -4.513185   1.000000
   19       -4.297139   1.000000
   20       -4.227991   1.000000
   21       -3.903774   1.000000
   22       -3.844412   1.000000
   23       -3.289730   1.000000
   24       -1.711122   0.000000
   25        0.709260   0.000000
   26        3.383471   0.000000
   27        5.299764   0.000000
   28        5.843325   0.000000
 
 -0.1000000E+00  0.2000000E+00  0.0000000E+00  0.4000000E-01
    1       -9.233407   1.000000
    2       -8.267089   1.000000
    3       -7.115981   1.000000
    4       -6.565951   1.000000
    5       -6.389053   1.000000
    6       -6.177468   1.000000
    7       -5.985505   1.000000
    8       -5.900130   1.000000
    9       -5.678981   1.000000
   10       -5.590444   1.000000
   11       -5.527713   1.000000
   12       -5.366736   1.000000
   13       -5.231596   1.000000
   14       -5.121454   1.000000
   15       -4.961264   1.000000
   16       -4.851708   1.000000
   17       -4.760143   1.000000
   18       -4.632271   1.000000
   19       -4.525306   1.000000
   20       -4.501362   1.000000
   21       -4.410185   1.000000
   22       -4.294688   1.000000
   23       -4.051824   1.000000
   24       -2.780619   0.967410
   25       -0.570313   0.000000
   26        2.055815   0.000000
   27        3.842469   0.000000
   28        4.507423   0.000000
 
  0.0000000E+00  0.3000000E+00  0.0000000E+00  0.2000000E-01
    1       -8.754229   1.000000
    2       -7.915936   1.000000
    3       -7.021051   1.000000
    4       -6.614948   1.000000
    5       -6.380394   1.000000
    6       -6.270572   1.000000
    7       -5.999232   1.000000
    8       -5.803542   1.000000
    9       -5.612353   1.000000
   10       -5.417417   1.000000
   11       -5.316447   1.000000
   12       -5.250491   1.000000
   13       -5.104290   1.000000
   14       -4.991787   1.000000
   15       -4.936477   1.000000
   16       -4.752524   1.000000
   17       -4.624835   1.000000
   18       -4.588351   1.000000
   19       -4.520458   1.000000
   20       -4.442913   1.000000
   21       -4.392948   1.000000
   22       -4.213114   1.000000
   23       -3.987901   1.000000
   24       -2.452066   0.002536
   25       -0.099827   0.000000
   26        2.543333   0.000000
   27        4.411492   0.000000
   28        5.029719   0.000000
 
 -0.4000000E+00  0.3000000E+00  0.0000000E+00  0.2000000E-01
    1       -6.577130   1.000000
    2       -6.553364   1.000000
    3       -6.468175   1.000000
    4       -6.321197   1.000000
    5       -6.306256   1.000000
    6       -6.194774   1.000000
    7       -6.099817   1.000000
    8       -5.763020   1.000000
    9       -5.704205   1.000000
   10       -5.451227   1.000000
   11       -5.379937   1.000000
   12       -5.307206   1.000000
   13       -5.264881   1.000000
   14       -5.039391   1.000000
   15       -4.842619   1.000000
   16       -4.793471   1.000000
   17       -4.701411   1.000000
   18       -4.383586   1.000000
   19       -4.295727   1.000000
   20       -4.229632   1.000000
   21       -1.862767   0.000000
   22       -0.730259   0.000000
   23        0.210396   0.000000
   24        1.560112   0.000000
   25        2.148670   0.000000
   26        2.260332   0.000000
   27        3.112060   0.000000
   28        3.416535   0.000000
 
 -0.3000000E+00  0.3000000E+00  0.0000000E+00  0.4000000E-01
    1       -6.576203   1.000000
    2       -6.550793   1.000000
    3       -6.468323   1.000000
    4       -6.326463   1.000000
    5       -6.304007   1.000000
    6       -6.196769   1.000000
    7       -6.099006   1.000000
    8       -5.761328   1.000000
    9       -5.706765   1.000000
   10       -5.441978   1.000000
   11       -5.386203   1.000000
   12       -5.305939   1.000000
   13       -5.264714   1.000000
   14       -5.055180   1.000000
   15       -4.834705   1.000000
   16       -4.788952   1.000000
   17       -4.701181   1.000000
   18       -4.383057   1.000000
   19       -4.295663   1.000000
   20       -4.230142   1.000000
   21       -1.861786   0.000000
   22       -0.726711   0.000000
   23        0.213031   0.000000
   24        1.553374   0.000000
   25        2.141935   0.000000
   26        2.243061   0.000000
   27        3.112799   0.000000
   28        3.441505   0.000000
 
 -0.2000000E+00  0.3000000E+00  0.0000000E+00  0.4000000E-01
    1       -7.066459   1.000000
    2       -6.872864   1.000000
    3       -6.642224   1.000000
    4       -6.476110   1.000000
    5       -6.277842   1.000000
    6       -6.138731   1.000000
    7       -6.020920   1.000000
    8       -5.809364   1.000000
    9       -5.711704   1.000000
   10       -5.450471   1.000000
   11       -5.324928   1.000000
   12       -5.302422   1.000000
   13       -5.184766   1.000000
   14       -5.061995   1.000000
   15       -4.887974   1.000000
   16       -4.728221   1.000000
   17       -4.614939   1.000000
   18       -4.441862   1.000000
   19       -4.234416   1.000000
   20       -4.137997   1.000000
   21       -2.847732   0.997390
   22       -2.665462   0.585294
   23       -1.847896   0.000000
   24       -0.194176   0.000000
   25        1.901343   0.000000
   26        3.076674   0.000000
   27        4.140716   0.000000
   28        5.339255   0.000000
 
 -0.1000000E+00  0.3000000E+00  0.0000000E+00  0.4000000E-01
    1       -7.924382   1.000000
    2       -7.368462   1.000000
    3       -6.847166   1.000000
    4       -6.577312   1.000000
    5       -6.369831   1.000000
    6       -6.231311   1.000000
    7       -5.988526   1.000000
    8       -5.822111   1.000000
    9       -5.577490   1.000000
   10       -5.469536   1.000000
   11       -5.317262   1.000000
   12       -5.215426   1.000000
   13       -5.090801   1.000000
   14       -4.970139   1.000000
   15       -4.866800   1.000000
   16       -4.659009   1.000000
   17       -4.580362   1.000000
   18       -4.408712   1.000000
   19       -4.309957   1.000000
   20       -4.221903   1.000000
   21       -3.968841   1.000000
   22       -3.866304   1.000000
   23       -3.299683   1.000000
   24       -1.631653   0.000000
   25        0.795735   0.000000
   26        3.331712   0.000000
   27        4.339615   0.000000
   28        5.377824   0.000000
 
  0.0000000E+00  0.4000000E+00  0.0000000E+00  0.2000000E-01
    1       -7.619746   1.000000
    2       -7.290111   1.000000
    3       -6.933044   1.000000
    4       -6.723283   1.000000
    5       -6.571302   1.000000
    6       -6.315591   1.000000
    7       -5.921046   1.000000
    8       -5.717889   1.000000
    9       -5.542640   1.000000
   10       -5.402236   1.000000
   11       -5.242554   1.000000
   12       -5.018380   1.000000
   13       -4.768313   1.000000
   14       -4.588579   1.000000
   15       -4.539944   1.000000
   16       -4.339514   1.000000
   17       -4.315017   1.000000
   18       -4.237149   1.000000
   19       -4.197148   1.000000
   20       -4.098995   1.000000
   21       -4.094288   1.000000
   22       -3.645129   1.000000
   23       -3.047026   1.000000
   24       -1.319163   0.000000
   25        0.763135   0.000000
   26        2.453311   0.000000
   27        3.401754   0.000000
   28        4.844633   0.000000
 
 -0.2000000E+00  0.4000000E+00  0.0000000E+00  0.2000000E-01
    1       -6.846693   1.000000
    2       -6.811323   1.000000
    3       -6.539347   1.000000
    4       -6.456253   1.000000
    5       -6.371742   1.000000
    6       -6.168460   1.000000
    7       -6.051616   1.000000
    8       -5.748627   1.000000
    9       -5.662454   1.000000
   10       -5.489425   1.000000
   11       -5.371036   1.000000
   12       -5.075141   1.000000
   13       -5.042764   1.000000
   14       -4.953132   1.000000
   15       -4.859145   1.000000
   16       -4.653179   1.000000
   17       -4.530910   1.000000
   18       -4.325802   1.000000
   19       -4.300275   1.000000
   20       -4.200724   1.000000
   21       -1.969940   0.000000
   22       -0.978869   0.000000
   23       -0.524533   0.000000
   24        0.019214   0.000000
   25        0.555342   0.000000
   26        2.235657   0.000000
   27        3.444677   0.000000
   28        4.917724   0.000000
 
 -0.1000000E+00  0.4000000E+00  0.0000000E+00  0.4000000E-01
    1       -7.240316   1.000000
    2       -7.087860   1.000000
    3       -6.776072   1.000000
    4       -6.690446   1.000000
    5       -6.553489   1.000000
    6       -6.311264   1.000000
    7       -5.916396   1.000000
    8       -5.672327   1.000000
    9       -5.576066   1.000000
   10       -5.442672   1.000000
   11       -5.312918   1.000000
   12       -4.976031   1.000000
   13       -4.806826   1.000000
   14       -4.701298   1.000000
   15       -4.565081   1.000000
   16       -4.466736   1.000000
   17       -4.355782   1.000000
   18       -4.298045   1.000000
   19       -4.211077   1.000000
   20       -4.129659   1.000000
   21       -2.783280   0.970059
   22       -2.560031   0.101056
   23       -1.943104   0.000000
   24       -0.661033   0.000000
   25        0.201992   0.000000
   26        2.002458   0.000000
   27        3.178029   0.000000
   28        4.508424   0.000000
 
  0.0000000E+00  0.5000000E+00  0.0000000E+00  0.1000000E-01
    1       -7.320582   1.000000
    2       -7.181570   1.000000
    3       -6.853445   1.000000
    4       -6.770259   1.000000