unknown system                          
   1.00000000000000     
     2.573869    0.000000    0.000000
     1.286934    2.229036    0.000000
     0.000000    0.000000   30.304665
   Cu   H 
     4     1
Direct
  0.000000  0.000000  0.395979
  0.333333  0.333333  0.465326
  0.666667  0.666667  0.534674
  0.000000  0.000000  0.604021
  0.977569  0.044862  0.663418
 
   10   10  120
 0.86132E-12 0.16476E-12 0.34465E-13 0.21826E-11 0.68293E-13 0.56788E-12 0.11852E-13 0.14482E-11 0.72755E-12 0.39184E-12
 0.10651E-11 0.13676E-09 0.26891E-12 0.40746E-10 0.22149E-13 0.21305E-10 0.53790E-13 0.21746E-09 0.12325E-12 0.33171E-12
 0.25396E-14 0.97256E-13 0.13796E-12 0.86195E-13 0.43299E-14 0.12851E-13 0.27617E-13 0.19634E-12 0.52347E-13 0.22742E-13
 0.24531E-08 0.14913E-11 0.34875E-13 0.35527E-13 0.20262E-13 0.11661E-11 0.47212E-13 0.25135E-11 0.29349E-12 0.15866E-11
 0.18013E-13 0.22399E-13 0.79659E-14 0.13073E-13 0.11310E-13 0.18929E-13 0.71471E-14 0.63061E-13 0.50598E-13 0.25868E-13
 0.20661E-11 0.72940E-11 0.72178E-13 0.60632E-12 0.30434E-13 0.22297E-11 0.25632E-13 0.74012E-12 0.71429E-13 0.17449E-11
 0.73552E-14 0.33820E-13 0.56941E-13 0.58537E-13 0.77022E-14 0.23800E-13 0.57315E-14 0.13628E-13 0.13392E-13 0.15876E-13
 0.23194E-09 0.40413E-11 0.30635E-12 0.27238E-11 0.31988E-13 0.12974E-11 0.21566E-13 0.30448E-13 0.21330E-13 0.60706E-12
 0.10422E-12 0.83399E-13 0.74704E-13 0.19721E-11 0.22454E-13 0.33584E-13 0.69805E-14 0.25094E-12 0.37499E-12 0.36535E-12
 0.22672E-11 0.40360E-12 0.95058E-13 0.12635E-10 0.56746E-13 0.73917E-09 0.24203E-13 0.39924E-11 0.52320E-12 0.30324E-11
 0.10719E-11 0.18043E-11 0.38126E-12 0.31385E-10 0.20470E-13 0.40029E-11 0.13987E-12 0.39235E-09 0.26813E-12 0.23750E-12
 0.68425E-12 0.88934E-11 0.26880E-12 0.61590E-11 0.10589E-13 0.68255E-10 0.19029E-12 0.77981E-10 0.21834E-12 0.69185E-12
 0.31739E-13 0.18383E-12 0.17164E-12 0.88290E-13 0.27062E-14 0.10020E-13 0.43021E-13 0.17845E-12 0.53388E-13 0.30399E-13
 0.24154E-10 0.10714E-11 0.21885E-13 0.65503E-14 0.74385E-14 0.38423E-12 0.20031E-12 0.25441E-11 0.26584E-12 0.22579E-11
 0.58287E-14 0.15099E-13 0.48850E-14 0.40107E-14 0.40939E-14 0.77716E-14 0.84655E-14 0.34431E-13 0.33806E-13 0.16792E-13
 0.87967E-12 0.16472E-11 0.59022E-13 0.18069E-12 0.17639E-13 0.21397E-11 0.55511E-13 0.10807E-09 0.18148E-12 0.21463E-10
 0.86903E-13 0.11040E-12 0.12915E-12 0.21282E-12 0.92842E-14 0.63588E-13 0.35708E-13 0.84877E-13 0.34861E-13 0.27589E-13
 0.10216E-10 0.38831E-11 0.35894E-12 0.28298E-11 0.15987E-13 0.93208E-09 0.11802E-12 0.75064E-12 0.10754E-12 0.17839E-11
 0.20567E-13 0.10738E-12 0.93314E-13 0.24123E-11 0.20289E-13 0.11376E-12 0.19360E-13 0.58020E-12 0.50848E-12 0.16624E-12
 0.98557E-12 0.59896E-12 0.83100E-13 0.19091E-10 0.27436E-13 0.70551E-11 0.63116E-13 0.50524E-10 0.50343E-12 0.32665E-10
 0.46976E-13 0.28706E-12 0.22923E-12 0.40581E-12 0.43437E-14 0.99379E-13 0.18117E-12 0.65850E-13 0.20414E-13 0.12945E-13
 0.55594E-13 0.21573E-11 0.19476E-12 0.11563E-11 0.44825E-14 0.19025E-11 0.54536E-12 0.32565E-10 0.19133E-12 0.62409E-12
 0.17562E-13 0.29522E-12 0.13958E-12 0.46227E-13 0.14710E-14 0.19706E-14 0.28921E-13 0.11335E-12 0.42827E-13 0.33022E-13
 0.13109E-12 0.47670E-12 0.43854E-14 0.15404E-14 0.29837E-14 0.93842E-13 0.64604E-12 0.23488E-11 0.20493E-12 0.31873E-11
 0.12906E-14 0.90483E-14 0.26090E-14 0.14988E-14 0.14849E-14 0.27062E-14 0.68140E-14 0.15446E-13 0.16820E-13 0.78826E-14
 0.55039E-13 0.40683E-12 0.22288E-13 0.34792E-13 0.90067E-14 0.23635E-11 0.11875E-12 0.90212E-10 0.15046E-12 0.34276E-09
 0.35916E-13 0.21251E-12 0.15279E-12 0.61215E-12 0.79659E-14 0.18260E-12 0.15937E-12 0.28724E-12 0.57121E-13 0.49599E-13
 0.18777E-12 0.31675E-11 0.34898E-12 0.23774E-11 0.56621E-14 0.71241E-10 0.31423E-12 0.45130E-11 0.11600E-12 0.49235E-11
 0.18041E-14 0.81379E-13 0.94209E-13 0.25167E-11 0.13323E-13 0.12156E-12 0.33876E-13 0.34937E-12 0.45697E-12 0.61298E-13
 0.85446E-13 0.25165E-12 0.48912E-13 0.32485E-10 0.98949E-14 0.32843E-11 0.15180E-12 0.14898E-09 0.40103E-12 0.52810E-10
 0.98255E-14 0.49197E-13 0.43687E-13 0.45824E-13 0.15821E-14 0.11907E-13 0.22010E-13 0.46213E-14 0.31780E-14 0.22621E-14
 0.11088E-13 0.10579E-11 0.15951E-12 0.67014E-12 0.31364E-14 0.78651E-12 0.34299E-11 0.19150E-10 0.26511E-12 0.10021E-11
 0.57038E-14 0.63970E-12 0.14758E-12 0.46227E-13 0.10963E-14 0.26507E-14 0.33210E-13 0.91913E-13 0.38136E-13 0.37692E-13
 0.18513E-13 0.39627E-12 0.49682E-14 0.73552E-15 0.17486E-14 0.62061E-13 0.10821E-10 0.23269E-11 0.14264E-12 0.46259E-11
 0.49960E-15 0.74107E-14 0.17764E-14 0.79103E-15 0.68001E-15 0.17486E-14 0.64670E-14 0.10589E-13 0.99365E-14 0.54956E-14
 0.93814E-14 0.22640E-12 0.18929E-13 0.25271E-13 0.67446E-14 0.24012E-11 0.45020E-12 0.21556E-10 0.19496E-12 0.57380E-11
 0.59536E-14 0.12089E-11 0.23265E-12 0.75245E-11 0.78548E-14 0.81539E-12 0.67774E-12 0.22417E-12 0.97172E-13 0.13262E-12
 0.32321E-13 0.30535E-11 0.41372E-12 0.24273E-11 0.32752E-14 0.17518E-10 0.21134E-12 0.43442E-12 0.19816E-12 0.34633E-09
 0.30531E-15 0.93953E-13 0.10267E-12 0.22839E-11 0.10644E-13 0.17072E-12 0.62422E-13 0.33851E-12 0.42504E-12 0.11963E-13
 0.21164E-13 0.26999E-12 0.28089E-13 0.45224E-10 0.58425E-14 0.16594E-11 0.57004E-12 0.83366E-11 0.31398E-12 0.51394E-11
 0.23870E-14 0.12310E-13 0.11657E-13 0.12240E-13 0.66613E-15 0.29143E-14 0.30115E-14 0.36082E-15 0.59674E-15 0.33307E-15
 0.25396E-14 0.52698E-12 0.85515E-13 0.18106E-12 0.17208E-14 0.29961E-12 0.24923E-10 0.11850E-10 0.26373E-12 0.98563E-12
 0.19151E-14 0.16032E-11 0.12450E-12 0.23245E-13 0.53429E-15 0.30531E-15 0.11657E-13 0.63047E-13 0.31961E-13 0.47892E-13
 0.40801E-14 0.18650E-12 0.83267E-15 0.22204E-15 0.86042E-15 0.24827E-13 0.16486E-08 0.22397E-11 0.18903E-12 0.84208E-11
 0.19429E-15 0.51487E-14 0.10339E-14 0.24980E-15 0.26368E-15 0.72164E-15 0.46768E-14 0.56066E-14 0.54678E-14 0.27756E-14
 0.27200E-14 0.93266E-13 0.80352E-14 0.81185E-14 0.44409E-14 0.27789E-11 0.10553E-11 0.37782E-11 0.69000E-13 0.50747E-11
 0.11519E-14 0.18652E-11 0.15157E-12 0.56304E-09 0.62172E-14 0.18011E-11 0.15485E-12 0.31822E-13 0.59508E-13 0.22002E-12
 0.95896E-14 0.26925E-11 0.42040E-12 0.19926E-11 0.13184E-14 0.43823E-11 0.29032E-13 0.38053E-13 0.75689E-13 0.28113E-10
  0.0000     0.84446E-13 0.10880E-12 0.26821E-11 0.70915E-14 0.77660E-13 0.43368E-13 0.10113E-12 0.28295E-12 0.33723E-14
 0.64670E-14 0.16312E-12 0.21413E-13 0.95180E-10 0.23176E-14 0.18030E-11 0.98289E-12 0.36719E-11 0.28837E-12 0.17873E-11
 0.94369E-15 0.46907E-14 0.49682E-14 0.47601E-14 0.24980E-15 0.99920E-15 0.79103E-15 -.27756E-16 0.22204E-15 0.55511E-16
 0.72164E-15 0.32718E-12 0.31170E-13 0.82448E-13 0.10963E-14 0.16424E-12 0.53070E-09 0.81354E-11 0.34145E-12 0.10231E-11
 0.10270E-14 0.70388E-11 0.11514E-12 0.18235E-13 0.39552E-15 0.11102E-15 0.59397E-14 0.34805E-13 0.29754E-13 0.50515E-13
 0.12906E-14 0.12866E-12 0.51348E-15 0.83267E-16 0.63838E-15 0.16653E-13 0.36862E-10 0.21182E-11 0.13683E-12 0.14720E-10
 0.83267E-16 0.37054E-14 0.78410E-15 0.10408E-15 0.90206E-16 0.36082E-15 0.36637E-14 0.35250E-14 0.37470E-14 0.18874E-14
 0.94369E-15 0.49419E-13 0.59119E-14 0.51903E-14 0.30809E-14 0.29799E-11 0.14122E-11 0.69428E-12 0.39704E-13 0.27132E-11
 0.37470E-15 0.15308E-11 0.10511E-12 0.14415E-09 0.51209E-14 0.23787E-11 0.57031E-13 0.84932E-14 0.34583E-13 0.36633E-12
 0.38025E-14 0.24611E-11 0.52111E-12 0.79273E-12 0.58287E-15 0.59668E-12 0.68279E-14 0.11352E-13 0.51278E-13 0.43088E-11
 -.27756E-16 0.92981E-13 0.12473E-12 0.26193E-11 0.59674E-14 0.55067E-13 0.29213E-13 0.48531E-13 0.23447E-12 0.81046E-14
 0.25535E-14 0.90095E-13 0.58287E-15 0.29348E-10 0.11241E-14 0.16586E-11 0.94880E-12 0.18243E-11 0.22952E-12 0.95399E-12
 0.38858E-15 0.23870E-14 0.22204E-14 0.24147E-14 0.15266E-15 0.48572E-15 0.20817E-15 -.11102E-15 0.55511E-16 0.27756E-16
 0.38858E-15 0.15968E-12 0.31364E-14 0.25480E-13 0.61062E-15 0.92044E-13 0.44607E-10 0.57981E-11 0.30767E-12 0.10838E-11
 0.38858E-15 0.14830E-07 0.10264E-12 0.11977E-13 0.27062E-15 0.27756E-16 0.24286E-14 0.19290E-13 0.21400E-13 0.55095E-13
 0.47184E-15 0.81810E-13 0.97145E-16 0.10755E-15 0.30531E-15 0.10325E-13 0.49358E-06 0.20419E-11 0.15721E-12 0.44292E-10
 0.12490E-15 0.29143E-14 0.53429E-15 0.69389E-16 0.90206E-16 0.12490E-15 0.27200E-14 0.23870E-14 0.24980E-14 0.13600E-14
 0.40939E-15 0.26319E-13 0.34833E-14 0.26715E-14 0.22343E-14 0.37208E-11 0.31795E-12 0.12119E-12 0.15377E-13 0.44246E-11
 0.13878E-15 0.40998E-12 0.60868E-13 0.45003E-10 0.39968E-14 0.78071E-12 0.14377E-13 0.24564E-14 0.10381E-13 0.18633E-12
 0.18874E-14 0.23079E-11 0.52827E-12 0.67363E-13 0.31919E-15 0.92384E-13 0.16237E-14 0.39968E-14 0.20858E-13 0.20153E-11
 0.27756E-16 0.73858E-13 0.12246E-12 0.30787E-11 0.45797E-14 0.26076E-13 0.10374E-13 0.16556E-13 0.15163E-12 0.22954E-13
 0.13323E-14 0.82018E-13 0.68279E-14 0.12813E-10 0.68001E-15 0.38446E-11 0.31432E-12 0.12615E-11 0.20167E-12 0.58578E-12
 0.33307E-15 0.13045E-14 0.13323E-14 0.15821E-14 0.69389E-16 0.21511E-15 0.13878E-15 -.55511E-16  0.0000     0.11102E-15
 0.16653E-15 0.88457E-13 0.27200E-14 0.24702E-14 0.43715E-15 0.57343E-13 0.72819E-11 0.43485E-11 0.35083E-12 0.10076E-11
 0.16653E-15 0.79649E-11 0.88152E-13 0.87569E-14 0.14572E-15 -.41633E-16 0.30531E-15 0.56066E-14 0.18513E-13 0.63560E-13
 0.27756E-15 0.48572E-13 0.27756E-16 0.22551E-16 0.26368E-15 0.67307E-14 0.11098E-10 0.19170E-11 0.14272E-12 0.18219E-09
  0.0000     0.21649E-14 0.34694E-15 0.20817E-16  0.0000     0.10408E-15 0.19568E-14 0.15821E-14 0.16376E-14 0.10547E-14
 0.24980E-15 0.13975E-13 0.23176E-14 0.14294E-14 0.16376E-14 0.41912E-11 0.94480E-13 0.47073E-13 0.82712E-14 0.48288E-11
 0.12490E-15 0.12906E-12 0.30836E-13 0.28118E-11 0.30531E-14 0.32056E-12 0.60923E-14 0.10547E-14 0.40384E-14 0.76203E-13
 0.10547E-14 0.20641E-11 0.72059E-12 0.22282E-11 0.16653E-15 0.28172E-13 0.66613E-15 0.18874E-14 0.13906E-13 0.10986E-11
 0.27756E-16 0.78271E-13 0.13348E-12 0.39189E-11 0.35250E-14 0.16917E-13 0.47878E-14 0.72581E-14 0.79159E-13 0.85404E-13
 0.77716E-15 0.50515E-13 0.35860E-13 0.96034E-13 0.27756E-15 0.91233E-11 0.12609E-12 0.84643E-12 0.16873E-12 0.45797E-12
  0.0000     0.72164E-15 0.61062E-15 0.11102E-14 0.12490E-15 0.97145E-16 0.13878E-16 -.83267E-16 0.27756E-16 -.55511E-16
 0.27756E-16 0.21455E-13 0.29449E-13 0.11380E-14 0.29837E-15 0.38664E-13 0.16616E-11 0.35853E-11 0.34373E-12 0.86542E-12
 0.11102E-15 0.23642E-11 0.76161E-13 0.68140E-14 0.13531E-15 -.27756E-16 0.11102E-15 0.12768E-14 0.13101E-13 0.70333E-13
 0.16653E-15 0.28338E-13 -.83267E-16 0.34694E-16 0.18041E-15 0.50238E-14 0.15011E-11 0.17894E-11 0.83322E-13 0.14556E-07
 0.27756E-16 0.18596E-14 0.28276E-15  0.0000     0.41633E-16 -.34694E-16 0.16515E-14 0.10270E-14 0.12490E-14 0.66613E-15
 0.83267E-16 0.81220E-14 0.17347E-14 0.98185E-15 0.13184E-14 0.61752E-11 0.23051E-13 0.21066E-13 0.50376E-14 0.18957E-10
 0.41633E-16 0.49044E-13 0.19054E-13 0.54126E-12 0.25396E-14 0.12364E-12 0.29282E-14 0.41633E-15 0.14433E-14 0.21982E-13
 0.66613E-15 0.18054E-11 0.71365E-12 0.11653E-09 0.27756E-16 0.10519E-13 0.23592E-15 0.88818E-15 0.90761E-14 0.78240E-12
  0.0000     0.64115E-13 0.13065E-12 0.37030E-11 0.28866E-14 0.10936E-13 0.22204E-14 0.34139E-14 0.39829E-13 0.39541E-12
 0.36082E-15 0.10436E-13 0.10519E-12 0.46646E-11 0.97145E-16 0.39181E-10 0.47698E-13 0.67268E-12 0.13742E-12 0.38658E-12
 0.55511E-16 0.61062E-15 0.61062E-15 0.11380E-14 0.27756E-16 0.90206E-16 0.27756E-16 0.83267E-16 0.27756E-16 0.55511E-16
 0.16653E-15 0.15238E-13 0.44242E-13 0.24508E-13 0.22204E-15 0.30927E-13 0.64981E-12 0.40174E-11 0.40229E-12 0.89223E-12
 0.16653E-15 0.11614E-11 0.68973E-13 0.60230E-14 0.13531E-15 0.27756E-16 0.55511E-16 0.45519E-14 0.12157E-13 0.96811E-13
 0.11102E-15 0.14974E-13 -.11102E-15  0.0000     0.15266E-15 0.38164E-14 0.46224E-12 0.17564E-11 0.10789E-12 0.16527E-09
 0.27756E-16 0.16098E-14 0.20123E-15 0.17347E-16 -.81532E-16 0.13878E-16 0.12629E-14 0.69389E-15 0.91593E-15 0.68001E-15
 0.27756E-16 0.65434E-14 0.11657E-14 0.68348E-15 0.10859E-14 0.60201E-11 0.10464E-13 0.11463E-13 0.28588E-14 0.34879E-10
 0.90206E-16 0.19235E-13 0.12046E-13 0.17912E-12 0.21511E-14 0.66253E-13 0.20262E-14 0.23592E-15 0.84655E-15 0.10873E-13
 0.52736E-15 0.16924E-11 0.98258E-12 0.13371E-09 -.13878E-16 0.48711E-14 0.11102E-15 0.56899E-15 0.60230E-14 0.53585E-12
 -.55511E-16 0.81185E-13 0.14511E-12 0.56964E-11 0.25813E-14 0.75911E-14 0.15127E-14 0.16306E-14 0.21927E-13 0.44320E-12
 0.38858E-15 0.13656E-13 0.10902E-12 0.34580E-11 0.69389E-16 0.58584E-11 0.25931E-13 0.50393E-12 0.18216E-12 0.43288E-12
 -.55511E-16 0.49960E-15 0.38858E-15 0.94369E-15  0.0000     0.69389E-16  0.0000      0.0000     -.83267E-16 -.27756E-16
  0.0000     0.44675E-12 0.74524E-13 0.36401E-13  0.0000     0.19776E-13 0.36793E-12 0.37099E-11 0.34162E-12 0.71948E-12
 -.55511E-16 0.84147E-12 0.54179E-13 0.49127E-14 0.27756E-16 -.27756E-16 0.55511E-16 0.42355E-13 0.68556E-14 0.77688E-13
 -.55511E-16 0.56621E-14 -.15266E-15 0.17347E-16 0.11796E-15 0.27617E-14 0.20370E-12 0.16366E-11 0.70444E-13 0.55269E-10
 -.13878E-16 0.11657E-14 0.12837E-15 -.31225E-16 -.76328E-16 -.76328E-16 0.84655E-15 0.58287E-15 0.55511E-15 0.36082E-15
  0.0000     0.27131E-14 0.84655E-15 0.44409E-15 0.83267E-15 0.15020E-10 0.31988E-14 0.56899E-14 0.17070E-14 0.20266E-10
 -.20817E-16 0.10297E-13 0.59674E-14 0.78271E-13 0.15196E-14 0.33466E-13 0.10963E-14 0.11102E-15 0.26368E-15 0.29837E-14
 0.44409E-15 0.14678E-11 0.89947E-12 0.15570E-09 -.13878E-16 0.17486E-14 0.13878E-16 0.31919E-15 0.39690E-14 0.42957E-12
 -.27756E-16 0.50959E-13 0.13853E-12 0.54847E-11 0.18874E-14 0.50515E-14 0.74940E-15 0.56899E-15 0.58842E-14 0.22321E-11
 0.19429E-15 0.94369E-15 0.61276E-12 0.38929E-11 -.48572E-16 0.59311E-12 0.12525E-13 0.42516E-12 0.17117E-12 0.32474E-12
 0.11102E-15 0.61062E-15 0.58287E-15 0.91593E-15 0.11102E-15 0.83267E-16 -.27756E-16 0.13878E-16 0.83267E-16 0.55511E-16
 0.11102E-15 0.34936E-11 0.79728E-13 0.91566E-13 0.18041E-15 0.17139E-13 0.23870E-12 0.38235E-11 0.54240E-12 0.59647E-12
 0.83267E-16 0.74875E-12 0.56309E-13 0.61062E-14 0.48572E-16 0.55511E-16 0.83267E-16 0.70416E-13 0.64948E-14 0.95451E-13
 0.55511E-16 0.12837E-14 -.55511E-16 0.27756E-16 0.55511E-16 0.29907E-14 0.10797E-12 0.15380E-11 0.82379E-13 0.26829E-10
 0.13878E-16 0.11519E-14 0.90206E-16  0.0000     -.20817E-16 -.69389E-17 0.76328E-15 0.36082E-15 0.55511E-15 0.31919E-15
 0.69389E-16 0.21788E-14 0.77716E-15 0.39552E-15 0.76328E-15 0.14682E-10 0.21788E-14 0.43299E-14 0.14572E-14 0.88934E-11
 0.20817E-16 0.53013E-14 0.47184E-14 0.41300E-13 0.12976E-14 0.22239E-13 0.94369E-15 0.20817E-15 0.19429E-15 0.19221E-14
 0.41633E-15 0.13246E-11 0.11438E-11 0.66764E-10 -.41633E-16 0.13461E-14 0.97145E-16 0.29143E-15 0.35111E-14 0.33065E-12
  0.0000     0.56066E-13 0.17467E-12 0.72096E-11 0.17764E-14 0.43160E-14 0.61062E-15 0.55511E-15 0.32752E-14 0.48685E-11
 0.30531E-15 0.33307E-15 0.80702E-12 0.30438E-11 0.48572E-16 0.35363E-12 0.85001E-14 0.34120E-12 0.22006E-12 0.34225E-12
 -.55511E-16 0.44409E-15 0.47184E-15 0.10686E-14 0.27756E-16 0.13878E-16 -.69389E-17 -.55511E-16  0.0000      0.0000    
 -.69389E-16 0.67713E-11 0.87194E-13 0.10461E-12 0.27756E-16 0.12414E-13 0.17179E-12 0.38243E-11 0.66158E-12 0.54529E-12
 0.13878E-16 0.63276E-12 0.53749E-13 0.52458E-14 0.34694E-16 0.83267E-16 0.19429E-15 0.13869E-12 0.45242E-14 0.10247E-12
 -.27756E-16 0.12490E-15 -.83267E-16 0.41633E-16 0.12490E-15 0.26160E-14 0.65919E-13 0.14987E-11 0.59980E-13 0.16395E-10
 -.13878E-16 0.91593E-15 0.62450E-16 -.83267E-16 -.62450E-16 -.13878E-16 0.58287E-15 0.32613E-15 0.27756E-15 0.22204E-15
 -.55511E-16 0.14017E-14 0.48572E-15 0.20123E-15 0.55511E-15 0.49337E-10 0.95063E-15 0.26923E-14 0.90206E-15 0.20634E-11
 -.62450E-16 0.35388E-14 0.29005E-14 0.23467E-13 0.12004E-14 0.13642E-13 0.57593E-15 0.69389E-17 0.76328E-16 0.70777E-15
 0.34694E-15 0.11539E-11 0.10733E-11 0.10760E-09 -.69389E-17 0.63838E-15 -.20817E-16 0.16653E-15 0.24078E-14 0.32611E-12
 0.83267E-16 0.50376E-13 0.20356E-12 0.71362E-11 0.15821E-14 0.30254E-14 0.31225E-15 0.29143E-15 0.69389E-15 0.22996E-09
 0.27756E-16 0.27756E-16 0.19491E-11 0.26086E-11 0.27756E-16 0.16219E-12 0.50585E-14 0.29791E-12 0.21115E-12 0.34155E-12
 -.41633E-16 0.39552E-15 0.52736E-15 0.76328E-15  0.0000     0.69389E-16 -.55511E-16 -.69389E-17 -.27756E-16 0.15266E-15
 0.27756E-16 0.14899E-11 0.87541E-13 0.20028E-12 0.48572E-16 0.10165E-13 0.12251E-12 0.40726E-11 0.77510E-12 0.38311E-12
 0.11102E-15 0.58458E-12 0.63005E-13 0.50515E-14 0.55511E-16 0.34694E-16 0.29837E-15 0.20028E-12 0.26645E-14 0.11739E-12
 -.20817E-16 0.45797E-15 0.13878E-16 -.34694E-16 0.62450E-16 0.26090E-14 0.46629E-13 0.13304E-11 0.51237E-13 0.12746E-10
 -.41633E-16 0.87430E-15 0.10408E-15 -.97145E-16 -.90206E-16 -.13878E-16 0.45797E-15 0.18041E-15 0.30531E-15 0.13878E-15
 -.13878E-16 0.81879E-15 0.49266E-15 0.22204E-15 0.54123E-15 0.77324E-10 0.52042E-15 0.18735E-14 0.72164E-15 0.10719E-11
 -.55511E-16 0.19151E-14 0.21441E-14 0.13989E-13 0.83267E-15 0.95687E-14 0.46491E-15 0.41633E-16 0.55511E-16 0.29837E-15
 0.34001E-15 0.10344E-11 0.11960E-11 0.89728E-10 -.13878E-16 0.36082E-15 -.34694E-16 0.20123E-15 0.20192E-14 0.28993E-12
 0.55511E-16 0.47115E-13 0.20570E-12 0.81665E-11 0.14017E-14 0.24911E-14 0.31919E-15 0.13878E-15 0.62450E-15 0.13093E-10
 0.24980E-15 0.55511E-15 0.32926E-11 0.21032E-11 0.69389E-16 0.88624E-13 0.33654E-14 0.26683E-12 0.22983E-12 0.38213E-12
 0.27756E-16 0.40939E-15 0.40939E-15 0.90206E-15 -.27756E-16 0.20817E-16 -.55511E-16 -.55511E-16 -.48572E-16 0.13878E-16
 -.34694E-16 0.54574E-12 0.81296E-13 0.36718E-12 0.41633E-16 0.82642E-14 0.10957E-12 0.41934E-11 0.10288E-11 0.32735E-12
 -.27756E-16 0.58163E-12 0.62485E-13 0.51834E-14 0.62450E-16  0.0000     0.24980E-15 0.26795E-12 0.22760E-14 0.12880E-12
 -.76328E-16 0.41911E-14 -.55511E-16 -.48572E-16 0.41633E-16 0.25119E-14 0.41744E-13 0.12876E-11 0.56559E-13 0.95329E-11
 -.48572E-16 0.10408E-14 0.10408E-15 -.97145E-16 -.55511E-16 -.48572E-16 0.29143E-15 0.20817E-15 0.21511E-15 0.10408E-15
 -.97145E-16 0.61062E-15 0.40246E-15 0.16653E-15 0.51348E-15 0.21043E-08 0.25674E-15 0.13635E-14 0.55164E-15 0.55653E-12
 -.13878E-16 0.12351E-14 0.15613E-14 0.93606E-14 0.59674E-15 0.66960E-14 0.40246E-15 -.15613E-16 -.34694E-16 0.15266E-15
 0.34694E-15 0.90843E-12 0.19162E-11 0.68692E-09  0.0000     0.20817E-15 0.27756E-16 0.10408E-15 0.16064E-14 0.29617E-12
 -.13878E-16 0.42924E-13 0.27221E-12 0.98089E-11 0.10547E-14 0.19915E-14 0.22898E-15 0.76328E-16 -.69389E-16 0.51990E-11
 0.10408E-15 0.66613E-15 0.58046E-11 0.17462E-11 -.34694E-16 0.54429E-13 0.24911E-14 0.29335E-12 0.26951E-12 0.38198E-12
 -.13878E-15 0.36776E-15 0.39552E-15 0.71471E-15 -.62450E-16  0.0000     -.69389E-17 -.27756E-16 -.90206E-16 -.41633E-16
 0.76328E-16 0.29150E-12 0.74857E-13 0.32162E-12 0.55511E-16 0.60507E-14 0.88221E-13 0.47659E-11 0.94827E-12 0.22811E-12
 -.13878E-16 0.62365E-12 0.61305E-13 0.39413E-14  0.0000     0.11102E-15 0.31225E-15 0.33088E-12 0.80491E-15 0.10673E-12
 -.27756E-16 0.53152E-14 -.48572E-16 -.69389E-16 -.69389E-16 0.18319E-14 0.34528E-13 0.11796E-11 0.46414E-13 0.81820E-11
 -.69389E-16 0.73552E-15 0.76328E-16 -.20817E-16 -.97145E-16 -.48572E-16 0.24286E-15 0.11102E-15 0.13531E-15 0.76328E-16
 -.69389E-17 0.18735E-15 0.28449E-15 0.55511E-16 0.34001E-15 0.54735E-09 0.93675E-16 0.87083E-15 0.27409E-15 0.32602E-12
 -.13878E-16 0.86042E-15 0.11102E-14 0.64948E-14 0.55511E-15 0.48156E-14 0.30184E-15 -.34694E-17 -.81532E-16 -.69389E-17
 0.18735E-15 0.85094E-12 0.27695E-11 0.14053E-09 -.27756E-16 0.39899E-16 0.59848E-16 0.38164E-16 0.11571E-14 0.30399E-12
 -.27756E-16 0.31891E-13 0.24798E-12 0.10187E-10 0.11172E-14 0.14589E-14 0.14572E-15 0.13878E-16  0.0000     0.26036E-11
 0.69389E-16 0.17764E-14 0.27236E-10 0.14227E-11 0.69389E-17 0.31808E-13 0.16064E-14 0.30433E-12 0.28497E-12 0.36870E-12
 0.16653E-15 0.41633E-15 0.43021E-15 0.83961E-15 -.55511E-16 0.55511E-16 0.34694E-16  0.0000     0.69389E-16 0.55511E-16
 -.13878E-16 0.24432E-12 0.70707E-13 0.10589E-11 0.48572E-16 0.55372E-14 0.58321E-13 0.44682E-11 0.12138E-11 0.22234E-12
 -.27756E-16 0.55798E-12 0.55941E-13 0.49127E-14 0.55511E-16 0.48572E-16 0.33307E-15 0.49982E-12 0.79103E-15 0.11297E-12
 -.27756E-16 0.23939E-13 -.34694E-16 0.13878E-16 0.34694E-16 0.23037E-14 0.22767E-13 0.11697E-11 0.36832E-13 0.69781E-11
 0.11102E-15 0.91593E-15 0.27756E-16 -.34694E-16 -.27756E-16 -.48572E-16 0.24980E-15 0.22204E-15 0.15613E-15 0.13878E-16
 -.55511E-16 0.19429E-15 0.25674E-15 0.83267E-16 0.31225E-15 0.61461E-10 0.11102E-15 0.80665E-15 0.27756E-15 0.25560E-12
 0.55511E-16 0.36776E-15 0.91593E-15 0.41217E-14 0.34694E-15 0.43854E-14 0.28103E-15  0.0000     -.71991E-16 -.10755E-15
 0.22204E-15 0.71557E-12 0.19491E-11 0.15786E-09 0.55511E-16 0.55511E-16 0.27756E-16 0.30358E-16 0.10651E-14 0.32929E-12
 0.55511E-16 0.31565E-13 0.32907E-12 0.10712E-10 0.12004E-14 0.13704E-14 0.12013E-15 0.65919E-16 0.52736E-15 0.14614E-11
 0.69389E-16 0.14849E-14 0.63668E-10 0.12120E-11 0.52042E-16 0.28158E-13 0.12525E-14 0.34401E-12 0.29621E-12 0.39697E-12
 -.13878E-16 0.47184E-15 0.41633E-15 0.74246E-15 -.41633E-16 0.41633E-16 -.27756E-16 -.55511E-16 -.27756E-16 0.27756E-16
 -.55511E-16 0.18584E-12 0.63283E-13 0.82490E-12 -.20817E-16 0.45242E-14 0.69084E-13 0.50277E-11 0.15876E-11 0.16906E-12
 0.13878E-16 0.62451E-12 0.77952E-13 0.49266E-14 0.27756E-16 -.27756E-16 0.30531E-15 0.54179E-12 0.29143E-15 0.11502E-12
 -.11102E-15 0.20851E-13 -.48572E-16 -.69389E-16  0.0000     0.22204E-14 0.27534E-13 0.14094E-11 0.40440E-13 0.61868E-11
  0.0000     0.87430E-15 0.83267E-16 -.55511E-16 -.27756E-16 -.27756E-16 0.17347E-15 0.90206E-16 0.17347E-15 0.83267E-16
 0.13878E-16 0.83267E-16 0.23592E-15  0.0000     0.33307E-15 0.48838E-10 0.83267E-16 0.46491E-15 0.22204E-15 0.15918E-12
 0.27756E-16 0.34694E-15 0.81879E-15 0.33584E-14 0.36082E-15 0.33723E-14 0.18388E-15 0.13878E-15 -.29490E-16 -.69389E-16
 0.13878E-15 0.64945E-12 0.42176E-11 0.32558E-09 0.27756E-16 -.12143E-16 0.16653E-15 0.83267E-16 0.91593E-15 0.32645E-12
 -.20817E-16 0.30045E-13 0.35744E-12 0.12071E-10 0.16306E-14 0.12768E-14 0.76328E-16 0.13878E-16 0.26368E-15 0.10874E-11
 -.27756E-16 0.23870E-14 0.12425E-09 0.10146E-11 0.27756E-16 0.15529E-13 0.95757E-15 0.34781E-12 0.34649E-12 0.43682E-12
  0.0000     0.34694E-15 0.56899E-15 0.91593E-15 -.41633E-16 -.11102E-15 0.13878E-16 0.13878E-15 0.27756E-16 0.55511E-16
 0.55511E-16 0.15202E-12 0.57211E-13 0.16565E-11 0.27756E-16 0.36637E-14 0.60278E-13 0.48886E-11 0.17242E-11 0.16941E-12
  0.0000     0.58980E-12 0.63033E-13 0.43021E-14 -.55511E-16 -.27756E-16 0.34694E-15 0.65131E-12 0.29143E-15 0.11052E-12
 -.13878E-16 0.30947E-13 -.83267E-16 -.27756E-16 0.55511E-16 0.19984E-14 0.22773E-13 0.16156E-11 0.37401E-13 0.55620E-11
 0.69389E-16 0.97145E-15 0.55511E-16 -.13878E-16 -.55511E-16  0.0000     0.18041E-15 0.13878E-15 0.24286E-15 0.27756E-16
 -.55511E-16  0.0000     0.12490E-15 0.83267E-16 0.29143E-15 0.12786E-10 0.41633E-16 0.51348E-15 0.19429E-15 0.17400E-12
 -.13878E-16 0.31919E-15 0.54123E-15 0.25535E-14 0.33307E-15 0.35943E-14 0.12837E-15 0.41633E-16 -.10408E-16 -.11102E-15
 0.22204E-15 0.56383E-12 0.52387E-11 0.16395E-08 0.27756E-16 -.55511E-16  0.0000     0.76328E-16 0.94369E-15 0.34045E-12
 0.55511E-16 0.25632E-13 0.44179E-12 0.13288E-10 0.15821E-14 0.14849E-14 0.11449E-15  0.0000     0.53429E-15 0.79875E-12
 0.83267E-16 0.19290E-14 0.32789E-09 0.85303E-12 0.83267E-16 0.13080E-13 0.77716E-15 0.36306E-12 0.37381E-12 0.46481E-12
 -.26368E-15 0.37470E-15 0.43021E-15 0.81879E-15 -.41633E-16 -.41633E-16 -.13878E-16 -.83267E-16 -.12490E-15 -.83267E-16
 -.11102E-15 0.13124E-12 0.51251E-13 0.20752E-11 -.13878E-16 0.30809E-14 0.58412E-13 0.55038E-11 0.18068E-11 0.20943E-12
 -.83267E-16 0.64840E-12 0.77022E-13 0.44131E-14 0.97145E-16 0.27756E-16 0.19429E-15 0.71661E-12 0.27756E-16 0.92162E-13
 -.16653E-15 0.36193E-13 -.69389E-16 0.27756E-16 0.83267E-16 0.20817E-14 0.21580E-13 0.18125E-11 0.30878E-13 0.50955E-11
 -.41633E-16 0.96451E-15 0.69389E-16 -.55511E-16 -.41633E-16 -.69389E-16 0.69389E-16 0.83267E-16 0.55511E-16 0.55511E-16
 -.55511E-16 -.55511E-16 0.69389E-16 0.41633E-16 0.33307E-15 0.12032E-10 -.13878E-16 0.31919E-15 0.69389E-16 0.15388E-12
 0.55511E-16 0.18041E-15 0.49960E-15 0.18319E-14 0.19429E-15 0.31086E-14 0.22204E-15 0.27756E-16 0.41633E-16 -.83267E-16
 0.12490E-15 0.51109E-12 0.98380E-11 0.14718E-08  0.0000     -.69389E-16  0.0000     0.97145E-16 0.80491E-15 0.36818E-12
 -.13878E-16 0.22607E-13 0.41617E-12 0.14144E-10 0.16098E-14 0.12351E-14 0.69389E-16 0.27756E-16 0.58287E-15 0.59047E-12
 -.27756E-16 0.12490E-15 0.15940E-08 0.72035E-12  0.0000     0.97283E-14 0.58287E-15 0.39656E-12 0.38375E-12 0.51002E-12
 -.83267E-16 0.36082E-15 0.55511E-15 0.10547E-14 -.13878E-15  0.0000     -.27756E-16 -.55511E-16 -.69389E-16 -.12490E-15
 -.41633E-16 0.11725E-12 0.45713E-13 0.15959E-11 -.13878E-16 0.28588E-14 0.61715E-13 0.60682E-11 0.20599E-11 0.17109E-12
 0.13878E-16 0.71668E-12 0.75634E-13 0.50931E-14 0.41633E-16 0.83267E-16 0.23592E-15 0.76941E-12 0.19429E-15 0.81476E-13
  0.0000     0.24980E-13 -.13878E-15 0.13878E-16 0.97145E-16 0.24147E-14 0.23315E-13 0.24813E-11 0.31516E-13 0.43549E-11
  0.0000     0.11102E-14 0.27756E-16 -.27756E-16 -.97145E-16 -.41633E-16 0.97145E-16 0.41633E-16 0.69389E-16  0.0000    
 -.27756E-16 -.27756E-16 0.97145E-16  0.0000     0.34694E-15 0.48637E-11 0.55511E-16 0.31919E-15 0.97145E-16 0.16623E-12
 0.27756E-16 0.16653E-15 0.45797E-15 0.17070E-14 0.26368E-15 0.38303E-14 0.19429E-15 0.13878E-16  0.0000     -.27756E-16
 0.13878E-15 0.45357E-12 0.24720E-10 0.15028E-09 0.41633E-16 -.41633E-16 0.55511E-16 0.69389E-16 0.95757E-15 0.38897E-12
 -.27756E-16 0.20067E-13 0.62116E-12 0.15401E-10 0.19568E-14 0.14155E-14 0.55511E-16  0.0000     0.58287E-15 0.56841E-12
 -.27756E-16 0.37470E-15 0.89110E-09 0.61709E-12  0.0000     0.89234E-14 0.55511E-15 0.42538E-12 0.44512E-12 0.52729E-12
 -.20817E-16 0.47184E-15 0.41633E-15 0.99920E-15 0.27756E-16 -.55511E-16 -.27756E-16 -.41633E-16  0.0000     -.15266E-15
 0.34694E-16 0.10694E-12 0.41092E-13 0.12595E-10 0.27756E-16 0.21927E-14 0.55844E-13 0.58138E-11 0.22878E-11 0.16018E-12
 0.83267E-16 0.70025E-12 0.84849E-13 0.46491E-14 0.27756E-16 0.83267E-16 0.15266E-15 0.86114E-12 0.83267E-16 0.71887E-13
 0.83267E-16 0.57759E-13 -.27756E-16 -.83267E-16 0.83267E-16 0.20539E-14 0.20886E-13 0.23842E-11 0.23814E-13 0.43419E-11
  0.0000     0.11241E-14 0.55511E-16 -.55511E-16 -.55511E-16 -.55511E-16 0.55511E-16 0.12490E-15 0.23592E-15 0.11102E-15
 -.27756E-16 -.11102E-15 0.97145E-16 -.41633E-16 0.33307E-15 0.46163E-11  0.0000     0.22204E-15 0.55511E-16 0.13470E-12
 -.27756E-16 0.18041E-15 0.33307E-15 0.13323E-14 0.18041E-15 0.32335E-14 0.22204E-15  0.0000     -.27756E-16 -.83267E-16
 0.11102E-15 0.39373E-12 0.49207E-10 0.29629E-08 0.27756E-16 -.27756E-16  0.0000     0.69389E-16 0.10547E-14 0.39176E-12
 0.13878E-15 0.17653E-13 0.57643E-12 0.14522E-10 0.20678E-14 0.13739E-14 0.83267E-16 -.41633E-16 0.66613E-15 0.46768E-12
 -.83267E-16 0.28449E-15 0.14262E-09 0.52924E-12 0.27756E-16 0.62450E-14 0.41633E-15 0.44287E-12 0.45011E-12 0.58288E-12
 -.12317E-15 0.50307E-15 0.46491E-15 0.10686E-14 0.13878E-16 -.13878E-16 -.13878E-16  0.0000     0.69389E-17 -.72858E-16
 0.13878E-16 0.10146E-12 0.36665E-13 0.30894E-11 0.27756E-16 0.23037E-14 0.60313E-13 0.64873E-11 0.23230E-11 0.13868E-12
 -.11796E-15 0.76505E-12 0.96034E-13 0.67446E-14 0.27756E-16 -.69389E-16 0.69389E-16 0.90733E-12 0.97145E-16 0.57038E-13
 0.27756E-16 0.30587E-13 -.83267E-16 0.13878E-16 0.27756E-16 0.31780E-14 0.22760E-13 0.29587E-11 0.19068E-13 0.39634E-11
 -.13878E-16 0.12351E-14 0.11102E-15 -.55511E-16 -.41633E-16 -.41633E-16 0.13878E-16 0.11102E-15 0.12490E-15 0.13878E-16
 -.97145E-16 -.27756E-16 0.69389E-16 0.13878E-16 0.41633E-15 0.24992E-11  0.0000     0.20817E-15 0.13878E-15 0.14709E-12
 -.55511E-16 0.12490E-15 0.33307E-15 0.12351E-14 0.13878E-15 0.37192E-14 0.16653E-15 -.11102E-15 -.13878E-16 0.27756E-16
 0.13878E-15 0.35072E-12 0.15176E-09 0.40370E-09 0.69389E-16 -.27756E-16 -.55511E-16 0.27756E-16 0.11935E-14 0.43385E-12
  0.0000     0.14440E-13 0.58272E-12 0.14639E-10 0.27200E-14 0.19706E-14  0.0000     0.13878E-16 0.45797E-15 0.39613E-12
 0.13878E-16 0.15266E-15 0.39000E-10 0.45436E-12 0.41633E-16 0.60368E-14 0.38858E-15 0.48986E-12 0.47477E-12 0.61224E-12
 -.10408E-15 0.46144E-15 0.86736E-15 0.12768E-14  0.0000     -.27756E-16 -.55511E-16 0.41633E-16 0.83267E-16 -.13704E-15
 -.97145E-16 0.10744E-12 0.32557E-13 0.82363E-12 0.41633E-16 0.31086E-14 0.66391E-13 0.72700E-11 0.27117E-11 0.12425E-12
 0.34694E-16 0.84307E-12 0.10780E-12 0.63699E-14 0.41633E-16 -.41633E-16 0.55511E-16 0.90225E-12 0.52042E-16 0.54099E-13
 -.13878E-16 0.14516E-13 0.27756E-16 -.27756E-16 0.11102E-15 0.27756E-14 0.25105E-13 0.37984E-11 0.25341E-13 0.33147E-11
 0.13878E-16 0.16237E-14 0.83267E-16 0.27756E-16 -.41633E-16 -.83267E-16 0.69389E-16 0.55511E-16 0.83267E-16 0.41633E-16
  0.0000     -.13878E-16 0.11102E-15 -.13878E-16 0.47184E-15 0.59907E-11 0.83267E-16 0.12490E-15 0.16653E-15 0.19759E-12
  0.0000     0.13878E-15 0.24980E-15 0.16098E-14 0.15266E-15 0.44964E-14 0.29143E-15 -.27756E-16  0.0000     -.41633E-16
 0.15266E-15 0.31272E-12 0.21552E-09 0.39114E-10 0.13878E-16 -.27756E-16 0.27756E-16 0.15266E-15 0.13739E-14 0.51459E-12
 0.52042E-16 0.14381E-13 0.86649E-12 0.18383E-10 0.32752E-14 0.19984E-14 0.27756E-16 -.69389E-16 0.34694E-15 0.51700E-12
 -.24286E-16 -.46838E-16 0.71650E-11 0.38562E-12 0.27756E-16 0.63699E-14 0.26368E-15 0.57836E-12 0.57972E-12 0.75641E-12
 -.81369E-16 0.61893E-15 0.79190E-15 0.13605E-14 0.23419E-16 -.30791E-16 0.15179E-16 -.22985E-16 0.16290E-16 -.61617E-16
 -.13891E-17 0.10772E-12 0.28834E-13 0.45530E-12 0.34694E-17 0.36533E-14 0.86799E-13 0.78857E-11 0.29028E-11 0.11821E-12
 0.32634E-16 0.95600E-12 0.13449E-12 0.87452E-14 -.18215E-16 -.59848E-16 0.45753E-16 0.90337E-12 -.41742E-17 0.38991E-13
 -.13878E-16 0.10373E-13 -.63751E-16 -.20817E-16 0.98012E-16 0.39968E-14 0.35293E-13 0.45482E-11 0.22520E-13 0.27640E-11