PROCAR lm decomposed
# of k-points:   31         # of bands:   28         # of ions:    5

 k-point     1 :    0.00000000 0.00000000 0.00000000     weight = 0.01000000

band     1 # energy  -11.28430091 # occ.  2.00000000
 
ion      s     py     pz     px    dxy    dyz    dz2    dxz  x2-y2    tot
    1  0.059  0.000  0.006  0.000  0.000  0.000  0.000  0.000  0.000  0.066
    2  0.212  0.000  0.001  0.000  0.000  0.000  0.000  0.000  0.000  0.213
    3  0.220  0.000  0.001  0.000  0.000  0.000  0.000  0.000  0.000  0.221
    4  0.076  0.000  0.005  0.000  0.000  0.000  0.000  0.000  0.000  0.081
    5  0.003  0.000  0.000  0.000  0.000  0.000  0.000  0.000  0.000  0.003
tot    0.569  0.000  0.014  0.000  0.000  0.000  0.001  0.000  0.000  0.584
 
band     2 # energy  -10.14235076 # occ.  2.00000000
 
ion      s     py     pz     px    dxy    dyz    dz2    dxz  x2-y2    tot
    1  0.147  0.000  0.007  0.000  0.000  0.000  0.004  0.000  0.000  0.158
    2  0.102  0.000  0.015  0.000  0.000  0.000  0.004  0.000  0.000  0.122
    3  0.058  0.000  0.022  0.000  0.000  0.000  0.002  0.000  0.000  0.082
    4  0.188  0.000  0.002  0.000  0.000  0.000  0.002  0.000  0.000  0.192
    5  0.016  0.000  0.000  0.000  0.000  0.000  0.000  0.000  0.000  0.016
tot    0.512  0.000  0.045  0.000  0.000  0.000  0.012  0.000  0.000  0.569
 
band     3 # energy   -8.66746374 # occ.  2.00000000
 
ion      s     py     pz     px    dxy    dyz    dz2    dxz  x2-y2    tot
    1  0.147  0.000  0.000  0.000  0.000  0.000  0.040  0.000  0.000  0.186
    2  0.014  0.000  0.035  0.000  0.000  0.000  0.006  0.000  0.000  0.055
    3  0.086  0.000  0.016  0.000  0.000  0.000  0.034  0.000  0.000  0.136
    4  0.114  0.000  0.013  0.000  0.000  0.000  0.019  0.000  0.000  0.147
    5  0.043  0.000  0.000  0.000  0.000  0.000  0.000  0.000  0.000  0.043
tot    0.404  0.000  0.065  0.000  0.000  0.000  0.098  0.000  0.000  0.567
 
band     4 # energy   -7.68755700 # occ.  2.00000000
 
ion      s     py     pz     px    dxy    dyz    dz2    dxz  x2-y2    tot
    1  0.070  0.000  0.005  0.000  0.000  0.000  0.110  0.000  0.000  0.185
    2  0.082  0.000  0.000  0.000  0.000  0.000  0.227  0.000  0.000  0.309
    3  0.049  0.000  0.005  0.000  0.000  0.000  0.137  0.000  0.000  0.192
    4  0.008  0.000  0.015  0.000  0.000  0.000  0.008  0.000  0.000  0.031
    5  0.019  0.000  0.000  0.000  0.000  0.000  0.000  0.000  0.000  0.019
tot    0.228  0.000  0.026  0.000  0.000  0.000  0.482  0.000  0.000  0.736
 
band     5 # energy   -6.99833316 # occ.  2.00000000
 
ion      s     py     pz     px    dxy    dyz    dz2    dxz  x2-y2    tot
    1  0.000  0.000  0.000  0.000  0.000  0.000  0.000  0.000  0.000  0.000
    2  0.000  0.000  0.000  0.000  0.000  0.000  0.001  0.000  0.000  0.002
    3  0.000  0.000  0.004  0.000  0.000  0.000  0.058  0.000  0.000  0.062
    4  0.018  0.000  0.031  0.000  0.000  0.000  0.470  0.000  0.000  0.519
    5  0.116  0.000  0.001  0.000  0.000  0.000  0.000  0.000  0.000  0.116
tot    0.134  0.000  0.035  0.000  0.000  0.000  0.530  0.000  0.000  0.700
 
band     6 # energy   -5.65211728 # occ.  2.00000000
 
ion      s     py     pz     px    dxy    dyz    dz2    dxz  x2-y2    tot
    1  0.002  0.000  0.000  0.000  0.000  0.000  0.027  0.000  0.000  0.029
    2  0.000  0.000  0.012  0.000  0.000  0.000  0.136  0.000  0.000  0.147
    3  0.003  0.000  0.000  0.000  0.000  0.000  0.631  0.000  0.000  0.635
    4  0.001  0.000  0.007  0.000  0.000  0.000  0.117  0.000  0.000  0.125
    5  0.001  0.000  0.000  0.000  0.000  0.000  0.000  0.000  0.000  0.001
tot    0.007  0.000  0.019  0.000  0.000  0.000  0.911  0.000  0.000  0.937
 
band     7 # energy   -5.56813528 # occ.  2.00000000
 
ion      s     py     pz     px    dxy    dyz    dz2    dxz  x2-y2    tot
    1  0.000  0.000  0.007  0.000  0.000  0.000  0.391  0.000  0.000  0.398
    2  0.004  0.000  0.003  0.000  0.000  0.000  0.450  0.000  0.000  0.457
    3  0.002  0.000  0.010  0.000  0.000  0.000  0.002  0.000  0.000  0.014
    4  0.000  0.000  0.008  0.000  0.000  0.000  0.045  0.000  0.000  0.054
    5  0.003  0.000  0.000  0.000  0.000  0.000  0.000  0.000  0.000  0.003
tot    0.010  0.000  0.027  0.000  0.000  0.000  0.889  0.000  0.000  0.926
 
band     8 # energy   -5.52212373 # occ.  2.00000000
 
ion      s     py     pz     px    dxy    dyz    dz2    dxz  x2-y2    tot
    1  0.000  0.000  0.000  0.000  0.001  0.006  0.000  0.000  0.023  0.030
    2  0.000  0.000  0.000  0.000  0.018  0.013  0.000  0.001  0.360  0.391
    3  0.000  0.000  0.000  0.000  0.021  0.013  0.000  0.001  0.436  0.471
    4  0.000  0.000  0.000  0.000  0.003  0.011  0.000  0.001  0.056  0.071
    5  0.000  0.000  0.000  0.000  0.000  0.000  0.000  0.000  0.000  0.000
tot    0.000  0.000  0.000  0.000  0.042  0.044  0.000  0.002  0.875  0.964
 
band     9 # energy   -5.52132722 # occ.  2.00000000
 
ion      s     py     pz     px    dxy    dyz    dz2    dxz  x2-y2    tot
    1  0.000  0.000  0.000  0.000  0.023  0.000  0.000  0.006  0.001  0.031
    2  0.000  0.000  0.000  0.000  0.363  0.001  0.000  0.013  0.017  0.395
    3  0.000  0.000  0.000  0.000  0.435  0.001  0.000  0.013  0.021  0.470
    4  0.000  0.000  0.000  0.000  0.054  0.001  0.000  0.011  0.003  0.069
    5  0.000  0.000  0.000  0.000  0.000  0.000  0.000  0.000  0.000  0.000
tot    0.000  0.000  0.000  0.000  0.876  0.002  0.000  0.043  0.042  0.964
 
band    10 # energy   -5.48193825 # occ.  2.00000000
 
ion      s     py     pz     px    dxy    dyz    dz2    dxz  x2-y2    tot
    1  0.000  0.000  0.000  0.000  0.003  0.001  0.000  0.021  0.000  0.025
    2  0.000  0.000  0.000  0.000  0.378  0.002  0.000  0.063  0.012  0.455
    3  0.000  0.000  0.000  0.000  0.346  0.002  0.000  0.079  0.011  0.439
    4  0.000  0.000  0.000  0.000  0.016  0.001  0.000  0.033  0.000  0.050
    5  0.000  0.000  0.000  0.000  0.000  0.000  0.000  0.000  0.000  0.000
tot    0.000  0.000  0.000  0.000  0.742  0.006  0.000  0.196  0.024  0.968
 
band    11 # energy   -5.48106451 # occ.  2.00000000
 
ion      s     py     pz     px    dxy    dyz    dz2    dxz  x2-y2    tot
    1  0.000  0.000  0.000  0.000  0.000  0.022  0.000  0.001  0.002  0.025
    2  0.000  0.000  0.000  0.000  0.012  0.062  0.000  0.002  0.385  0.462
    3  0.000  0.000  0.000  0.000  0.011  0.078  0.000  0.003  0.344  0.435
    4  0.000  0.000  0.000  0.000  0.000  0.032  0.000  0.001  0.013  0.047
    5  0.000  0.000  0.000  0.000  0.000  0.000  0.000  0.000  0.000  0.000
tot    0.000  0.000  0.000  0.000  0.024  0.194  0.000  0.006  0.744  0.968
 
band    12 # energy   -5.35152377 # occ.  2.00000000
 
ion      s     py     pz     px    dxy    dyz    dz2    dxz  x2-y2    tot
    1  0.000  0.000  0.000  0.000  0.043  0.000  0.000  0.002  0.002  0.047
    2  0.000  0.000  0.000  0.000  0.093  0.000  0.000  0.006  0.003  0.102
    3  0.000  0.000  0.000  0.000  0.000  0.001  0.000  0.036  0.000  0.038
    4  0.000  0.000  0.000  0.000  0.749  0.000  0.000  0.004  0.028  0.781
    5  0.000  0.000  0.000  0.000  0.000  0.000  0.000  0.000  0.000  0.000
tot    0.000  0.000  0.000  0.000  0.885  0.002  0.000  0.048  0.033  0.968
 
band    13 # energy   -5.35057382 # occ.  2.00000000
 
ion      s     py     pz     px    dxy    dyz    dz2    dxz  x2-y2    tot
    1  0.000  0.000  0.000  0.000  0.002  0.001  0.000  0.000  0.047  0.050
    2  0.000  0.000  0.000  0.000  0.003  0.007  0.000  0.000  0.088  0.100
    3  0.000  0.000  0.000  0.000  0.000  0.037  0.000  0.001  0.000  0.039
    4  0.000  0.000  0.000  0.000  0.028  0.003  0.000  0.000  0.749  0.780
    5  0.000  0.000  0.000  0.000  0.000  0.000  0.000  0.000  0.000  0.000
tot    0.000  0.000  0.000  0.000  0.033  0.049  0.000  0.002  0.884  0.968
 
band    14 # energy   -5.25297801 # occ.  2.00000000
 
ion      s     py     pz     px    dxy    dyz    dz2    dxz  x2-y2    tot
    1  0.000  0.000  0.000  0.000  0.502  0.003  0.000  0.004  0.297  0.806
    2  0.000  0.000  0.000  0.000  0.004  0.021  0.000  0.036  0.003  0.065
    3  0.000  0.000  0.000  0.000  0.031  0.000  0.000  0.000  0.019  0.050
    4  0.000  0.000  0.000  0.000  0.027  0.002  0.000  0.003  0.017  0.048
    5  0.000  0.000  0.000  0.000  0.000  0.000  0.000  0.000  0.000  0.000
tot    0.000  0.000  0.000  0.000  0.565  0.025  0.000  0.043  0.335  0.969
 
band    15 # energy   -5.25262953 # occ.  2.00000000
 
ion      s     py     pz     px    dxy    dyz    dz2    dxz  x2-y2    tot
    1  0.000  0.000  0.000  0.000  0.298  0.004  0.000  0.003  0.501  0.805
    2  0.000  0.000  0.000  0.000  0.003  0.036  0.000  0.021  0.005  0.065
    3  0.000  0.000  0.000  0.000  0.019  0.000  0.000  0.000  0.032  0.051
    4  0.000  0.000  0.000  0.000  0.016  0.003  0.000  0.002  0.028  0.049
    5  0.000  0.000  0.000  0.000  0.000  0.000  0.000  0.000  0.000  0.000
tot    0.000  0.000  0.000  0.000  0.335  0.043  0.000  0.026  0.565  0.969
 
band    16 # energy   -5.07601602 # occ.  2.00000000
 
ion      s     py     pz     px    dxy    dyz    dz2    dxz  x2-y2    tot
    1  0.024  0.000  0.001  0.000  0.000  0.000  0.303  0.000  0.000  0.327
    2  0.013  0.000  0.035  0.000  0.000  0.000  0.048  0.000  0.000  0.096
    3  0.000  0.000  0.074  0.000  0.000  0.000  0.004  0.000  0.000  0.078
    4  0.009  0.000  0.037  0.000  0.000  0.000  0.172  0.000  0.000  0.219
    5  0.018  0.000  0.000  0.000  0.000  0.000  0.000  0.000  0.000  0.018
tot    0.064  0.000  0.146  0.000  0.000  0.000  0.527  0.000  0.000  0.739
 
band    17 # energy   -4.77139651 # occ.  2.00000000
 
ion      s     py     pz     px    dxy    dyz    dz2    dxz  x2-y2    tot
    1  0.000  0.000  0.000  0.000  0.000  0.004  0.000  0.000  0.035  0.039
    2  0.000  0.000  0.000  0.000  0.000  0.146  0.000  0.000  0.062  0.209
    3  0.000  0.000  0.000  0.000  0.000  0.415  0.000  0.001  0.083  0.499
    4  0.000  0.000  0.000  0.000  0.000  0.176  0.000  0.000  0.060  0.237
    5  0.000  0.000  0.000  0.000  0.000  0.000  0.000  0.000  0.000  0.000
tot    0.000  0.000  0.000  0.000  0.001  0.742  0.000  0.002  0.239  0.984
 
band    18 # energy   -4.76979852 # occ.  2.00000000
 
ion      s     py     pz     px    dxy    dyz    dz2    dxz  x2-y2    tot
    1  0.000  0.000  0.000  0.000  0.035  0.000  0.000  0.004  0.000  0.040
    2  0.000  0.000  0.000  0.000  0.062  0.000  0.000  0.151  0.000  0.214
    3  0.000  0.000  0.000  0.000  0.083  0.001  0.000  0.413  0.000  0.497
    4  0.000  0.000  0.000  0.000  0.063  0.000  0.000  0.170  0.000  0.233
    5  0.000  0.000  0.000  0.000  0.000  0.000  0.000  0.000  0.000  0.000
tot    0.000  0.000  0.000  0.000  0.243  0.002  0.000  0.738  0.001  0.984
 
band    19 # energy   -4.67138225 # occ.  2.00000000
 
ion      s     py     pz     px    dxy    dyz    dz2    dxz  x2-y2    tot
    1  0.000  0.000  0.000  0.000  0.047  0.018  0.000  0.129  0.007  0.201
    2  0.000  0.000  0.000  0.000  0.008  0.052  0.000  0.362  0.001  0.423
    3  0.000  0.000  0.000  0.000  0.000  0.003  0.000  0.018  0.000  0.021
    4  0.000  0.000  0.000  0.000  0.003  0.041  0.000  0.294  0.000  0.338
    5  0.000  0.000  0.000  0.000  0.000  0.000  0.000  0.000  0.000  0.000
tot    0.000  0.000  0.000  0.000  0.058  0.114  0.000  0.803  0.008  0.984
 
band    20 # energy   -4.67121110 # occ.  2.00000000
 
ion      s     py     pz     px    dxy    dyz    dz2    dxz  x2-y2    tot
    1  0.000  0.000  0.000  0.000  0.007  0.130  0.000  0.018  0.048  0.203
    2  0.000  0.000  0.000  0.000  0.001  0.367  0.000  0.051  0.008  0.428
    3  0.000  0.000  0.000  0.000  0.000  0.018  0.000  0.003  0.000  0.021
    4  0.000  0.000  0.000  0.000  0.000  0.288  0.000  0.042  0.002  0.332
    5  0.000  0.000  0.000  0.000  0.000  0.000  0.000  0.000  0.000  0.000
tot    0.000  0.000  0.000  0.000  0.008  0.802  0.000  0.114  0.058  0.983
 
band    21 # energy   -4.43726491 # occ.  2.00000000
 
ion      s     py     pz     px    dxy    dyz    dz2    dxz  x2-y2    tot
    1  0.000  0.000  0.000  0.000  0.001  0.000  0.000  0.317  0.000  0.318
    2  0.000  0.000  0.000  0.000  0.000  0.000  0.000  0.005  0.000  0.006
    3  0.000  0.000  0.000  0.000  0.012  0.000  0.000  0.271  0.000  0.283
    4  0.000  0.000  0.000  0.000  0.008  0.000  0.000  0.371  0.000  0.379
    5  0.000  0.000  0.000  0.000  0.000  0.000  0.000  0.000  0.000  0.000
tot    0.000  0.000  0.000  0.000  0.021  0.001  0.000  0.964  0.000  0.987
 
band    22 # energy   -4.43518114 # occ.  2.00000000
 
ion      s     py     pz     px    dxy    dyz    dz2    dxz  x2-y2    tot
    1  0.000  0.000  0.000  0.000  0.000  0.319  0.000  0.000  0.001  0.320
    2  0.000  0.000  0.000  0.000  0.000  0.005  0.000  0.000  0.000  0.005
    3  0.000  0.000  0.000  0.000  0.000  0.269  0.000  0.000  0.012  0.281
    4  0.000  0.000  0.000  0.000  0.000  0.370  0.000  0.000  0.009  0.380
    5  0.000  0.000  0.000  0.000  0.000  0.000  0.000  0.000  0.000  0.000
tot    0.000  0.000  0.000  0.000  0.000  0.963  0.000  0.001  0.022  0.987
 
band    23 # energy   -4.24029321 # occ.  2.00000000
 
ion      s     py     pz     px    dxy    dyz    dz2    dxz  x2-y2    tot
    1  0.000  0.000  0.000  0.000  0.007  0.003  0.000  0.476  0.000  0.486
    2  0.000  0.000  0.000  0.000  0.023  0.002  0.000  0.269  0.000  0.294
    3  0.000  0.000  0.000  0.000  0.010  0.001  0.000  0.143  0.000  0.155
    4  0.000  0.000  0.000  0.000  0.003  0.000  0.000  0.052  0.000  0.056
    5  0.000  0.000  0.000  0.000  0.000  0.000  0.000  0.000  0.000  0.000
tot    0.000  0.000  0.000  0.000  0.043  0.007  0.000  0.940  0.000  0.990
 
band    24 # energy   -4.23954652 # occ.  2.00000000
 
ion      s     py     pz     px    dxy    dyz    dz2    dxz  x2-y2    tot
    1  0.000  0.000  0.000  0.000  0.000  0.473  0.000  0.003  0.007  0.483
    2  0.000  0.000  0.000  0.000  0.000  0.269  0.000  0.002  0.023  0.293
    3  0.000  0.000  0.000  0.000  0.000  0.145  0.000  0.001  0.010  0.156
    4  0.000  0.000  0.000  0.000  0.000  0.054  0.000  0.000  0.004  0.058
    5  0.000  0.000  0.000  0.000  0.000  0.000  0.000  0.000  0.000  0.000
tot    0.000  0.000  0.000  0.000  0.000  0.940  0.000  0.007  0.043  0.990
 
band    25 # energy   -3.21620199 # occ.  2.00000000
 
ion      s     py     pz     px    dxy    dyz    dz2    dxz  x2-y2    tot
    1  0.023  0.000  0.148  0.000  0.000  0.000  0.036  0.000  0.000  0.207
    2  0.018  0.000  0.072  0.000  0.000  0.000  0.028  0.000  0.000  0.117
    3  0.015  0.000  0.027  0.000  0.000  0.000  0.023  0.000  0.000  0.064
    4  0.013  0.000  0.004  0.000  0.000  0.000  0.028  0.000  0.000  0.046
    5  0.006  0.000  0.000  0.000  0.000  0.000  0.000  0.000  0.000  0.006
tot    0.074  0.000  0.251  0.000  0.000  0.000  0.115  0.000  0.000  0.440
 
band    26 # energy    0.14574604 # occ.  0.00000000
 
ion      s     py     pz     px    dxy    dyz    dz2    dxz  x2-y2    tot
    1  0.005  0.000  0.012  0.000  0.000  0.000  0.005  0.000  0.000  0.021
    2  0.017  0.000  0.016  0.000  0.000  0.000  0.016  0.000  0.000  0.049
    3  0.044  0.000  0.026  0.000  0.000  0.000  0.039  0.000  0.000  0.108
    4  0.093  0.000  0.042  0.000  0.000  0.000  0.096  0.000  0.000  0.231
    5  0.037  0.000  0.005  0.000  0.000  0.000  0.000  0.000  0.000  0.042
tot    0.195  0.000  0.101  0.000  0.000  0.000  0.155  0.000  0.000  0.452
 
band    27 # energy    1.75773439 # occ.  0.00000000
 
ion      s     py     pz     px    dxy    dyz    dz2    dxz  x2-y2    tot
    1  0.018  0.000  0.003  0.000  0.000  0.000  0.018  0.000  0.000  0.039
    2  0.009  0.000  0.005  0.000  0.000  0.000  0.008  0.000  0.000  0.021
    3  0.002  0.000  0.006  0.000  0.000  0.000  0.002  0.000  0.000  0.009
    4  0.000  0.000  0.006  0.000  0.000  0.000  0.000  0.000  0.000  0.007
    5  0.000  0.000  0.000  0.000  0.000  0.000  0.000  0.000  0.000  0.000
tot    0.029  0.000  0.020  0.000  0.000  0.000  0.028  0.000  0.000  0.076
 
band    28 # energy    2.37860966 # occ.  0.00000000
 
ion      s     py     pz     px    dxy    dyz    dz2    dxz  x2-y2    tot
    1  0.001  0.000  0.002  0.000  0.000  0.000  0.001  0.000  0.000  0.003
    2  0.000  0.000  0.002  0.000  0.000  0.000  0.000  0.000  0.000  0.002
    3  0.002  0.000  0.001  0.000  0.000  0.000  0.002  0.000  0.000  0.005
    4  0.004  0.000  0.000  0.000  0.000  0.000  0.004  0.000  0.000  0.008
    5  0.004  0.000  0.000  0.000  0.000  0.000  0.000  0.000  0.000  0.004
tot    0.010  0.000  0.006  0.000  0.000  0.000  0.007  0.000  0.000  0.022
 

 k-point     2 :    0.10000000 0.00000000 0.00000000     weight = 0.04000000

band     1 # energy  -10.97094131 # occ.  2.00000000
 
ion      s     py     pz     px    dxy    dyz    dz2    dxz  x2-y2    tot
    1  0.057  0.000  0.006  0.001  0.000  0.000  0.000  0.000  0.000  0.066
    2  0.206  0.001  0.001  0.004  0.000  0.000  0.000  0.000  0.000  0.213
    3  0.214  0.002  0.001  0.005  0.000  0.000  0.000  0.000  0.000  0.221
    4  0.074  0.001  0.005  0.002  0.000  0.000  0.000  0.000  0.000  0.082
    5  0.003  0.000  0.000  0.000  0.000  0.000  0.000  0.000  0.000  0.003
tot    0.553  0.004  0.014  0.012  0.000  0.000  0.000  0.001  0.000  0.584
 
band     2 # energy   -9.84232292 # occ.  2.00000000
 
ion      s     py     pz     px    dxy    dyz    dz2    dxz  x2-y2    tot
    1  0.141  0.001  0.007  0.003  0.000  0.000  0.003  0.001  0.000  0.157
    2  0.100  0.001  0.015  0.002  0.000  0.000  0.004  0.001  0.000  0.123
    3  0.056  0.000  0.021  0.001  0.000  0.001  0.002  0.002  0.000  0.084
    4  0.182  0.001  0.002  0.004  0.000  0.000  0.001  0.000  0.000  0.190
    5  0.016  0.000  0.000  0.000  0.000  0.000  0.000  0.000  0.000  0.016
tot    0.495  0.004  0.045  0.011  0.000  0.001  0.010  0.004  0.000  0.570
 
band     3 # energy   -8.38999675 # occ.  2.00000000
 
ion      s     py     pz     px    dxy    dyz    dz2    dxz  x2-y2    tot
    1  0.139  0.001  0.000  0.004  0.000  0.000  0.038  0.000  0.000  0.182
    2  0.013  0.000  0.036  0.000  0.000  0.002  0.005  0.005  0.000  0.060
    3  0.082  0.001  0.016  0.002  0.000  0.001  0.033  0.002  0.000  0.137
    4  0.109  0.001  0.013  0.003  0.000  0.000  0.017  0.001  0.000  0.145
    5  0.045  0.000  0.000  0.000  0.000  0.000  0.000  0.000  0.000  0.045
tot    0.387  0.003  0.065  0.009  0.001  0.003  0.093  0.008  0.000  0.569
 
band     4 # energy   -7.46291241 # occ.  2.00000000
 
ion      s     py     pz     px    dxy    dyz    dz2    dxz  x2-y2    tot
    1  0.065  0.001  0.004  0.002  0.001  0.000  0.112  0.000  0.000  0.186
    2  0.072  0.001  0.000  0.003  0.001  0.000  0.237  0.000  0.000  0.315
    3  0.043  0.001  0.005  0.002  0.001  0.000  0.142  0.001  0.000  0.195
    4  0.007  0.000  0.014  0.000  0.000  0.001  0.009  0.002  0.000  0.033
    5  0.018  0.000  0.000  0.000  0.000  0.000  0.000  0.000  0.000  0.018
tot    0.206  0.003  0.024  0.008  0.002  0.001  0.499  0.003  0.001  0.747
 
band     5 # energy   -6.86956642 # occ.  2.00000000
 
ion      s     py     pz     px    dxy    dyz    dz2    dxz  x2-y2    tot
    1  0.000  0.000  0.000  0.000  0.000  0.000  0.000  0.000  0.000  0.000
    2  0.000  0.000  0.000  0.000  0.000  0.000  0.001  0.000  0.000  0.001
    3  0.000  0.000  0.004  0.000  0.002  0.000  0.062  0.000  0.001  0.069
    4  0.015  0.001  0.029  0.002  0.001  0.004  0.475  0.010  0.000  0.536
    5  0.109  0.000  0.001  0.000  0.000  0.000  0.000  0.000  0.000  0.110
tot    0.125  0.001  0.034  0.002  0.002  0.004  0.538  0.010  0.001  0.717
 
band     6 # energy   -5.75257210 # occ.  2.00000000
 
ion      s     py     pz     px    dxy    dyz    dz2    dxz  x2-y2    tot
    1  0.001  0.000  0.002  0.000  0.006  0.001  0.136  0.002  0.002  0.150
    2  0.001  0.000  0.009  0.000  0.105  0.022  0.020  0.066  0.035  0.258
    3  0.002  0.000  0.001  0.000  0.024  0.006  0.333  0.019  0.008  0.394
    4  0.001  0.000  0.006  0.000  0.013  0.002  0.097  0.007  0.004  0.130
    5  0.001  0.000  0.000  0.000  0.000  0.000  0.000  0.000  0.000  0.001
tot    0.006  0.000  0.018  0.001  0.147  0.032  0.586  0.095  0.049  0.933
 
band     7 # energy   -5.66740648 # occ.  2.00000000
 
ion      s     py     pz     px    dxy    dyz    dz2    dxz  x2-y2    tot
    1  0.003  0.000  0.002  0.000  0.021  0.001  0.045  0.004  0.007  0.084
    2  0.002  0.000  0.004  0.000  0.035  0.001  0.394  0.002  0.012  0.450
    3  0.000  0.000  0.014  0.000  0.047  0.030  0.117  0.091  0.016  0.315
    4  0.001  0.000  0.005  0.000  0.038  0.000  0.012  0.001  0.013  0.070
    5  0.004  0.000  0.000  0.000  0.000  0.000  0.000  0.000  0.000  0.004
tot    0.011  0.000  0.026  0.001  0.142  0.032  0.567  0.098  0.047  0.923
 
band     8 # energy   -5.60947012 # occ.  2.00000000
 
ion      s     py     pz     px    dxy    dyz    dz2    dxz  x2-y2    tot
    1  0.000  0.000  0.001  0.000  0.021  0.002  0.020  0.007  0.007  0.059
    2  0.000  0.000  0.001  0.000  0.198  0.010  0.003  0.031  0.067  0.310
    3  0.000  0.000  0.001  0.001  0.353  0.005  0.003  0.014  0.118  0.494
    4  0.000  0.000  0.000  0.000  0.049  0.005  0.006  0.014  0.017  0.091
    5  0.000  0.000  0.000  0.000  0.000  0.000  0.000  0.000  0.000  0.000
tot    0.001  0.000  0.002  0.001  0.622  0.022  0.031  0.066  0.209  0.954
 
band     9 # energy   -5.46679761 # occ.  2.00000000
 
ion      s     py     pz     px    dxy    dyz    dz2    dxz  x2-y2    tot
    1  0.001  0.000  0.002  0.000  0.012  0.012  0.037  0.038  0.004  0.105
    2  0.002  0.000  0.000  0.000  0.235  0.006  0.070  0.018  0.076  0.408
    3  0.001  0.000  0.010  0.000  0.126  0.001  0.050  0.003  0.040  0.230
    4  0.000  0.000  0.008  0.000  0.015  0.020  0.080  0.065  0.004  0.193
    5  0.002  0.000  0.000  0.000  0.000  0.000  0.000  0.000  0.000  0.002
tot    0.006  0.000  0.020  0.001  0.388  0.039  0.237  0.123  0.124  0.938
 
band    10 # energy   -5.41526298 # occ.  2.00000000
 
ion      s     py     pz     px    dxy    dyz    dz2    dxz  x2-y2    tot
    1  0.000  0.000  0.000  0.000  0.009  0.007  0.000  0.002  0.016  0.034
    2  0.000  0.000  0.000  0.000  0.085  0.017  0.000  0.007  0.238  0.347
    3  0.000  0.000  0.000  0.000  0.123  0.013  0.000  0.004  0.368  0.507
    4  0.000  0.000  0.000  0.000  0.009  0.018  0.000  0.006  0.046  0.078
    5  0.000  0.000  0.000  0.000  0.000  0.000  0.000  0.000  0.000  0.000
tot    0.000  0.001  0.000  0.000  0.225  0.054  0.000  0.018  0.668  0.966
 
band    11 # energy   -5.40598930 # occ.  2.00000000
 
ion      s     py     pz     px    dxy    dyz    dz2    dxz  x2-y2    tot
    1  0.000  0.000  0.000  0.000  0.117  0.003  0.014  0.002  0.032  0.168
    2  0.000  0.000  0.000  0.000  0.010  0.004  0.014  0.034  0.102  0.164
    3  0.000  0.000  0.000  0.000  0.004  0.000  0.027  0.050  0.022  0.104
    4  0.000  0.000  0.001  0.000  0.424  0.003  0.011  0.002  0.085  0.527
    5  0.000  0.000  0.000  0.000  0.000  0.000  0.000  0.000  0.000  0.000
tot    0.001  0.000  0.001  0.001  0.555  0.010  0.066  0.087  0.241  0.962
 
band    12 # energy   -5.40426924 # occ.  2.00000000
 
ion      s     py     pz     px    dxy    dyz    dz2    dxz  x2-y2    tot
    1  0.000  0.000  0.000  0.000  0.009  0.016  0.003  0.006  0.018  0.052
    2  0.000  0.000  0.000  0.000  0.127  0.071  0.002  0.012  0.208  0.421
    3  0.000  0.000  0.000  0.000  0.062  0.101  0.003  0.011  0.185  0.362
    4  0.000  0.000  0.000  0.000  0.019  0.025  0.002  0.007  0.079  0.133
    5  0.000  0.000  0.000  0.000  0.000  0.000  0.000  0.000  0.000  0.000
tot    0.000  0.001  0.000  0.000  0.218  0.213  0.010  0.035  0.491  0.968
 
band    13 # energy   -5.34941920 # occ.  2.00000000
 
ion      s     py     pz     px    dxy    dyz    dz2    dxz  x2-y2    tot
    1  0.004  0.000  0.002  0.000  0.067  0.000  0.288  0.001  0.023  0.384
    2  0.002  0.000  0.015  0.000  0.016  0.016  0.054  0.048  0.005  0.155
    3  0.000  0.000  0.018  0.000  0.092  0.014  0.046  0.043  0.029  0.243
    4  0.001  0.000  0.014  0.000  0.010  0.003  0.069  0.010  0.003  0.111
    5  0.006  0.000  0.000  0.000  0.000  0.000  0.000  0.000  0.000  0.006
tot    0.013  0.000  0.048  0.000  0.185  0.034  0.457  0.102  0.060  0.900
 
band    14 # energy   -5.25171440 # occ.  2.00000000
 
ion      s     py     pz     px    dxy    dyz    dz2    dxz  x2-y2    tot
    1  0.000  0.000  0.000  0.000  0.003  0.004  0.002  0.002  0.064  0.076
    2  0.000  0.000  0.000  0.000  0.041  0.007  0.001  0.003  0.098  0.150
    3  0.000  0.000  0.000  0.000  0.000  0.037  0.001  0.006  0.005  0.051
    4  0.000  0.000  0.000  0.000  0.224  0.003  0.000  0.003  0.461  0.691
    5  0.000  0.000  0.000  0.000  0.000  0.000  0.000  0.000  0.000  0.000
tot    0.000  0.001  0.001  0.000  0.268  0.051  0.005  0.013  0.629  0.968
 
band    15 # energy   -5.24962288 # occ.  2.00000000
 
ion      s     py     pz     px    dxy    dyz    dz2    dxz  x2-y2    tot
    1  0.003  0.000  0.000  0.000  0.417  0.001  0.054  0.001  0.105  0.580
    2  0.001  0.000  0.010  0.000  0.006  0.001  0.023  0.000  0.013  0.053
    3  0.000  0.000  0.011  0.000  0.010  0.007  0.017  0.040  0.002  0.087
    4  0.001  0.000  0.003  0.000  0.076  0.004  0.011  0.009  0.114  0.218
    5  0.001  0.000  0.000  0.000  0.000  0.000  0.000  0.000  0.000  0.001
tot    0.005  0.000  0.024  0.001  0.508  0.012  0.104  0.050  0.233  0.939
 
band    16 # energy   -5.15728175 # occ.  2.00000000
 
ion      s     py     pz     px    dxy    dyz    dz2    dxz  x2-y2    tot
    1  0.000  0.000  0.000  0.000  0.185  0.008  0.000  0.003  0.554  0.750
    2  0.000  0.000  0.000  0.000  0.001  0.058  0.000  0.020  0.002  0.081
    3  0.000  0.000  0.000  0.000  0.017  0.000  0.000  0.000  0.053  0.071
    4  0.000  0.000  0.000  0.000  0.015  0.007  0.000  0.002  0.045  0.069
    5  0.000  0.000  0.000  0.000  0.000  0.000  0.000  0.000  0.000  0.000
tot    0.000  0.001  0.000  0.000  0.218  0.073  0.000  0.025  0.654  0.970
 
band    17 # energy   -4.84051732 # occ.  2.00000000
 
ion      s     py     pz     px    dxy    dyz    dz2    dxz  x2-y2    tot
    1  0.000  0.000  0.000  0.000  0.038  0.013  0.004  0.051  0.013  0.120
    2  0.001  0.000  0.001  0.000  0.034  0.043  0.006  0.132  0.015  0.232
    3  0.001  0.000  0.001  0.000  0.047  0.090  0.003  0.186  0.022  0.351
    4  0.000  0.000  0.000  0.000  0.032  0.064  0.002  0.158  0.016  0.273
    5  0.000  0.000  0.000  0.000  0.000  0.000  0.000  0.000  0.000  0.000
tot    0.002  0.000  0.003  0.000  0.151  0.211  0.016  0.526  0.067  0.976
 
band    18 # energy   -4.81896017 # occ.  2.00000000
 
ion      s     py     pz     px    dxy    dyz    dz2    dxz  x2-y2    tot
    1  0.000  0.000  0.000  0.000  0.021  0.031  0.000  0.005  0.059  0.117
    2  0.000  0.000  0.000  0.000  0.016  0.120  0.000  0.041  0.038  0.215
    3  0.000  0.000  0.000  0.000  0.020  0.211  0.000  0.100  0.043  0.374
    4  0.000  0.000  0.000  0.000  0.027  0.137  0.000  0.053  0.059  0.275
    5  0.000  0.000  0.000  0.000  0.000  0.000  0.000  0.000  0.000  0.000
tot    0.000  0.000  0.000  0.000  0.084  0.498  0.000  0.199  0.199  0.981
 
band    19 # energy   -4.66469096 # occ.  2.00000000
 
ion      s     py     pz     px    dxy    dyz    dz2    dxz  x2-y2    tot
    1  0.001  0.000  0.005  0.000  0.004  0.091  0.008  0.302  0.023  0.434
    2  0.000  0.000  0.004  0.000  0.036  0.124  0.003  0.014  0.003  0.184
    3  0.001  0.000  0.002  0.000  0.015  0.011  0.011  0.036  0.006  0.083
    4  0.000  0.000  0.000  0.000  0.004  0.170  0.001  0.079  0.002  0.257
    5  0.001  0.000  0.000  0.000  0.000  0.000  0.000  0.000  0.000  0.001
tot    0.004  0.000  0.011  0.000  0.059  0.396  0.023  0.432  0.033  0.959
 
band    20 # energy   -4.66148411 # occ.  2.00000000
 
ion      s     py     pz     px    dxy    dyz    dz2    dxz  x2-y2    tot
    1  0.001  0.000  0.002  0.000  0.017  0.138  0.004  0.124  0.029  0.315
    2  0.000  0.000  0.002  0.000  0.003  0.138  0.001  0.096  0.033  0.273
    3  0.001  0.000  0.001  0.000  0.003  0.041  0.005  0.015  0.031  0.097
    4  0.000  0.000  0.000  0.000  0.002  0.114  0.000  0.164  0.006  0.287
    5  0.000  0.000  0.000  0.000  0.000  0.000  0.000  0.000  0.000  0.000
tot    0.002  0.000  0.005  0.000  0.026  0.430  0.010  0.399  0.099  0.972
 
band    21 # energy   -4.52521387 # occ.  2.00000000
 
ion      s     py     pz     px    dxy    dyz    dz2    dxz  x2-y2    tot
    1  0.012  0.000  0.010  0.000  0.014  0.049  0.082  0.127  0.004  0.299
    2  0.001  0.000  0.000  0.000  0.005  0.088  0.001  0.287  0.001  0.383
    3  0.001  0.000  0.001  0.000  0.006  0.002  0.017  0.001  0.002  0.029
    4  0.000  0.000  0.002  0.000  0.000  0.048  0.006  0.149  0.000  0.205
    5  0.003  0.000  0.000  0.000  0.000  0.000  0.000  0.000  0.000  0.003
tot    0.017  0.000  0.013  0.001  0.025  0.187  0.105  0.564  0.008  0.920
 
band    22 # energy   -4.43210267 # occ.  2.00000000
 
ion      s     py     pz     px    dxy    dyz    dz2    dxz  x2-y2    tot
    1  0.000  0.000  0.000  0.000  0.000  0.235  0.000  0.081  0.001  0.317
    2  0.000  0.000  0.000  0.000  0.002  0.004  0.000  0.000  0.006  0.013
    3  0.000  0.000  0.000  0.000  0.002  0.213  0.000  0.069  0.007  0.290
    4  0.000  0.000  0.000  0.000  0.003  0.266  0.000  0.088  0.009  0.366
    5  0.000  0.000  0.000  0.000  0.000  0.000  0.000  0.000  0.000  0.000
tot    0.000  0.000  0.000  0.000  0.007  0.718  0.000  0.239  0.023  0.987
 
band    23 # energy   -4.23441329 # occ.  2.00000000
 
ion      s     py     pz     px    dxy    dyz    dz2    dxz  x2-y2    tot
    1  0.000  0.000  0.000  0.000  0.002  0.333  0.000  0.112  0.007  0.454
    2  0.000  0.000  0.000  0.000  0.005  0.220  0.000  0.071  0.016  0.312
    3  0.000  0.000  0.000  0.000  0.003  0.116  0.000  0.038  0.008  0.165