Starting job 28337952 ("jobname") on c15-30 at Fri Oct 11 11:20:32 CEST 2019
 running on    4 total cores
 distrk:  each k-point on    4 cores,    1 groups
 distr:  one band on    2 cores,    2 groups
 using from now: INCAR     
 vasp.5.4.4.18Apr17-6-g9f103f2a35 (build Jun 30 2017 11:15:00) complex          
  
 POSCAR found type information on POSCAR  Cu H 
 POSCAR found :  2 types and       5 ions
 scaLAPACK will be used

 ----------------------------------------------------------------------------- 
|                                                                             |
|  ADVICE TO THIS USER RUNNING 'VASP/VAMP'   (HEAR YOUR MASTER'S VOICE ...):  |
|                                                                             |
|      You have a (more or less) 'small supercell' and for smaller cells      |
|      it is recommended  to use the reciprocal-space projection scheme!      |
|      The real space optimization is not  efficient for small cells and it   |
|      is also less accurate ...                                              |
|      Therefore set LREAL=.FALSE. in the  INCAR file                         |
|                                                                             |
 ----------------------------------------------------------------------------- 

 LDA part: xc-table for Pade appr. of Perdew
 POSCAR, INCAR and KPOINTS ok, starting setup
 FFT: planning ...
 WAVECAR not read
 entering main loop
       N       E                     dE             d eps       ncg     rms          rms(c)
DAV:   1     0.194170406608E+03    0.19417E+03   -0.13858E+04  1800   0.920E+02
DAV:   2    -0.102282806601E+02   -0.20440E+03   -0.19822E+03  1848   0.263E+02
DAV:   3    -0.201334895687E+02   -0.99052E+01   -0.96848E+01  1900   0.765E+01
DAV:   4    -0.202488666279E+02   -0.11538E+00   -0.11494E+00  1952   0.757E+00
DAV:   5    -0.202499536963E+02   -0.10871E-02   -0.10870E-02  2032   0.501E-01    0.156E+01
RMM:   6    -0.204305324410E+02   -0.18058E+00   -0.50951E+01  1932   0.701E+01    0.103E+01
RMM:   7    -0.175724907604E+02    0.28580E+01   -0.10017E+01  1922   0.303E+01    0.610E+00
RMM:   8    -0.161995293444E+02    0.13730E+01   -0.60156E-01  1904   0.626E+00    0.236E+00
RMM:   9    -0.160968196256E+02    0.10271E+00   -0.17119E-01  1873   0.367E+00    0.112E+00
RMM:  10    -0.160829186217E+02    0.13901E-01   -0.48267E-02  1908   0.190E+00    0.111E+00
RMM:  11    -0.160574339695E+02    0.25485E-01   -0.30156E-02  1867   0.145E+00    0.459E-01
RMM:  12    -0.160534331812E+02    0.40008E-02   -0.91096E-03  1890   0.812E-01    0.231E-01
RMM:  13    -0.160525048435E+02    0.92834E-03   -0.30875E-03  1900   0.442E-01    0.183E-01
RMM:  14    -0.160515283767E+02    0.97647E-03   -0.59229E-04  1907   0.174E-01    0.955E-02
RMM:  15    -0.160514198927E+02    0.10848E-03   -0.89210E-05  1827   0.482E-02    0.571E-02
RMM:  16    -0.160514160678E+02    0.38250E-05   -0.20596E-04  1833   0.882E-02    0.237E-02
RMM:  17    -0.160515859566E+02   -0.16989E-03   -0.62840E-05  1789   0.576E-02    0.121E-02
RMM:  18    -0.160517348943E+02   -0.14894E-03   -0.40663E-05  1639   0.234E-02    0.722E-03
RMM:  19    -0.160517820989E+02   -0.47205E-04   -0.87049E-06  1416   0.151E-02    0.755E-03
RMM:  20    -0.160518264144E+02   -0.44316E-04   -0.29283E-06  1166   0.949E-03    0.588E-03
RMM:  21    -0.160518476909E+02   -0.21277E-04   -0.84564E-07  1091   0.579E-03    0.579E-03
RMM:  22    -0.160518605060E+02   -0.12815E-04   -0.42300E-07  1072   0.337E-03    0.571E-03
RMM:  23    -0.160518657671E+02   -0.52611E-05   -0.18586E-07  1000   0.325E-03    0.559E-03
RMM:  24    -0.160518675340E+02   -0.17669E-05   -0.39088E-08   738   0.174E-03    0.557E-03
RMM:  25    -0.160518676450E+02   -0.11106E-06   -0.17049E-09   285   0.109E-03
   1 F= -.16051868E+02 E0= -.16045453E+02  d E =-.128292E-01

Currently Loaded Modulefiles:
  1) intel/2017.4         2) perf-reports/7.0.6

Job script resource usage:
       JobID  MaxVMSize     MaxRSS 
------------ ---------- ---------- 
28337952.ba+    216884K      2491K 

Job step resource usage:
       JobID    JobName  AllocCPUS  MaxVMSize     MaxRSS    Elapsed ExitCode 
------------ ---------- ---------- ---------- ---------- ---------- -------- 
28337952        jobname          4                         00:00:17      0:0 
28337952.0    pmi_proxy          1    279832K       521K   00:00:16      0:0 

Job 28337952 ("jobname") completed on c15-30 at Fri Oct 11 11:20:48 CEST 2019
