unknown system                          
   1.00000000000000     
     2.573869    0.000000    0.000000
     1.286934    2.229036    0.000000
     0.000000    0.000000   30.304665
   Cu   H 
     4     1
Direct
  0.000000  0.000000  0.395979
  0.333333  0.333333  0.465326
  0.666667  0.666667  0.534674
  0.000000  0.000000  0.604021
  0.500000  0.000000  0.637020
 
   20   20  240
 -.79597E-02 -.74831E-02 -.57607E-02 -.32340E-02 -.70267E-03 0.10168E-02 0.13939E-02 0.32125E-03 -.18123E-02 -.41038E-02
 -.53894E-02 -.48718E-02 -.27443E-02 -.20012E-03 0.13236E-02 0.10735E-02 -.69421E-03 -.31429E-02 -.54806E-02 -.72021E-02
 -.74522E-02 -.63133E-02 -.38606E-02 -.93395E-03 0.11599E-02 0.13487E-02 -.58570E-03 -.38325E-02 -.68963E-02 -.83087E-02
 -.73945E-02 -.46713E-02 -.15645E-02 0.45178E-03 0.69402E-03 -.53033E-03 -.24266E-02 -.43581E-02 -.60329E-02 -.72116E-02
 -.57920E-02 -.42119E-02 -.18030E-02 0.36338E-03 0.84835E-03 -.13676E-02 -.60619E-02 -.11568E-01 -.15526E-01 -.16206E-01
 -.13488E-01 -.88278E-02 -.42702E-02 -.13165E-02 -.38055E-03 -.10108E-02 -.24611E-02 -.40994E-02 -.54671E-02 -.61581E-02
 -.34432E-02 -.21802E-02 -.84476E-03 -.41650E-03 -.22766E-02 -.73349E-02 -.14961E-01 -.22764E-01 -.27682E-01 -.27706E-01
 -.22962E-01 -.15470E-01 -.79396E-02 -.24967E-02 -.85101E-05 -.88387E-04 -.15736E-02 -.31970E-02 -.41387E-02 -.41761E-02
 -.10639E-02 -.64487E-03 -.96837E-03 -.31075E-02 -.84014E-02 -.17295E-01 -.28238E-01 -.37807E-01 -.42302E-01 -.39780E-01
 -.31135E-01 -.19564E-01 -.88934E-02 -.18416E-02 0.90902E-03 0.52536E-03 -.10098E-02 -.21087E-02 -.22373E-02 -.17165E-02
 0.83119E-03 0.40232E-03 -.20887E-02 -.80273E-02 -.18170E-01 -.31484E-01 -.44718E-01 -.53437E-01 -.54176E-01 -.46409E-01
 -.32949E-01 -.18479E-01 -.71770E-02 -.93489E-03 0.88102E-03 0.32686E-03 -.60029E-03 -.86715E-03 -.41788E-03 0.32405E-03
 0.17067E-02 0.43375E-03 -.48410E-02 -.15286E-01 -.30107E-01 -.46110E-01 -.58514E-01 -.62943E-01 -.57654E-01 -.44608E-01
 -.28510E-01 -.14335E-01 -.49966E-02 -.62643E-03 0.43384E-03 0.75572E-04 -.46997E-03 -.60996E-03 -.88924E-04 0.96779E-03
 0.10616E-02 -.11569E-02 -.89894E-02 -.22590E-01 -.39383E-01 -.54639E-01 -.63305E-01 -.62331E-01 -.52238E-01 -.36874E-01
 -.21369E-01 -.96125E-02 -.28946E-02 -.34600E-03 -.33308E-03 -.14710E-02 -.27227E-02 -.31610E-02 -.21795E-02 -.17150E-03
 -.90323E-03 -.37228E-02 -.12535E-01 -.26384E-01 -.41733E-01 -.53652E-01 -.57952E-01 -.53181E-01 -.41292E-01 -.26566E-01
 -.13483E-01 -.48808E-02 -.13541E-02 -.18205E-02 -.44804E-02 -.74838E-02 -.92490E-02 -.87705E-02 -.60823E-02 -.26023E-02
 -.30138E-02 -.56622E-02 -.13672E-01 -.25396E-01 -.37230E-01 -.44954E-01 -.45639E-01 -.39019E-01 -.27553E-01 -.15252E-01
 -.59977E-02 -.21353E-02 -.37971E-02 -.90960E-02 -.15057E-01 -.18895E-01 -.19073E-01 -.15702E-01 -.10300E-01 -.52205E-02
 -.39532E-02 -.60296E-02 -.12466E-01 -.21092E-01 -.28664E-01 -.32128E-01 -.29966E-01 -.22883E-01 -.13556E-01 -.56401E-02
 -.23969E-02 -.53292E-02 -.13365E-01 -.23163E-01 -.30630E-01 -.32874E-01 -.29407E-01 -.21984E-01 -.13486E-01 -.67672E-02
 -.32534E-02 -.49551E-02 -.97465E-02 -.15066E-01 -.18431E-01 -.18303E-01 -.14628E-01 -.88862E-02 -.36805E-02 -.19273E-02
 -.57296E-02 -.15223E-01 -.28027E-01 -.39903E-01 -.46558E-01 -.45654E-01 -.37815E-01 -.26119E-01 -.14545E-01 -.63774E-02
 -.13992E-02 -.28452E-02 -.59337E-02 -.83483E-02 -.87677E-02 -.70272E-02 -.39816E-02 -.12613E-02 -.91834E-03 -.48592E-02
 -.14029E-01 -.27571E-01 -.42478E-01 -.54282E-01 -.58798E-01 -.54174E-01 -.41979E-01 -.26530E-01 -.12801E-01 -.41881E-02
 0.62271E-03 -.35525E-03 -.19797E-02 -.28097E-02 -.24330E-02 -.11759E-02 0.87986E-04 0.12363E-04 -.30277E-02 -.10434E-01
 -.22583E-01 -.38006E-01 -.53121E-01 -.63139E-01 -.64142E-01 -.55284E-01 -.39568E-01 -.22423E-01 -.89094E-02 -.14388E-02
 0.16975E-02 0.11581E-02 0.21220E-03 -.41279E-03 -.44036E-03 0.41787E-04 0.35460E-03 -.92770E-03 -.56416E-02 -.15126E-01
 -.29083E-01 -.44878E-01 -.57978E-01 -.63725E-01 -.59700E-01 -.47204E-01 -.30687E-01 -.15400E-01 -.48340E-02 0.37280E-03
 0.10650E-02 0.53568E-03 -.27273E-03 -.82915E-03 -.72462E-03 0.11768E-04 0.43356E-03 -.13626E-02 -.74193E-02 -.18481E-01
 -.32841E-01 -.46459E-01 -.54638E-01 -.54383E-01 -.45984E-01 -.32745E-01 -.19120E-01 -.85189E-02 -.21725E-02 0.56008E-03
 -.10909E-02 -.17926E-02 -.22006E-02 -.19952E-02 -.10455E-02 0.25327E-03 0.61764E-03 -.19011E-02 -.87971E-02 -.19665E-01
 -.31638E-01 -.40499E-01 -.42920E-01 -.38281E-01 -.28811E-01 -.18107E-01 -.92286E-02 -.35973E-02 -.10499E-02 -.57921E-03
 -.37433E-02 -.43169E-02 -.39893E-02 -.29368E-02 -.14690E-02 -.16004E-03 -.88212E-04 -.26009E-02 -.83857E-02 -.16479E-01
 -.24232E-01 -.28583E-01 -.27799E-01 -.22417E-01 -.14754E-01 -.75434E-02 -.26784E-02 -.70349E-03 -.10123E-02 -.24119E-02
 -.59422E-02 -.61604E-02 -.53370E-02 -.39451E-02 -.23806E-02 -.10401E-02 -.56039E-03 -.17494E-02 -.50268E-02 -.97791E-02
 -.14298E-01 -.16563E-01 -.15404E-01 -.11230E-01 -.58163E-02 -.13358E-02 0.73031E-03 0.18629E-03 -.20111E-02 -.44298E-02
 -.73746E-02 -.72968E-02 -.61888E-02 -.44356E-02 -.24375E-02 -.61835E-03 0.49606E-03 0.32017E-03 -.14679E-02 -.44625E-02
 -.73934E-02 -.86803E-02 -.74468E-02 -.42213E-02 -.68821E-03 0.13695E-02 0.11216E-02 -.10061E-02 -.38307E-02 -.61790E-02
 0.11131E-03 0.21002E-03 0.17416E-03 0.10333E-04 -.16398E-03 -.20928E-03 -.80059E-04 0.13019E-03 0.25298E-03 0.16757E-03
 -.11088E-03 -.44063E-03 -.65019E-03 -.65147E-03 -.48908E-03 -.29283E-03 -.17253E-03 -.13924E-03 -.11655E-03 -.29478E-04
 0.54183E-04 0.78493E-04 0.35026E-03 0.66379E-03 0.63742E-03 0.56448E-04 -.88216E-03 -.16485E-02 -.17473E-02 -.10952E-02
 -.10698E-03 0.58981E-03 0.59865E-03 0.18731E-04 -.66522E-03 -.96699E-03 -.74762E-03 -.26315E-03 0.99367E-04 0.15723E-03
 -.21412E-03 -.15097E-03 0.24149E-03 0.54077E-03 0.28262E-03 -.61735E-03 -.17267E-02 -.23754E-02 -.21451E-02 -.11877E-02
 -.12250E-03 0.41429E-03 0.22023E-03 -.36534E-03 -.76802E-03 -.64318E-03 -.12310E-03 0.34194E-03 0.39630E-03 0.84097E-04
 -.30485E-03 -.35786E-03 -.32201E-03 -.31184E-03 -.42511E-03 -.69235E-03 -.10706E-02 -.14684E-02 -.17796E-02 -.19163E-02
 -.18323E-02 -.15332E-02 -.10698E-02 -.52528E-03 -.41079E-05 0.38140E-03 0.54149E-03 0.45392E-03 0.19118E-03 -.10591E-03
 0.38312E-04 -.36616E-03 -.79596E-03 -.91043E-03 -.64816E-03 -.34833E-03 -.50993E-03 -.13626E-02 -.26041E-02 -.35451E-02
 -.35764E-02 -.26068E-02 -.11338E-02 0.10463E-03 0.62567E-03 0.47318E-03 0.84235E-04 -.10853E-03 -.69005E-05 0.14313E-03
 0.47432E-03 -.13526E-03 -.79819E-03 -.11774E-02 -.12819E-02 -.14381E-02 -.19635E-02 -.28254E-02 -.35860E-02 -.37007E-02
 -.29436E-02 -.16205E-02 -.38672E-03 0.20271E-03 0.69403E-04 -.37382E-03 -.57614E-03 -.28514E-03 0.27941E-03 0.64070E-03
 0.58680E-03 0.16754E-03 -.64175E-03 -.17269E-02 -.28411E-02 -.36733E-02 -.39741E-02 -.36764E-02 -.29301E-02 -.20227E-02
 -.12375E-02 -.73633E-03 -.52605E-03 -.50078E-03 -.51528E-03 -.44891E-03 -.24508E-03 0.73703E-04 0.41306E-03 0.63299E-03
 0.43856E-03 0.32688E-03 -.59776E-03 -.21844E-02 -.37622E-02 -.45649E-02 -.42547E-02 -.31423E-02 -.19364E-02 -.12243E-02
 -.10911E-02 -.11588E-02 -.97639E-03 -.41864E-03 0.23351E-03 0.57294E-03 0.44511E-03 0.89601E-04 -.81316E-04 0.12123E-03
 0.19665E-03 0.20320E-03 -.48267E-03 -.16885E-02 -.28763E-02 -.35262E-02 -.34815E-02 -.29933E-02 -.24560E-02 -.20702E-02
 -.17167E-02 -.11355E-02 -.24004E-03 0.71893E-03 0.12983E-02 0.12094E-02 0.57601E-03 -.12532E-03 -.41704E-03 -.19173E-03
 -.25658E-03 -.25934E-03 -.36103E-03 -.76898E-03 -.15409E-02 -.24889E-02 -.32432E-02 -.34521E-02 -.29852E-02 -.20013E-02
 -.84167E-03 0.16138E-03 0.82777E-03 0.11478E-02 0.12025E-02 0.10728E-02 0.80783E-03 0.45461E-03 0.96287E-04 -.16028E-03
 -.83514E-03 -.91578E-03 -.70141E-03 -.72866E-03 -.13002E-02 -.21846E-02 -.27666E-02 -.25326E-02 -.14916E-02 -.18452E-03
 0.72136E-03 0.92161E-03 0.66000E-03 0.47776E-03 0.74416E-03 0.13494E-02 0.18016E-02 0.16417E-02 0.83707E-03 -.17517E-03
 -.93738E-03 -.13171E-02 -.13745E-02 -.13782E-02 -.14297E-02 -.13865E-02 -.10382E-02 -.36092E-03 0.39036E-03 0.84738E-03
 0.82250E-03 0.48482E-03 0.26037E-03 0.51553E-03 0.12591E-02 0.20963E-02 0.24844E-02 0.21088E-02 0.10992E-02 -.73866E-04
 -.24939E-03 -.10387E-02 -.14735E-02 -.13609E-02 -.78637E-03 -.86906E-04 0.36555E-03 0.41567E-03 0.21624E-03 0.88862E-04
 0.27203E-03 0.75912E-03 0.13383E-02 0.17731E-02 0.19595E-02 0.19444E-02 0.18191E-02 0.16016E-02 0.12144E-02 0.57968E-03
 0.59890E-03 -.22207E-03 -.66735E-03 -.52259E-03 -.64092E-04 0.18856E-03 -.53690E-04 -.56127E-03 -.75164E-03 -.18527E-03
 0.10274E-02 0.22609E-02 0.28309E-02 0.25007E-02 0.16353E-02 0.89530E-03 0.72924E-03 0.10614E-02 0.14016E-02 0.12709E-02
 0.80327E-03 0.47512E-03 0.19737E-03 0.11332E-04 -.17859E-03 -.45227E-03 -.71112E-03 -.68264E-03 -.12759E-03 0.91212E-03
 0.20513E-02 0.27704E-02 0.27523E-02 0.20905E-02 0.12135E-02 0.59272E-03 0.45221E-03 0.67619E-03 0.95065E-03 0.10098E-02
 0.41673E-03 0.59768E-03 0.37768E-03 -.63573E-04 -.37012E-03 -.29215E-03 0.13986E-03 0.67317E-03 0.10531E-02 0.12156E-02
 0.13005E-02 0.14867E-02 0.17941E-02 0.20261E-02 0.19131E-02 0.13536E-02 0.54763E-03 -.10572E-03 -.28968E-03 -.83510E-05
 0.46509E-04 0.33302E-03 0.19754E-03 -.10920E-04 0.10033E-03 0.57715E-03 0.10635E-02 0.11257E-02 0.66778E-03 0.71440E-04
 -.76891E-04 0.53458E-03 0.16421E-02 0.25414E-02 0.25802E-02 0.16417E-02 0.24592E-03 -.82041E-03 -.10617E-02 -.58847E-03
 -.63191E-04 0.12925E-03 0.19747E-03 0.23116E-03 0.29350E-03 0.33943E-03 0.26837E-03 0.56593E-04 -.16300E-03 -.16268E-03
 0.20975E-03 0.88179E-03 0.15532E-02 0.18613E-02 0.16107E-02 0.90791E-03 0.99595E-04 -.44718E-03 -.56614E-03 -.35730E-03
 -.61769E-04 0.14066E-03 0.25909E-03 0.43889E-04 -.46180E-03 -.90896E-03 -.90028E-03 -.31698E-03 0.55402E-03 0.12059E-02
 0.12738E-02 0.79294E-03 0.15563E-03 -.19344E-03 -.82041E-04 0.29446E-03 0.56780E-03 0.50969E-03 0.20329E-03 -.60425E-04
 0.17449E-05 0.21726E-03 0.16975E-03 -.30780E-03 -.93040E-03 -.11515E-02 -.62329E-03 0.46074E-03 0.14423E-02 0.16584E-02
 0.93308E-03 -.27929E-03 -.12135E-02 -.13336E-02 -.68742E-03 0.18097E-03 0.67460E-03 0.58425E-03 0.18262E-03 -.79878E-04
 0.79661E-02 0.77280E-02 0.60543E-02 0.33879E-02 0.72150E-03 -.91953E-03 -.97730E-03 0.45290E-03 0.26921E-02 0.46789E-02
 0.53536E-02 0.42305E-02 0.18157E-02 -.59360E-03 -.17294E-02 -.11442E-02 0.69841E-03 0.30001E-02 0.51927E-02 0.69668E-02
 0.73586E-02 0.62980E-02 0.44779E-02 0.23538E-02 0.45894E-03 -.61422E-03 -.31449E-03 0.15697E-02 0.45315E-02 0.72879E-02
 0.83509E-02 0.69821E-02 0.37968E-02 0.44962E-03 -.14032E-02 -.10593E-02 0.10244E-02 0.37489E-02 0.60591E-02 0.73239E-02
 0.51904E-02 0.37267E-02 0.21761E-02 0.82995E-03 0.20939E-03 0.11160E-02 0.41063E-02 0.87606E-02 0.13480E-01 0.16179E-01
 0.15487E-01 0.11602E-01 0.62129E-02 0.15735E-02 -.66172E-03 -.16585E-03 0.21027E-02 0.45999E-02 0.60874E-02 0.61685E-02
 0.26939E-02 0.12942E-02 0.15282E-03 0.11285E-03 0.23731E-02 0.77041E-02 0.15413E-01 0.23113E-01 0.27800E-01 0.27550E-01
 0.22582E-01 0.14998E-01 0.75564E-02 0.23944E-02 0.31929E-03 0.80090E-03 0.24852E-02 0.39659E-02 0.44418E-02 0.38844E-02
 0.10305E-02 -.18055E-03 -.44535E-03 0.20919E-02 0.88808E-02 0.19544E-01 0.31291E-01 0.39970E-01 0.42279E-01 0.37576E-01
 0.28053E-01 0.17294E-01 0.83992E-02 0.28544E-02 0.51998E-03 0.32833E-03 0.10691E-02 0.18638E-02 0.22401E-02 0.19743E-02
 0.29464E-04 -.59906E-03 0.10871E-02 0.72308E-02 0.18501E-01 0.32975E-01 0.46428E-01 0.54158E-01 0.53376E-01 0.44643E-01
 0.31427E-01 0.18130E-01 0.79602E-02 0.19349E-02 -.66731E-03 -.11608E-02 -.60619E-03 0.30627E-03 0.98561E-03 0.90178E-03
 -.59899E-03 0.22907E-03 0.47112E-02 0.14281E-01 0.28487E-01 0.44430E-01 0.57423E-01 0.62887E-01 0.58652E-01 0.46232E-01
 0.30098E-01 0.15311E-01 0.50997E-02 -.45209E-04 -.15290E-02 -.11499E-02 -.18827E-03 0.60554E-03 0.74802E-03 0.12218E-03
 -.21616E-03 0.24398E-02 0.95273E-02 0.21474E-01 0.36816E-01 0.51968E-01 0.62139E-01 0.63392E-01 0.54828E-01 0.39385E-01
 0.22440E-01 0.90292E-02 0.15732E-02 -.52146E-03 0.43893E-03 0.21151E-02 0.30632E-02 0.27924E-02 0.15185E-02 0.54290E-04
 0.13125E-02 0.50336E-02 0.13744E-01 0.26742E-01 0.41284E-01 0.53080E-01 0.57909E-01 0.53675E-01 0.41683E-01 0.26161E-01
 0.12224E-01 0.35134E-02 0.88847E-03 0.27056E-02 0.61733E-02 0.87966E-02 0.92270E-02 0.74147E-02 0.43458E-02 0.16679E-02
 0.25604E-02 0.62130E-02 0.15290E-01 0.27595E-01 0.39120E-01 0.45680E-01 0.44855E-01 0.37084E-01 0.25317E-01 0.13589E-01
 0.53834E-02 0.25151E-02 0.47496E-02 0.10120E-01 0.15782E-01 0.19137E-01 0.18783E-01 0.14928E-01 0.92200E-02 0.41996E-02
 0.23583E-02 0.52649E-02 0.13233E-01 0.22881E-01 0.30116E-01 0.32112E-01 0.28484E-01 0.21062E-01 0.12742E-01 0.63382E-02
 0.39152E-02 0.63923E-02 0.13163E-01 0.21979E-01 0.29551E-01 0.32850E-01 0.30441E-01 0.23126E-01 0.13638E-01 0.56365E-02
 0.14314E-02 0.32150E-02 0.87100E-02 0.14712E-01 0.18378E-01 0.18337E-01 0.14955E-01 0.98777E-02 0.53558E-02 0.36758E-02
 0.65948E-02 0.14587E-01 0.26160E-01 0.37912E-01 0.45693E-01 0.46463E-01 0.39762E-01 0.27948E-01 0.15135E-01 0.54482E-02
 0.90465E-03 0.13715E-02 0.40818E-02 0.70616E-02 0.87541E-02 0.82893E-02 0.58091E-02 0.26976E-02 0.13560E-02 0.43364E-02
 0.13060E-01 0.26706E-01 0.41971E-01 0.54072E-01 0.58754E-01 0.54309E-01 0.42435E-01 0.27352E-01 0.13717E-01 0.46467E-02
 0.52828E-03 0.18757E-03 0.11202E-02 0.23387E-02 0.28796E-02 0.20294E-02 0.81269E-04 -.11827E-02 0.97989E-03 0.88170E-02
 0.22524E-01 0.39511E-01 0.55015E-01 0.63948E-01 0.63222E-01 0.53310E-01 0.38012E-01 0.22433E-01 0.10467E-01 0.34372E-02
 -.17585E-03 -.22010E-03 0.16707E-03 0.41177E-03 0.68940E-04 -.95843E-03 -.18639E-02 -.77528E-03 0.45410E-02 0.15338E-01
 0.30659E-01 0.47024E-01 0.59469E-01 0.63669E-01 0.58115E-01 0.44995E-01 0.29064E-01 0.15139E-01 0.58905E-02 0.13119E-02
 -.34186E-03 0.44630E-03 0.72402E-03 0.39752E-03 -.22999E-03 -.70732E-03 -.28049E-03 0.23175E-02 0.85613E-02 0.19130E-01
 0.32766E-01 0.46005E-01 0.54372E-01 0.54580E-01 0.46379E-01 0.32773E-01 0.18430E-01 0.73423E-02 0.12015E-02 -.70295E-03
 0.10508E-02 0.21482E-02 0.22095E-02 0.16607E-02 0.11118E-02 0.92502E-03 0.15136E-02 0.38412E-02 0.92023E-02 0.18073E-01
 0.28961E-01 0.38475E-01 0.42902E-01 0.40267E-01 0.31446E-01 0.19657E-01 0.87914E-02 0.16446E-02 -.10719E-02 -.57528E-03
 0.34565E-02 0.42583E-02 0.40665E-02 0.32382E-02 0.21263E-02 0.10726E-02 0.80758E-03 0.25521E-02 0.72972E-02 0.14682E-01
 0.22559E-01 0.27894E-01 0.28454E-01 0.24049E-01 0.16507E-01 0.86003E-02 0.27172E-02 -.93604E-05 0.11155E-03 0.17666E-02
 0.56290E-02 0.61725E-02 0.56661E-02 0.40506E-02 0.17149E-02 -.37544E-03 -.90398E-03 0.11333E-02 0.56451E-02 0.11152E-01
 0.15390E-01 0.16538E-01 0.14260E-01 0.98068E-02 0.51649E-02 0.19442E-02 0.74220E-03 0.12354E-02 0.26751E-02 0.43259E-02
 0.71668E-02 0.75208E-02 0.64422E-02 0.39451E-02 0.92507E-03 -.12006E-02 -.12941E-02 0.82398E-03 0.42256E-02 0.73055E-02
 0.85723E-02 0.74343E-02 0.45449E-02 0.14248E-02 -.46674E-03 -.56031E-03 0.71273E-03 0.25248E-02 0.43216E-02 0.59322E-02
 -.22583E-03 0.45232E-03 0.62120E-03 0.33838E-03 0.15629E-03 0.39867E-03 0.79820E-03 0.90404E-03 0.65167E-03 0.35013E-03
 0.19827E-03 0.62912E-04 -.19797E-03 -.41051E-03 -.30105E-03 0.31704E-04 0.12046E-03 -.28599E-03 -.81200E-03 -.83242E-03
 -.11535E-03 0.86243E-04 0.33144E-03 0.63452E-03 0.85338E-03 0.71015E-03 0.12028E-03 -.52636E-03 -.59047E-03 0.18784E-03
 0.13265E-02 0.19749E-02 0.16792E-02 0.74354E-03 -.14948E-03 -.57889E-03 -.61095E-03 -.51197E-03 -.41299E-03 -.28836E-03
 -.74361E-03 -.76476E-03 -.19850E-03 0.42801E-03 0.57413E-03 0.19310E-03 -.25465E-03 -.22423E-03 0.47756E-03 0.15662E-02
 0.24703E-02 0.26695E-02 0.20126E-02 0.85683E-03 -.11686E-03 -.37919E-03 0.19741E-04 0.48905E-03 0.44014E-03 -.15368E-03
 -.99803E-03 -.85449E-03 -.34691E-03 0.96175E-04 0.45542E-03 0.10267E-02 0.18647E-02 0.25693E-02 0.27187E-02 0.23548E-02
 0.18715E-02 0.14987E-02 0.11120E-02 0.60112E-03 0.20215E-03 0.24511E-03 0.62727E-03 0.78729E-03 0.32391E-03 -.49386E-03
 -.94438E-04 -.15852E-03 -.17458E-03 0.20525E-03 0.13439E-02 0.30638E-02 0.44990E-02 0.47356E-02 0.36693E-02 0.21290E-02
 0.10891E-02 0.82220E-03 0.86785E-03 0.71525E-03 0.33245E-03 0.18105E-04 -.63068E-04 -.25965E-04 -.22432E-04 -.57600E-04
 0.69830E-03 0.18984E-03 -.11972E-04 0.63927E-03 0.21198E-02 0.38065E-02 0.48980E-02 0.49552E-02 0.41510E-02 0.30644E-02
 0.22152E-02 0.17173E-02 0.13062E-02 0.68033E-03 -.15346E-03 -.83442E-03 -.94742E-03 -.41325E-03 0.38011E-03 0.85052E-03
 0.32147E-03 0.10735E-03 0.37090E-03 0.10685E-02 0.19735E-02 0.30163E-02 0.41977E-02 0.52451E-02 0.56126E-02 0.49686E-02
 0.35917E-02 0.21374E-02 0.10319E-02 0.22804E-03 -.43524E-03 -.83291E-03 -.69278E-03 -.73613E-04 0.52167E-03 0.62867E-03
 -.15014E-03 0.57571E-03 0.13153E-02 0.17642E-02 0.21500E-02 0.30444E-02 0.45727E-02 0.59659E-02 0.61370E-02 0.47507E-02
 0.26023E-02 0.88062E-03 0.14846E-03 0.99885E-04 0.15679E-03 0.63943E-04 -.11237E-03 -.29778E-03 -.47420E-03 -.50175E-03
 0.23029E-03 0.13988E-02 0.23118E-02 0.29286E-02 0.35191E-02 0.42716E-02 0.49346E-02 0.49297E-02 0.38992E-02 0.21486E-02
 0.50612E-03 -.30215E-03 -.17991E-03 0.35647E-03 0.64742E-03 0.36130E-03 -.35997E-03 -.10668E-02 -.12913E-02 -.80882E-03
 0.33061E-03 0.12059E-02 0.24107E-02 0.37102E-02 0.45384E-02 0.44549E-02 0.35592E-02 0.23776E-02 0.13719E-02 0.64904E-03
 0.12833E-03 -.17927E-03 -.19748E-03 -.27962E-04 0.21155E-04 -.25484E-03 -.69701E-03 -.93553E-03 -.77300E-03 -.30721E-03
 -.67938E-03 -.41889E-04 0.15025E-02 0.30980E-02 0.36773E-02 0.30028E-02 0.18778E-02 0.12636E-02 0.13104E-02 0.13732E-02
 0.87697E-03 -.48744E-04 -.82120E-03 -.10699E-02 -.88433E-03 -.52576E-03 -.16223E-03 0.60740E-04 -.47985E-04 -.46217E-03
 -.12800E-02 -.74551E-03 0.42667E-03 0.15096E-02 0.19410E-02 0.18141E-02 0.16526E-02 0.17479E-02 0.18299E-02 0.14251E-02
 0.44292E-03 -.68002E-03 -.13750E-02 -.13895E-02 -.87070E-03 -.16933E-03 0.33824E-03 0.34984E-03 -.19745E-03 -.95407E-03
 -.20016E-03 -.24803E-03 -.13154E-03 0.32345E-03 0.10008E-02 0.15037E-02 0.14836E-02 0.95114E-03 0.23869E-03 -.31770E-03
 -.61520E-03 -.73225E-03 -.74256E-03 -.65425E-03 -.49518E-03 -.35523E-03 -.29841E-03 -.28530E-03 -.24325E-03 -.18873E-03
 0.10993E-02 0.33708E-03 -.20305E-03 0.35396E-04 0.65963E-03 0.76112E-03 -.42978E-04 -.11627E-02 -.16707E-02 -.12453E-02
 -.38293E-03 0.20785E-03 0.22330E-03 -.19948E-03 -.78474E-03 -.12479E-02 -.12567E-02 -.59861E-03 0.46854E-03 0.12222E-02
 0.86494E-03 0.25281E-03 -.10382E-03 -.14514E-04 0.78155E-04 -.29481E-03 -.99765E-03 -.14058E-02 -.11077E-02 -.34237E-03
 0.28936E-03 0.40847E-03 0.62832E-04 -.51173E-03 -.11035E-02 -.14679E-02 -.12997E-02 -.50533E-03 0.51414E-03 0.10783E-02
 -.66688E-04 0.65366E-04 -.67078E-04 -.27847E-03 -.31906E-03 -.89519E-04 0.26730E-03 0.47655E-03 0.35263E-03 -.51279E-04
 -.48605E-03 -.70251E-03 -.63936E-03 -.45425E-03 -.37974E-03 -.52510E-03 -.78495E-03 -.92775E-03 -.79186E-03 -.42788E-03
 -.12281E-03 0.13375E-03 -.22244E-03 -.49832E-03 -.55934E-04 0.90794E-03 0.15192E-02 0.11312E-02 -.42174E-04 -.11906E-02
 -.16534E-02 -.13363E-02 -.56131E-03 0.23954E-03 0.65672E-03 0.40274E-03 -.44472E-03 -.13176E-02 -.15270E-02 -.92630E-03
 0.24872E-03 0.23551E-04 -.42909E-03 -.48390E-03 0.39232E-04 0.60211E-03 0.54826E-03 -.16255E-03 -.95455E-03 -.12888E-02
 -.11278E-02 -.74281E-03 -.29516E-03 0.19786E-03 0.58803E-03 0.58172E-03 0.12506E-03 -.37138E-03 -.41611E-03 -.29170E-04
 -.36461E-04 -.20821E-03 -.28414E-03 -.36737E-03 -.53342E-03 -.72907E-03 -.75930E-03 -.46408E-03 0.44317E-04 0.37699E-03
 0.19770E-03 -.40924E-03 -.94358E-03 -.91433E-03 -.27623E-03 0.55092E-03 0.10667E-02 0.10722E-02 0.71954E-03 0.28733E-03
 -.45272E-03 0.39893E-04 0.26534E-03 -.11699E-03 -.70388E-03 -.79645E-03 -.14179E-03 0.82553E-03 0.14085E-02 0.12156E-02
 0.36100E-03 -.70282E-03 -.14335E-02 -.14162E-02 -.60576E-03 0.52342E-03 0.12049E-02 0.98049E-03 0.14455E-03 -.50581E-03
 -.79948E-02 -.64629E-02 -.46230E-02 -.27535E-02 -.67560E-03 0.12900E-02 0.20733E-02 0.85069E-03 -.18654E-02 -.44277E-02
 -.53952E-02 -.45525E-02 -.26867E-02 -.73090E-03 0.62739E-03 0.78110E-03 -.72391E-03 -.36148E-02 -.66289E-02 -.82722E-02
 -.72030E-02 -.58058E-02 -.36307E-02 -.11005E-02 0.97908E-03 0.14756E-02 -.31292E-03 -.37903E-02 -.71267E-02 -.84673E-02
 -.72519E-02 -.44452E-02 -.16065E-02 0.16726E-03 0.54287E-03 -.36809E-03 -.22618E-02 -.45887E-02 -.65664E-02 -.75149E-02
 -.63735E-02 -.49761E-02 -.23916E-02 -.26025E-04 0.47406E-03 -.17880E-02 -.63849E-02 -.11676E-01 -.15507E-01 -.16219E-01
 -.13528E-01 -.87295E-02 -.39590E-02 -.92111E-03 -.38218E-04 -.64368E-03 -.18803E-02 -.33414E-02 -.49035E-02 -.61709E-02
 -.44701E-02 -.27693E-02 -.74765E-03 -.23304E-03 -.25392E-02 -.78103E-02 -.15068E-01 -.22441E-01 -.27467E-01 -.27944E-01
 -.23305E-01 -.15385E-01 -.74927E-02 -.22690E-02 -.22599E-03 -.20945E-03 -.99505E-03 -.21709E-02 -.36165E-02 -.46948E-02
 -.10519E-02 0.90768E-05 -.69756E-04 -.26224E-02 -.84293E-02 -.17326E-01 -.27905E-01 -.37393E-01 -.42312E-01 -.40214E-01
 -.31487E-01 -.19557E-01 -.88972E-02 -.23633E-02 -.21001E-04 -.14700E-03 -.10275E-02 -.18246E-02 -.22355E-02 -.19990E-02
 0.15116E-02 0.94199E-03 -.17931E-02 -.79173E-02 -.18116E-01 -.31404E-01 -.44628E-01 -.53402E-01 -.54229E-01 -.46512E-01
 -.33038E-01 -.18549E-01 -.73115E-02 -.12574E-02 0.32064E-03 -.36616E-03 -.11873E-02 -.11015E-02 -.19395E-03 0.90157E-03
 0.13567E-02 -.35750E-03 -.53886E-02 -.15369E-01 -.30128E-01 -.46416E-01 -.58887E-01 -.62945E-01 -.57287E-01 -.44313E-01
 -.28502E-01 -.14262E-01 -.44565E-02 0.15623E-03 0.77145E-03 -.31203E-03 -.10336E-02 -.61733E-03 0.45949E-03 0.13403E-02
 -.42994E-04 -.20304E-02 -.91187E-02 -.22343E-01 -.39453E-01 -.55104E-01 -.63583E-01 -.62049E-01 -.51779E-01 -.36821E-01
 -.21634E-01 -.94909E-02 -.20186E-02 0.76335E-03 0.21446E-03 -.15891E-02 -.28992E-02 -.30004E-02 -.20715E-02 -.72036E-03
 -.92885E-03 -.33665E-02 -.11973E-01 -.25995E-01 -.41700E-01 -.53782E-01 -.57956E-01 -.53060E-01 -.41339E-01 -.26974E-01
 -.14065E-01 -.52476E-02 -.13230E-02 -.15563E-02 -.42516E-02 -.73946E-02 -.92590E-02 -.88706E-02 -.63046E-02 -.28523E-02
 -.20911E-02 -.51736E-02 -.13560E-01 -.25286E-01 -.36992E-01 -.44822E-01 -.45787E-01 -.39276E-01 -.27685E-01 -.15384E-01
 -.64998E-02 -.30639E-02 -.46740E-02 -.94044E-02 -.14854E-01 -.18725E-01 -.19253E-01 -.15911E-01 -.99940E-02 -.43452E-02
 -.39559E-02 -.67186E-02 -.13076E-01 -.21076E-01 -.28341E-01 -.32134E-01 -.30306E-01 -.22924E-01 -.12969E-01 -.49621E-02
 -.24003E-02 -.60212E-02 -.13977E-01 -.23146E-01 -.30303E-01 -.32875E-01 -.29745E-01 -.22027E-01 -.12902E-01 -.60914E-02
 -.41786E-02 -.58268E-02 -.10058E-01 -.14874E-01 -.18267E-01 -.18481E-01 -.14833E-01 -.85839E-02 -.28152E-02 -.10116E-02
 -.52409E-02 -.15110E-01 -.27922E-01 -.39673E-01 -.46429E-01 -.45797E-01 -.38069E-01 -.26259E-01 -.14691E-01 -.68868E-02
 -.13723E-02 -.25866E-02 -.57096E-02 -.82621E-02 -.87807E-02 -.71318E-02 -.42089E-02 -.15145E-02 -.94490E-03 -.45035E-02
 -.13469E-01 -.27186E-01 -.42451E-01 -.54418E-01 -.58809E-01 -.54061E-01 -.42031E-01 -.26940E-01 -.13383E-01 -.45561E-02
 0.17250E-02 0.18885E-03 -.20975E-02 -.29887E-02 -.22812E-02 -.10784E-02 -.46505E-03 -.10883E-02 -.38947E-02 -.10560E-01
 -.22337E-01 -.38080E-01 -.53593E-01 -.63429E-01 -.63875E-01 -.54834E-01 -.39513E-01 -.22679E-01 -.87828E-02 -.56616E-03
 0.20369E-02 0.76675E-03 -.35851E-03 -.42617E-03 0.10466E-03 0.41125E-03 0.56487E-06 -.17209E-02 -.61849E-02 -.15199E-01
 -.29096E-01 -.45187E-01 -.58361E-01 -.63736E-01 -.59338E-01 -.46908E-01 -.30678E-01 -.15324E-01 -.42900E-02 0.11601E-02
 0.37231E-03 -.56599E-04 -.51437E-03 -.60973E-03 -.14748E-03 0.69275E-03 0.97183E-03 -.10690E-02 -.73077E-02 -.18421E-01
 -.32754E-01 -.46366E-01 -.54606E-01 -.54441E-01 -.46090E-01 -.32835E-01 -.19187E-01 -.86492E-02 -.24893E-02 0.45159E-05
 -.11065E-02 -.15100E-02 -.22061E-02 -.22853E-02 -.10335E-02 0.91546E-03 0.15250E-02 -.14133E-02 -.88266E-02 -.19694E-01
 -.31300E-01 -.40082E-01 -.42934E-01 -.38720E-01 -.29163E-01 -.18093E-01 -.92241E-02 -.41154E-02 -.19801E-02 -.12509E-02
 -.27169E-02 -.37991E-02 -.45131E-02 -.39648E-02 -.20530E-02 -.53679E-04 0.10532E-03 -.28556E-02 -.88574E-02 -.16588E-01
 -.23916E-01 -.28375E-01 -.28040E-01 -.22757E-01 -.14662E-01 -.70906E-02 -.24472E-02 -.91765E-03 -.11287E-02 -.18292E-02
 -.53805E-02 -.61744E-02 -.59153E-02 -.47039E-02 -.29656E-02 -.14272E-02 -.92933E-03 -.21609E-02 -.53427E-02 -.98883E-02
 -.14287E-01 -.16583E-01 -.15444E-01 -.11128E-01 -.55027E-02 -.93897E-03 0.10772E-02 0.56256E-03 -.14212E-02 -.36683E-02
 -.76770E-02 -.70462E-02 -.56776E-02 -.42016E-02 -.26031E-02 -.80132E-03 0.62239E-03 0.59786E-03 -.14174E-02 -.46877E-02
 -.75538E-02 -.85442E-02 -.72261E-02 -.42644E-02 -.97039E-03 0.12221E-02 0.12886E-02 -.83542E-03 -.40557E-02 -.67094E-02
 0.29239E-03 0.14234E-02 0.14495E-02 0.58228E-03 -.55208E-04 0.15704E-03 0.68032E-03 0.67197E-03 0.99228E-04 -.36225E-03
 -.36398E-03 -.32496E-03 -.69341E-03 -.11746E-02 -.11096E-02 -.49248E-03 -.11641E-03 -.51699E-03 -.11296E-02 -.91022E-03
 0.49544E-03 0.73927E-03 0.68447E-03 0.57607E-03 0.53565E-03 0.25158E-03 -.60756E-03 -.17356E-02 -.22588E-02 -.16350E-02
 -.34272E-03 0.54004E-03 0.42867E-03 -.26764E-03 -.75245E-03 -.72681E-03 -.50311E-03 -.39034E-03 -.28384E-03 0.44241E-04
 -.66081E-03 -.81491E-03 -.27246E-03 0.21478E-03 -.58369E-04 -.11054E-02 -.23133E-02 -.29997E-02 -.28584E-02 -.20176E-02
 -.89047E-03 0.12622E-05 0.27080E-03 -.37197E-04 -.39360E-03 -.21396E-03 0.53171E-03 0.12001E-02 0.10947E-02 0.22258E-03
 -.12496E-02 -.88019E-03 -.17012E-03 -.11638E-03 -.81127E-03 -.15638E-02 -.19584E-02 -.23155E-02 -.29813E-02 -.35720E-02
 -.33465E-02 -.22289E-02 -.10177E-02 -.41966E-03 -.20844E-03 0.31647E-03 0.11891E-02 0.15648E-02 0.81262E-03 -.52645E-03
 0.10989E-03 0.34440E-03 0.11976E-03 -.55596E-03 -.11297E-02 -.13318E-02 -.17036E-02 -.29421E-02 -.47915E-02 -.59789E-02
 -.54617E-02 -.35547E-02 -.15898E-02 -.54651E-03 -.28749E-03 -.14203E-03 0.12901E-03 0.24076E-03 0.60939E-04 -.77278E-04
 0.12140E-02 0.44622E-03 -.58374E-03 -.14675E-02 -.21812E-02 -.30243E-02 -.42221E-02 -.55617E-02 -.64120E-02 -.61562E-02
 -.47010E-02 -.26423E-02 -.92040E-03 -.20267E-03 -.45283E-03 -.10104E-02 -.11163E-02 -.47901E-03 0.54379E-03 0.12661E-02
 0.28836E-03 -.63414E-03 -.14478E-02 -.25789E-02 -.43798E-02 -.63245E-02 -.73439E-02 -.69215E-02 -.55561E-02 -.40678E-02
 -.27454E-02 -.14319E-02 -.24448E-03 0.27060E-03 -.12877E-03 -.81075E-03 -.81540E-03 0.48432E-04 0.95834E-03 0.10356E-02
 -.65389E-03 -.65398E-03 -.12078E-02 -.30728E-02 -.58022E-02 -.77897E-02 -.77734E-02 -.60993E-02 -.42329E-02 -.31387E-02
 -.24908E-02 -.15183E-02 -.20673E-03 0.70518E-03 0.76137E-03 0.35243E-03 0.10823E-03 0.89648E-04 -.76851E-04 -.44953E-03
 0.11343E-03 0.33951E-03 -.59045E-03 -.26650E-02 -.49848E-02 -.64123E-02 -.64757E-02 -.56296E-02 -.46467E-02 -.38461E-02
 -.29702E-02 -.17228E-02 -.26473E-03 0.87141E-03 0.12559E-02 0.87888E-03 0.86364E-04 -.64891E-03 -.91599E-03 -.55787E-03
 0.53788E-03 -.67804E-04 -.99249E-03 -.20249E-02 -.32733E-02 -.46978E-02 -.57312E-02 -.56779E-02 -.44854E-02 -.28813E-02
 -.16434E-02 -.89497E-03 -.27399E-03 0.34699E-03 0.61848E-03 0.27094E-03 -.34350E-03 -.53841E-03 -.89713E-04 0.48859E-03
 -.99731E-03 -.19027E-02 -.19802E-02 -.18481E-02 -.24958E-02 -.38560E-02 -.46242E-02 -.37088E-02 -.15732E-02 0.19556E-03
 0.55906E-03 -.73691E-04 -.63391E-03 -.66008E-03 -.46990E-03 -.33875E-03 -.71247E-04 0.45163E-03 0.74369E-03 0.19776E-03
 -.19927E-02 -.24111E-02 -.21681E-02 -.19568E-02 -.22231E-02 -.25239E-02 -.20168E-02 -.53912E-03 0.10388E-02 0.16372E-02
 0.10075E-02 -.15888E-03 -.10179E-02 -.12470E-02 -.97981E-03 -.41625E-03 0.23751E-03 0.58736E-03 0.19982E-03 -.88635E-03
 -.28126E-03 -.89219E-03 -.15138E-02 -.16798E-02 -.12614E-02 -.60026E-03 -.12863E-03 0.52135E-04 0.13416E-03 0.22066E-03
 0.15018E-03 -.23989E-03 -.79695E-03 -.11425E-02 -.10683E-02 -.72790E-03 -.40289E-03 -.19408E-03 -.47845E-04 -.12927E-04
 0.17124E-02 0.30287E-03 -.87763E-03 -.84275E-03 -.52608E-04 0.19497E-03 -.62631E-03 -.16534E-02 -.17320E-02 -.80139E-03
 0.12367E-03 0.19890E-03 -.42028E-03 -.10498E-02 -.13585E-02 -.14354E-02 -.12070E-02 -.34615E-03 0.10392E-02 0.20332E-02
 0.11906E-02 0.11433E-03 -.36921E-03 -.64715E-05 0.37362E-03 -.49845E-04 -.10182E-02 -.14949E-02 -.93892E-03 0.58940E-04
 0.50614E-03 0.99237E-04 -.64924E-03 -.11884E-02 -.14398E-02 -.14710E-02 -.10679E-02 -.26904E-04 0.12292E-02 0.17813E-02
 -.22117E-03 0.53465E-04 0.18012E-03 0.20091E-03 0.25667E-03 0.44373E-03 0.71024E-03 0.87544E-03 0.75695E-03 0.31481E-03
 -.29265E-03 -.79196E-03 -.97148E-03 -.82757E-03 -.56089E-03 -.41458E-03 -.48184E-03 -.64530E-03 -.69769E-03 -.53069E-03
 0.89822E-04 0.67883E-03 0.25844E-03 -.23692E-03 0.17107E-03 0.12882E-02 0.19753E-02 0.14713E-02 0.17713E-03 -.91965E-03
 -.12817E-02 -.10647E-02 -.56995E-03 0.88347E-04 0.68672E-03 0.69140E-03 -.21639E-03 -.14841E-02 -.19870E-02 -.12094E-02
 0.10486E-02 0.74526E-03 -.22932E-03 -.71348E-03 -.22374E-03 0.49334E-03 0.45904E-03 -.33676E-03 -.10398E-02 -.10573E-02
 -.65233E-03 -.34112E-03 -.11925E-03 0.34223E-03 0.91656E-03 0.95588E-03 0.19132E-03 -.66635E-03 -.63676E-03 0.29266E-03
 0.63685E-03 0.27651E-03 -.18679E-03 -.61485E-03 -.97236E-03 -.12384E-02 -.12483E-02 -.80849E-03 -.31080E-04 0.58093E-03
 0.55130E-03 -.51835E-04 -.62413E-03 -.61094E-03 -.32701E-04 0.61935E-03 0.93814E-03 0.93933E-03 0.86396E-03 0.80325E-03
 -.10904E-03 0.65903E-03 0.83166E-03 0.28670E-04 -.10178E-02 -.12575E-02 -.43396E-03 0.73428E-03 0.13610E-02 0.11533E-02
 0.39156E-03 -.52650E-03 -.12767E-02 -.15099E-02 -.97107E-03 0.10049E-03 0.92056E-03 0.83305E-03 0.59804E-04 -.45895E-03
 0.79626E-02 0.87759E-02 0.72058E-02 0.38734E-02 0.75804E-03 -.62628E-03 -.27333E-03 0.10031E-02 0.26563E-02 0.43746E-02
 0.53714E-02 0.45719E-02 0.18899E-02 -.11098E-02 -.24075E-02 -.14164E-02 0.68379E-03 0.25363E-02 0.40543E-02 0.59186E-02
 0.76346E-02 0.68264E-02 0.47199E-02 0.21969E-02 0.29377E-03 -.46414E-03 -.16350E-04 0.16347E-02 0.43228E-02 0.71543E-02
 0.85228E-02 0.72382E-02 0.37814E-02 0.18749E-03 -.15357E-02 -.88309E-03 0.11984E-02 0.35268E-02 0.55403E-02 0.70442E-02