unknown system                          
   1.00000000000000     
     2.573869    0.000000    0.000000
     1.286934    2.229036    0.000000
     0.000000    0.000000   30.304665
   Cu   H 
     4     1
Direct
 -0.000293  0.000587  0.396567
  0.333187  0.333626  0.465140
  0.665828  0.668345  0.533594
  0.000801 -0.001601  0.604216
  0.500478 -0.000956  0.637503
 
   20   20  240
 -.19244366483E-01 -.17952897148E-01 -.14070480540E-01 -.87959748921E-02 -.37343895156E-02
 -.18837681063E-03 0.12532296036E-02 0.70387988902E-03 -.11793583009E-02 -.33433816198E-02
 -.45966471930E-02 -.41489993261E-02 -.21815637034E-02 0.10011643074E-03 0.11217617531E-02
 -.14381869875E-03 -.36875018581E-02 -.86430567721E-02 -.13736392667E-01 -.17643199957E-01
 -.17864331502E-01 -.15132296189E-01 -.10264411510E-01 -.48642907243E-02 -.78279812331E-03
 0.74460108669E-03 -.37645066112E-03 -.31151141090E-02 -.58311584927E-02 -.70470657162E-02
 -.61386338532E-02 -.36249300600E-02 -.86635123985E-03 0.67856091889E-03 0.15655009207E-03
 -.24317794027E-02 -.64643650961E-02 -.11053291806E-01 -.15186316868E-01 -.17772661253E-01
 -.14010262058E-01 -.10634273056E-01 -.60918070114E-02 -.20369032083E-02 -.17582689770E-03
 -.14857408049E-02 -.55567824869E-02 -.10570683079E-01 -.14159622760E-01 -.14683958636E-01
 -.12091869038E-01 -.77838516872E-02 -.36955460022E-02 -.13246608031E-02 -.12848710400E-02
 -.33876979360E-02 -.69163241762E-02 -.10828475067E-01 -.13932429677E-01 -.15179096872E-01
 -.90912371351E-02 -.62671829650E-02 -.33138520564E-02 -.15967745407E-02 -.25751933693E-02
 -.70116627525E-02 -.14100376511E-01 -.21416757460E-01 -.26016512140E-01 -.26024134169E-01
 -.21579262281E-01 -.14579099470E-01 -.75962206506E-02 -.27645721299E-02 -.11233687960E-02
 -.24563704659E-02 -.55508905930E-02 -.87624227657E-02 -.10717267831E-01 -.10785204646E-01
 -.43512759250E-02 -.27744612592E-02 -.20400551660E-02 -.34125842155E-02 -.81556138801E-02
 -.16531409282E-01 -.26920489139E-01 -.36023968380E-01 -.40335057590E-01 -.38004184390E-01
 -.29844921079E-01 -.18872814866E-01 -.87749852576E-02 -.22689284226E-02 -.15537553739E-03
 -.13826149220E-02 -.39359280747E-02 -.59761019923E-02 -.65963697987E-02 -.58630037185E-02
 -.59280013866E-03 -.35695886621E-03 -.23306075661E-02 -.78667540829E-02 -.17557941042E-01
 -.30284459133E-01 -.42913892561E-01 -.51249870978E-01 -.52002137264E-01 -.44631146499E-01
 -.31784650463E-01 -.17945939378E-01 -.71700885001E-02 -.13514188874E-02 0.52632978765E-04
 -.98989144229E-03 -.24604597772E-02 -.31582308080E-02 -.28057532124E-02 -.17310274699E-02
 0.13200848238E-02 0.25335454188E-03 -.48291308885E-02 -.14939531704E-01 -.29195864866E-01
 -.44503063218E-01 -.56332791423E-01 -.60545388868E-01 -.55475902940E-01 -.42969325157E-01
 -.27515458188E-01 -.13904961998E-01 -.49855743251E-02 -.93021504935E-03 -.15414864143E-03
 -.79369678615E-03 -.15542209750E-02 -.17419722992E-02 -.10599371008E-02 0.29185601397E-03
 0.84044190274E-03 -.13141177283E-02 -.89203103583E-02 -.22042885471E-01 -.38163174431E-01
 -.52756816091E-01 -.61015719621E-01 -.60045105359E-01 -.50345587046E-01 -.35581389270E-01
 -.20654211778E-01 -.93203318027E-02 -.28937124996E-02 -.60035808991E-03 -.84806200017E-03
 -.21882554632E-02 -.34854497118E-02 -.37947332188E-02 -.26085635716E-02 -.45035662090E-03
 -.13013544935E-02 -.38628809237E-02 -.12275544300E-01 -.25585396417E-01 -.40347417590E-01
 -.51798248761E-01 -.55923000397E-01 -.51353412699E-01 -.39961480166E-01 -.25811777695E-01
 -.13178771908E-01 -.48571425472E-02 -.15552370993E-02 -.23137690693E-02 -.53214015915E-02
 -.85882395400E-02 -.10409198307E-01 -.97887773035E-02 -.68773201284E-02 -.31910810244E-02
 -.34347527296E-02 -.56434846054E-02 -.13249862259E-01 -.24563132230E-01 -.36005958940E-01
 -.43470352053E-01 -.44157245040E-01 -.37839191603E-01 -.26862898473E-01 -.15045334286E-01
 -.61491389889E-02 -.25699527001E-02 -.45915431517E-02 -.10407016775E-01 -.16941610093E-01
 -.21187857580E-01 -.21427498249E-01 -.17755758798E-01 -.11824212393E-01 -.61626396858E-02
 -.43285074702E-02 -.60030159885E-02 -.12164399143E-01 -.20522754183E-01 -.27843119700E-01
 -.31174448239E-01 -.29086111935E-01 -.22275051679E-01 -.13327308339E-01 -.58155418740E-02
 -.30126825869E-02 -.65202183714E-02 -.15345766255E-01 -.26083758331E-01 -.34387080091E-01
 -.37030838793E-01 -.33323435708E-01 -.25088743227E-01 -.15517830031E-01 -.78218705755E-02
 -.37164950526E-02 -.51043505165E-02 -.96848984744E-02 -.14805029593E-01 -.18018058883E-01
 -.17843779323E-01 -.14231349946E-01 -.86368721861E-02 -.36842554953E-02 -.23850426957E-02
 -.69637525459E-02 -.17606732248E-01 -.31825598062E-01 -.45068660665E-01 -.52600075455E-01
 -.51717590137E-01 -.42994265748E-01 -.29836698230E-01 -.16760733683E-01 -.74747277505E-02
 -.18767210814E-02 -.30419496564E-02 -.59790382159E-02 -.83199824432E-02 -.87331927702E-02
 -.70099298019E-02 -.39563466358E-02 -.12502170331E-02 -.11289868319E-02 -.57476956818E-02
 -.16200072790E-01 -.31541013499E-01 -.48388534339E-01 -.61697307554E-01 -.66754693554E-01
 -.61493656719E-01 -.47726626504E-01 -.30357233376E-01 -.14963589374E-01 -.52488163305E-02
 0.34713250967E-03 -.52488096967E-03 -.22212532118E-02 -.31795823751E-02 -.28900444135E-02
 -.16070587733E-02 -.21958776535E-03 -.24139408077E-03 -.36050575267E-02 -.12012154380E-01
 -.25920796158E-01 -.43577447389E-01 -.60777421429E-01 -.72032031343E-01 -.72983714079E-01
 -.62833268952E-01 -.45082336692E-01 -.25831470667E-01 -.10662624750E-01 -.21764145861E-02
 0.13542971947E-02 0.51244224900E-03 -.77623042520E-03 -.15820908764E-02 -.15585466932E-02
 -.83923012852E-03 -.25294578218E-03 -.14853206210E-02 -.66989893309E-02 -.17469229887E-01
 -.33437097424E-01 -.51498466376E-01 -.66386680239E-01 -.72805919455E-01 -.68112817424E-01
 -.53881594981E-01 -.35163775432E-01 -.17850962871E-01 -.58741558238E-02 -.65684332569E-05
 -.23810288781E-03 -.14709767821E-02 -.26827159347E-02 -.31829971712E-02 -.26420807915E-02
 -.13122520246E-02 -.41898801985E-03 -.21697050708E-02 -.88686810213E-02 -.21338932963E-01
 -.37631994233E-01 -.53138948455E-01 -.62496767716E-01 -.62276099432E-01 -.52759586945E-01
 -.37654934078E-01 -.22028306389E-01 -.98757995762E-02 -.27786802304E-02 -.12525861503E-03
 -.42674959946E-02 -.58721800137E-02 -.65203519374E-02 -.58289550906E-02 -.38988582587E-02
 -.15278739794E-02 -.41287945956E-03 -.28210056160E-02 -.10372247359E-01 -.22526622589E-01
 -.36035114049E-01 -.46146316133E-01 -.49062679367E-01 -.43965096332E-01 -.33242219767E-01
 -.20945781224E-01 -.10708141667E-01 -.44166422802E-02 -.20966493543E-02 -.25661639532E-02
 -.93209060133E-02 -.10840669539E-01 -.10459403629E-01 -.83615968540E-02 -.52530930369E-02
 -.23188107143E-02 -.11774567149E-02 -.34406737376E-02 -.97259727546E-02 -.18750748732E-01
 -.27456808874E-01 -.32398364682E-01 -.31603841013E-01 -.25594389774E-01 -.16933793186E-01
 -.87853562599E-02 -.34934972283E-02 -.18936313502E-02 -.33711521318E-02 -.64116829364E-02
 -.14095088393E-01 -.15086261645E-01 -.13683019683E-01 -.10529357082E-01 -.66587097351E-02
 -.32564330771E-02 -.14956435708E-02 -.22840844483E-02 -.57886567100E-02 -.11014924253E-01
 -.15941952679E-01 -.18352487491E-01 -.17008212804E-01 -.12392791423E-01 -.65159552961E-02
 -.18858867633E-02 -.30093813842E-03 -.21025820175E-02 -.62143489943E-02 -.10797717803E-01
 -.17729638834E-01 -.17807204738E-01 -.15302742310E-01 -.11090487069E-01 -.64131968783E-02
 -.24541643257E-02 -.72694385494E-04 0.24943205045E-03 -.14853501132E-02 -.45706930734E-02
 -.75753377601E-02 -.88645261091E-02 -.75632351298E-02 -.42663438307E-02 -.82577370776E-03
 0.71147741863E-03 -.73902135674E-03 -.48325099867E-02 -.10153718278E-01 -.14935689089E-01
 -.80255433830E-02 -.73337272053E-02 -.57942999986E-02 -.39792393801E-02 -.23927694312E-02
 -.12933218528E-02 -.69442143220E-03 -.48354126489E-03 -.55133852671E-03 -.81430988950E-03
 -.11687077374E-02 -.14558826692E-02 -.15188291665E-02 -.13449078487E-02 -.11658414876E-02
 -.13925446650E-02 -.23676995269E-02 -.40694720345E-02 -.60314986852E-02 -.75440025661E-02
 -.73599723404E-02 -.61575016780E-02 -.41474706916E-02 -.21026615929E-02 -.82425769307E-03
 -.69731223041E-03 -.14481471161E-02 -.23298140509E-02 -.26208541993E-02 -.20917379355E-02
 -.11082733946E-02 -.30175579818E-03 -.10430205531E-03 -.53675732991E-03 -.13623299359E-02
 -.23942595322E-02 -.36214938000E-02 -.50470733205E-02 -.64643924807E-02 -.74026202378E-02
 -.59776475732E-02 -.46243794756E-02 -.27348239518E-02 -.11575795883E-02 -.59614536913E-03
 -.11530691791E-02 -.22506782386E-02 -.30226043496E-02 -.28969265428E-02 -.19644148966E-02
 -.84418942620E-03 -.18833851703E-03 -.24039368928E-03 -.79752185874E-03 -.15304188445E-02
 -.23167767874E-02 -.32611318624E-02 -.44333588351E-02 -.56119593328E-02 -.62862713435E-02
 -.42627415434E-02 -.32192096813E-02 -.20555766320E-02 -.12079995171E-02 -.89093898555E-03
 -.10472709163E-02 -.14629207683E-02 -.19089170544E-02 -.22312127743E-02 -.23523373142E-02
 -.22386926341E-02 -.18944237492E-02 -.14009991122E-02 -.95433369850E-03 -.82875124016E-03
 -.12488364676E-02 -.22118986453E-02 -.34247168518E-02 -.44077032497E-02 -.47333903343E-02
 -.23263072438E-02 -.19011773009E-02 -.15956975207E-02 -.12742115448E-02 -.85687245231E-03
 -.53203430945E-03 -.67225194639E-03 -.14834371388E-02 -.27055438457E-02 -.36756008058E-02
 -.37656492998E-02 -.28568284094E-02 -.14591397023E-02 -.37240774738E-03 -.16448030888E-03
 -.84608054240E-03 -.19291020155E-02 -.27935018200E-02 -.30745000081E-02 -.28142647244E-02
 -.62796661726E-03 -.75586759344E-03 -.11008709596E-02 -.13508666491E-02 -.14011576949E-02
 -.14684610406E-02 -.18660994488E-02 -.26402787176E-02 -.34147856118E-02 -.36317655368E-02
 -.30094909758E-02 -.18167740432E-02 -.71110393050E-03 -.27471680774E-03 -.62318169390E-03
 -.13719857274E-02 -.19444337458E-02 -.19698928330E-02 -.15010005115E-02 -.91948224110E-03
 0.16935088351E-03 -.14390445780E-03 -.91622963184E-03 -.19479792671E-02 -.29219196574E-02
 -.35448250938E-02 -.36612024106E-02 -.32977210906E-02 -.26209656928E-02 -.18637123662E-02
 -.12393842366E-02 -.88176733932E-03 -.80874541258E-03 -.93740365735E-03 -.11312810014E-02
 -.12416662527E-02 -.11603600339E-02 -.85305123119E-03 -.39456063146E-03 0.26732930749E-04
 0.85550073599E-04 -.88404346386E-04 -.97347938966E-03 -.23938200802E-02 -.37277764716E-02
 -.42949740105E-02 -.38445350822E-02 -.27338656899E-02 -.16533438415E-02 -.11175971468E-02
 -.11389711970E-02 -.13196461375E-02 -.12389038505E-02 -.80261077940E-03 -.26781429769E-03
 0.25258495981E-04 -.41046703572E-04 -.27200012102E-03 -.35136011207E-03 -.15402105684E-03
 -.26874601409E-03 -.24220445509E-03 -.76888139153E-03 -.17534629214E-02 -.27332500875E-02
 -.32339533086E-02 -.31380155233E-02 -.27232845526E-02 -.23630565251E-02 -.21762993682E-02
 -.19573060790E-02 -.14179347744E-02 -.50863962825E-03 0.47997242840E-03 0.11102967197E-02
 0.11077489932E-02 0.55914815303E-03 -.14126072910E-03 -.55922546044E-03 -.52699714832E-03
 -.63139321049E-03 -.55549005977E-03 -.51420242690E-03 -.78534853280E-03 -.14482447215E-02
 -.23241607073E-02 -.30793970922E-02 -.34009200655E-02 -.31403725612E-02 -.23644596529E-02
 -.13014036135E-02 -.22290888040E-03 0.66789665040E-03 0.12816699739E-02 0.15998183929E-02
 0.16056207758E-02 0.12835020534E-02 0.69312524640E-03 0.25997532070E-04 -.46492709391E-03
 -.10988836024E-02 -.11944359518E-02 -.92671708343E-03 -.87279559374E-03 -.13585995586E-02
 -.21819221513E-02 -.27698521794E-02 -.26421204322E-02 -.17896644047E-02 -.65998484669E-03
 0.22313427543E-03 0.66337098520E-03 0.88798740096E-03 0.12766704389E-02 0.19630593174E-02
 0.26619815286E-02 0.28682699489E-02 0.22660945841E-02 0.10194437271E-02 -.29868072023E-03
 -.13164406754E-02 -.17484399019E-02 -.17284838607E-02 -.16182737586E-02 -.15828240423E-02
 -.14964640294E-02 -.11496668423E-02 -.53305470088E-03 0.10172200281E-03 0.47363402325E-03
 0.56679324066E-03 0.68414085997E-03 0.12044610459E-02 0.22304690644E-02 0.34402036802E-02
 0.42538628835E-02 0.41830269799E-02 0.31306060335E-02 0.14632992010E-02 -.19438974399E-03
 -.73972930109E-03 -.14716065015E-02 -.17801088602E-02 -.15948403352E-02 -.10185643396E-02
 -.33214482526E-03 0.12789581758E-03 0.18618587799E-03 -.13181971944E-04 -.51206688283E-04
 0.48430677872E-03 0.16844733600E-02 0.32056716336E-02 0.44647152779E-02 0.50049861526E-02
 0.47242091567E-02 0.38378283450E-02 0.26623255959E-02 0.14346250950E-02 0.27161843118E-03
 0.22663051413E-03 -.52707841212E-03 -.97072798856E-03 -.90566301163E-03 -.53194066750E-03
 -.29931303846E-03 -.49244683973E-03 -.91204330526E-03 -.94871709168E-03 -.48960695558E-04
 0.18002067777E-02 0.39654630528E-02 0.55263974577E-02 0.58705925564E-02 0.50553094521E-02
 0.36942672968E-02 0.24880931303E-02 0.17650554187E-02 0.13683437653E-02 0.91882864826E-03
 0.40828424387E-03 -.91698313156E-04 -.57454938771E-03 -.88964520788E-03 -.10767059355E-02
 -.12491320565E-02 -.13657171299E-02 -.11507099766E-02 -.27979511361E-03 0.13148350226E-02
 0.32864881327E-02 0.49869888674E-02 0.57976142642E-02 0.54714563138E-02 0.42586606622E-02
 0.27592767279E-02 0.15728319254E-02 0.97594566354E-03 0.81688474243E-03 0.71667936279E-03
 -.66922642526E-03 -.94739307457E-03 -.14223002321E-02 -.18078990840E-02 -.18267044118E-02
 -.13977182691E-02 -.65743113231E-03 0.17836542430E-03 0.97761402454E-03 0.17709348138E-02
 0.26747028267E-02 0.36704701074E-02 0.44829497176E-02 0.46849389231E-02 0.40097906614E-02
 0.26161534407E-02 0.10533508458E-02 -.92650426602E-04 -.58879957172E-03 -.64125555207E-03
 -.23994604871E-02 -.27232448112E-02 -.29936697237E-02 -.28249380669E-02 -.20281853318E-02
 -.84152655560E-03 0.19549784250E-03 0.66455407742E-03 0.61192900186E-03 0.53473046585E-03
 0.99346702984E-03 0.21108654939E-02 0.34031748177E-02 0.40810545665E-02 0.36149343182E-02
 0.21231704709E-02 0.27793537301E-03 -.11866621730E-02 -.19471150026E-02 -.22094956299E-02
 -.41987849319E-02 -.46767284980E-02 -.45559826445E-02 -.37538796702E-02 -.25232896305E-02
 -.13457038515E-02 -.62375856740E-03 -.39520084234E-03 -.33637795477E-03 -.45265647245E-04
 0.64606047379E-03 0.15375856673E-02 0.22169555929E-02 0.23365948103E-02 0.18125413506E-02
 0.82767899728E-03 -.32834968321E-03 -.14377916341E-02 -.24473819676E-02 -.33856572931E-02
 -.59970886027E-02 -.63885106244E-02 -.58674410926E-02 -.48019967277E-02 -.36475202966E-02
 -.26439491892E-02 -.17461056116E-02 -.80267868081E-03 0.16321351661E-03 0.86783532807E-03
 0.10089764021E-02 0.57348756220E-03 -.73820016972E-04 -.46229173694E-03 -.41023141023E-03
 -.20034362740E-03 -.36713922213E-03 -.12940180332E-02 -.29082572732E-02 -.46929478781E-02
 -.75014259249E-02 -.74387758509E-02 -.64833238182E-02 -.51702767363E-02 -.38733981415E-02
 -.26345004275E-02 -.13504479224E-02 -.79628528084E-04 0.82099790238E-03 0.91942704681E-03
 0.13020433563E-03 -.10837165196E-02 -.19584710155E-02 -.19765105364E-02 -.12859022521E-02
 -.62878516030E-03 -.83016934684E-03 -.22116205241E-02 -.43531654344E-02 -.63807143805E-02
 0.18625211670E-01 0.17543350144E-01 0.13684004824E-01 0.82630613269E-02 0.30826238999E-02
 -.35062926349E-03 -.14411669451E-02 -.53431276325E-03 0.14244820130E-02 0.32414954698E-02
 0.38456371686E-02 0.27630118312E-02 0.48817013483E-03 -.16566362493E-02 -.22553186241E-02
 -.59413655984E-03 0.30901833457E-02 0.79326244028E-02 0.12876042036E-01 0.16812041185E-01
 0.17286849018E-01 0.14814275378E-01 0.10536312595E-01 0.57565475816E-02 0.17182386244E-02
 -.72974014658E-03 -.12119886060E-02 0.17993128920E-03 0.27790575977E-02 0.53199641895E-02
 0.63788400740E-02 0.52121872358E-02 0.23815267191E-02 -.44627954334E-03 -.14712929994E-02
 0.22911938885E-03 0.43209181201E-02 0.95278619925E-02 0.14254444120E-01 0.17109037896E-01
 0.13010005423E-01 0.98094334904E-02 0.59851345687E-02 0.25536157223E-02 0.45157300994E-03
 0.45311206036E-03 0.28465862325E-02 0.70181056769E-02 0.11374915621E-01 0.13946187917E-01
 0.13410187220E-01 0.98988911542E-02 0.50096897463E-02 0.10070484668E-02 -.30617683592E-03
 0.15850821725E-02 0.57561922601E-02 0.10387119082E-01 0.13666471795E-01 0.14545983299E-01
 0.76099424703E-02 0.46225804980E-02 0.18604433465E-02 0.55101457650E-03 0.19542217547E-02
 0.66654151897E-02 0.13820868215E-01 0.21026530083E-01 0.25412129641E-01 0.25176652528E-01
 0.20528133379E-01 0.13435923891E-01 0.65441931896E-02 0.20182168211E-02 0.83446602946E-03
 0.26141467489E-02 0.59186667902E-02 0.89563644784E-02 0.10391022891E-01 0.98072428922E-02
 0.33040346846E-02 0.10679468510E-02 -.56494610433E-04 0.18277988542E-02 0.80583949633E-02
 0.18145082195E-01 0.29297352675E-01 0.37496732097E-01 0.39614375804E-01 0.35092280064E-01
 0.26034427319E-01 0.15834918560E-01 0.74702530733E-02 0.24856248809E-02 0.91954823831E-03
 0.17862067907E-02 0.36846125157E-02 0.53384747790E-02 0.59324143759E-02 0.51838539672E-02
 0.67924268073E-03 -.44141875681E-03 0.82244308240E-03 0.65286670486E-02 0.17263219706E-01
 0.31109129239E-01 0.43956761053E-01 0.51295802325E-01 0.50499793269E-01 0.42144181862E-01
 0.29527902666E-01 0.16819558725E-01 0.71090356527E-02 0.14947592281E-02 -.58558636528E-03
 -.41285196129E-03 0.77342877438E-03 0.20193682423E-02 0.26044355458E-02 0.20934801125E-02
 -.68691774355E-03 -.14453339482E-03 0.40167936704E-02 0.13157716593E-01 0.26793814912E-01
 0.42097488434E-01 0.54557722745E-01 0.59806919866E-01 0.55784316061E-01 0.43929329079E-01
 0.28480524642E-01 0.14256841123E-01 0.43899077328E-02 -.54814592121E-03 -.18114216478E-02
 -.11388818009E-02 0.11325747980E-03 0.10604967516E-02 0.11507830479E-02 0.31155016981E-03
 -.64345350744E-03 0.17559080216E-02 0.85458452471E-02 0.20061227703E-01 0.34825571156E-01
 0.49383547555E-01 0.59169001446E-01 0.60420443450E-01 0.52258020843E-01 0.37465578204E-01
 0.21182943192E-01 0.82542964860E-02 0.10376228377E-02 -.97633968016E-03 0.54269174413E-04
 0.18810757893E-02 0.30250884080E-02 0.28742194166E-02 0.15514547911E-02 -.11359335791E-03
 0.82647892555E-03 0.43155175376E-02 0.12736981399E-01 0.25280836223E-01 0.39251627078E-01
 0.50559870378E-01 0.55193512409E-01 0.51134935797E-01 0.39603742438E-01 0.24660004272E-01
 0.11262539083E-01 0.29586044353E-02 0.60040434488E-03 0.26145633856E-02 0.62890871701E-02
 0.91350222969E-02 0.97067296497E-02 0.78381957082E-02 0.45053884113E-02 0.14789408754E-02
 0.22965233331E-02 0.56587610664E-02 0.14374870919E-01 0.26199286669E-01 0.37240979303E-01
 0.43504152444E-01 0.42678164714E-01 0.35163709051E-01 0.23785065154E-01 0.12468659386E-01
 0.46720955903E-02 0.22457276535E-02 0.49990241404E-02 0.10949725411E-01 0.17144189432E-01
 0.20808634417E-01 0.20401903540E-01 0.16142898898E-01 0.98547428604E-02 0.43060039922E-02
 0.22701003886E-02 0.47372013630E-02 0.12304869268E-01 0.21577050272E-01 0.28541080398E-01
 0.30460048700E-01 0.26959766523E-01 0.19789126648E-01 0.11741354547E-01 0.56182122951E-02
 0.35982104706E-02 0.67518994657E-02 0.14499868266E-01 0.24392308455E-01 0.32782168063E-01
 0.36329080167E-01 0.33526510027E-01 0.25373888282E-01 0.14933949031E-01 0.61290613333E-02
 0.11949571487E-02 0.25291947359E-02 0.77729837986E-02 0.13625424084E-01 0.17223645282E-01
 0.17223405964E-01 0.13991531549E-01 0.91175344084E-02 0.48101916934E-02 0.34448855857E-02
 0.69969325847E-02 0.16113035750E-01 0.29195866676E-01 0.42413208757E-01 0.51080886662E-01
 0.51826746066E-01 0.44244279706E-01 0.31058383917E-01 0.16824342680E-01 0.59837985131E-02
 0.43399313147E-03 0.67823143999E-03 0.33702533708E-02 0.63522377056E-02 0.80255262134E-02
 0.75691220334E-02 0.51666724809E-02 0.22065124030E-02 0.11424932971E-02 0.47019222114E-02
 0.14531571881E-01 0.29854638001E-01 0.47047264656E-01 0.60723477284E-01 0.66037356260E-01
 0.61040690722E-01 0.47652993867E-01 0.30629455783E-01 0.15196735062E-01 0.48485726359E-02
 0.10417395026E-03 -.18925165108E-03 0.86094720533E-03 0.21032577195E-02 0.25622095478E-02
 0.15922524494E-02 -.42427605997E-03 -.15851510186E-02 0.10299622565E-02 0.98773242907E-02
 0.25245816526E-01 0.44345959050E-01 0.61891461771E-01 0.72118631710E-01 0.71440290208E-01
 0.60285811245E-01 0.42898880028E-01 0.25087934660E-01 0.11363714717E-01 0.33364116941E-02
 -.24675979513E-03 -.23464699836E-04 0.59521413100E-03 0.89107908468E-03 0.37440844224E-03
 -.98639093326E-03 -.21894845039E-02 -.10686964864E-02 0.48981211266E-02 0.17102204595E-01
 0.34447750566E-01 0.53015400058E-01 0.67202481097E-01 0.72076630913E-01 0.65852019118E-01
 0.50942267060E-01 0.32744657923E-01 0.16804780270E-01 0.62678866146E-02 0.11924848591E-02
 0.30748752667E-03 0.16854760739E-02 0.23952290201E-02 0.21233202548E-02 0.10952106988E-02
 -.80080438210E-04 -.26384418996E-03 0.22552048888E-02 0.92418441419E-02 0.21357284426E-01
 0.36987439906E-01 0.52091541910E-01 0.61580860044E-01 0.61762492557E-01 0.52385087951E-01
 0.36888499307E-01 0.20607608292E-01 0.81077036151E-02 0.13311670529E-02 -.52335215003E-03
 0.32430915735E-02 0.53144664311E-02 0.58560079205E-02 0.50642622263E-02 0.36150131187E-02
 0.22406494539E-02 0.18940461625E-02 0.39944757971E-02 0.10009341589E-01 0.20234666555E-01
 0.32707218788E-01 0.43470019921E-01 0.48355155183E-01 0.45225626166E-01 0.35155059501E-01
 0.21830240398E-01 0.96784415697E-02 0.18867106112E-02 -.70893985949E-03 0.54331798907E-03
 0.82267529875E-02 0.10068135688E-01 0.99279893014E-02 0.81557085239E-02 0.54688094511E-02
 0.27711078732E-02 0.13336084993E-02 0.26977388788E-02 0.78613859600E-02 0.16180089149E-01
 0.25049176007E-01 0.31004170209E-01 0.31569893661E-01 0.26571857491E-01 0.18082290832E-01
 0.92522192114E-02 0.28843129923E-02 0.41900087859E-03 0.16167439257E-02 0.49009357148E-02
 0.13327402384E-01 0.14452646878E-01 0.13177334196E-01 0.97794892613E-02 0.52784218936E-02
 0.12612737983E-02 -.53809448420E-03 0.10059289874E-02 0.56546286168E-02 0.11619854973E-01
 0.16292847033E-01 0.17621231375E-01 0.15195816425E-01 0.10340993894E-01 0.52400445700E-02
 0.18138168526E-02 0.10253344134E-02 0.28053799203E-02 0.63101955985E-02 0.10263314705E-01
 0.17044165034E-01 0.17247134986E-01 0.14573034224E-01 0.96426931083E-02 0.41203784047E-02
 0.10436726996E-04 -.13029133255E-02 0.27798466625E-03 0.35703205565E-02 0.67115378119E-02
 0.80416342452E-02 0.69030550139E-02 0.39495259684E-02 0.75521852346E-03 -.10622351122E-02
 -.64401211398E-03 0.19038264015E-02 0.58633894918E-02 0.10338857529E-01 0.14409155711E-01
 0.75724316671E-02 0.75977254222E-02 0.60923602516E-02 0.37312485832E-02 0.17354279754E-02
 0.82995117501E-03 0.77113205353E-03 0.87427824926E-03 0.78585643396E-03 0.62581579207E-03
 0.51840130718E-03 0.31298106312E-03 -.11736977844E-03 -.51255258796E-03 -.38993070864E-03
 0.44228994443E-03 0.17270558390E-02 0.31629538333E-02 0.47129728821E-02 0.63436464474E-02
 0.70711844846E-02 0.62195456291E-02 0.46008039810E-02 0.29141987139E-02 0.16342261521E-02
 0.72558018732E-03 -.30602724699E-04 -.54895601470E-03 -.44024188790E-03 0.44084489755E-03
 0.15761715246E-02 0.21075850989E-02 0.16278037340E-02 0.58704321584E-03 -.95283588664E-04
 0.22740802328E-03 0.15667902540E-02 0.34872669435E-02 0.54089562043E-02 0.67592914387E-02
 0.48088530743E-02 0.34923746803E-02 0.23488410034E-02 0.14574171882E-02 0.65852941503E-03
 -.75831168729E-04 -.51112626780E-03 -.35398234636E-03 0.45508295430E-03 0.15927409064E-02
 0.24736008426E-02 0.25741839870E-02 0.18047019185E-02 0.67765342562E-03 0.78332826774E-04
 0.68067032461E-03 0.24189002665E-02 0.44585784731E-02 0.57565901032E-02 0.57885006660E-02
 0.23348236172E-02 0.13030094271E-02 0.63740234526E-03 0.23696748420E-03 0.17440533665E-03
 0.63603036990E-03 0.14951659528E-02 0.22335266835E-02 0.24019579980E-02 0.20510462562E-02
 0.15648089108E-02 0.11578424104E-02 0.74965617981E-03 0.36742305146E-03 0.42482800107E-03
 0.13361968333E-02 0.28875645902E-02 0.41908246982E-02 0.44304966072E-02 0.35882423238E-02
 0.12995709521E-02 0.51046699643E-03 -.67648457772E-04 -.29101280710E-04 0.94256308932E-03
 0.25786759011E-02 0.39422600442E-02 0.41083761414E-02 0.30067286108E-02 0.14911282205E-02
 0.50914109576E-03 0.28349519792E-03 0.36874495058E-03 0.38239398169E-03 0.44963355469E-03
 0.88765473940E-03 0.16597199810E-02 0.23169436559E-02 0.24484010807E-02 0.20290813480E-02
 0.10248054686E-02 0.19493590000E-03 -.23805631697E-03 0.24659987151E-03 0.15860462077E-02
 0.31266256797E-02 0.40678024011E-02 0.40134140659E-02 0.31957677865E-02 0.22081785335E-02
 0.15054356341E-02 0.11135308165E-02 0.76613739279E-03 0.27601004484E-03 -.22984578703E-03
 -.41468263507E-03 -.54608271967E-04 0.71105447239E-03 0.14115361470E-02 0.15593539132E-02
 0.23189196077E-03 -.15985096249E-03 -.53402215766E-04 0.49735526023E-03 0.12412674208E-02
 0.21005678497E-02 0.31160006322E-02 0.40885879808E-02 0.45293866205E-02 0.40839662466E-02
 0.29326829523E-02 0.16293531172E-02 0.58536321463E-03 -.17039347318E-03 -.71613651291E-03
 -.91385567862E-03 -.56878665825E-03 0.16457662544E-03 0.73994764591E-03 0.71790809429E-03
 -.47822900459E-03 0.12982688487E-03 0.76453122574E-03 0.10887428087E-02 0.12979181293E-02
 0.19951309304E-02 0.33873417563E-02 0.47809056541E-02 0.51036884285E-02 0.39679382656E-02
 0.20769843298E-02 0.53047983749E-03 -.15110017795E-03 -.25043974101E-03 -.26382583012E-03
 -.35961131904E-03 -.44888784817E-03 -.51912873834E-03 -.64233075639E-03 -.71775433006E-03
 -.21184628691E-03 0.96614942237E-03 0.18306665215E-02 0.23002269517E-02 0.26735119151E-02
 0.32359070211E-02 0.38216182303E-02 0.38745587620E-02 0.30065947096E-02 0.14805677781E-02
 0.71236655486E-04 -.56969863316E-03 -.42129862033E-03 -.10187916754E-04 0.94381465431E-04
 -.31289936296E-03 -.10311479067E-02 -.16557588599E-02 -.18005534739E-02 -.12757019522E-02
 0.14458987287E-05 0.94269394312E-03 0.20465816566E-02 0.31308271961E-02 0.37416997775E-02
 0.35367435484E-02 0.26392262861E-02 0.15382808698E-02 0.65626830024E-03 0.83560474096E-04
 -.28627137761E-03 -.51026576285E-03 -.59326447743E-03 -.65046451847E-03 -.89691797254E-03
 -.13940275499E-02 -.18838875331E-02 -.19909713009E-02 -.15809170901E-02 -.84241343025E-03
 -.89573337648E-03 -.28732593169E-03 0.10802238772E-02 0.24839418137E-02 0.29491572911E-02
 0.22616785265E-02 0.11980245224E-02 0.67687393653E-03 0.81457515458E-03 0.93805017242E-03
 0.43504801414E-03 -.61921860267E-03 -.16815498700E-02 -.23471713616E-02 -.25750023431E-02
 -.24441129369E-02 -.19908466740E-02 -.13724318444E-02 -.94274924014E-03 -.89913641610E-03
 -.16148731879E-02 -.11694354834E-02 -.11467262646E-03 0.90500848218E-03 0.13301145889E-02
 0.12428946978E-02 0.11685740268E-02 0.13803606093E-02 0.15438888033E-02 0.10944642978E-02
 -.12913131770E-03 -.17096177854E-02 -.30199920297E-02 -.36644777823E-02 -.35760290172E-02
 -.29008890417E-02 -.19594348518E-02 -.12238792082E-02 -.10667114253E-02 -.13926958232E-02
 -.67575223607E-03 -.72860203258E-03 -.60752802760E-03 -.14587679325E-03 0.51882363384E-03
 0.10255095060E-02 0.10787612998E-02 0.67236214482E-03 0.17243230349E-04 -.70933718915E-03
 -.15048370366E-02 -.24102566719E-02 -.33130374150E-02 -.39382395329E-02 -.40335106499E-02
 -.35677005193E-02 -.27392064865E-02 -.18411933920E-02 -.11251306741E-02 -.74083988126E-03
 0.74096255010E-03 0.64472587578E-04 -.42726259083E-03 -.20561539314E-03 0.33955007999E-03
 0.36565584927E-03 -.43753166458E-03 -.14969399714E-02 -.20239702312E-02 -.18966485698E-02
 -.17259665784E-02 -.21202579800E-02 -.30782949650E-02 -.40845296184E-02 -.46242135834E-02
 -.44553353432E-02 -.35357825612E-02 -.20067251657E-02 -.34239210645E-03 0.72102195395E-03
 0.81275802007E-03 0.34996482588E-03 0.10227114132E-03 0.19990525931E-03 0.16464164004E-03
 -.41815175663E-03 -.13016232116E-02 -.18166033638E-02 -.16678223512E-02 -.13080515739E-02
 -.14436800198E-02 -.23009801086E-02 -.34679031702E-02 -.43521314071E-02 -.46255362523E-02
 -.42138812830E-02 -.31342142109E-02 -.15650497928E-02 -.24463634610E-04 0.83940715197E-03
 0.36240016453E-03 0.86100718087E-03 0.10230373173E-02 0.86407556790E-03 0.55766478630E-03
 0.31384894334E-03 0.20400528688E-03 0.78340039337E-04 -.34026034239E-03 -.12059257260E-02
 -.23451947529E-02 -.33381248975E-02 -.37963003408E-02 -.36341371940E-02 -.30871518581E-02
 -.24838958066E-02 -.19879127658E-02 -.15390609751E-02 -.10012219660E-02 -.32706160276E-03
 0.13797775445E-02 0.23432895747E-02 0.23669281600E-02 0.19418700536E-02 0.17474357970E-02
 0.18612784938E-02 0.17165650204E-02 0.80668822158E-03 -.74649614598E-03 -.23136572988E-02
 -.32870743884E-02 -.34372445637E-02 -.28678636183E-02 -.18972916100E-02 -.10158776530E-02
 -.71314618042E-03 -.10766957012E-02 -.15585715506E-02 -.13468028754E-02 -.16331899977E-03
 0.36811567355E-02 0.42530494598E-02 0.38513031030E-02 0.30945903678E-02 0.24616764037E-02
 0.18322861196E-02 0.85506790336E-03 -.42817328596E-03 -.15523725888E-02 -.21443269469E-02
 -.22302389626E-02 -.20194311417E-02 -.15690495646E-02 -.87874942537E-03 -.19822652167E-03
 0.65613805404E-04 -.12124480872E-03 -.16111585118E-03 0.62362938897E-03 0.21879579876E-02
 0.56303476143E-02 0.58887848628E-02 0.52006244537E-02 0.37577228172E-02 0.19951291440E-02
 0.42851693115E-03 -.51413568512E-03 -.67593138934E-03 -.32497994349E-03 -.37627952260E-04
 -.24535519931E-03 -.86189944100E-03 -.13577364268E-02 -.12648234835E-02 -.57916682916E-03
 0.34188849941E-03 0.12343041540E-02 0.21637029301E-02 0.33143558186E-02 0.46130533264E-02
 0.68286222059E-02 0.71738713289E-02 0.61496686129E-02 0.39193147546E-02 0.15031858597E-02
 0.53306153561E-04 -.31572586551E-04 0.70444968735E-03 0.13314430070E-02 0.12444636194E-02
 0.45256681351E-03 -.61102525157E-03 -.14035445667E-02 -.15004219991E-02 -.76614694456E-03
 0.56613058021E-03 0.20364863998E-02 0.33254852033E-02 0.44915226297E-02 0.57166573543E-02
 -.19402332621E-01 -.17058437300E-01 -.13059292225E-01 -.84348733198E-02 -.38102868865E-02
 0.52002922928E-05 0.18799223072E-02 0.12083762774E-02 -.12297324862E-02 -.36399784364E-02
 -.45591827955E-02 -.37858994282E-02 -.20987927694E-02 -.44041261242E-03 0.37333660065E-03
 -.52700060505E-03 -.38333839231E-02 -.92414175684E-02 -.15010908248E-01 -.18836210346E-01
 -.17740493933E-01 -.14762019128E-01 -.10170631750E-01 -.51469451021E-02 -.10450189646E-02