    5    5   50    1
  0.3477306E+02  0.2573869E-09  0.2573869E-09  0.3030466E-08  0.5000000E-15
  1.000000000000000E-004
  CAR 
 unknown system                          
     45     31     28
 
  0.0000000E+00  0.0000000E+00  0.0000000E+00  0.1000000E-01
    1      -11.600931   1.000000
    2      -10.699013   1.000000
    3       -9.058503   1.000000
    4       -7.607589   1.000000
    5       -6.304211   1.000000
    6       -5.724752   1.000000
    7       -5.546451   1.000000
    8       -5.489289   1.000000
    9       -5.369145   1.000000
   10       -5.366065   1.000000
   11       -5.345251   1.000000
   12       -5.338690   1.000000
   13       -5.329377   1.000000
   14       -5.066692   1.000000
   15       -5.063284   1.000000
   16       -4.921120   1.000000
   17       -4.885030   1.000000
   18       -4.739947   1.000000
   19       -4.571244   1.000000
   20       -4.567682   1.000000
   21       -4.348864   1.000000
   22       -4.334545   1.000000
   23       -4.059877   1.000000
   24       -4.056781   1.000000
   25       -2.947599   0.999925
   26        1.602241   0.000000
   27        1.924160   0.000000
   28        2.356698   0.000000
 
  0.1000000E+00  0.6938894E-17  0.0000000E+00  0.4000000E-01
    1      -11.292958   1.000000
    2      -10.402900   1.000000
    3       -8.798252   1.000000
    4       -7.389531   1.000000
    5       -6.325730   1.000000
    6       -5.769954   1.000000
    7       -5.651047   1.000000
    8       -5.499569   1.000000
    9       -5.451288   1.000000
   10       -5.405840   1.000000
   11       -5.372440   1.000000
   12       -5.262931   1.000000
   13       -5.241018   1.000000
   14       -5.167953   1.000000
   15       -5.079465   1.000000
   16       -4.977502   1.000000
   17       -4.814775   1.000000
   18       -4.751618   1.000000
   19       -4.578339   1.000000
   20       -4.537153   1.000000
   21       -4.360973   1.000000
   22       -4.332372   1.000000
   23       -4.052842   1.000000
   24       -3.818746   1.000000
   25       -2.264060   0.148720
   26        1.844896   0.000000
   27        2.228157   0.000000
   28        2.659358   0.000000
 
  0.2000000E+00 -0.1387779E-16  0.0000000E+00  0.4000000E-01
    1      -10.406682   1.000000
    2       -9.566940   1.000000
    3       -8.128140   1.000000
    4       -6.883009   1.000000
    5       -6.434915   1.000000
    6       -6.001025   1.000000
    7       -5.822462   1.000000
    8       -5.741452   1.000000
    9       -5.578254   1.000000
   10       -5.348469   1.000000
   11       -5.285290   1.000000
   12       -5.240807   1.000000
   13       -5.122599   1.000000
   14       -5.070044   1.000000
   15       -4.969265   1.000000
   16       -4.908714   1.000000
   17       -4.853656   1.000000
   18       -4.680564   1.000000
   19       -4.625157   1.000000
   20       -4.516569   1.000000
   21       -4.334629   1.000000
   22       -4.130383   1.000000
   23       -4.046427   1.000000
   24       -2.918795   0.999833
   25       -0.933157   0.000000
   26        2.567143   0.000000
   27        3.139246   0.000000
   28        3.567641   0.000000
 
  0.3000000E+00 -0.2775558E-16  0.0000000E+00  0.4000000E-01
    1       -9.104185   1.000000
    2       -8.425708   1.000000
    3       -7.486692   1.000000
    4       -6.722515   1.000000
    5       -6.449758   1.000000
    6       -6.276148   1.000000
    7       -5.958404   1.000000
    8       -5.736964   1.000000
    9       -5.621375   1.000000
   10       -5.356576   1.000000
   11       -5.221147   1.000000
   12       -5.128805   1.000000
   13       -4.953465   1.000000
   14       -4.904405   1.000000
   15       -4.813354   1.000000
   16       -4.678306   1.000000
   17       -4.610906   1.000000
   18       -4.432981   1.000000
   19       -4.404767   1.000000
   20       -4.331092   1.000000
   21       -4.210339   1.000000
   22       -4.032478   1.000000
   23       -3.623402   1.000000
   24       -1.712938   0.000000
   25        0.751603   0.000000
   26        3.749634   0.000000
   27        4.617541   0.000000
   28        5.016012   0.000000
 
  0.4000000E+00 -0.2775558E-16  0.0000000E+00  0.4000000E-01
    1       -8.033653   1.000000
    2       -7.495190   1.000000
    3       -7.179538   1.000000
    4       -6.828635   1.000000
    5       -6.582853   1.000000
    6       -6.445728   1.000000
    7       -6.089839   1.000000
    8       -5.554495   1.000000
    9       -5.416207   1.000000
   10       -5.341316   1.000000
   11       -5.276472   1.000000
   12       -4.992807   1.000000
   13       -4.867757   1.000000
   14       -4.542071   1.000000
   15       -4.450431   1.000000
   16       -4.385553   1.000000
   17       -4.186989   1.000000
   18       -4.159116   1.000000
   19       -4.130316   1.000000
   20       -4.040169   1.000000
   21       -3.893613   1.000000
   22       -3.611150   1.000000
   23       -2.555928   0.846581
   24       -0.297993   0.000000
   25        2.054936   0.000000
   26        2.876061   0.000000
   27        3.204252   0.000000
   28        4.347754   0.000000
 
  0.5000000E+00 -0.2775558E-16  0.0000000E+00  0.2000000E-01
    1       -7.821675   1.000000
    2       -7.187621   1.000000
    3       -6.992182   1.000000
    4       -6.891715   1.000000
    5       -6.652407   1.000000
    6       -6.499037   1.000000
    7       -6.117856   1.000000
    8       -5.475148   1.000000
    9       -5.425400   1.000000
   10       -5.297824   1.000000
   11       -5.202387   1.000000
   12       -4.980192   1.000000
   13       -4.627592   1.000000
   14       -4.489019   1.000000
   15       -4.338070   1.000000
   16       -4.263568   1.000000
   17       -4.116582   1.000000
   18       -4.036071   1.000000
   19       -3.974257   1.000000
   20       -3.778598   1.000000
   21       -3.680804   1.000000
   22       -2.290043   0.195388
   23       -1.425252   0.000000
   24       -0.884971   0.000000
   25        1.246165   0.000000
   26        2.178379   0.000000
   27        2.843285   0.000000
   28        3.621387   0.000000
 
  0.0000000E+00  0.1000000E+00  0.0000000E+00  0.2000000E-01
    1      -11.306109   1.000000
    2      -10.404700   1.000000
    3       -8.789254   1.000000
    4       -7.384775   1.000000
    5       -6.252252   1.000000
    6       -5.793741   1.000000
    7       -5.585028   1.000000
    8       -5.445052   1.000000
    9       -5.439803   1.000000
   10       -5.414431   1.000000
   11       -5.362279   1.000000
   12       -5.295912   1.000000
   13       -5.237796   1.000000
   14       -5.168374   1.000000
   15       -5.078903   1.000000
   16       -5.000201   1.000000
   17       -4.907949   1.000000
   18       -4.764443   1.000000
   19       -4.586408   1.000000
   20       -4.527388   1.000000
   21       -4.363781   1.000000
   22       -4.343912   1.000000
   23       -4.055148   1.000000
   24       -3.841529   1.000000
   25       -2.273404   0.164567
   26        1.845912   0.000000
   27        2.227947   0.000000
   28        2.659482   0.000000
 
  0.2000000E+00  0.1000000E+00  0.0000000E+00  0.2000000E-01
    1      -10.685588   1.000000
    2       -9.836170   1.000000
    3       -8.340025   1.000000
    4       -7.019251   1.000000
    5       -6.411801   1.000000
    6       -5.892667   1.000000
    7       -5.807368   1.000000
    8       -5.669555   1.000000
    9       -5.561152   1.000000
   10       -5.437319   1.000000
   11       -5.335344   1.000000
   12       -5.228702   1.000000
   13       -5.173222   1.000000
   14       -5.130121   1.000000
   15       -5.030271   1.000000
   16       -4.902554   1.000000
   17       -4.780234   1.000000
   18       -4.672601   1.000000
   19       -4.635764   1.000000
   20       -4.510720   1.000000
   21       -4.414084   1.000000
   22       -4.150070   1.000000
   23       -4.082669   1.000000
   24       -3.152248   1.000000
   25       -1.314747   0.000000
   26        2.327409   0.000000
   27        2.836471   0.000000
   28        3.265511   0.000000
 
  0.3000000E+00  0.1000000E+00  0.0000000E+00  0.4000000E-01
    1       -9.580704   1.000000
    2       -8.835397   1.000000
    3       -7.670160   1.000000
    4       -6.653136   1.000000
    5       -6.368699   1.000000
    6       -6.113749   1.000000
    7       -5.927689   1.000000
    8       -5.850322   1.000000
    9       -5.686190   1.000000
   10       -5.388914   1.000000
   11       -5.346885   1.000000
   12       -5.225062   1.000000
   13       -5.124761   1.000000
   14       -5.002922   1.000000
   15       -4.929793   1.000000
   16       -4.818342   1.000000
   17       -4.691678   1.000000
   18       -4.532363   1.000000
   19       -4.414380   1.000000
   20       -4.373838   1.000000
   21       -4.221960   1.000000
   22       -4.109393   1.000000
   23       -3.740103   1.000000
   24       -2.115549   0.018216
   25        0.150193   0.000000
   26        3.300481   0.000000
   27        4.045857   0.000000
   28        4.471786   0.000000
 
  0.4000000E+00  0.1000000E+00  0.0000000E+00  0.4000000E-01
    1       -8.375058   1.000000
    2       -7.767899   1.000000
    3       -7.194405   1.000000
    4       -6.682864   1.000000
    5       -6.434602   1.000000
    6       -6.281018   1.000000
    7       -6.005257   1.000000
    8       -5.705711   1.000000
    9       -5.621104   1.000000
   10       -5.355608   1.000000
   11       -5.296773   1.000000
   12       -5.145673   1.000000
   13       -4.980777   1.000000
   14       -4.814312   1.000000
   15       -4.728571   1.000000
   16       -4.574377   1.000000
   17       -4.460645   1.000000
   18       -4.345255   1.000000
   19       -4.242601   1.000000
   20       -4.061420   1.000000
   21       -4.010652   1.000000
   22       -3.701391   1.000000
   23       -2.841695   0.998827
   24       -0.688920   0.000000
   25        1.939377   0.000000
   26        3.934249   0.000000
   27        4.456547   0.000000
   28        5.069091   0.000000
 
  0.5000000E+00  0.1000000E+00  0.0000000E+00  0.4000000E-01
    1       -7.849580   1.000000
    2       -7.106751   1.000000
    3       -6.947322   1.000000
    4       -6.742699   1.000000
    5       -6.556839   1.000000
    6       -6.382090   1.000000
    7       -6.087078   1.000000
    8       -5.580814   1.000000
    9       -5.471825   1.000000
   10       -5.365570   1.000000
   11       -5.249133   1.000000
   12       -5.065588   1.000000
   13       -4.851239   1.000000
   14       -4.602403   1.000000
   15       -4.466827   1.000000
   16       -4.323705   1.000000
   17       -4.206265   1.000000
   18       -4.169494   1.000000
   19       -4.097038   1.000000
   20       -3.945960   1.000000
   21       -3.496548   1.000000
   22       -2.412687   0.503596
   23       -1.381922   0.000000
   24        0.061676   0.000000
   25        1.547442   0.000000
   26        2.545502   0.000000
   27        3.007318   0.000000
   28        4.121640   0.000000
 
 -0.4000000E+00  0.1000000E+00  0.0000000E+00  0.4000000E-01
    1       -7.766977   1.000000
    2       -7.106661   1.000000
    3       -6.936945   1.000000
    4       -6.767039   1.000000
    5       -6.556425   1.000000
    6       -6.411370   1.000000
    7       -6.107857   1.000000
    8       -5.644124   1.000000
    9       -5.458127   1.000000
   10       -5.373114   1.000000
   11       -5.290846   1.000000
   12       -5.072026   1.000000
   13       -4.874506   1.000000
   14       -4.581033   1.000000
   15       -4.473024   1.000000
   16       -4.321727   1.000000
   17       -4.211899   1.000000
   18       -4.143927   1.000000
   19       -4.096576   1.000000
   20       -3.942505   1.000000
   21       -3.415354   1.000000
   22       -2.413721   0.506513
   23       -1.405822   0.000000
   24        0.051741   0.000000
   25        1.535781   0.000000
   26        2.511328   0.000000
   27        3.056099   0.000000
   28        4.098589   0.000000
 
 -0.3000000E+00  0.1000000E+00  0.0000000E+00  0.4000000E-01
    1       -8.326137   1.000000
    2       -7.734488   1.000000
    3       -7.171412   1.000000
    4       -6.697032   1.000000
    5       -6.438432   1.000000
    6       -6.321021   1.000000
    7       -6.044676   1.000000
    8       -5.748040   1.000000
    9       -5.643126   1.000000
   10       -5.381375   1.000000
   11       -5.333427   1.000000
   12       -5.162746   1.000000
   13       -4.982887   1.000000
   14       -4.815039   1.000000
   15       -4.681263   1.000000
   16       -4.568047   1.000000
   17       -4.443018   1.000000
   18       -4.290879   1.000000
   19       -4.211508   1.000000
   20       -4.050041   1.000000
   21       -3.982327   1.000000
   22       -3.698146   1.000000
   23       -2.894793   0.999685
   24       -0.789507   0.000000
   25        1.863852   0.000000
   26        3.993478   0.000000
   27        4.527059   0.000000
   28        5.086310   0.000000
 
 -0.2000000E+00  0.1000000E+00  0.0000000E+00  0.4000000E-01
    1       -9.625816   1.000000
    2       -8.812870   1.000000
    3       -7.590007   1.000000
    4       -6.615040   1.000000
    5       -6.355155   1.000000
    6       -6.136613   1.000000
    7       -5.954097   1.000000
    8       -5.857446   1.000000
    9       -5.681848   1.000000
   10       -5.394591   1.000000
   11       -5.348718   1.000000
   12       -5.252891   1.000000
   13       -5.098099   1.000000
   14       -4.992479   1.000000
   15       -4.864306   1.000000
   16       -4.818602   1.000000
   17       -4.664927   1.000000
   18       -4.570648   1.000000
   19       -4.432902   1.000000
   20       -4.369953   1.000000
   21       -4.220129   1.000000
   22       -4.115552   1.000000
   23       -3.789963   1.000000
   24       -2.228890   0.098417
   25        0.094327   0.000000
   26        3.296590   0.000000
   27        4.045152   0.000000
   28        4.469387   0.000000
 
 -0.1000000E+00  0.1000000E+00  0.0000000E+00  0.4000000E-01
    1      -10.722824   1.000000
    2       -9.836093   1.000000
    3       -8.303369   1.000000
    4       -7.000599   1.000000
    5       -6.284835   1.000000
    6       -5.899323   1.000000
    7       -5.795710   1.000000
    8       -5.658289   1.000000
    9       -5.547339   1.000000
   10       -5.411266   1.000000
   11       -5.257885   1.000000
   12       -5.235292   1.000000
   13       -5.179598   1.000000
   14       -5.161317   1.000000
   15       -5.034018   1.000000
   16       -4.946073   1.000000
   17       -4.785356   1.000000
   18       -4.708203   1.000000
   19       -4.675241   1.000000
   20       -4.542404   1.000000
   21       -4.427347   1.000000
   22       -4.153396   1.000000
   23       -4.097797   1.000000
   24       -3.237040   1.000000
   25       -1.345598   0.000000
   26        2.329001   0.000000
   27        2.835596   0.000000
   28        3.265006   0.000000
 
  0.0000000E+00  0.2000000E+00  0.0000000E+00  0.2000000E-01
    1      -10.477033   1.000000
    2       -9.571474   1.000000
    3       -8.076907   1.000000
    4       -6.851299   1.000000
    5       -6.208372   1.000000
    6       -5.946395   1.000000
    7       -5.767552   1.000000
    8       -5.678677   1.000000
    9       -5.575518   1.000000
   10       -5.375094   1.000000
   11       -5.276208   1.000000
   12       -5.260135   1.000000
   13       -5.135876   1.000000
   14       -5.113460   1.000000
   15       -5.000733   1.000000
   16       -4.937711   1.000000
   17       -4.891568   1.000000
   18       -4.700034   1.000000
   19       -4.655133   1.000000
   20       -4.529352   1.000000
   21       -4.342328   1.000000
   22       -4.199540   1.000000
   23       -4.049162   1.000000
   24       -3.049767   0.999997
   25       -0.983981   0.000000
   26        2.564911   0.000000
   27        3.138079   0.000000
   28        3.566621   0.000000
 
  0.4000000E+00  0.2000000E+00  0.0000000E+00  0.2000000E-01
    1       -8.524855   1.000000
    2       -7.860148   1.000000
    3       -7.147392   1.000000
    4       -6.551246   1.000000
    5       -6.226077   1.000000
    6       -6.128048   1.000000
    7       -6.015837   1.000000
    8       -5.922683   1.000000
    9       -5.656052   1.000000
   10       -5.514353   1.000000
   11       -5.387874   1.000000
   12       -5.310787   1.000000
   13       -5.065065   1.000000
   14       -5.002204   1.000000
   15       -4.800513   1.000000
   16       -4.737544   1.000000
   17       -4.493903   1.000000
   18       -4.384828   1.000000
   19       -4.282302   1.000000
   20       -4.055336   1.000000
   21       -4.008326   1.000000
   22       -3.648279   1.000000
   23       -2.845623   0.998931
   24       -0.818885   0.000000
   25        1.725407   0.000000
   26        4.537947   0.000000
   27        5.168396   0.000000
   28        5.632127   0.000000
 
  0.5000000E+00  0.2000000E+00  0.0000000E+00  0.4000000E-01
    1       -7.894564   1.000000
    2       -6.951856   1.000000
    3       -6.743852   1.000000
    4       -6.526701   1.000000
    5       -6.336091   1.000000
    6       -6.199083   1.000000
    7       -6.003846   1.000000
    8       -5.843634   1.000000
    9       -5.647096   1.000000
   10       -5.544307   1.000000
   11       -5.400572   1.000000
   12       -5.131904   1.000000
   13       -5.032982   1.000000
   14       -4.892933   1.000000
   15       -4.712356   1.000000
   16       -4.604521   1.000000
   17       -4.454617   1.000000
   18       -4.268566   1.000000
   19       -4.124635   1.000000
   20       -3.962605   1.000000
   21       -3.342146   1.000000
   22       -2.431604   0.556767
   23       -1.235294   0.000000
   24        0.844769   0.000000
   25        2.688048   0.000000
   26        3.614826   0.000000
   27        3.815770   0.000000
   28        4.912717   0.000000
 
 -0.4000000E+00  0.2000000E+00  0.0000000E+00  0.4000000E-01
    1       -7.654320   1.000000
    2       -6.723850   1.000000
    3       -6.658464   1.000000
    4       -6.465590   1.000000
    5       -6.363337   1.000000
    6       -6.215897   1.000000
    7       -6.030696   1.000000
    8       -5.890742   1.000000
    9       -5.620897   1.000000
   10       -5.532939   1.000000
   11       -5.378041   1.000000
   12       -5.168563   1.000000
   13       -4.960656   1.000000
   14       -4.775449   1.000000
   15       -4.633374   1.000000
   16       -4.534410   1.000000
   17       -4.352643   1.000000
   18       -4.191520   1.000000
   19       -4.128782   1.000000
   20       -4.028497   1.000000
   21       -2.526942   0.793013
   22       -0.783900   0.000000
   23       -0.204250   0.000000
   24        0.570064   0.000000
   25        1.644193   0.000000
   26        2.809047   0.000000
   27        3.388628   0.000000
   28        4.237314   0.000000
 
 -0.3000000E+00  0.2000000E+00  0.0000000E+00  0.4000000E-01
    1       -7.751646   1.000000
    2       -6.962318   1.000000
    3       -6.752767   1.000000
    4       -6.529662   1.000000
    5       -6.341667   1.000000
    6       -6.245535   1.000000
    7       -6.023865   1.000000
    8       -5.880499   1.000000
    9       -5.653269   1.000000
   10       -5.577281   1.000000
   11       -5.465472   1.000000
   12       -5.136387   1.000000
   13       -5.037338   1.000000
   14       -4.890996   1.000000
   15       -4.730263   1.000000
   16       -4.606157   1.000000
   17       -4.449257   1.000000
   18       -4.264494   1.000000
   19       -4.094694   1.000000
   20       -3.963793   1.000000
   21       -3.171579   1.000000
   22       -2.443894   0.590830
   23       -1.334062   0.000000
   24        0.676346   0.000000
   25        2.669401   0.000000
   26        3.588858   0.000000
   27        3.826873   0.000000
   28        4.828375   0.000000
 
 -0.2000000E+00  0.2000000E+00  0.0000000E+00  0.4000000E-01
    1       -8.611944   1.000000
    2       -7.782324   1.000000
    3       -7.023474   1.000000
    4       -6.519226   1.000000
    5       -6.205359   1.000000
    6       -6.130195   1.000000
    7       -6.010188   1.000000
    8       -5.926331   1.000000
    9       -5.657552   1.000000
   10       -5.518749   1.000000
   11       -5.442234   1.000000
   12       -5.376563   1.000000
   13       -5.068247   1.000000
   14       -5.009787   1.000000
   15       -4.857548   1.000000
   16       -4.674619   1.000000
   17       -4.505578   1.000000
   18       -4.341881   1.000000
   19       -4.205401   1.000000
   20       -4.060212   1.000000
   21       -3.951659   1.000000
   22       -3.657547   1.000000
   23       -2.965645   0.999956
   24       -1.062357   0.000000
   25        1.535296   0.000000
   26        4.409935   0.000000
   27        5.386245   0.000000
   28        5.601767   0.000000
 
 -0.1000000E+00  0.2000000E+00  0.0000000E+00  0.4000000E-01
    1       -9.711917   1.000000
    2       -8.815877   1.000000
    3       -7.537592   1.000000
    4       -6.535919   1.000000
    5       -6.276308   1.000000
    6       -6.045454   1.000000
    7       -5.882544   1.000000
    8       -5.818338   1.000000
    9       -5.690089   1.000000
   10       -5.379524   1.000000
   11       -5.346654   1.000000
   12       -5.282889   1.000000
   13       -5.179664   1.000000
   14       -5.015770   1.000000
   15       -4.865547   1.000000
   16       -4.832974   1.000000
   17       -4.665108   1.000000
   18       -4.584699   1.000000
   19       -4.468227   1.000000
   20       -4.372817   1.000000
   21       -4.220199   1.000000
   22       -4.116276   1.000000
   23       -3.850532   1.000000
   24       -2.337733   0.301187
   25        0.036753   0.000000
   26        3.278072   0.000000
   27        4.045333   0.000000
   28        4.460448   0.000000
 
  0.0000000E+00  0.3000000E+00  0.0000000E+00  0.2000000E-01
    1       -9.358863   1.000000
    2       -8.405402   1.000000
    3       -7.335680   1.000000
    4       -6.540146   1.000000
    5       -6.385297   1.000000
    6       -6.076994   1.000000
    7       -5.785667   1.000000
    8       -5.698652   1.000000
    9       -5.476022   1.000000
   10       -5.362630   1.000000
   11       -5.304955   1.000000
   12       -5.163230   1.000000
   13       -5.020547   1.000000
   14       -4.917227   1.000000
   15       -4.807236   1.000000
   16       -4.774802   1.000000
   17       -4.613237   1.000000
   18       -4.453544   1.000000
   19       -4.419336   1.000000
   20       -4.335485   1.000000
   21       -4.210667   1.000000
   22       -4.034950   1.000000
   23       -3.818730   1.000000
   24       -2.020541   0.002856
   25        0.548084   0.000000
   26        3.617727   0.000000
   27        4.636536   0.000000
   28        4.860357   0.000000
 
 -0.4000000E+00  0.3000000E+00  0.0000000E+00  0.2000000E-01
    1       -7.622698   1.000000
    2       -6.484349   1.000000
    3       -6.415955   1.000000
    4       -6.345165   1.000000
    5       -6.240782   1.000000
    6       -6.115674   1.000000
    7       -6.061623   1.000000
    8       -5.968930   1.000000
    9       -5.785309   1.000000
   10       -5.591840   1.000000
   11       -5.506762   1.000000
   12       -5.118563   1.000000
   13       -5.068458   1.000000
   14       -4.885207   1.000000
   15       -4.729561   1.000000
   16       -4.578152   1.000000
   17       -4.520132   1.000000
   18       -4.233066   1.000000
   19       -4.142482   1.000000
   20       -4.051592   1.000000
   21       -2.145252   0.029915
   22       -0.457900   0.000000
   23        0.746849   0.000000
   24        2.170519   0.000000
   25        2.221250   0.000000
   26        2.492018   0.000000
   27        3.289990   0.000000
   28        3.959178   0.000000
 
 -0.3000000E+00  0.3000000E+00  0.0000000E+00  0.4000000E-01
    1       -7.578043   1.000000
    2       -6.495459   1.000000
    3       -6.438219   1.000000
    4       -6.343512   1.000000
    5       -6.240364   1.000000
    6       -6.116256   1.000000
    7       -6.063265   1.000000
    8       -5.955948   1.000000
    9       -5.743887   1.000000
   10       -5.636133   1.000000
   11       -5.511071   1.000000
   12       -5.119795   1.000000
   13       -5.068102   1.000000
   14       -4.906804   1.000000
   15       -4.736737   1.000000
   16       -4.590546   1.000000
   17       -4.518010   1.000000
   18       -4.219403   1.000000
   19       -4.140442   1.000000
   20       -4.053712   1.000000
   21       -1.991831   0.001504
   22       -0.484141   0.000000
   23        0.598839   0.000000
   24        1.753230   0.000000
   25        2.298086   0.000000
   26        2.469330   0.000000
   27        3.217591   0.000000
   28        3.775203   0.000000
 
 -0.2000000E+00  0.3000000E+00  0.0000000E+00  0.4000000E-01
    1       -7.982501   1.000000
    2       -6.921415   1.000000
    3       -6.716300   1.000000
    4       -6.456454   1.000000
    5       -6.321165   1.000000
    6       -6.085526   1.000000
    7       -5.977530   1.000000
    8       -5.810994   1.000000
    9       -5.650184   1.000000
   10       -5.568272   1.000000
   11       -5.441619   1.000000
   12       -5.142458   1.000000
   13       -5.072322   1.000000
   14       -4.925294   1.000000
   15       -4.711477   1.000000
   16       -4.642339   1.000000
   17       -4.451835   1.000000
   18       -4.273793   1.000000
   19       -4.088029   1.000000
   20       -3.963910   1.000000
   21       -3.060882   0.999998
   22       -2.463274   0.643085
   23       -1.444412   0.000000
   24        0.354556   0.000000
   25        2.115273   0.000000
   26        3.235485   0.000000
   27        4.272495   0.000000
   28        5.571398   0.000000
 
 -0.1000000E+00  0.3000000E+00  0.0000000E+00  0.4000000E-01
    1       -8.694780   1.000000
    2       -7.684465   1.000000
    3       -7.034136   1.000000
    4       -6.507804   1.000000
    5       -6.417147   1.000000
    6       -6.119083   1.000000
    7       -5.863173   1.000000
    8       -5.673556   1.000000
    9       -5.530858   1.000000
   10       -5.429770   1.000000
   11       -5.287479   1.000000
   12       -5.198641   1.000000
   13       -5.050988   1.000000
   14       -4.822824   1.000000
   15       -4.746853   1.000000
   16       -4.587749   1.000000
   17       -4.451075   1.000000
   18       -4.272536   1.000000
   19       -4.223711   1.000000
   20       -4.057459   1.000000
   21       -3.979824   1.000000
   22       -3.719644   1.000000
   23       -3.063514   0.999998
   24       -1.121485   0.000000
   25        1.462197   0.000000
   26        3.594483   0.000000
   27        4.544141   0.000000
   28        5.400856   0.000000
 
  0.0000000E+00  0.4000000E+00  0.0000000E+00  0.2000000E-01
    1       -8.554924   1.000000
    2       -7.430326   1.000000
    3       -7.064980   1.000000
    4       -6.595887   1.000000
    5       -6.553432   1.000000
    6       -6.222079   1.000000
    7       -5.820809   1.000000
    8       -5.502183   1.000000
    9       -5.386560   1.000000
   10       -5.385607   1.000000
   11       -5.131170   1.000000
   12       -5.069339   1.000000
   13       -4.709986   1.000000
   14       -4.560216   1.000000
   15       -4.430397   1.000000
   16       -4.421663   1.000000
   17       -4.188147   1.000000
   18       -4.129507   1.000000
   19       -4.062388   1.000000
   20       -4.043196   1.000000
   21       -3.893962   1.000000
   22       -3.607553   1.000000
   23       -2.876982   0.999503
   24       -0.937077   0.000000
   25        0.996941   0.000000
   26        2.587175   0.000000
   27        3.504668   0.000000
   28        4.967112   0.000000
 
 -0.2000000E+00  0.4000000E+00  0.0000000E+00  0.2000000E-01
    1       -7.844236   1.000000
    2       -6.706666   1.000000
    3       -6.661596   1.000000
    4       -6.387561   1.000000
    5       -6.306759   1.000000
    6       -6.065357   1.000000
    7       -5.997365   1.000000
    8       -5.946388   1.000000
    9       -5.561564   1.000000
   10       -5.503448   1.000000
   11       -5.305142   1.000000
   12       -5.162624   1.000000
   13       -5.028653   1.000000
   14       -4.778127   1.000000
   15       -4.663871   1.000000
   16       -4.561361   1.000000
   17       -4.355391   1.000000
   18       -4.178332   1.000000
   19       -4.127404   1.000000
   20       -4.029556   1.000000
   21       -1.963753   0.000774
   22       -0.860823   0.000000
   23       -0.492915   0.000000
   24        0.076785   0.000000
   25        0.744248   0.000000
   26        2.400954   0.000000
   27        3.743217   0.000000
   28        5.004154   0.000000
 
 -0.1000000E+00  0.4000000E+00  0.0000000E+00  0.4000000E-01
    1       -8.238863   1.000000
    2       -7.069267   1.000000
    3       -6.936899   1.000000
    4       -6.561850   1.000000
    5       -6.490734   1.000000
    6       -6.210040   1.000000
    7       -5.855675   1.000000
    8       -5.640649   1.000000
    9       -5.456795   1.000000
   10       -5.324696   1.000000
   11       -5.277837   1.000000
   12       -4.972283   1.000000
   13       -4.802400   1.000000
   14       -4.677289   1.000000
   15       -4.480952   1.000000
   16       -4.338618   1.000000
   17       -4.207698   1.000000
   18       -4.146065   1.000000
   19       -4.082931   1.000000
   20       -3.945057   1.000000
   21       -2.925719   0.999862
   22       -2.472300   0.666599
   23       -1.705836   0.000000
   24       -0.560168   0.000000
   25        0.268706   0.000000
   26        2.166852   0.000000
   27        3.333047   0.000000
   28        4.881337   0.000000
 
  0.0000000E+00  0.5000000E+00  0.0000000E+00  0.1000000E-01
    1       -8.339935   1.000000
    2       -7.139740   1.000000
    3       -7.042311   1.000000
    4       -6.655306   1.000000