       N       E                     dE             d eps       ncg     rms          rms(c)
DAV:   1     0.194715305053E+03    0.19472E+03   -0.14030E+04  1840   0.922E+02
DAV:   2    -0.111301352511E+02   -0.20585E+03   -0.20129E+03  1836   0.265E+02
DAV:   3    -0.209337025115E+02   -0.98036E+01   -0.96438E+01  1940   0.768E+01
DAV:   4    -0.210344489164E+02   -0.10075E+00   -0.10064E+00  1892   0.718E+00
DAV:   5    -0.210356230305E+02   -0.11741E-02   -0.11741E-02  2012   0.519E-01    0.148E+01
RMM:   6    -0.189412583047E+02    0.20944E+01   -0.44141E+01  1745   0.648E+01    0.743E+00
RMM:   7    -0.171214479678E+02    0.18198E+01   -0.73300E+00  1739   0.274E+01    0.140E+00
RMM:   8    -0.171688475158E+02   -0.47400E-01   -0.14043E-01  1748   0.309E+00    0.206E+00
RMM:   9    -0.170555626163E+02    0.11328E+00   -0.57076E-02  1746   0.186E+00    0.762E-01
RMM:  10    -0.170462705727E+02    0.92920E-02   -0.18548E-02  1749   0.116E+00    0.429E-01
RMM:  11    -0.170411944720E+02    0.50761E-02   -0.89127E-03  1745   0.771E-01    0.109E-01
RMM:  12    -0.170405388753E+02    0.65560E-03   -0.10097E-03  1745   0.269E-01    0.854E-02
RMM:  13    -0.170401222861E+02    0.41659E-03   -0.50229E-04  1742   0.175E-01    0.441E-02
RMM:  14    -0.170401485213E+02   -0.26235E-04   -0.30795E-04  1737   0.149E-01    0.306E-02
RMM:  15    -0.170402947230E+02   -0.14620E-03   -0.10594E-04  1566   0.631E-02    0.146E-02
RMM:  16    -0.170405390901E+02   -0.24437E-03   -0.61365E-05  1236   0.299E-02    0.103E-02
RMM:  17    -0.170406808998E+02   -0.14181E-03   -0.46868E-05  1199   0.255E-02    0.781E-03
RMM:  18    -0.170407497874E+02   -0.68888E-04   -0.11800E-05  1034   0.189E-02    0.627E-03
RMM:  19    -0.170407917042E+02   -0.41917E-04   -0.23518E-06   976   0.105E-02    0.586E-03
RMM:  20    -0.170408125152E+02   -0.20811E-04   -0.87264E-07   838   0.609E-03    0.564E-03
RMM:  21    -0.170408255507E+02   -0.13036E-04   -0.29910E-07   354   0.330E-03    0.562E-03
RMM:  22    -0.170408287705E+02   -0.32198E-05   -0.62106E-08   219   0.292E-03
   1 F= -.17040829E+02 E0= -.17017278E+02  d E =-.170408E+02
       N       E                     dE             d eps       ncg     rms          rms(c)
DAV:   1    -0.170446894931E+02   -0.38639E-02   -0.11206E+00  1860   0.671E+00    0.762E-02
RMM:   2    -0.170448950833E+02   -0.20559E-03   -0.32018E-03  1749   0.562E-01    0.633E-02
RMM:   3    -0.170448288463E+02    0.66237E-04   -0.30154E-04  1749   0.143E-01    0.244E-02
RMM:   4    -0.170448138798E+02    0.14966E-04   -0.32862E-05  1199   0.538E-02    0.735E-03
RMM:   5    -0.170448196260E+02   -0.57462E-05   -0.31799E-06   939   0.141E-02
   2 F= -.17044820E+02 E0= -.17021476E+02  d E =-.399086E-02
       N       E                     dE             d eps       ncg     rms          rms(c)
DAV:   1    -0.170481204467E+02   -0.33066E-02   -0.31791E+00  1744   0.114E+01    0.128E-01
RMM:   2    -0.170484198645E+02   -0.29942E-03   -0.83952E-03  1749   0.895E-01    0.297E-02
RMM:   3    -0.170484779418E+02   -0.58077E-04   -0.24135E-04  1743   0.116E-01    0.224E-02
RMM:   4    -0.170484852643E+02   -0.73225E-05   -0.33486E-05  1107   0.531E-02
   3 F= -.17048485E+02 E0= -.17025525E+02  d E =-.366564E-02
