 vasp.5.4.4.18Apr17-6-g9f103f2a35 (build Jun 30 2017 11:15:00) complex          
  
 executed on    STALLO_VASP_5.4.4 date 2019.10.11  09:39:30
 running on    4 total cores
 distrk:  each k-point on    4 cores,    1 groups
 distr:  one band on NCORES_PER_BAND=   2 cores,    2 groups


--------------------------------------------------------------------------------------------------------


 INCAR:
 POTCAR:   PAW_PBE Cu 05Jan2001                   
 POTCAR:   PAW_PBE H 15Jun2001                    
 POTCAR:   PAW_PBE Cu 05Jan2001                   
   VRHFIN =Cu: d10 p1                                                           
   LEXCH  = PE                                                                  
   EATOM  =  1390.9800 eV,  102.2341 Ry                                         
                                                                                
   TITEL  = PAW_PBE Cu 05Jan2001                                                
   LULTRA =        F    use ultrasoft PP ?                                      
   IUNSCR =        1    unscreen: 0-lin 1-nonlin 2-no                           
   RPACOR =    2.000    partial core radius                                     
   POMASS =   63.546; ZVAL   =   11.000    mass and valenz                      
   RCORE  =    2.300    outmost cutoff radius                                   
   RWIGS  =    2.480; RWIGS  =    1.312    wigner-seitz radius (au A)           
   ENMAX  =  273.214; ENMIN  =  204.910 eV                                      
   RCLOC  =    1.712    cutoff for local pot                                    
   LCOR   =        T    correct aug charges                                     
   LPAW   =        T    paw PP                                                  
   EAUG   =  516.456                                                            
   DEXC   =    -.008                                                            
   RMAX   =    2.789    core radius for proj-oper                               
   RAUG   =    1.300    factor for augmentation sphere                          
   RDEP   =    2.302    radius for radial grids                                 
   QCUT   =   -4.481; QGAM   =    8.962    optimization parameters              
                                                                                
   Description                                                                  
     l     E      TYP  RCUT    TYP  RCUT                                        
     2   .000     23  2.300                                                     
     2   .000     23  2.300                                                     
     0   .000     23  2.300                                                     
     0   .000     23  2.300                                                     
     1  -.200     23  2.300                                                     
     1   .000     23  2.300                                                     
     3   .000      7   .000                                                     
  local pseudopotential read in
  partial core-charges read in
  atomic valenz-charges read in
  non local Contribution for L=           2  read in
    real space projection operators read in
  non local Contribution for L=           2  read in
    real space projection operators read in
  non local Contribution for L=           0  read in
    real space projection operators read in
  non local Contribution for L=           0  read in
    real space projection operators read in
  non local Contribution for L=           1  read in
    real space projection operators read in
  non local Contribution for L=           1  read in
    real space projection operators read in
    PAW grid and wavefunctions read in
 
   number of l-projection  operators is LMAX  =           6
   number of lm-projection operators is LMMAX =          18
 
 POTCAR:   PAW_PBE H 15Jun2001                    
   VRHFIN =H: ultrasoft test                                                    
   LEXCH  = PE                                                                  
   EATOM  =    12.4884 eV,     .9179 Ry                                         
                                                                                
   TITEL  = PAW_PBE H 15Jun2001                                                 
   LULTRA =        F    use ultrasoft PP ?                                      
   IUNSCR =        0    unscreen: 0-lin 1-nonlin 2-no                           
   RPACOR =     .000    partial core radius                                     
   POMASS =    1.000; ZVAL   =    1.000    mass and valenz                      
   RCORE  =    1.100    outmost cutoff radius                                   
   RWIGS  =     .700; RWIGS  =     .370    wigner-seitz radius (au A)           
   ENMAX  =  250.000; ENMIN  =  200.000 eV                                      
   RCLOC  =     .701    cutoff for local pot                                    
   LCOR   =        T    correct aug charges                                     
   LPAW   =        T    paw PP                                                  
   EAUG   =  400.000                                                            
   RMAX   =    2.174    core radius for proj-oper                               
   RAUG   =    1.200    factor for augmentation sphere                          
   RDEP   =    1.112    radius for radial grids                                 
   QCUT   =   -5.749; QGAM   =   11.498    optimization parameters              
                                                                                
   Description                                                                  
     l     E      TYP  RCUT    TYP  RCUT                                        
     0   .000     23  1.100                                                     
     0   .500     23  1.100                                                     
     1  -.300     23  1.100                                                     
  local pseudopotential read in
  atomic valenz-charges read in
  non local Contribution for L=           0  read in
    real space projection operators read in
  non local Contribution for L=           0  read in
    real space projection operators read in
  non local Contribution for L=           1  read in
    real space projection operators read in
    PAW grid and wavefunctions read in
 
   number of l-projection  operators is LMAX  =           3
   number of lm-projection operators is LMMAX =           5
 

 ----------------------------------------------------------------------------- 
|                                                                             |
|  ADVICE TO THIS USER RUNNING 'VASP/VAMP'   (HEAR YOUR MASTER'S VOICE ...):  |
|                                                                             |
|      You have a (more or less) 'small supercell' and for smaller cells      |
|      it is recommended  to use the reciprocal-space projection scheme!      |
|      The real space optimization is not  efficient for small cells and it   |
|      is also less accurate ...                                              |
|      Therefore set LREAL=.FALSE. in the  INCAR file                         |
|                                                                             |
 ----------------------------------------------------------------------------- 

 Optimization of the real space projectors (new method)

 maximal supplied QI-value         = 16.25
 optimisation between [QCUT,QGAM] = [  7.96, 16.09] = [ 17.76, 72.49] Ry 
 Optimized for a Real-space Cutoff    1.70 Angstroem

   l    n(q)    QCUT    max X(q) W(low)/X(q) W(high)/X(q)  e(spline) 
   2      7     7.963     4.977    0.65E-04    0.90E-04    0.59E-07
   2      7     7.963    13.467    0.48E-03    0.73E-03    0.12E-06
   0      8     7.963    13.303    0.22E-04    0.12E-04    0.51E-08
   0      8     7.963    44.613    0.10E-03    0.16E-03    0.47E-07
   1      8     7.963     5.276    0.66E-04    0.10E-04    0.22E-07
   1      8     7.963     7.322    0.38E-03    0.18E-03    0.17E-06
 Optimization of the real space projectors (new method)

 maximal supplied QI-value         = 34.20
 optimisation between [QCUT,QGAM] = [  7.87, 16.08] = [ 17.33, 72.37] Ry 
 Optimized for a Real-space Cutoff    1.85 Angstroem

   l    n(q)    QCUT    max X(q) W(low)/X(q) W(high)/X(q)  e(spline) 
   0      9     7.867     4.436    0.44E-04    0.71E-04    0.23E-06
   0      9     7.867    15.341    0.29E-03    0.73E-03    0.99E-06
   1      8     7.867     4.196    0.27E-03    0.13E-02    0.91E-06
 PAW_PBE Cu 05Jan2001                   :
 energy of atom  1       EATOM=-1390.9800
 kinetic energy error for atom=    0.0930 (will be added to EATOM!!)
 PAW_PBE H 15Jun2001                    :
 energy of atom  2       EATOM=  -12.4884
 kinetic energy error for atom=    0.0868 (will be added to EATOM!!)
 
 
 POSCAR: Cu  H                                   
  positions in direct lattice
  No initial velocities read in
 exchange correlation table for  LEXCH =        8
   RHO(1)=    0.500       N(1)  =     2000
   RHO(2)=  100.500       N(2)  =     4000
 


--------------------------------------------------------------------------------------------------------


 ion  position               nearest neighbor table
   1  0.000  0.000  0.396-   2 2.57   2 2.57   2 2.57
   2  0.333  0.333  0.465-   3 2.57   1 2.57   1 2.57   3 2.57   1 2.57   3 2.57
   3  0.667  0.667  0.535-   2 2.57   4 2.57   4 2.57   2 2.57   2 2.57   4 2.57
   4  0.000  0.000  0.604-   5 1.63   5 1.63   3 2.57   3 2.57   3 2.57
   5  0.500  0.000  0.637-   4 1.63   4 1.63
 
  LATTYP: Found a hexagonal cell.
 ALAT       =     2.5738686835
 C/A-ratio  =    11.7739747694
  
  Lattice vectors:
  
 A1 = (   1.2869343418,  -2.2290356659,   0.0000000000)
 A2 = (  -2.5738686835,   0.0000000000,   0.0000000000)
 A3 = (   0.0000000000,   0.0000000000, -30.3046649396)


Analysis of symmetry for initial positions (statically):
=====================================================================
 Subroutine PRICEL returns:
 Original cell was already a primitive cell.
 

 Routine SETGRP: Setting up the symmetry group for a 
 hexagonal supercell.


 Subroutine GETGRP returns: Found  2 space group operations
 (whereof  2 operations were pure point group operations)
 out of a pool of 24 trial point group operations.


The static configuration has the point symmetry C_1h.


Analysis of symmetry for dynamics (positions and initial velocities):
=====================================================================
 Subroutine PRICEL returns:
 Original cell was already a primitive cell.
 

 Routine SETGRP: Setting up the symmetry group for a 
 hexagonal supercell.


 Subroutine GETGRP returns: Found  2 space group operations
 (whereof  2 operations were pure point group operations)
 out of a pool of 24 trial point group operations.


The dynamic configuration has the point symmetry C_1h.


 Subroutine INISYM returns: Found  2 space group operations
 (whereof  2 operations are pure point group operations),
 and found     1 'primitive' translations

 
 
 KPOINTS: k-density: 4.0                          

Automatic generation of k-mesh.
Space group operators:
 irot       det(A)        alpha          n_x          n_y          n_z        tau_x        tau_y        tau_z
    1     1.000000     0.000001     1.000000     0.000000     0.000000     0.000000     0.000000     0.000000
    2    -1.000000   180.000000     1.000000     0.000000     0.000000     0.000000     0.000000     0.000000
 
 Subroutine IBZKPT returns following result:
 ===========================================
 
 Found     31 irreducible k-points:
 
 Following reciprocal coordinates:
            Coordinates               Weight
  0.000000  0.000000  0.000000      1.000000
  0.100000  0.000000  0.000000      4.000000
  0.200000 -0.000000  0.000000      4.000000
  0.300000 -0.000000  0.000000      4.000000
  0.400000 -0.000000  0.000000      4.000000
  0.500000 -0.000000  0.000000      2.000000
  0.000000  0.100000  0.000000      2.000000
  0.200000  0.100000  0.000000      2.000000
  0.300000  0.100000  0.000000      4.000000
  0.400000  0.100000  0.000000      4.000000
  0.500000  0.100000  0.000000      4.000000
 -0.400000  0.100000  0.000000      4.000000
 -0.300000  0.100000  0.000000      4.000000
 -0.200000  0.100000  0.000000      4.000000
 -0.100000  0.100000  0.000000      4.000000
  0.000000  0.200000  0.000000      2.000000
  0.400000  0.200000  0.000000      2.000000
  0.500000  0.200000  0.000000      4.000000
 -0.400000  0.200000  0.000000      4.000000
 -0.300000  0.200000  0.000000      4.000000
 -0.200000  0.200000  0.000000      4.000000
 -0.100000  0.200000  0.000000      4.000000
  0.000000  0.300000  0.000000      2.000000
 -0.400000  0.300000  0.000000      2.000000
 -0.300000  0.300000  0.000000      4.000000
 -0.200000  0.300000  0.000000      4.000000
 -0.100000  0.300000  0.000000      4.000000
  0.000000  0.400000  0.000000      2.000000
 -0.200000  0.400000  0.000000      2.000000
 -0.100000  0.400000  0.000000      4.000000
  0.000000  0.500000  0.000000      1.000000
 
 Following cartesian coordinates:
            Coordinates               Weight
  0.000000  0.000000  0.000000      1.000000
  0.038852 -0.022431  0.000000      4.000000
  0.077704 -0.044862  0.000000      4.000000
  0.116556 -0.067294  0.000000      4.000000
  0.155408 -0.089725  0.000000      4.000000
  0.194260 -0.112156  0.000000      2.000000
  0.000000  0.044862  0.000000      2.000000
  0.077704 -0.000000  0.000000      2.000000
  0.116556 -0.022431  0.000000      4.000000
  0.155408 -0.044862  0.000000      4.000000
  0.194260 -0.067294  0.000000      4.000000
 -0.155408  0.134587  0.000000      4.000000
 -0.116556  0.112156  0.000000      4.000000
 -0.077704  0.089725  0.000000      4.000000
 -0.038852  0.067294  0.000000      4.000000
  0.000000  0.089725  0.000000      2.000000
  0.155408  0.000000  0.000000      2.000000
  0.194260 -0.022431  0.000000      4.000000
 -0.155408  0.179450  0.000000      4.000000
 -0.116556  0.157019  0.000000      4.000000
 -0.077704  0.134587  0.000000      4.000000
 -0.038852  0.112156  0.000000      4.000000
  0.000000  0.134587  0.000000      2.000000
 -0.155408  0.224312  0.000000      2.000000
 -0.116556  0.201881  0.000000      4.000000
 -0.077704  0.179450  0.000000      4.000000
 -0.038852  0.157019  0.000000      4.000000
  0.000000  0.179450  0.000000      2.000000
 -0.077704  0.224312  0.000000      2.000000
 -0.038852  0.201881  0.000000      4.000000
  0.000000  0.224312  0.000000      1.000000
 


--------------------------------------------------------------------------------------------------------




 Dimension of arrays:
   k-points           NKPTS =     31   k-points in BZ     NKDIM =     31   number of bands    NBANDS=     28
   number of dos      NEDOS =    301   number of ions     NIONS =      5
   non local maximal  LDIM  =      6   non local SUM 2l+1 LMDIM =     18
   total plane-waves  NPLWV =  12000
   max r-space proj   IRMAX =   1888   max aug-charges    IRDMAX=   2622
   dimension x,y,z NGX =    10 NGY =   10 NGZ =  120
   dimension x,y,z NGXF=    20 NGYF=   20 NGZF=  240
   support grid    NGXF=    20 NGYF=   20 NGZF=  240
   ions per type =               4   1
   NGX,Y,Z   is equivalent  to a cutoff of   6.46,  6.46,  6.58 a.u.
   NGXF,Y,Z  is equivalent  to a cutoff of  12.92, 12.92, 13.17 a.u.

 SYSTEM =  unknown system                          
 POSCAR =  Cu  H                                   

 Startparameter for this run:
   NWRITE =      2    write-flag & timer
   PREC   = normal    normal or accurate (medium, high low for compatibility)
   ISTART =      0    job   : 0-new  1-cont  2-samecut
   ICHARG =      2    charge: 1-file 2-atom 10-const
   ISPIN  =      1    spin polarized calculation?
   LNONCOLLINEAR =      F non collinear calculations
   LSORBIT =      F    spin-orbit coupling
   INIWAV =      1    electr: 0-lowe 1-rand  2-diag
   LASPH  =      F    aspherical Exc in radial PAW
   METAGGA=      F    non-selfconsistent MetaGGA calc.

 Electronic Relaxation 1
   ENCUT  =  250.0 eV  18.37 Ry    4.29 a.u.   3.32  3.32 39.07*2*pi/ulx,y,z
   ENINI  =  250.0     initial cutoff
   ENAUG  =  516.5 eV  augmentation charge cutoff
   NELM   =     60;   NELMIN=  4; NELMDL= -5     # of ELM steps 
   EDIFF  = 0.1E-04   stopping-criterion for ELM
   LREAL  =      T    real-space projection
   NLSPLINE    = F    spline interpolate recip. space projectors
   LCOMPAT=      F    compatible to vasp.4.4
   GGA_COMPAT  = T    GGA compatible to vasp.4.4-vasp.4.6
   LMAXPAW     = -100 max onsite density
   LMAXMIX     =    2 max onsite mixed and CHGCAR
   VOSKOWN=      0    Vosko Wilk Nusair interpolation
   ROPT   =   -0.00050  -0.00050
 Ionic relaxation
   EDIFFG = -.5E-01   stopping-criterion for IOM
   NSW    =     50    number of steps for IOM
   NBLOCK =      1;   KBLOCK =     50    inner block; outer block 
   IBRION =      1    ionic relax: 0-MD 1-quasi-New 2-CG
   NFREE  =      0    steps in history (QN), initial steepest desc. (CG)
   ISIF   =      2    stress and relaxation
   IWAVPR =     11    prediction:  0-non 1-charg 2-wave 3-comb
   ISYM   =      2    0-nonsym 1-usesym 2-fastsym
   LCORR  =      T    Harris-Foulkes like correction to forces

   POTIM  = 0.5000    time-step for ionic-motion
   TEIN   =    0.0    initial temperature
   TEBEG  =    0.0;   TEEND  =   0.0 temperature during run
   SMASS  =  -3.00    Nose mass-parameter (am)
   estimated Nose-frequenzy (Omega)   =  0.10E-29 period in steps =****** mass=  -0.151E-27a.u.
   SCALEE = 1.0000    scale energy and forces
   NPACO  =    256;   APACO  = 16.0  distance and # of slots for P.C.
   PSTRESS=    0.0 pullay stress

  Mass of Ions in am
   POMASS =  63.55  1.00
  Ionic Valenz
   ZVAL   =  11.00  1.00
  Atomic Wigner-Seitz radii
   RWIGS  =  -1.00 -1.00
  virtual crystal weights 
   VCA    =   1.00  1.00
   NELECT =      45.0000    total number of electrons
   NUPDOWN=      -1.0000    fix difference up-down

 DOS related values:
   EMIN   =  10.00;   EMAX   =-10.00  energy-range for DOS
   EFERMI =   0.00
   ISMEAR =     0;   SIGMA  =   0.20  broadening in eV -4-tet -1-fermi 0-gaus

 Electronic relaxation 2 (details)
   IALGO  =     68    algorithm
   LDIAG  =      T    sub-space diagonalisation (order eigenvalues)
   LSUBROT=      F    optimize rotation matrix (better conditioning)
   TURBO    =      0    0=normal 1=particle mesh
   IRESTART =      0    0=no restart 2=restart with 2 vectors
   NREBOOT  =      0    no. of reboots
   NMIN     =      0    reboot dimension
   EREF     =   0.00    reference energy to select bands
   IMIX   =      4    mixing-type and parameters
     AMIX     =   0.40;   BMIX     =  1.00
     AMIX_MAG =   1.60;   BMIX_MAG =  1.00
     AMIN     =   0.10
     WC   =   100.;   INIMIX=   1;  MIXPRE=   1;  MAXMIX=  80

 Intra band minimization:
   WEIMIN = 0.0010     energy-eigenvalue tresh-hold
   EBREAK =  0.89E-07  absolut break condition
   DEPER  =   0.30     relativ break condition  

   TIME   =   0.40     timestep for ELM

  volume/ion in A,a.u.               =      34.77       234.66
  Fermi-wavevector in a.u.,A,eV,Ry     =   1.043297  1.971546 14.809520  1.088469
  Thomas-Fermi vector in A             =   2.178000
 
 Write flags
   LWAVE        =      F    write WAVECAR
   LDOWNSAMPLE  =      F    k-point downsampling of WAVECAR
   LCHARG       =      T    write CHGCAR
   LVTOT        =      F    write LOCPOT, total local potential
   LVHAR        =      F    write LOCPOT, Hartree potential only
   LELF         =      F    write electronic localiz. function (ELF)
   LORBIT       =      0    0 simple, 1 ext, 2 COOP (PROOUT), +10 PAW based schemes


 Dipole corrections
   LMONO  =      F    monopole corrections only (constant potential shift)
   LDIPOL =      F    correct potential (dipole corrections)
   IDIPOL =      0    1-x, 2-y, 3-z, 4-all directions 
   EPSILON=  1.0000000 bulk dielectric constant

 Exchange correlation treatment:
   GGA     =    --    GGA type
   LEXCH   =     8    internal setting for exchange type
   VOSKOWN=      0    Vosko Wilk Nusair interpolation
   LHFCALC =     F    Hartree Fock is set to
   LHFONE  =     F    Hartree Fock one center treatment
   AEXX    =    0.0000 exact exchange contribution

 Linear response parameters
   LEPSILON=     F    determine dielectric tensor
   LRPA    =     F    only Hartree local field effects (RPA)
   LNABLA  =     F    use nabla operator in PAW spheres
   LVEL    =     F    velocity operator in full k-point grid
   LINTERFAST=   F  fast interpolation
   KINTER  =     0    interpolate to denser k-point grid
   CSHIFT  =0.1000    complex shift for real part using Kramers Kronig
   OMEGAMAX=  -1.0    maximum frequency
   DEG_THRESHOLD= 0.2000000E-02 threshold for treating states as degnerate
   RTIME   =   -0.100 relaxation time in fs
  (WPLASMAI=    0.000 imaginary part of plasma frequency in eV, 0.658/RTIME)
   DFIELD  = 0.0000000 0.0000000 0.0000000 field for delta impulse in time
 
 Orbital magnetization related:
   ORBITALMAG=     F  switch on orbital magnetization
   LCHIMAG   =     F  perturbation theory with respect to B field
   DQ        =  0.001000  dq finite difference perturbation B field
   LLRAUG    =     F  two centre corrections for induced B field



--------------------------------------------------------------------------------------------------------


 quasi-Newton-method for relaxation of ions
 charge density and potential will be updated during run
 non-spin polarized calculation
 RMM-DIIS sequential band-by-band and
  variant of blocked Davidson during initial phase
 perform sub-space diagonalisation
    before iterative eigenvector-optimisation
 modified Broyden-mixing scheme, WC =      100.0
 initial mixing is a Kerker type mixing with AMIX =  0.4000 and BMIX =      1.0000
 Hartree-type preconditioning will be used
 using additional bands            5
 real space projection scheme for non local part
 use partial core corrections
 calculate Harris-corrections to forces 
   (improved forces if not selfconsistent)
 use gradient corrections 
 use of overlap-Matrix (Vanderbilt PP)
 Gauss-broadening in eV      SIGMA  =   0.20


--------------------------------------------------------------------------------------------------------


  energy-cutoff  :      250.00
  volume of cell :      173.87
      direct lattice vectors                 reciprocal lattice vectors
     2.573868684  0.000000000  0.000000000     0.388520209 -0.224312248  0.000000000
     1.286934342  2.229035666  0.000000000     0.000000000  0.448624495  0.000000000
     0.000000000  0.000000000 30.304664940     0.000000000  0.000000000  0.032998220

  length of vectors
     2.573868684  2.573868684 30.304664940     0.448624495  0.448624495  0.032998220


 
 k-points in units of 2pi/SCALE and weight: k-density: 4.0                          
   0.00000000  0.00000000  0.00000000       0.010
   0.03885202 -0.02243122  0.00000000       0.040
   0.07770404 -0.04486245  0.00000000       0.040
   0.11655606 -0.06729367  0.00000000       0.040
   0.15540808 -0.08972490  0.00000000       0.040
   0.19426010 -0.11215612  0.00000000       0.020
   0.00000000  0.04486245  0.00000000       0.020
   0.07770404 -0.00000000  0.00000000       0.020
   0.11655606 -0.02243122  0.00000000       0.040
   0.15540808 -0.04486245  0.00000000       0.040
   0.19426010 -0.06729367  0.00000000       0.040
  -0.15540808  0.13458735  0.00000000       0.040
  -0.11655606  0.11215612  0.00000000       0.040
  -0.07770404  0.08972490  0.00000000       0.040
  -0.03885202  0.06729367  0.00000000       0.040
   0.00000000  0.08972490  0.00000000       0.020
   0.15540808  0.00000000  0.00000000       0.020
   0.19426010 -0.02243122  0.00000000       0.040
  -0.15540808  0.17944980  0.00000000       0.040
  -0.11655606  0.15701857  0.00000000       0.040
  -0.07770404  0.13458735  0.00000000       0.040
  -0.03885202  0.11215612  0.00000000       0.040
   0.00000000  0.13458735  0.00000000       0.020
  -0.15540808  0.22431225  0.00000000       0.020
  -0.11655606  0.20188102  0.00000000       0.040
  -0.07770404  0.17944980  0.00000000       0.040
  -0.03885202  0.15701857  0.00000000       0.040
   0.00000000  0.17944980  0.00000000       0.020
  -0.07770404  0.22431225  0.00000000       0.020
  -0.03885202  0.20188102  0.00000000       0.040
   0.00000000  0.22431225  0.00000000       0.010
 
 k-points in reciprocal lattice and weights: k-density: 4.0                          
   0.00000000  0.00000000  0.00000000       0.010
   0.10000000  0.00000000  0.00000000       0.040
   0.20000000 -0.00000000  0.00000000       0.040
   0.30000000 -0.00000000  0.00000000       0.040
   0.40000000 -0.00000000  0.00000000       0.040
   0.50000000 -0.00000000  0.00000000       0.020
   0.00000000  0.10000000  0.00000000       0.020
   0.20000000  0.10000000  0.00000000       0.020
   0.30000000  0.10000000  0.00000000       0.040
   0.40000000  0.10000000  0.00000000       0.040
   0.50000000  0.10000000  0.00000000       0.040
  -0.40000000  0.10000000  0.00000000       0.040
  -0.30000000  0.10000000  0.00000000       0.040
  -0.20000000  0.10000000  0.00000000       0.040
  -0.10000000  0.10000000  0.00000000       0.040
   0.00000000  0.20000000  0.00000000       0.020
   0.40000000  0.20000000  0.00000000       0.020
   0.50000000  0.20000000  0.00000000       0.040
  -0.40000000  0.20000000  0.00000000       0.040
  -0.30000000  0.20000000  0.00000000       0.040
  -0.20000000  0.20000000  0.00000000       0.040
  -0.10000000  0.20000000  0.00000000       0.040
   0.00000000  0.30000000  0.00000000       0.020
  -0.40000000  0.30000000  0.00000000       0.020
  -0.30000000  0.30000000  0.00000000       0.040
  -0.20000000  0.30000000  0.00000000       0.040
  -0.10000000  0.30000000  0.00000000       0.040
   0.00000000  0.40000000  0.00000000       0.020
  -0.20000000  0.40000000  0.00000000       0.020
  -0.10000000  0.40000000  0.00000000       0.040
   0.00000000  0.50000000  0.00000000       0.010
 
 position of ions in fractional coordinates (direct lattice) 
   0.00000000  0.00000000  0.39597864
   0.33333333  0.33333333  0.46532621
   0.66666667  0.66666667  0.53467379
   0.00000000  0.00000000  0.60402136
   0.50000000  0.00000000  0.63701958
 
 position of ions in cartesian coordinates  (Angst):
   0.00000000  0.00000000 12.00000000
   1.28693434  0.74301189 14.10155498
   2.57386868  1.48602378 16.20310996
   0.00000000  0.00000000 18.30466494
   1.28693434  0.00000000 19.30466494
 


--------------------------------------------------------------------------------------------------------


 k-point  1 :   0.0000 0.0000 0.0000  plane waves:    1609
 k-point  2 :   0.1000 0.0000 0.0000  plane waves:    1589
 k-point  3 :   0.2000-0.0000 0.0000  plane waves:    1586
 k-point  4 :   0.3000-0.0000 0.0000  plane waves:    1542
 k-point  5 :   0.4000-0.0000 0.0000  plane waves:    1568
 k-point  6 :   0.5000-0.0000 0.0000  plane waves:    1570
 k-point  7 :   0.0000 0.1000 0.0000  plane waves:    1589
 k-point  8 :   0.2000 0.1000 0.0000  plane waves:    1579
 k-point  9 :   0.3000 0.1000 0.0000  plane waves:    1569
 k-point 10 :   0.4000 0.1000 0.0000  plane waves:    1552
 k-point 11 :   0.5000 0.1000 0.0000  plane waves:    1549
 k-point 12 :  -0.4000 0.1000 0.0000  plane waves:    1549
 k-point 13 :  -0.3000 0.1000 0.0000  plane waves:    1552
 k-point 14 :  -0.2000 0.1000 0.0000  plane waves:    1569
 k-point 15 :  -0.1000 0.1000 0.0000  plane waves:    1579
 k-point 16 :   0.0000 0.2000 0.0000  plane waves:    1586
 k-point 17 :   0.4000 0.2000 0.0000  plane waves:    1545
 k-point 18 :   0.5000 0.2000 0.0000  plane waves:    1549
 k-point 19 :  -0.4000 0.2000 0.0000  plane waves:    1546
 k-point 20 :  -0.3000 0.2000 0.0000  plane waves:    1549
 k-point 21 :  -0.2000 0.2000 0.0000  plane waves:    1545
 k-point 22 :  -0.1000 0.2000 0.0000  plane waves:    1569
 k-point 23 :   0.0000 0.3000 0.0000  plane waves:    1542
 k-point 24 :  -0.4000 0.3000 0.0000  plane waves:    1547
 k-point 25 :  -0.3000 0.3000 0.0000  plane waves:    1547
 k-point 26 :  -0.2000 0.3000 0.0000  plane waves:    1549
 k-point 27 :  -0.1000 0.3000 0.0000  plane waves:    1552
 k-point 28 :   0.0000 0.4000 0.0000  plane waves:    1568
 k-point 29 :  -0.2000 0.4000 0.0000  plane waves:    1546
 k-point 30 :  -0.1000 0.4000 0.0000  plane waves:    1549
 k-point 31 :   0.0000 0.5000 0.0000  plane waves:    1570

 maximum and minimum number of plane-waves per node :       808      767

 maximum number of plane-waves:      1609
 maximum index in each direction: 
   IXMAX=    3   IYMAX=    3   IZMAX=   39
   IXMIN=   -3   IYMIN=   -3   IZMIN=  -39


 real space projection operators:
  total allocation   :        840.45 KBytes
  max/ min on nodes  :        423.75        416.70


 parallel 3D FFT for wavefunctions:
    minimum data exchange during FFTs selected (reduces bandwidth)
 parallel 3D FFT for charge:
    minimum data exchange during FFTs selected (reduces bandwidth)


 total amount of memory used by VASP MPI-rank0    39171. kBytes
=======================================================================

   base      :      30000. kBytes
   nonlr-proj:        678. kBytes
   fftplans  :        995. kBytes
   grid      :       1592. kBytes
   one-center:         46. kBytes
   wavefun   :       5860. kBytes
 
     INWAV:  cpu time    0.0000: real time    0.0003
 Broyden mixing: mesh for mixing (old mesh)
   NGX =  7   NGY =  7   NGZ = 79
  (NGX  = 20   NGY  = 20   NGZ  =240)
  gives a total of   3871 points

 initial charge density was supplied:
 charge density of overlapping atoms calculated
 number of electron      45.0000000 magnetization 
 keeping initial charge density in first step


--------------------------------------------------------------------------------------------------------


 Maximum index for non-local projection operator          912
 Maximum index for augmentation-charges          593 (set IRDMAX)


--------------------------------------------------------------------------------------------------------


 First call to EWALD:  gamma=   0.318
 Maximum number of real-space cells 6x 6x 1
 Maximum number of reciprocal cells 2x 2x13

    FEWALD:  cpu time    0.0010: real time    0.0016


--------------------------------------- Iteration      1(   1)  ---------------------------------------


    POTLOK:  cpu time    0.0160: real time    0.0545
    SETDIJ:  cpu time    0.0030: real time    0.0040
     EDDAV:  cpu time    0.6139: real time    0.6189
       DOS:  cpu time    0.0020: real time    0.0020
    --------------------------------------------
      LOOP:  cpu time    0.6349: real time    0.6795

 eigenvalue-minimisations  :  1840
 total energy-change (2. order) : 0.1947153E+03  (-0.1403041E+04)
 number of electron      45.0000000 magnetization 
 augmentation part       45.0000000 magnetization 

 Free energy of the ion-electron system (eV)
  ---------------------------------------------------
  alpha Z        PSCENC =       120.87645803
  Ewald energy   TEWEN  =     38007.35946576
  -Hartree energ DENC   =    -43128.03042293
  -exchange      EXHF   =         0.00000000
  -V(xc)+E(xc)   XCENC  =       177.43255702
  PAW double counting   =      4328.99049516    -4905.09836044
  entropy T*S    EENTRO =        -0.03203831
  eigenvalues    EBANDS =        17.26753250
  atomic energy  EATOM  =      5575.94961827
  Solvation  Ediel_sol  =         0.00000000
  ---------------------------------------------------
  free energy    TOTEN  =       194.71530505 eV

  energy without entropy =      194.74734337  energy(sigma->0) =      194.73132421


--------------------------------------------------------------------------------------------------------




--------------------------------------- Iteration      1(   2)  ---------------------------------------


     EDDAV:  cpu time    0.6079: real time    0.6098
       DOS:  cpu time    0.0020: real time    0.0021
    --------------------------------------------
      LOOP:  cpu time    0.6099: real time    0.6119

 eigenvalue-minimisations  :  1836
 total energy-change (2. order) :-0.2058454E+03  (-0.2012888E+03)
 number of electron      45.0000000 magnetization 
 augmentation part       45.0000000 magnetization 

 Free energy of the ion-electron system (eV)
  ---------------------------------------------------
  alpha Z        PSCENC =       120.87645803
  Ewald energy   TEWEN  =     38007.35946576
  -Hartree energ DENC   =    -43128.03042293
  -exchange      EXHF   =         0.00000000
  -V(xc)+E(xc)   XCENC  =       177.43255702
  PAW double counting   =      4328.99049516    -4905.09836044
  entropy T*S    EENTRO =        -0.04444048
  eigenvalues    EBANDS =      -188.56550563
  atomic energy  EATOM  =      5575.94961827
  Solvation  Ediel_sol  =         0.00000000
  ---------------------------------------------------
  free energy    TOTEN  =       -11.13013525 eV

  energy without entropy =      -11.08569477  energy(sigma->0) =      -11.10791501


--------------------------------------------------------------------------------------------------------




--------------------------------------- Iteration      1(   3)  ---------------------------------------


     EDDAV:  cpu time    0.6339: real time    0.6348
       DOS:  cpu time    0.0020: real time    0.0022
    --------------------------------------------
      LOOP:  cpu time    0.6359: real time    0.6371

 eigenvalue-minimisations  :  1940
 total energy-change (2. order) :-0.9803567E+01  (-0.9643812E+01)
 number of electron      45.0000000 magnetization 
 augmentation part       45.0000000 magnetization 

 Free energy of the ion-electron system (eV)
  ---------------------------------------------------
  alpha Z        PSCENC =       120.87645803
  Ewald energy   TEWEN  =     38007.35946576
  -Hartree energ DENC   =    -43128.03042293
  -exchange      EXHF   =         0.00000000
  -V(xc)+E(xc)   XCENC  =       177.43255702
  PAW double counting   =      4328.99049516    -4905.09836044
  entropy T*S    EENTRO =        -0.04357183
  eigenvalues    EBANDS =      -198.36994154
  atomic energy  EATOM  =      5575.94961827
  Solvation  Ediel_sol  =         0.00000000
  ---------------------------------------------------
  free energy    TOTEN  =       -20.93370251 eV

  energy without entropy =      -20.89013068  energy(sigma->0) =      -20.91191660


--------------------------------------------------------------------------------------------------------




--------------------------------------- Iteration      1(   4)  ---------------------------------------


     EDDAV:  cpu time    0.6279: real time    0.6307
       DOS:  cpu time    0.0020: real time    0.0022
    --------------------------------------------
      LOOP:  cpu time    0.6299: real time    0.6330

 eigenvalue-minimisations  :  1892
 total energy-change (2. order) :-0.1007464E+00  (-0.1006430E+00)
 number of electron      45.0000000 magnetization 
 augmentation part       45.0000000 magnetization 

 Free energy of the ion-electron system (eV)
  ---------------------------------------------------
  alpha Z        PSCENC =       120.87645803
  Ewald energy   TEWEN  =     38007.35946576
  -Hartree energ DENC   =    -43128.03042293
  -exchange      EXHF   =         0.00000000
  -V(xc)+E(xc)   XCENC  =       177.43255702
  PAW double counting   =      4328.99049516    -4905.09836044
  entropy T*S    EENTRO =        -0.04366622
  eigenvalues    EBANDS =      -198.47059356
  atomic energy  EATOM  =      5575.94961827
  Solvation  Ediel_sol  =         0.00000000
  ---------------------------------------------------
  free energy    TOTEN  =       -21.03444892 eV

  energy without entropy =      -20.99078270  energy(sigma->0) =      -21.01261581


--------------------------------------------------------------------------------------------------------




--------------------------------------- Iteration      1(   5)  ---------------------------------------


     EDDAV:  cpu time    0.6559: real time    0.6556
       DOS:  cpu time    0.0020: real time    0.0023
    CHARGE:  cpu time    0.0350: real time    0.0352
    MIXING:  cpu time    0.0010: real time    0.0009
    --------------------------------------------
      LOOP:  cpu time    0.6939: real time    0.6939

 eigenvalue-minimisations  :  2012
 total energy-change (2. order) :-0.1174114E-02  (-0.1174091E-02)
 number of electron      45.0000025 magnetization 
 augmentation part       26.6674547 magnetization 

 Broyden mixing:
  rms(total) = 0.14782E+01    rms(broyden)= 0.14779E+01
  rms(prec ) = 0.15305E+01
  weight for this iteration     100.00

 Free energy of the ion-electron system (eV)
  ---------------------------------------------------
  alpha Z        PSCENC =       120.87645803
  Ewald energy   TEWEN  =     38007.35946576
  -Hartree energ DENC   =    -43128.03042293
  -exchange      EXHF   =         0.00000000
  -V(xc)+E(xc)   XCENC  =       177.43255702
  PAW double counting   =      4328.99049516    -4905.09836044
  entropy T*S    EENTRO =        -0.04366830
  eigenvalues    EBANDS =      -198.47176559
  atomic energy  EATOM  =      5575.94961827
  Solvation  Ediel_sol  =         0.00000000
  ---------------------------------------------------
  free energy    TOTEN  =       -21.03562303 eV

  energy without entropy =      -20.99195473  energy(sigma->0) =      -21.01378888


--------------------------------------------------------------------------------------------------------




--------------------------------------- Iteration      1(   6)  ---------------------------------------


    POTLOK:  cpu time    0.0110: real time    0.0135
    SETDIJ:  cpu time    0.0040: real time    0.0032
    EDDIAG:  cpu time    0.1220: real time    0.1235
  RMM-DIIS:  cpu time    0.3270: real time    0.3272
    ORTHCH:  cpu time    0.0160: real time    0.0161
       DOS:  cpu time    0.0030: real time    0.0022
    CHARGE:  cpu time    0.0340: real time    0.0344
    MIXING:  cpu time    0.0010: real time    0.0008
    --------------------------------------------
      LOOP:  cpu time    0.5179: real time    0.5207

 eigenvalue-minimisations  :  1745
 total energy-change (2. order) : 0.2094365E+01  (-0.4414140E+01)
 number of electron      45.0000030 magnetization 
 augmentation part       30.0284416 magnetization 

 Broyden mixing:
  rms(total) = 0.74316E+00    rms(broyden)= 0.74290E+00
  rms(prec ) = 0.77244E+00
  weight for this iteration     100.00

 eigenvalues of (default mixing * dielectric matrix)
  average eigenvalue GAMMA=   0.6687
  0.6687

 Free energy of the ion-electron system (eV)
  ---------------------------------------------------
  alpha Z        PSCENC =       120.87645803
  Ewald energy   TEWEN  =     38007.35946576
  -Hartree energ DENC   =    -43007.02423939
  -exchange      EXHF   =         0.00000000
  -V(xc)+E(xc)   XCENC  =       172.25706931
  PAW double counting   =      4214.55749792    -4755.24578043
  entropy T*S    EENTRO =        -0.02671512
  eigenvalues    EBANDS =      -347.64463265
  atomic energy  EATOM  =      5575.94961827
  Solvation  Ediel_sol  =         0.00000000
  ---------------------------------------------------
  free energy    TOTEN  =       -18.94125830 eV

  energy without entropy =      -18.91454318  energy(sigma->0) =      -18.92790074


--------------------------------------------------------------------------------------------------------




--------------------------------------- Iteration      1(   7)  ---------------------------------------


    POTLOK:  cpu time    0.0110: real time    0.0114
    SETDIJ:  cpu time    0.0030: real time    0.0031
    EDDIAG:  cpu time    0.1220: real time    0.1228
  RMM-DIIS:  cpu time    0.3259: real time    0.3255
    ORTHCH:  cpu time    0.0160: real time    0.0161
       DOS:  cpu time    0.0020: real time    0.0022
    CHARGE:  cpu time    0.0350: real time    0.0350
    MIXING:  cpu time    0.0010: real time    0.0005
    --------------------------------------------
      LOOP:  cpu time    0.5159: real time    0.5166

 eigenvalue-minimisations  :  1739
 total energy-change (2. order) : 0.1819810E+01  (-0.7330017E+00)
 number of electron      45.0000029 magnetization 
 augmentation part       28.7333964 magnetization 

 Broyden mixing:
  rms(total) = 0.14006E+00    rms(broyden)= 0.13993E+00
  rms(prec ) = 0.15996E+00
  weight for this iteration     100.00

 eigenvalues of (default mixing * dielectric matrix)
  average eigenvalue GAMMA=   0.8145
  1.0271  0.6019

 Free energy of the ion-electron system (eV)
  ---------------------------------------------------
  alpha Z        PSCENC =       120.87645803
  Ewald energy   TEWEN  =     38007.35946576
  -Hartree energ DENC   =    -43059.25693577
  -exchange      EXHF   =         0.00000000
  -V(xc)+E(xc)   XCENC  =       173.93890145
  PAW double counting   =      4315.83039499    -4881.47253222
  entropy T*S    EENTRO =        -0.04458256
  eigenvalues    EBANDS =      -270.30223591
  atomic energy  EATOM  =      5575.94961827
  Solvation  Ediel_sol  =         0.00000000
  ---------------------------------------------------
  free energy    TOTEN  =       -17.12144797 eV

  energy without entropy =      -17.07686540  energy(sigma->0) =      -17.09915669


--------------------------------------------------------------------------------------------------------




--------------------------------------- Iteration      1(   8)  ---------------------------------------


    POTLOK:  cpu time    0.0110: real time    0.0131
    SETDIJ:  cpu time    0.0040: real time    0.0031
    EDDIAG:  cpu time    0.1220: real time    0.1226
  RMM-DIIS:  cpu time    0.3270: real time    0.3273
    ORTHCH:  cpu time    0.0160: real time    0.0161
       DOS:  cpu time    0.0020: real time    0.0022
    CHARGE:  cpu time    0.0350: real time    0.0350
    MIXING:  cpu time    0.0010: real time    0.0005
    --------------------------------------------
      LOOP:  cpu time    0.5179: real time    0.5199

 eigenvalue-minimisations  :  1748
 total energy-change (2. order) :-0.4739955E-01  (-0.1404292E-01)
 number of electron      45.0000028 magnetization 
 augmentation part       28.6795496 magnetization 

 Broyden mixing:
  rms(total) = 0.20601E+00    rms(broyden)= 0.20585E+00
  rms(prec ) = 0.27575E+00
  weight for this iteration     100.00

 eigenvalues of (default mixing * dielectric matrix)
  average eigenvalue GAMMA=   0.9166
  1.8900  0.6216  0.2382

 Free energy of the ion-electron system (eV)
  ---------------------------------------------------
  alpha Z        PSCENC =       120.87645803
  Ewald energy   TEWEN  =     38007.35946576
  -Hartree energ DENC   =    -43059.66333716
  -exchange      EXHF   =         0.00000000
  -V(xc)+E(xc)   XCENC  =       173.80662147
  PAW double counting   =      4342.28700972    -4911.91766497
  entropy T*S    EENTRO =        -0.03864488
  eigenvalues    EBANDS =      -265.82837374
  atomic energy  EATOM  =      5575.94961827
  Solvation  Ediel_sol  =         0.00000000
  ---------------------------------------------------
  free energy    TOTEN  =       -17.16884752 eV

  energy without entropy =      -17.13020263  energy(sigma->0) =      -17.14952507


--------------------------------------------------------------------------------------------------------




--------------------------------------- Iteration      1(   9)  ---------------------------------------


    POTLOK:  cpu time    0.0110: real time    0.0115
    SETDIJ:  cpu time    0.0030: real time    0.0031
    EDDIAG:  cpu time    0.1220: real time    0.1226
  RMM-DIIS:  cpu time    0.3250: real time    0.3257
    ORTHCH:  cpu time    0.0170: real time    0.0161
       DOS:  cpu time    0.0020: real time    0.0022
    CHARGE:  cpu time    0.0350: real time    0.0349
    MIXING:  cpu time    0.0010: real time    0.0005
    --------------------------------------------
      LOOP:  cpu time    0.5159: real time    0.5167

 eigenvalue-minimisations  :  1746
 total energy-change (2. order) : 0.1132849E+00  (-0.5707645E-02)
 number of electron      45.0000029 magnetization 
 augmentation part       28.7050410 magnetization 

 Broyden mixing:
  rms(total) = 0.76248E-01    rms(broyden)= 0.76086E-01
  rms(prec ) = 0.83739E-01
  weight for this iteration     100.00

 eigenvalues of (default mixing * dielectric matrix)
  average eigenvalue GAMMA=   0.7774
  1.8883  0.5954  0.4304  0.1954

 Free energy of the ion-electron system (eV)
  ---------------------------------------------------
  alpha Z        PSCENC =       120.87645803
  Ewald energy   TEWEN  =     38007.35946576
  -Hartree energ DENC   =    -43061.66588291
  -exchange      EXHF   =         0.00000000
  -V(xc)+E(xc)   XCENC  =       173.58940732
  PAW double counting   =      4375.37433969    -4949.69777830
  entropy T*S    EENTRO =        -0.04544107
  eigenvalues    EBANDS =      -258.79574940
  atomic energy  EATOM  =      5575.94961827
  Solvation  Ediel_sol  =         0.00000000
  ---------------------------------------------------
  free energy    TOTEN  =       -17.05556262 eV

  energy without entropy =      -17.01012155  energy(sigma->0) =      -17.03284208


--------------------------------------------------------------------------------------------------------




--------------------------------------- Iteration      1(  10)  ---------------------------------------


    POTLOK:  cpu time    0.0110: real time    0.0127
    SETDIJ:  cpu time    0.0040: real time    0.0031
    EDDIAG:  cpu time    0.1220: real time    0.1227
  RMM-DIIS:  cpu time    0.3270: real time    0.3276
    ORTHCH:  cpu time    0.0160: real time    0.0161
       DOS:  cpu time    0.0030: real time    0.0023
    CHARGE:  cpu time    0.0350: real time    0.0349
    MIXING:  cpu time    0.0000: real time    0.0006
    --------------------------------------------
      LOOP:  cpu time    0.5179: real time    0.5199

 eigenvalue-minimisations  :  1749
 total energy-change (2. order) : 0.9292044E-02  (-0.1854786E-02)
 number of electron      45.0000029 magnetization 
 augmentation part       28.7332005 magnetization 

 Broyden mixing:
  rms(total) = 0.42871E-01    rms(broyden)= 0.42860E-01
  rms(prec ) = 0.45570E-01
  weight for this iteration     100.00

 eigenvalues of (default mixing * dielectric matrix)
  average eigenvalue GAMMA=   0.9099
  2.2473  1.0725  0.6504  0.2061  0.3732

 Free energy of the ion-electron system (eV)
  ---------------------------------------------------
  alpha Z        PSCENC =       120.87645803
  Ewald energy   TEWEN  =     38007.35946576
  -Hartree energ DENC   =    -43062.27037226
  -exchange      EXHF   =         0.00000000
  -V(xc)+E(xc)   XCENC  =       173.50363181
  PAW double counting   =      4381.00802640    -4955.77651490
  entropy T*S    EENTRO =        -0.04711309
  eigenvalues    EBANDS =      -257.64947059
  atomic energy  EATOM  =      5575.94961827
  Solvation  Ediel_sol  =         0.00000000
  ---------------------------------------------------
  free energy    TOTEN  =       -17.04627057 eV

  energy without entropy =      -16.99915748  energy(sigma->0) =      -17.02271403


--------------------------------------------------------------------------------------------------------




--------------------------------------- Iteration      1(  11)  ---------------------------------------


    POTLOK:  cpu time    0.0120: real time    0.0115
    SETDIJ:  cpu time    0.0030: real time    0.0031
    EDDIAG:  cpu time    0.1220: real time    0.1226
  RMM-DIIS:  cpu time    0.3240: real time    0.3248
    ORTHCH:  cpu time    0.0160: real time    0.0161
       DOS:  cpu time    0.0020: real time    0.0022
    CHARGE:  cpu time    0.0350: real time    0.0349
    MIXING:  cpu time    0.0010: real time    0.0006
    --------------------------------------------
      LOOP:  cpu time    0.5149: real time    0.5158

 eigenvalue-minimisations  :  1745
 total energy-change (2. order) : 0.5076101E-02  (-0.8912747E-03)
 number of electron      45.0000029 magnetization 
 augmentation part       28.7772742 magnetization 

 Broyden mixing:
  rms(total) = 0.10934E-01    rms(broyden)= 0.10909E-01
  rms(prec ) = 0.13955E-01
  weight for this iteration     100.00

 eigenvalues of (default mixing * dielectric matrix)
  average eigenvalue GAMMA=   0.9581
  2.2901  1.3539  0.8625  0.6566  0.2079  0.3775

 Free energy of the ion-electron system (eV)
  ---------------------------------------------------
  alpha Z        PSCENC =       120.87645803
  Ewald energy   TEWEN  =     38007.35946576
  -Hartree energ DENC   =    -43062.31715646
  -exchange      EXHF   =         0.00000000
  -V(xc)+E(xc)   XCENC  =       173.37521104
  PAW double counting   =      4391.20216887    -4966.84155101
  entropy T*S    EENTRO =        -0.04666144
  eigenvalues    EBANDS =      -256.59874753
  atomic energy  EATOM  =      5575.94961827
  Solvation  Ediel_sol  =         0.00000000
  ---------------------------------------------------
  free energy    TOTEN  =       -17.04119447 eV

  energy without entropy =      -16.99453304  energy(sigma->0) =      -17.01786375


--------------------------------------------------------------------------------------------------------




--------------------------------------- Iteration      1(  12)  ---------------------------------------


    POTLOK:  cpu time    0.0120: real time    0.0128
    SETDIJ:  cpu time    0.0030: real time    0.0031
    EDDIAG:  cpu time    0.1220: real time    0.1229
  RMM-DIIS:  cpu time    0.3270: real time    0.3265
    ORTHCH:  cpu time    0.0160: real time    0.0161
       DOS:  cpu time    0.0030: real time    0.0022
    CHARGE:  cpu time    0.0340: real time    0.0349
    MIXING:  cpu time    0.0010: real time    0.0006
    --------------------------------------------
      LOOP:  cpu time    0.5179: real time    0.5192

 eigenvalue-minimisations  :  1745
 total energy-change (2. order) : 0.6555966E-03  (-0.1009717E-03)
 number of electron      45.0000029 magnetization 
 augmentation part       28.7702608 magnetization 

 Broyden mixing:
  rms(total) = 0.85379E-02    rms(broyden)= 0.85190E-02
  rms(prec ) = 0.10812E-01
  weight for this iteration     100.00

 eigenvalues of (default mixing * dielectric matrix)
  average eigenvalue GAMMA=   0.9878
  2.2618  1.9766  1.0287  0.6484  0.2076  0.3588  0.4328

 Free energy of the ion-electron system (eV)
  ---------------------------------------------------
  alpha Z        PSCENC =       120.87645803
  Ewald energy   TEWEN  =     38007.35946576
  -Hartree energ DENC   =    -43064.76853451
  -exchange      EXHF   =         0.00000000
  -V(xc)+E(xc)   XCENC  =       173.37538290
  PAW double counting   =      4394.31394857    -4970.24466767
  entropy T*S    EENTRO =        -0.04685001
  eigenvalues    EBANDS =      -253.85536021
  atomic energy  EATOM  =      5575.94961827
  Solvation  Ediel_sol  =         0.00000000
  ---------------------------------------------------
  free energy    TOTEN  =       -17.04053888 eV

  energy without entropy =      -16.99368886  energy(sigma->0) =      -17.01711387


--------------------------------------------------------------------------------------------------------




--------------------------------------- Iteration      1(  13)  ---------------------------------------


    POTLOK:  cpu time    0.0110: real time    0.0114
    SETDIJ:  cpu time    0.0040: real time    0.0031
    EDDIAG:  cpu time    0.1220: real time    0.1228
  RMM-DIIS:  cpu time    0.3239: real time    0.3246
    ORTHCH:  cpu time    0.0160: real time    0.0161
       DOS:  cpu time    0.0020: real time    0.0022
    CHARGE:  cpu time    0.0360: real time    0.0350
    MIXING:  cpu time    0.0000: real time    0.0007
    --------------------------------------------
      LOOP:  cpu time    0.5149: real time    0.5160

 eigenvalue-minimisations  :  1742
 total energy-change (2. order) : 0.4165893E-03  (-0.5022854E-04)
 number of electron      45.0000029 magnetization 
 augmentation part       28.7706502 magnetization 

 Broyden mixing:
  rms(total) = 0.44080E-02    rms(broyden)= 0.43734E-02
  rms(prec ) = 0.55404E-02
  weight for this iteration     100.00

 eigenvalues of (default mixing * dielectric matrix)
  average eigenvalue GAMMA=   1.0493
  2.4146  2.4146  1.0308  0.9219  0.6573  0.2075  0.3538  0.3940

 Free energy of the ion-electron system (eV)
  ---------------------------------------------------
  alpha Z        PSCENC =       120.87645803
  Ewald energy   TEWEN  =     38007.35946576
  -Hartree energ DENC   =    -43066.55147838
  -exchange      EXHF   =         0.00000000
  -V(xc)+E(xc)   XCENC  =       173.37317747
  PAW double counting   =      4395.90387496    -4971.91617875
  entropy T*S    EENTRO =        -0.04687523
  eigenvalues    EBANDS =      -251.98818442
  atomic energy  EATOM  =      5575.94961827
  Solvation  Ediel_sol  =         0.00000000
  ---------------------------------------------------
  free energy    TOTEN  =       -17.04012229 eV

  energy without entropy =      -16.99324705  energy(sigma->0) =      -17.01668467


--------------------------------------------------------------------------------------------------------




--------------------------------------- Iteration      1(  14)  ---------------------------------------


    POTLOK:  cpu time    0.0120: real time    0.0135
    SETDIJ:  cpu time    0.0030: real time    0.0031
    EDDIAG:  cpu time    0.1220: real time    0.1227
  RMM-DIIS:  cpu time    0.3249: real time    0.3254
    ORTHCH:  cpu time    0.0170: real time    0.0161
       DOS:  cpu time    0.0020: real time    0.0022
    CHARGE:  cpu time    0.0350: real time    0.0349
    MIXING:  cpu time    0.0010: real time    0.0013
    --------------------------------------------
      LOOP:  cpu time    0.5169: real time    0.5192

 eigenvalue-minimisations  :  1737
 total energy-change (2. order) :-0.2623524E-04  (-0.3079493E-04)
 number of electron      45.0000029 magnetization 
 augmentation part       28.7773159 magnetization 

 Broyden mixing:
  rms(total) = 0.30636E-02    rms(broyden)= 0.30155E-02
  rms(prec ) = 0.42806E-02
  weight for this iteration     100.00

 eigenvalues of (default mixing * dielectric matrix)
  average eigenvalue GAMMA=   1.1154
  2.5081  2.5081  1.5843  0.9083  0.9083  0.6549  0.2075  0.3625  0.3964

 Free energy of the ion-electron system (eV)
  ---------------------------------------------------
  alpha Z        PSCENC =       120.87645803
  Ewald energy   TEWEN  =     38007.35946576
  -Hartree energ DENC   =    -43068.20559089
  -exchange      EXHF   =         0.00000000
  -V(xc)+E(xc)   XCENC  =       173.36872441
  PAW double counting   =      4395.83247052    -4971.72216864
  entropy T*S    EENTRO =        -0.04677817
  eigenvalues    EBANDS =      -250.45234781
  atomic energy  EATOM  =      5575.94961827
  Solvation  Ediel_sol  =         0.00000000
  ---------------------------------------------------
  free energy    TOTEN  =       -17.04014852 eV

  energy without entropy =      -16.99337035  energy(sigma->0) =      -17.01675944


--------------------------------------------------------------------------------------------------------




--------------------------------------- Iteration      1(  15)  ---------------------------------------


    POTLOK:  cpu time    0.0110: real time    0.0113
    SETDIJ:  cpu time    0.0030: real time    0.0031
    EDDIAG:  cpu time    0.1220: real time    0.1226
  RMM-DIIS:  cpu time    0.2960: real time    0.2969
    ORTHCH:  cpu time    0.0160: real time    0.0161
       DOS:  cpu time    0.0030: real time    0.0022
    CHARGE:  cpu time    0.0350: real time    0.0350
    MIXING:  cpu time    0.0010: real time    0.0007
    --------------------------------------------
      LOOP:  cpu time    0.4869: real time    0.4880

 eigenvalue-minimisations  :  1566
 total energy-change (2. order) :-0.1462017E-03  (-0.1059394E-04)
 number of electron      45.0000029 magnetization 
 augmentation part       28.7738010 magnetization 

 Broyden mixing:
  rms(total) = 0.14644E-02    rms(broyden)= 0.13626E-02
  rms(prec ) = 0.20759E-02
  weight for this iteration     100.00

 eigenvalues of (default mixing * dielectric matrix)
  average eigenvalue GAMMA=   1.2072
  2.9055  2.9055  1.8509  1.0760  1.0760  0.2075  0.6428  0.6428  0.3638  0.4009

 Free energy of the ion-electron system (eV)
  ---------------------------------------------------
  alpha Z        PSCENC =       120.87645803
  Ewald energy   TEWEN  =     38007.35946576
  -Hartree energ DENC   =    -43069.96195111
  -exchange      EXHF   =         0.00000000
  -V(xc)+E(xc)   XCENC  =       173.37668236
  PAW double counting   =      4395.93389635    -4971.84535129
  entropy T*S    EENTRO =        -0.04700835
  eigenvalues    EBANDS =      -248.68210474
  atomic energy  EATOM  =      5575.94961827
  Solvation  Ediel_sol  =         0.00000000
  ---------------------------------------------------
  free energy    TOTEN  =       -17.04029472 eV

  energy without entropy =      -16.99328637  energy(sigma->0) =      -17.01679055


--------------------------------------------------------------------------------------------------------




--------------------------------------- Iteration      1(  16)  ---------------------------------------


    POTLOK:  cpu time    0.0120: real time    0.0133
    SETDIJ:  cpu time    0.0030: real time    0.0031
    EDDIAG:  cpu time    0.1220: real time    0.1229
  RMM-DIIS:  cpu time    0.2430: real time    0.2434
    ORTHCH:  cpu time    0.0160: real time    0.0161
       DOS:  cpu time    0.0030: real time    0.0022
    CHARGE:  cpu time    0.0340: real time    0.0348
    MIXING:  cpu time    0.0020: real time    0.0008
    --------------------------------------------
      LOOP:  cpu time    0.4349: real time    0.4367

 eigenvalue-minimisations  :  1236
 total energy-change (2. order) :-0.2443671E-03  (-0.6136540E-05)
 number of electron      45.0000029 magnetization 
 augmentation part       28.7732465 magnetization 

 Broyden mixing:
  rms(total) = 0.10289E-02    rms(broyden)= 0.87896E-03
  rms(prec ) = 0.12931E-02
  weight for this iteration     100.00
  WARNING: grid for Broyden might be to small

 eigenvalues of (default mixing * dielectric matrix)
  average eigenvalue GAMMA=   1.3773
  4.5655  2.7245  2.2781  1.3320  1.0566  0.8486  0.6563  0.7175  0.2075  0.3634
  0.4004

 Free energy of the ion-electron system (eV)
  ---------------------------------------------------
  alpha Z        PSCENC =       120.87645803
  Ewald energy   TEWEN  =     38007.35946576
  -Hartree energ DENC   =    -43071.50314647
  -exchange      EXHF   =         0.00000000
  -V(xc)+E(xc)   XCENC  =       173.38144339
  PAW double counting   =      4395.48226891    -4971.36819838
  entropy T*S    EENTRO =        -0.04706972
  eigenvalues    EBANDS =      -247.17137888
  atomic energy  EATOM  =      5575.94961827
  Solvation  Ediel_sol  =         0.00000000
  ---------------------------------------------------
  free energy    TOTEN  =       -17.04053909 eV

  energy without entropy =      -16.99346937  energy(sigma->0) =      -17.01700423


--------------------------------------------------------------------------------------------------------




--------------------------------------- Iteration      1(  17)  ---------------------------------------


    POTLOK:  cpu time    0.0110: real time    0.0112
    SETDIJ:  cpu time    0.0030: real time    0.0031
    EDDIAG:  cpu time    0.1220: real time    0.1226
  RMM-DIIS:  cpu time    0.2370: real time    0.2371
    ORTHCH:  cpu time    0.0160: real time    0.0161
       DOS:  cpu time    0.0020: real time    0.0022
    CHARGE:  cpu time    0.0350: real time    0.0348
    MIXING:  cpu time    0.0010: real time    0.0008
    --------------------------------------------
      LOOP:  cpu time    0.4269: real time    0.4279

 eigenvalue-minimisations  :  1199
 total energy-change (2. order) :-0.1418097E-03  (-0.4686789E-05)
 number of electron      45.0000029 magnetization 
 augmentation part       28.7732762 magnetization 

 Broyden mixing:
  rms(total) = 0.78108E-03    rms(broyden)= 0.56924E-03
  rms(prec ) = 0.76799E-03
  weight for this iteration     100.00
  WARNING: grid for Broyden might be to small

 eigenvalues of (default mixing * dielectric matrix)
  average eigenvalue GAMMA=   1.5412
  5.4792  3.1306  2.3543  2.0584  1.2932  0.9498  0.9065  0.6584  0.6929  0.2075
  0.3634  0.4003

 Free energy of the ion-electron system (eV)
  ---------------------------------------------------
  alpha Z        PSCENC =       120.87645803
  Ewald energy   TEWEN  =     38007.35946576
  -Hartree energ DENC   =    -43072.59512291
  -exchange      EXHF   =         0.00000000
  -V(xc)+E(xc)   XCENC  =       173.38291754
  PAW double counting   =      4395.17200943    -4971.05981432
  entropy T*S    EENTRO =        -0.04709455
  eigenvalues    EBANDS =      -246.07911814
  atomic energy  EATOM  =      5575.94961827
  Solvation  Ediel_sol  =         0.00000000
  ---------------------------------------------------
  free energy    TOTEN  =       -17.04068090 eV

  energy without entropy =      -16.99358635  energy(sigma->0) =      -17.01713363


--------------------------------------------------------------------------------------------------------




--------------------------------------- Iteration      1(  18)  ---------------------------------------


    POTLOK:  cpu time    0.0110: real time    0.0112
    SETDIJ:  cpu time    0.0030: real time    0.0031
    EDDIAG:  cpu time    0.1220: real time    0.1226
  RMM-DIIS:  cpu time    0.2080: real time    0.2085
    ORTHCH:  cpu time    0.0160: real time    0.0161
       DOS:  cpu time    0.0030: real time    0.0022
    CHARGE:  cpu time    0.0350: real time    0.0348
    MIXING:  cpu time    0.0010: real time    0.0009
    --------------------------------------------
      LOOP:  cpu time    0.3989: real time    0.3994

 eigenvalue-minimisations  :  1034
 total energy-change (2. order) :-0.6888765E-04  (-0.1180036E-05)
 number of electron      45.0000029 magnetization 
 augmentation part       28.7736423 magnetization 

 Broyden mixing:
  rms(total) = 0.62669E-03    rms(broyden)= 0.32679E-03
  rms(prec ) = 0.41480E-03
  weight for this iteration     100.00
  WARNING: grid for Broyden might be to small

 eigenvalues of (default mixing * dielectric matrix)
  average eigenvalue GAMMA=   1.6839
  5.9849  4.0509  2.3909  2.3909  1.5604  1.3284  0.9660  0.8956  0.2075  0.6583
  0.6929  0.3634  0.4003

 Free energy of the ion-electron system (eV)
  ---------------------------------------------------
  alpha Z        PSCENC =       120.87645803
  Ewald energy   TEWEN  =     38007.35946576
  -Hartree energ DENC   =    -43073.17270700
  -exchange      EXHF   =         0.00000000
  -V(xc)+E(xc)   XCENC  =       173.38206026
  PAW double counting   =      4395.18930185    -4971.08211848
  entropy T*S    EENTRO =        -0.04709013
  eigenvalues    EBANDS =      -245.49573834
  atomic energy  EATOM  =      5575.94961827
  Solvation  Ediel_sol  =         0.00000000
  ---------------------------------------------------
  free energy    TOTEN  =       -17.04074979 eV

  energy without entropy =      -16.99365966  energy(sigma->0) =      -17.01720472


--------------------------------------------------------------------------------------------------------




--------------------------------------- Iteration      1(  19)  ---------------------------------------


    POTLOK:  cpu time    0.0110: real time    0.0128
    SETDIJ:  cpu time    0.0040: real time    0.0031
    EDDIAG:  cpu time    0.1210: real time    0.1225
  RMM-DIIS:  cpu time    0.1990: real time    0.1994
    ORTHCH:  cpu time    0.0160: real time    0.0161
       DOS:  cpu time    0.0030: real time    0.0022
    CHARGE:  cpu time    0.0350: real time    0.0348
    MIXING:  cpu time    0.0010: real time    0.0009
    --------------------------------------------
      LOOP:  cpu time    0.3899: real time    0.3920

 eigenvalue-minimisations  :   976
 total energy-change (2. order) :-0.4191675E-04  (-0.2351763E-06)
 number of electron      45.0000029 magnetization 
 augmentation part       28.7736132 magnetization 

 Broyden mixing:
  rms(total) = 0.58636E-03    rms(broyden)= 0.24069E-03
  rms(prec ) = 0.27663E-03
  weight for this iteration     100.00
  WARNING: grid for Broyden might be to small

 eigenvalues of (default mixing * dielectric matrix)
  average eigenvalue GAMMA=   1.7346
  6.5415  4.3853  2.5170  2.5170  1.8755  1.2483  0.9670  0.9670  0.9459  0.2075
  0.6585  0.6905  0.3634  0.4003

 Free energy of the ion-electron system (eV)
  ---------------------------------------------------
  alpha Z        PSCENC =       120.87645803
  Ewald energy   TEWEN  =     38007.35946576
  -Hartree energ DENC   =    -43073.36449059
  -exchange      EXHF   =         0.00000000
  -V(xc)+E(xc)   XCENC  =       173.38178805
  PAW double counting   =      4395.25914475    -4971.15299142
  entropy T*S    EENTRO =        -0.04709690
  eigenvalues    EBANDS =      -245.30268764
  atomic energy  EATOM  =      5575.94961827
  Solvation  Ediel_sol  =         0.00000000
  ---------------------------------------------------
  free energy    TOTEN  =       -17.04079170 eV

  energy without entropy =      -16.99369480  energy(sigma->0) =      -17.01724325


--------------------------------------------------------------------------------------------------------




--------------------------------------- Iteration      1(  20)  ---------------------------------------


    POTLOK:  cpu time    0.0110: real time    0.0113
    SETDIJ:  cpu time    0.0030: real time    0.0031
    EDDIAG:  cpu time    0.1220: real time    0.1226
  RMM-DIIS:  cpu time    0.1920: real time    0.1911
    ORTHCH:  cpu time    0.0160: real time    0.0161
       DOS:  cpu time    0.0020: real time    0.0022
    CHARGE:  cpu time    0.0350: real time    0.0349
    MIXING:  cpu time    0.0010: real time    0.0010
    --------------------------------------------
      LOOP:  cpu time    0.3819: real time    0.3824

 eigenvalue-minimisations  :   838
 total energy-change (2. order) :-0.2081100E-04  (-0.8726368E-07)
 number of electron      45.0000029 magnetization 
 augmentation part       28.7735663 magnetization 

 Broyden mixing:
  rms(total) = 0.56382E-03    rms(broyden)= 0.17892E-03
  rms(prec ) = 0.19510E-03
  weight for this iteration     100.00
  WARNING: grid for Broyden might be to small

 eigenvalues of (default mixing * dielectric matrix)
  average eigenvalue GAMMA=   1.8603
  7.1018  5.1475  2.7434  2.7434  2.2153  1.5294  1.2879  0.9550  0.9550  0.9051
  0.2075  0.6584  0.6909  0.4003  0.3634

 Free energy of the ion-electron system (eV)
  ---------------------------------------------------
  alpha Z        PSCENC =       120.87645803
  Ewald energy   TEWEN  =     38007.35946576
  -Hartree energ DENC   =    -43073.46976701
  -exchange      EXHF   =         0.00000000
  -V(xc)+E(xc)   XCENC  =       173.38204559
  PAW double counting   =      4395.26621240    -4971.15773389
  entropy T*S    EENTRO =        -0.04710131
  eigenvalues    EBANDS =      -245.20001035
  atomic energy  EATOM  =      5575.94961827
  Solvation  Ediel_sol  =         0.00000000
  ---------------------------------------------------
  free energy    TOTEN  =       -17.04081252 eV

  energy without entropy =      -16.99371121  energy(sigma->0) =      -17.01726186


--------------------------------------------------------------------------------------------------------




--------------------------------------- Iteration      1(  21)  ---------------------------------------


    POTLOK:  cpu time    0.0110: real time    0.0111
    SETDIJ:  cpu time    0.0030: real time    0.0031
    EDDIAG:  cpu time    0.1220: real time    0.1227
  RMM-DIIS:  cpu time    0.1560: real time    0.1563
    ORTHCH:  cpu time    0.0160: real time    0.0161
       DOS:  cpu time    0.0020: real time    0.0023
    CHARGE:  cpu time    0.0350: real time    0.0348
    MIXING:  cpu time    0.0010: real time    0.0010
    --------------------------------------------
      LOOP:  cpu time    0.3459: real time    0.3473

 eigenvalue-minimisations  :   354
 total energy-change (2. order) :-0.1303555E-04  (-0.2991012E-07)
 number of electron      45.0000029 magnetization 
 augmentation part       28.7735339 magnetization 

 Broyden mixing:
  rms(total) = 0.56158E-03    rms(broyden)= 0.17177E-03
  rms(prec ) = 0.17759E-03
  weight for this iteration     100.00
  WARNING: grid for Broyden might be to small

 eigenvalues of (default mixing * dielectric matrix)
  average eigenvalue GAMMA=   1.9526
  7.9867  5.5362  3.2709  2.5392  2.4736  1.9205  0.2075  1.2333  1.0263  1.0263
  0.9724  0.9355  0.6585  0.6908  0.3634  0.4003

 Free energy of the ion-electron system (eV)
  ---------------------------------------------------
  alpha Z        PSCENC =       120.87645803
  Ewald energy   TEWEN  =     38007.35946576
  -Hartree energ DENC   =    -43073.52747673
  -exchange      EXHF   =         0.00000000
  -V(xc)+E(xc)   XCENC  =       173.38216754
  PAW double counting   =      4395.25896125    -4971.15144868
  entropy T*S    EENTRO =        -0.04710190
  eigenvalues    EBANDS =      -245.14146909
  atomic energy  EATOM  =      5575.94961827
  Solvation  Ediel_sol  =         0.00000000
  ---------------------------------------------------
  free energy    TOTEN  =       -17.04082555 eV

  energy without entropy =      -16.99372365  energy(sigma->0) =      -17.01727460


--------------------------------------------------------------------------------------------------------




--------------------------------------- Iteration      1(  22)  ---------------------------------------


    POTLOK:  cpu time    0.0120: real time    0.0125
    SETDIJ:  cpu time    0.0030: real time    0.0031
    EDDIAG:  cpu time    0.1220: real time    0.1226
  RMM-DIIS:  cpu time    0.1440: real time    0.1441
    ORTHCH:  cpu time    0.0150: real time    0.0161
       DOS:  cpu time    0.0030: real time    0.0022
    --------------------------------------------
      LOOP:  cpu time    0.2990: real time    0.3005

 eigenvalue-minimisations  :   219
 total energy-change (2. order) :-0.3219771E-05  (-0.6210572E-08)
 number of electron      45.0000029 magnetization 
 augmentation part       28.7735339 magnetization 

 Free energy of the ion-electron system (eV)
  ---------------------------------------------------
  alpha Z        PSCENC =       120.87645803
  Ewald energy   TEWEN  =     38007.35946576
  -Hartree energ DENC   =    -43073.54155164
  -exchange      EXHF   =         0.00000000
  -V(xc)+E(xc)   XCENC  =       173.38207178
  PAW double counting   =      4395.25288316    -4971.14539356
  entropy T*S    EENTRO =        -0.04710144
  eigenvalues    EBANDS =      -245.12727913
  atomic energy  EATOM  =      5575.94961827
  Solvation  Ediel_sol  =         0.00000000
  ---------------------------------------------------
  free energy    TOTEN  =       -17.04082877 eV

  energy without entropy =      -16.99372733  energy(sigma->0) =      -17.01727805


--------------------------------------------------------------------------------------------------------




 average (electrostatic) potential at core
  the test charge radii are     1.0053  0.5201
  (the norm of the test charge is              1.0000)
       1 -45.8439       2 -46.0904       3 -46.0984       4 -46.4193       5 -39.1163
 
 
 
 E-fermi :  -2.4167     XC(G=0):  -4.4059     alpha+bet : -2.7756


 k-point     1 :       0.0000    0.0000    0.0000
  band No.  band energies     occupation 
      1     -11.6579      2.00000
      2     -10.6688      2.00000
      3      -9.0636      2.00000
      4      -7.6132      2.00000
      5      -6.3387      2.00000
      6      -5.7388      2.00000
      7      -5.5895      2.00000
      8      -5.5123      2.00000
      9      -5.3941      2.00000
     10      -5.3839      2.00000
     11      -5.3609      2.00000
     12      -5.3255      2.00000
     13      -5.3228      2.00000
     14      -5.0599      2.00000
     15      -5.0562      2.00000
     16      -4.9458      2.00000
     17      -4.8893      2.00000
     18      -4.7740      2.00000
     19      -4.5729      2.00000
     20      -4.5646      2.00000
     21      -4.3518      2.00000
     22      -4.3362      2.00000
     23      -4.0709      2.00000
     24      -4.0676      2.00000
     25      -2.9728      1.99992
     26       1.6097      0.00000
     27       1.9376      0.00000
     28       2.3759      0.00000

 k-point     2 :       0.1000    0.0000    0.0000
  band No.  band energies     occupation 
      1     -11.3504      2.00000
      2     -10.3721      2.00000
      3      -8.8047      2.00000
      4      -7.3934      2.00000
      5      -6.3634      2.00000
      6      -5.7731      2.00000
      7      -5.6889      2.00000
      8      -5.5272      2.00000
      9      -5.4645      2.00000
     10      -5.4188      2.00000
     11      -5.3747      2.00000
     12      -5.2836      2.00000
     13      -5.2285      2.00000
     14      -5.1816      2.00000
     15      -5.0798      2.00000
     16      -4.9713      2.00000
     17      -4.8384      2.00000
     18      -4.7759      2.00000
     19      -4.5785      2.00000
     20      -4.5388      2.00000
     21      -4.3661      2.00000
     22      -4.3357      2.00000
     23      -4.0648      2.00000
     24      -3.8261      2.00000
     25      -2.2888      0.36582
     26       1.8518      0.00000
     27       2.2415      0.00000
     28       2.6785      0.00000

 k-point     3 :       0.2000   -0.0000    0.0000
  band No.  band energies     occupation 
      1     -10.4654      2.00000
      2      -9.5346      2.00000
      3      -8.1402      2.00000
      4      -6.8846      2.00000
      5      -6.4693      2.00000
      6      -6.0202      2.00000
      7      -5.8556      2.00000
      8      -5.7312      2.00000
      9      -5.5733      2.00000
     10      -5.3578      2.00000
     11      -5.2977      2.00000
     12      -5.2769      2.00000
     13      -5.1439      2.00000
     14      -5.0791      2.00000
     15      -4.9669      2.00000
     16      -4.9060      2.00000
     17      -4.8574      2.00000
     18      -4.6868      2.00000
     19      -4.6382      2.00000
     20      -4.5192      2.00000
     21      -4.3401      2.00000
     22      -4.1418      2.00000
     23      -4.0611      2.00000
     24      -2.9348      1.99975
     25      -0.9534      0.00000
     26       2.5723      0.00000
     27       3.1515      0.00000
     28       3.5858      0.00000

 k-point     4 :       0.3000   -0.0000    0.0000
  band No.  band energies     occupation 
      1      -9.1640      2.00000
      2      -8.3973      2.00000
      3      -7.5085      2.00000
      4      -6.7340      2.00000
      5      -6.4692      2.00000
      6      -6.2835      2.00000
      7      -5.9739      2.00000
      8      -5.7402      2.00000
      9      -5.6226      2.00000
     10      -5.3698      2.00000
     11      -5.2499      2.00000
     12      -5.1329      2.00000
     13      -4.9530      2.00000
     14      -4.9031      2.00000
     15      -4.8445      2.00000
     16      -4.6853      2.00000
     17      -4.6022      2.00000
     18      -4.4488      2.00000
     19      -4.4150      2.00000
     20      -4.3352      2.00000
     21      -4.2127      2.00000
     22      -4.0497      2.00000
     23      -3.6327      2.00000
     24      -1.7424      0.00000
     25       0.7410      0.00000
     26       3.7520      0.00000
     27       4.6233      0.00000
     28       5.0369      0.00000

 k-point     5 :       0.4000   -0.0000    0.0000
  band No.  band energies     occupation 
      1      -8.0856      2.00000
      2      -7.5027      2.00000
      3      -7.1860      2.00000
      4      -6.8380      2.00000
      5      -6.5921      2.00000
      6      -6.4442      2.00000
      7      -6.1015      2.00000
      8      -5.5627      2.00000
      9      -5.4450      2.00000
     10      -5.3520      2.00000
     11      -5.2929      2.00000
     12      -4.9903      2.00000
     13      -4.8701      2.00000
     14      -4.5569      2.00000
     15      -4.4622      2.00000
     16      -4.3958      2.00000
     17      -4.1918      2.00000
     18      -4.1663      2.00000
     19      -4.1412      2.00000
     20      -4.0551      2.00000
     21      -3.8958      2.00000
     22      -3.6153      2.00000
     23      -2.5578      1.68143
     24      -0.3323      0.00000
     25       2.0502      0.00000
     26       2.8558      0.00000
     27       3.2144      0.00000
     28       4.3390      0.00000

 k-point     6 :       0.5000   -0.0000    0.0000
  band No.  band energies     occupation 
      1      -7.8740      2.00000
      2      -7.1971      2.00000
      3      -6.9951      2.00000
      4      -6.9048      2.00000
      5      -6.6521      2.00000
      6      -6.4913      2.00000
      7      -6.1337      2.00000
      8      -5.4888      2.00000
      9      -5.4597      2.00000
     10      -5.3054      2.00000
     11      -5.2126      2.00000
     12      -4.9842      2.00000
     13      -4.6322      2.00000
     14      -4.4913      2.00000
     15      -4.3736      2.00000
     16      -4.2699      2.00000
     17      -4.1289      2.00000
     18      -4.0423      2.00000
     19      -3.9868      2.00000
     20      -3.7789      2.00000
     21      -3.6935      2.00000
     22      -2.2771      0.32338
     23      -1.4375      0.00000
     24      -0.8951      0.00000
     25       1.2377      0.00000
     26       2.1592      0.00000
     27       2.8462      0.00000
     28       3.5950      0.00000

 k-point     7 :       0.0000    0.1000    0.0000
  band No.  band energies     occupation 
      1     -11.3645      2.00000
      2     -10.3734      2.00000
      3      -8.7952      2.00000
      4      -7.3885      2.00000
      5      -6.2908      2.00000
      6      -5.8068      2.00000
      7      -5.5977      2.00000
      8      -5.4885      2.00000
      9      -5.4498      2.00000
     10      -5.4252      2.00000
     11      -5.3603      2.00000
     12      -5.3279      2.00000
     13      -5.2248      2.00000
     14      -5.1823      2.00000
     15      -5.0794      2.00000
     16      -4.9987      2.00000
     17      -4.9199      2.00000
     18      -4.7925      2.00000
     19      -4.5882      2.00000
     20      -4.5289      2.00000
     21      -4.3675      2.00000
     22      -4.3485      2.00000
     23      -4.0673      2.00000
     24      -3.8478      2.00000
     25      -2.2983      0.40234
     26       1.8528      0.00000
     27       2.2411      0.00000
     28       2.6783      0.00000

 k-point     8 :       0.2000    0.1000    0.0000
  band No.  band energies     occupation 
      1     -10.7432      2.00000
      2      -9.8046      2.00000
      3      -8.3508      2.00000
      4      -7.0209      2.00000
      5      -6.4478      2.00000
      6      -5.9080      2.00000
      7      -5.8379      2.00000
      8      -5.6656      2.00000
      9      -5.5611      2.00000
     10      -5.4550      2.00000
     11      -5.3605      2.00000
     12      -5.2418      2.00000
     13      -5.1742      2.00000
     14      -5.1556      2.00000
     15      -5.0203      2.00000
     16      -4.9130      2.00000
[...]
     27       4.0453      0.00000
     28       4.4604      0.00000

 k-point    23 :       0.0000    0.3000    0.0000
  band No.  band energies     occupation 
      1      -9.3589      2.00000
      2      -8.4054      2.00000
      3      -7.3357      2.00000
      4      -6.5401      2.00000
      5      -6.3853      2.00000
      6      -6.0770      2.00000
      7      -5.7857      2.00000
      8      -5.6987      2.00000
      9      -5.4760      2.00000
     10      -5.3626      2.00000
     11      -5.3050      2.00000
     12      -5.1632      2.00000
     13      -5.0205      2.00000
     14      -4.9172      2.00000
     15      -4.8072      2.00000
     16      -4.7748      2.00000
     17      -4.6132      2.00000
     18      -4.4535      2.00000
     19      -4.4193      2.00000
     20      -4.3355      2.00000
     21      -4.2107      2.00000
     22      -4.0350      2.00000
     23      -3.8187      2.00000
     24      -2.0205      0.00571
     25       0.5481      0.00000
     26       3.6177      0.00000
     27       4.6365      0.00000
     28       4.8604      0.00000

 k-point    24 :      -0.4000    0.3000    0.0000
  band No.  band energies     occupation 
      1      -7.6227      2.00000
      2      -6.4843      2.00000
      3      -6.4160      2.00000
      4      -6.3452      2.00000
      5      -6.2408      2.00000
      6      -6.1157      2.00000
      7      -6.0616      2.00000
      8      -5.9689      2.00000
      9      -5.7853      2.00000
     10      -5.5918      2.00000
     11      -5.5068      2.00000
     12      -5.1186      2.00000
     13      -5.0685      2.00000
     14      -4.8852      2.00000
     15      -4.7296      2.00000
     16      -4.5782      2.00000
     17      -4.5201      2.00000
     18      -4.2331      2.00000
     19      -4.1425      2.00000
     20      -4.0516      2.00000
     21      -2.1453      0.05983
     22      -0.4579      0.00000
     23       0.7468      0.00000
     24       2.1705      0.00000
     25       2.2213      0.00000
     26       2.4920      0.00000
     27       3.2900      0.00000
     28       3.9592      0.00000

 k-point    25 :      -0.3000    0.3000    0.0000
  band No.  band energies     occupation 
      1      -7.5780      2.00000
      2      -6.4955      2.00000
      3      -6.4382      2.00000
      4      -6.3435      2.00000
      5      -6.2404      2.00000
      6      -6.1163      2.00000
      7      -6.0633      2.00000
      8      -5.9559      2.00000
      9      -5.7439      2.00000
     10      -5.6361      2.00000
     11      -5.5111      2.00000
     12      -5.1198      2.00000
     13      -5.0681      2.00000
     14      -4.9068      2.00000
     15      -4.7367      2.00000
     16      -4.5905      2.00000
     17      -4.5180      2.00000
     18      -4.2194      2.00000
     19      -4.1404      2.00000
     20      -4.0537      2.00000
     21      -1.9918      0.00301
     22      -0.4841      0.00000
     23       0.5988      0.00000
     24       1.7532      0.00000
     25       2.2981      0.00000
     26       2.4693      0.00000
     27       3.2176      0.00000
     28       3.7752      0.00000

 k-point    26 :      -0.2000    0.3000    0.0000
  band No.  band energies     occupation 
      1      -7.9825      2.00000
      2      -6.9214      2.00000
      3      -6.7163      2.00000
      4      -6.4565      2.00000
      5      -6.3212      2.00000
      6      -6.0855      2.00000
      7      -5.9775      2.00000
      8      -5.8110      2.00000
      9      -5.6502      2.00000
     10      -5.5683      2.00000
     11      -5.4416      2.00000
     12      -5.1425      2.00000
     13      -5.0723      2.00000
     14      -4.9253      2.00000
     15      -4.7115      2.00000
     16      -4.6423      2.00000
     17      -4.4518      2.00000
     18      -4.2738      2.00000
     19      -4.0880      2.00000
     20      -3.9639      2.00000
     21      -3.0609      2.00000
     22      -2.4633      1.28617
     23      -1.4444      0.00000
     24       0.3546      0.00000
     25       2.1153      0.00000
     26       3.2355      0.00000
     27       4.2725      0.00000
     28       5.5714      0.00000

 k-point    27 :      -0.1000    0.3000    0.0000
  band No.  band energies     occupation 
      1      -8.6948      2.00000
      2      -7.6845      2.00000
      3      -7.0341      2.00000
      4      -6.5078      2.00000
      5      -6.4171      2.00000
      6      -6.1191      2.00000
      7      -5.8632      2.00000
      8      -5.6736      2.00000
      9      -5.5309      2.00000
     10      -5.4298      2.00000
     11      -5.2875      2.00000
     12      -5.1986      2.00000
     13      -5.0510      2.00000
     14      -4.8228      2.00000
     15      -4.7469      2.00000
     16      -4.5877      2.00000
     17      -4.4511      2.00000
     18      -4.2725      2.00000
     19      -4.2237      2.00000
     20      -4.0575      2.00000
     21      -3.9798      2.00000
     22      -3.7196      2.00000
     23      -3.0635      2.00000
     24      -1.1215      0.00000
     25       1.4622      0.00000
     26       3.5945      0.00000
     27       4.5441      0.00000
     28       5.4009      0.00000

 k-point    28 :       0.0000    0.4000    0.0000
  band No.  band energies     occupation 
      1      -8.5549      2.00000
      2      -7.4303      2.00000
      3      -7.0650      2.00000
      4      -6.5959      2.00000
      5      -6.5534      2.00000
      6      -6.2221      2.00000
      7      -5.8208      2.00000
      8      -5.5022      2.00000
      9      -5.3866      2.00000
     10      -5.3856      2.00000
     11      -5.1312      2.00000
     12      -5.0693      2.00000
     13      -4.7100      2.00000
     14      -4.5602      2.00000
     15      -4.4304      2.00000
     16      -4.4217      2.00000
     17      -4.1881      2.00000
     18      -4.1295      2.00000
     19      -4.0624      2.00000
     20      -4.0432      2.00000
     21      -3.8940      2.00000
     22      -3.6076      2.00000
     23      -2.8770      1.99901
     24      -0.9371      0.00000
     25       0.9969      0.00000
     26       2.5872      0.00000
     27       3.5047      0.00000
     28       4.9671      0.00000

 k-point    29 :      -0.2000    0.4000    0.0000
  band No.  band energies     occupation 
      1      -7.8442      2.00000
      2      -6.7067      2.00000
      3      -6.6616      2.00000
      4      -6.3876      2.00000
      5      -6.3068      2.00000
      6      -6.0654      2.00000
      7      -5.9974      2.00000
      8      -5.9464      2.00000
      9      -5.5616      2.00000
     10      -5.5034      2.00000
     11      -5.3051      2.00000
     12      -5.1626      2.00000
     13      -5.0287      2.00000
     14      -4.7781      2.00000
     15      -4.6639      2.00000
     16      -4.5614      2.00000
     17      -4.3554      2.00000
     18      -4.1783      2.00000
     19      -4.1274      2.00000
     20      -4.0296      2.00000
     21      -1.9638      0.00155
     22      -0.8608      0.00000
     23      -0.4929      0.00000
     24       0.0768      0.00000
     25       0.7442      0.00000
     26       2.4010      0.00000
     27       3.7432      0.00000
     28       5.0042      0.00000

 k-point    30 :      -0.1000    0.4000    0.0000
  band No.  band energies     occupation 
      1      -8.2389      2.00000
      2      -7.0693      2.00000
      3      -6.9369      2.00000
      4      -6.5619      2.00000
      5      -6.4907      2.00000
      6      -6.2100      2.00000
      7      -5.8557      2.00000
      8      -5.6406      2.00000
      9      -5.4568      2.00000
     10      -5.3247      2.00000
     11      -5.2778      2.00000
     12      -4.9723      2.00000
     13      -4.8024      2.00000
     14      -4.6773      2.00000
     15      -4.4810      2.00000
     16      -4.3386      2.00000
     17      -4.2077      2.00000
     18      -4.1461      2.00000
     19      -4.0829      2.00000
     20      -3.9451      2.00000
     21      -2.9257      1.99972
     22      -2.4723      1.33320
     23      -1.7058      0.00000
     24      -0.5602      0.00000
     25       0.2687      0.00000
     26       2.1669      0.00000
     27       3.3330      0.00000
     28       4.8813      0.00000

 k-point    31 :       0.0000    0.5000    0.0000
  band No.  band energies     occupation 
      1      -8.3399      2.00000
      2      -7.1397      2.00000
      3      -7.0423      2.00000
      4      -6.6553      2.00000
      5      -6.5768      2.00000
      6      -6.2875      2.00000
      7      -5.8255      2.00000
      8      -5.4795      2.00000
      9      -5.4189      2.00000
     10      -5.3536      2.00000
     11      -5.0904      2.00000
     12      -5.0055      2.00000
     13      -4.5423      2.00000
     14      -4.5142      2.00000
     15      -4.3117      2.00000
     16      -4.1716      2.00000
     17      -4.1197      2.00000
     18      -4.0358      2.00000
     19      -3.9745      2.00000
     20      -3.7786      2.00000
     21      -2.7572      1.98551
     22      -2.4223      1.06140
     23      -1.7821      0.00001
     24      -1.2470      0.00000
     25      -0.8611      0.00000
     26       1.8652      0.00000
     27       3.0161      0.00000
     28       4.4870      0.00000


--------------------------------------------------------------------------------------------------------


 soft charge-density along one line, spin component           1
         0         1         2         3         4         5         6         7         8         9
 total charge-density along one line
 
 pseudopotential strength for first ion, spin component:           1
-10.873   0.000   0.000  -0.005   0.000   1.755  -0.000  -0.000
  0.000 -10.845  -0.000   0.000  -0.004  -0.000   1.741   0.000
  0.000  -0.000 -10.845  -0.000   0.002  -0.000   0.000   1.741
 -0.005   0.000  -0.000 -10.847  -0.000   0.002  -0.000   0.000
  0.000  -0.004   0.002  -0.000 -10.873  -0.000   0.002  -0.001
  1.755  -0.000  -0.000   0.002  -0.000   0.769   0.000   0.000
 -0.000   1.741   0.000  -0.000   0.002   0.000   0.776  -0.000
 -0.000   0.000   1.741   0.000  -0.001   0.000  -0.000   0.776
  0.002  -0.000   0.000   1.742   0.000  -0.001   0.000  -0.000
 -0.000   0.002  -0.001   0.000   1.755   0.000  -0.001   0.000
 -0.000   0.000  -0.005   0.000   0.000  -0.000  -0.000   0.002
  0.000  -0.000   0.000  -0.000  -0.000  -0.000   0.000  -0.000
  0.000  -0.010   0.000  -0.000   0.000  -0.000   0.006  -0.000
 -0.000  -0.000  -0.010   0.000   0.000  -0.000   0.000   0.006
  0.000  -0.000  -0.000  -0.010   0.000   0.000  -0.000  -0.000
 -0.000   0.005  -0.000   0.000  -0.000   0.000  -0.003   0.000
  0.000  -0.000   0.005   0.000  -0.000  -0.000   0.000  -0.003
 -0.000   0.000   0.000   0.005  -0.000   0.000  -0.000  -0.000
 total augmentation occupancy for first ion, spin component:           1
  1.926   0.000   0.000  -0.002   0.000  -0.002   0.000   0.000   0.010   0.000   0.000   0.000   0.000   0.000   0.006   0.000
  0.000   1.933  -0.000   0.000  -0.002   0.000  -0.035   0.000   0.000   0.010   0.001   0.000  -0.002   0.000   0.000  -0.005
  0.000  -0.000   1.935   0.000   0.001   0.000   0.000  -0.026   0.000  -0.000   0.017   0.038   0.001   0.037   0.000  -0.000
 -0.002   0.000   0.000   1.933   0.000   0.010   0.000   0.000  -0.035   0.000   0.000   0.000   0.000   0.000  -0.001   0.000
  0.000  -0.002   0.001   0.000   1.926   0.000   0.010  -0.000   0.000  -0.003   0.001   0.000   0.006  -0.000   0.000  -0.001
 -0.002   0.000   0.000   0.010   0.000   0.060   0.000   0.000   0.001   0.000   0.000   0.000   0.000   0.000   0.005   0.000
  0.000  -0.035   0.000   0.000   0.010   0.000   0.040  -0.000   0.000   0.001  -0.000  -0.000   0.032  -0.000   0.000  -0.003
  0.000   0.000  -0.026   0.000  -0.000   0.000  -0.000   0.056   0.000   0.000  -0.076   0.013  -0.001   0.043   0.000   0.000
  0.010   0.000   0.000  -0.035   0.000   0.001   0.000   0.000   0.040   0.000   0.000   0.000   0.000   0.000   0.031   0.000
  0.000   0.010  -0.000   0.000  -0.003   0.000   0.001   0.000   0.000   0.060  -0.001  -0.000   0.005   0.000   0.000  -0.000
  0.000   0.001   0.017   0.000   0.001   0.000  -0.000  -0.076   0.000  -0.001   1.241  -0.281  -0.001   0.071   0.000   0.000
  0.000   0.000   0.038   0.000   0.000   0.000  -0.000   0.013   0.000  -0.000  -0.281   0.110  -0.000  -0.046   0.000  -0.000
  0.000  -0.002   0.001   0.000   0.006   0.000   0.032  -0.001   0.000   0.005  -0.001  -0.000   0.169  -0.000   0.000  -0.010
  0.000   0.000   0.037   0.000  -0.000   0.000  -0.000   0.043   0.000   0.000   0.071  -0.046  -0.000   0.094   0.000   0.000
  0.006   0.000   0.000  -0.001   0.000   0.005   0.000   0.000   0.031   0.000   0.000   0.000   0.000   0.000   0.170   0.000
  0.000  -0.005  -0.000   0.000  -0.001   0.000  -0.003   0.000   0.000  -0.000   0.000  -0.000  -0.010   0.000   0.000   0.001
  0.000   0.000  -0.008   0.000  -0.000   0.000  -0.000  -0.002   0.000  -0.000  -0.013   0.006   0.000  -0.007   0.000  -0.000
 -0.001   0.000   0.000  -0.005   0.000  -0.000   0.000   0.000  -0.003   0.000   0.000   0.000   0.000   0.000  -0.010   0.000


------------------------ aborting loop because EDIFF is reached ----------------------------------------


    CHARGE:  cpu time    0.0350: real time    0.0348
    FORLOC:  cpu time    0.0010: real time    0.0014
    FORNL :  cpu time    0.1760: real time    0.1759
    STRESS:  cpu time    0.5329: real time    0.5332
    FORCOR:  cpu time    0.0120: real time    0.0115
    FORHAR:  cpu time    0.0030: real time    0.0030
    MIXING:  cpu time    0.0010: real time    0.0014
    OFIELD:  cpu time    0.0000: real time    0.0000

  FORCE on cell =-STRESS in cart. coord.  units (eV):
  Direction    XX          YY          ZZ          XY          YZ          ZX
  --------------------------------------------------------------------------------------
  Alpha Z   120.87646   120.87646   120.87646
  Ewald   41036.69679 40987.28858-43939.57702    -0.00000     0.46747    -0.00000
  Hartree 42332.05542 42313.03962-41494.05382     0.00004     0.20505    -0.00001
  E(xc)    -252.98712  -253.16637  -253.56843    -0.00254     0.00048     0.00022
  Local  -83633.88667-83570.32369 85164.42422     0.00518    -0.59706    -0.00099
  n-local  -155.59536  -155.78346  -156.18185     2.28612    -0.02814     0.16959
  augment   224.96127   226.59407   226.47072    -0.01275    -0.03402     0.00331
  Kinetic   322.98794   326.53063   326.80009   -10.93097    -0.12932     0.58190
  Fock        0.00000     0.00000     0.00000     0.00000     0.00000     0.00000
  -------------------------------------------------------------------------------------
  Total      -4.89127    -4.94416    -4.80962     0.00000    -0.11555     0.00000
  in kB     -45.07331   -45.56068   -44.32090     0.00000    -1.06478     0.00000
  external pressure =      -44.98 kB  Pullay stress =        0.00 kB


 VOLUME and BASIS-vectors are now :
 -----------------------------------------------------------------------------
  energy-cutoff  :      250.00
  volume of cell :      173.87
      direct lattice vectors                 reciprocal lattice vectors
     2.573868684  0.000000000  0.000000000     0.388520209 -0.224312248  0.000000000
     1.286934342  2.229035666  0.000000000     0.000000000  0.448624495  0.000000000
     0.000000000  0.000000000 30.304664940     0.000000000  0.000000000  0.032998220

  length of vectors
     2.573868684  2.573868684 30.304664940     0.448624495  0.448624495  0.032998220


 FORCES acting on ions
    electron-ion (+dipol)            ewald-force                    non-local-force                 convergence-correction
 -----------------------------------------------------------------------------------------------
   -.249E-03 -.341E-01 0.422E+04   0.458E-12 -.143E-01 -.422E+04   -.347E-17 0.553E-01 -.136E+01   -.748E-07 -.736E-03 0.221E-01
   -.500E-04 -.133E+00 0.149E+04   -.601E-12 0.837E-01 -.149E+04   -.347E-17 0.565E-01 -.749E+00   -.128E-06 -.522E-03 0.279E-01
   0.524E-04 0.382E+00 -.125E+04   -.375E-12 -.289E+00 0.125E+04   0.000E+00 -.802E-01 0.895E-01   -.317E-06 -.154E-02 0.193E-01
   0.205E-03 -.284E-01 -.398E+04   0.167E-11 0.108E+00 0.398E+04   -.104E-16 -.958E-01 -.533E+00   0.341E-06 0.205E-02 0.400E-02
   0.132E-04 -.121E+00 -.482E+03   -.131E-11 0.112E+00 0.483E+03   0.705E-18 -.149E-02 -.156E+01   0.630E-07 0.285E-04 -.163E-02
 -----------------------------------------------------------------------------------------------
   -.282E-04 0.655E-01 0.406E+01   -.150E-12 0.336E-13 0.227E-12   -.166E-16 -.657E-01 -.411E+01   -.115E-06 -.719E-03 0.716E-01
 
 
 POSITION                                       TOTAL-FORCE (eV/Angst)
 -----------------------------------------------------------------------------------
      0.00000      0.00131     12.01783         0.000000      0.006338      0.047168
      1.28693      0.74366     14.09590         0.000000      0.006326     -0.034491
      2.57387      1.48976     16.17040         0.000000      0.012137     -0.023274
      0.00000     -0.00357     18.31056        -0.000000     -0.014418     -0.013103
      1.28693     -0.00213     19.31931        -0.000000     -0.010383      0.023700
 -----------------------------------------------------------------------------------
    total drift:                               -0.000028     -0.000962      0.020429


--------------------------------------------------------------------------------------------------------



  FREE ENERGIE OF THE ION-ELECTRON SYSTEM (eV)
  ---------------------------------------------------
  free  energy   TOTEN  =       -17.04848526 eV

  energy  without entropy=      -17.00256537  energy(sigma->0) =      -17.02552532
 
 d Force = 0.3583765E-02[ 0.149E-02, 0.567E-02]  d Energy = 0.3665638E-02-0.819E-04
 d Force =-0.5419007E+02[-0.543E+02,-0.541E+02]  d Ewald  =-0.5419006E+02-0.871E-05


--------------------------------------------------------------------------------------------------------


    POTLOK:  cpu time    0.0150: real time    0.0142


--------------------------------------------------------------------------------------------------------


 Quasi-Newton relaxation of ions (Broydens 2nd method)
  g(Force)  = 0.252E-03   g(Stress)= 0.000E+00

 retain information from N=  1 steps
 eigenvalues of (default step * inverse Hessian matrix)
  average eigenvalue of G=   4.9787
 eigenvalue spectrum of G is  4.9787


--------------------------------------------------------------------------------------------------------


  
 reached required accuracy - stopping structural energy minimisation
     LOOP+:  cpu time    2.8366: real time    2.8647
    4ORBIT:  cpu time    0.0000: real time    0.0000

 total amount of memory used by VASP MPI-rank0    39171. kBytes
=======================================================================

   base      :      30000. kBytes
   nonlr-proj:        678. kBytes
   fftplans  :        995. kBytes
   grid      :       1592. kBytes
   one-center:         46. kBytes
   wavefun   :       5860. kBytes
 
  
  
 General timing and accounting informations for this job:
 ========================================================
  
                  Total CPU time used (sec):       19.100
                            User time (sec):       18.894
                          System time (sec):        0.206
                         Elapsed time (sec):       19.562
  
                   Maximum memory used (kb):       40008.
                   Average memory used (kb):           0.
  
                          Minor page faults:        18979
                          Major page faults:          147
                 Voluntary context switches:         2944
