<?xml version="1.0" encoding="ISO-8859-1"?>
<modeling>
 <generator>
  <i name="program" type="string">vasp </i>
  <i name="version" type="string">5.4.4.18Apr17-6-g9f103f2a35  </i>
  <i name="subversion" type="string">(build Jun 30 2017 11:15:00) complex            parallel </i>
  <i name="platform" type="string">STALLO_VASP_5.4.4 </i>
  <i name="date" type="string">2019 10 11 </i>
  <i name="time" type="string">09:39:30 </i>
 </generator>
 <incar>
  <i type="string" name="PREC">normal    ! low/normal/accurate</i>
  <i type="string" name="ALGO"> Fast      ! Algorithm for electronic re</i>
  <i type="int" name="ISPIN">     1</i>
  <i type="int" name="MAXMIX">    80</i>
  <i type="int" name="NELMIN">     4</i>
  <i type="int" name="IBRION">     1</i>
  <i name="EDIFF">      0.00001000</i>
  <i name="EDIFFG">     -0.05000000</i>
  <i type="int" name="NSW">    50</i>
  <i type="int" name="ISIF">     2</i>
  <i name="ENCUT">    250.00000000</i>
  <i type="string" name="LREAL"> Auto      ! Projection in reciprocal sp</i>
  <i type="int" name="ISMEAR">     0</i>
  <i name="SIGMA">      0.20000000</i>
  <i type="logical" name="LWAVE"> F  </i>
  <v type="int" name="KPOINT_BSE">    -1     0     0     0</v>
 </incar>
 <structure name="primitive_cell" >
  <crystal>
   <varray name="basis" >
    <v>       2.57386868       0.00000000       0.00000000 </v>
    <v>       1.28693434       2.22903567       0.00000000 </v>
    <v>       0.00000000       0.00000000      30.30466494 </v>
   </varray>
   <i name="volume">    173.86529028 </i>
   <varray name="rec_basis" >
    <v>       0.38852021      -0.22431225       0.00000000 </v>
    <v>       0.00000000       0.44862450       0.00000000 </v>
    <v>       0.00000000       0.00000000       0.03299822 </v>
   </varray>
  </crystal>
  <varray name="positions" >
   <v>       0.00000000       0.00000000       0.39597864 </v>
   <v>       0.33333333       0.33333333       0.46532621 </v>
   <v>      -0.33333333      -0.33333333      -0.46532621 </v>
   <v>       0.00000000       0.00000000      -0.39597864 </v>
   <v>      -0.50000000       0.00000000      -0.36298042 </v>
  </varray>
 </structure>
 <varray name="primitive_index" >
  <v type="int" >        1 </v>
  <v type="int" >        2 </v>
  <v type="int" >        3 </v>
  <v type="int" >        4 </v>
  <v type="int" >        5 </v>
 </varray>
 <kpoints>
  <generation param="Gamma">
   <v type="int" name="divisions">      10       10        1 </v>
   <v name="usershift">      0.00000000       0.00000000       0.00000000 </v>
   <v name="genvec1">      0.10000000       0.00000000       0.00000000 </v>
   <v name="genvec2">      0.00000000       0.10000000       0.00000000 </v>
   <v name="genvec3">      0.00000000       0.00000000       1.00000000 </v>
   <v name="shift">      0.00000000       0.00000000       0.00000000 </v>
  </generation>
  <varray name="kpointlist" >
   <v>       0.00000000       0.00000000       0.00000000 </v>
   <v>       0.10000000       0.00000000       0.00000000 </v>
   <v>       0.20000000      -0.00000000       0.00000000 </v>
   <v>       0.30000000      -0.00000000       0.00000000 </v>
   <v>       0.40000000      -0.00000000       0.00000000 </v>
   <v>       0.50000000      -0.00000000       0.00000000 </v>
   <v>       0.00000000       0.10000000       0.00000000 </v>
   <v>       0.20000000       0.10000000       0.00000000 </v>
   <v>       0.30000000       0.10000000       0.00000000 </v>
   <v>       0.40000000       0.10000000       0.00000000 </v>
   <v>       0.50000000       0.10000000       0.00000000 </v>
   <v>      -0.40000000       0.10000000       0.00000000 </v>
   <v>      -0.30000000       0.10000000       0.00000000 </v>
   <v>      -0.20000000       0.10000000       0.00000000 </v>
   <v>      -0.10000000       0.10000000       0.00000000 </v>
   <v>       0.00000000       0.20000000       0.00000000 </v>
   <v>       0.40000000       0.20000000       0.00000000 </v>
   <v>       0.50000000       0.20000000       0.00000000 </v>
   <v>      -0.40000000       0.20000000       0.00000000 </v>
   <v>      -0.30000000       0.20000000       0.00000000 </v>
   <v>      -0.20000000       0.20000000       0.00000000 </v>
   <v>      -0.10000000       0.20000000       0.00000000 </v>
   <v>       0.00000000       0.30000000       0.00000000 </v>
   <v>      -0.40000000       0.30000000       0.00000000 </v>
   <v>      -0.30000000       0.30000000       0.00000000 </v>
   <v>      -0.20000000       0.30000000       0.00000000 </v>
   <v>      -0.10000000       0.30000000       0.00000000 </v>
   <v>       0.00000000       0.40000000       0.00000000 </v>
   <v>      -0.20000000       0.40000000       0.00000000 </v>
   <v>      -0.10000000       0.40000000       0.00000000 </v>
   <v>       0.00000000       0.50000000       0.00000000 </v>
  </varray>
  <varray name="weights" >
   <v>       0.01000000 </v>
   <v>       0.04000000 </v>
   <v>       0.04000000 </v>
   <v>       0.04000000 </v>
   <v>       0.04000000 </v>
   <v>       0.02000000 </v>
   <v>       0.02000000 </v>
   <v>       0.02000000 </v>
   <v>       0.04000000 </v>
   <v>       0.04000000 </v>
   <v>       0.04000000 </v>
   <v>       0.04000000 </v>
   <v>       0.04000000 </v>
   <v>       0.04000000 </v>
   <v>       0.04000000 </v>
   <v>       0.02000000 </v>
   <v>       0.02000000 </v>
   <v>       0.04000000 </v>
   <v>       0.04000000 </v>
   <v>       0.04000000 </v>
   <v>       0.04000000 </v>
   <v>       0.04000000 </v>
   <v>       0.02000000 </v>
   <v>       0.02000000 </v>
   <v>       0.04000000 </v>
   <v>       0.04000000 </v>
   <v>       0.04000000 </v>
   <v>       0.02000000 </v>
   <v>       0.02000000 </v>
   <v>       0.04000000 </v>
   <v>       0.01000000 </v>
  </varray>
 </kpoints>
 <parameters>
  <separator name="general" >
   <i type="string" name="SYSTEM">unknown system</i>
   <i type="logical" name="LCOMPAT"> F  </i>
  </separator>
  <separator name="electronic" >
   <i type="string" name="PREC">normal</i>
   <i name="ENMAX">    250.00000000</i>
   <i name="ENAUG">    516.45600000</i>
   <i name="EDIFF">      0.00001000</i>
   <i type="int" name="IALGO">    68</i>
   <i type="int" name="IWAVPR">    11</i>
   <i type="int" name="NBANDS">    28</i>
   <i name="NELECT">     45.00000000</i>
   <i type="int" name="TURBO">     0</i>
   <i type="int" name="IRESTART">     0</i>
   <i type="int" name="NREBOOT">     0</i>
   <i type="int" name="NMIN">     0</i>
   <i name="EREF">      0.00000000</i>
   <separator name="electronic smearing" >
    <i type="int" name="ISMEAR">     0</i>
    <i name="SIGMA">      0.20000000</i>
    <i name="KSPACING">      0.50000000</i>
    <i type="logical" name="KGAMMA"> T  </i>
   </separator>
   <separator name="electronic projectors" >
    <i type="logical" name="LREAL"> T  </i>
    <v name="ROPT">     -0.00050000     -0.00050000</v>
    <i type="int" name="LMAXPAW">  -100</i>
    <i type="int" name="LMAXMIX">     2</i>
    <i type="logical" name="NLSPLINE"> F  </i>
   </separator>
   <separator name="electronic startup" >
    <i type="int" name="ISTART">     0</i>
    <i type="int" name="ICHARG">     2</i>
    <i type="int" name="INIWAV">     1</i>
   </separator>
   <separator name="electronic spin" >
    <i type="int" name="ISPIN">     1</i>
    <i type="logical" name="LNONCOLLINEAR"> F  </i>
    <v name="MAGMOM">      1.00000000      1.00000000      1.00000000      1.00000000      1.00000000</v>
    <i name="NUPDOWN">     -1.00000000</i>
    <i type="logical" name="LSORBIT"> F  </i>
    <v name="SAXIS">      0.00000000      0.00000000      1.00000000</v>
    <i type="logical" name="LSPIRAL"> F  </i>
    <v name="QSPIRAL">      0.00000000      0.00000000      0.00000000</v>
    <i type="logical" name="LZEROZ"> F  </i>
   </separator>
   <separator name="electronic exchange-correlation" >
    <i type="logical" name="LASPH"> F  </i>
    <i type="logical" name="LMETAGGA"> F  </i>
   </separator>
   <separator name="electronic convergence" >
    <i type="int" name="NELM">    60</i>
    <i type="int" name="NELMDL">    -5</i>
    <i type="int" name="NELMIN">     4</i>
    <i name="ENINI">    250.00000000</i>
    <separator name="electronic convergence detail" >
     <i type="logical" name="LDIAG"> T  </i>
     <i type="logical" name="LSUBROT"> F  </i>
     <i name="WEIMIN">      0.00100000</i>
     <i name="EBREAK">      0.00000009</i>
     <i name="DEPER">      0.30000000</i>
     <i type="int" name="NRMM">     4</i>
     <i name="TIME">      0.40000000</i>
    </separator>
   </separator>
   <separator name="electronic mixer" >
    <i name="AMIX">      0.40000000</i>
    <i name="BMIX">      1.00000000</i>
    <i name="AMIN">      0.10000000</i>
    <i name="AMIX_MAG">      1.60000000</i>
    <i name="BMIX_MAG">      1.00000000</i>
    <separator name="electronic mixer details" >
     <i type="int" name="IMIX">     4</i>
     <i type="logical" name="MIXFIRST"> F  </i>
     <i type="int" name="MAXMIX">    80</i>
     <i name="WC">    100.00000000</i>
     <i type="int" name="INIMIX">     1</i>
     <i type="int" name="MIXPRE">     1</i>
     <i type="int" name="MREMOVE">     5</i>
    </separator>
   </separator>
   <separator name="electronic dipolcorrection" >
    <i type="logical" name="LDIPOL"> F  </i>
    <i type="logical" name="LMONO"> F  </i>
    <i type="int" name="IDIPOL">     0</i>
    <i name="EPSILON">      1.00000000</i>
    <v name="DIPOL">   -100.00000000   -100.00000000   -100.00000000</v>
    <i name="EFIELD">      0.00000000</i>
   </separator>
  </separator>
  <separator name="grids" >
   <i type="int" name="NGX">    10</i>
   <i type="int" name="NGY">    10</i>
   <i type="int" name="NGZ">   120</i>
   <i type="int" name="NGXF">    20</i>
   <i type="int" name="NGYF">    20</i>
   <i type="int" name="NGZF">   240</i>
   <i type="logical" name="ADDGRID"> F  </i>
  </separator>
  <separator name="ionic" >
   <i type="int" name="NSW">    50</i>
   <i type="int" name="IBRION">     1</i>
   <i type="int" name="MDALGO">     0</i>
   <i type="int" name="ISIF">     2</i>
   <i name="PSTRESS">      0.00000000</i>
   <i name="EDIFFG">     -0.05000000</i>
   <i type="int" name="NFREE">     0</i>
   <i name="POTIM">      0.50000000</i>
   <i name="SMASS">     -3.00000000</i>
   <i name="SCALEE">      1.00000000</i>
  </separator>
  <separator name="ionic md" >
   <i name="TEBEG">      0.00010000</i>
   <i name="TEEND">      0.00010000</i>
   <i type="int" name="NBLOCK">     1</i>
   <i type="int" name="KBLOCK">    50</i>
   <i type="int" name="NPACO">   256</i>
   <i name="APACO">     16.00000000</i>
  </separator>
  <separator name="symmetry" >
   <i type="int" name="ISYM">     2</i>
   <i name="SYMPREC">      0.00001000</i>
  </separator>
  <separator name="dos" >
   <i type="int" name="LORBIT">     0</i>
   <v name="RWIGS">     -1.00000000     -1.00000000</v>
   <i type="int" name="NEDOS">   301</i>
   <i name="EMIN">     10.00000000</i>
   <i name="EMAX">    -10.00000000</i>
   <i name="EFERMI">      0.00000000</i>
  </separator>
  <separator name="writing" >
   <i type="int" name="NWRITE">     2</i>
   <i type="logical" name="LWAVE"> F  </i>
   <i type="logical" name="LDOWNSAMPLE"> F  </i>
   <i type="logical" name="LCHARG"> T  </i>
   <i type="logical" name="LPARD"> F  </i>
   <i type="logical" name="LVTOT"> F  </i>
   <i type="logical" name="LVHAR"> F  </i>
   <i type="logical" name="LELF"> F  </i>
   <i type="logical" name="LOPTICS"> F  </i>
   <v name="STM">      0.00000000      0.00000000      0.00000000      0.00000000      0.00000000      0.00000000      0.00000000</v>
  </separator>
  <separator name="performance" >
   <i type="int" name="NPAR">     2</i>
   <i type="int" name="NSIM">     4</i>
   <i type="int" name="NBLK">    -1</i>
   <i type="logical" name="LPLANE"> T  </i>
   <i type="logical" name="LSCALAPACK"> T  </i>
   <i type="logical" name="LSCAAWARE"> F  </i>
   <i type="logical" name="LSCALU"> F  </i>
   <i type="logical" name="LASYNC"> F  </i>
   <i type="logical" name="LORBITALREAL"> F  </i>
  </separator>
  <separator name="miscellaneous" >
   <i type="int" name="IDIOT">     3</i>
   <i type="int" name="ISPECIAL">     0</i>
   <i type="logical" name="LMUSIC"> F  </i>
   <v name="POMASS">     63.54600000      1.00000000</v>
   <v name="DARWINR">      0.00000000      0.00000000</v>
   <v name="DARWINV">      1.00000000      1.00000000</v>
   <i type="logical" name="LCORR"> T  </i>
  </separator>
  <i type="logical" name="GGA_COMPAT"> T  </i>
  <i type="logical" name="LBERRY"> F  </i>
  <i type="int" name="ICORELEVEL">     0</i>
  <i type="logical" name="LDAU"> F  </i>
  <i type="int" name="I_CONSTRAINED_M">     0</i>
  <separator name="electronic exchange-correlation" >
   <i type="string" name="GGA">--</i>
   <i type="int" name="VOSKOWN">     0</i>
   <i type="logical" name="LHFCALC"> F  </i>
   <i type="string" name="PRECFOCK"></i>
   <i type="logical" name="LSYMGRAD"> F  </i>
   <i type="logical" name="LHFONE"> F  </i>
   <i type="logical" name="LRHFCALC"> F  </i>
   <i type="logical" name="LTHOMAS"> F  </i>
   <i type="logical" name="LMODELHF"> F  </i>
   <i name="ENCUT4O">     -1.00000000</i>
   <i type="int" name="EXXOEP">     0</i>
   <i type="int" name="FOURORBIT">     0</i>
   <i name="AEXX">      0.00000000</i>
   <i name="HFALPHA">      0.00000000</i>
   <i name="MCALPHA">      0.00000000</i>
   <i name="ALDAX">      1.00000000</i>
   <i name="AGGAX">      1.00000000</i>
   <i name="ALDAC">      1.00000000</i>
   <i name="AGGAC">      1.00000000</i>
   <i type="int" name="NKREDX">     1</i>
   <i type="int" name="NKREDY">     1</i>
   <i type="int" name="NKREDZ">     1</i>
   <i type="logical" name="SHIFTRED"> F  </i>
   <i type="logical" name="ODDONLY"> F  </i>
   <i type="logical" name="EVENONLY"> F  </i>
   <i type="int" name="LMAXFOCK">     0</i>
   <i type="int" name="NMAXFOCKAE">     0</i>
   <i type="logical" name="LFOCKAEDFT"> F  </i>
   <i name="HFSCREEN">      0.00000000</i>
   <i name="HFSCREENC">      0.00000000</i>
   <i type="int" name="NBANDSGWLOW">     0</i>
  </separator>
  <separator name="vdW DFT" >
   <i type="logical" name="LUSE_VDW"> F  </i>
   <i name="Zab_VDW">     -0.84910000</i>
   <i name="PARAM1">      0.12340000</i>
   <i name="PARAM2">      1.00000000</i>
   <i name="PARAM3">      0.00000000</i>
  </separator>
  <separator name="model GW" >
   <i type="int" name="MODEL_GW">     0</i>
   <i name="MODEL_EPS0">     20.86383483</i>
   <i name="MODEL_ALPHA">      1.00000000</i>
  </separator>
  <separator name="linear response parameters" >
   <i type="logical" name="LEPSILON"> F  </i>
   <i type="logical" name="LRPA"> F  </i>
   <i type="logical" name="LNABLA"> F  </i>
   <i type="logical" name="LVEL"> F  </i>
   <i type="int" name="KINTER">     0</i>
   <i name="CSHIFT">      0.10000000</i>
   <i name="OMEGAMAX">     -1.00000000</i>
   <i name="DEG_THRESHOLD">      0.00200000</i>
   <i name="RTIME">     -0.10000000</i>
   <i name="WPLASMAI">      0.00000000</i>
   <v name="DFIELD">      0.00000000      0.00000000      0.00000000</v>
   <v name="WPLASMA">      0.00000000      0.00000000      0.00000000      0.00000000      0.00000000      0.00000000      0.00000000      0.00000000      0.00000000</v>
  </separator>
  <separator name="orbital magnetization" >
   <i type="logical" name="NUCIND"> F  </i>
   <v name="MAGPOS">      0.00000000      0.00000000      0.00000000</v>
   <i type="logical" name="LNICSALL"> T  </i>
   <i type="logical" name="ORBITALMAG"> F  </i>
   <i type="logical" name="LMAGBLOCH"> F  </i>
   <i type="logical" name="LCHIMAG"> F  </i>
   <i type="logical" name="LGAUGE"> T  </i>
   <i type="int" name="MAGATOM">     0</i>
   <v name="MAGDIPOL">      0.00000000      0.00000000      0.00000000</v>
   <v name="AVECCONST">      0.00000000      0.00000000      0.00000000</v>
  </separator>
  <separator name="response functions" >
   <i type="logical" name="LADDER"> F  </i>
   <i type="logical" name="LRPAFORCE"> F  </i>
   <i type="logical" name="LFXC"> F  </i>
   <i type="logical" name="LHARTREE"> T  </i>
   <i type="int" name="IBSE">     0</i>
   <v type="int" name="KPOINT">    -1     0     0     0</v>
   <i type="logical" name="LTCTE"> F  </i>
   <i type="logical" name="LTETE"> F  </i>
   <i type="logical" name="LTRIPLET"> F  </i>
   <i type="logical" name="LFXCEPS"> F  </i>
   <i type="logical" name="LFXHEG"> F  </i>
   <i type="int" name="NATURALO">     2</i>
   <i type="logical" name="L2ORDER"> F  </i>
   <i type="logical" name="LMP2LT"> F  </i>
   <i type="logical" name="LUSEW"> F  </i>
   <i name="ENCUTGW">     -2.00000000</i>
   <i name="ENCUTGWSOFT">     -2.00000000</i>
   <i name="ENCUTLF">     -1.00000000</i>
   <i type="int" name="LMAXMP2">    -1</i>
   <i name="SCISSOR">      0.00000000</i>
   <i type="int" name="NOMEGA">     0</i>
   <i type="int" name="NOMEGAR">     0</i>
   <i type="int" name="NBANDSGW">    -1</i>
   <i type="int" name="NBANDSO">    -1</i>
   <i type="int" name="NBANDSV">    -1</i>
   <i type="int" name="NELM">     1</i>
   <i type="int" name="NELMHF">     1</i>
   <i type="int" name="DIM">     3</i>
   <i type="int" name="ANTIRES">     0</i>
   <i name="OMEGAMAX">    -30.00000000</i>
   <i name="OMEGAMIN">    -30.00000000</i>
   <i name="OMEGATL">   -200.00000000</i>
   <i type="int" name="OMEGAGRID">   140</i>
   <i name="CSHIFT">     -0.10000000</i>
   <i type="logical" name="SELFENERGY"> F  </i>
   <i type="logical" name="LSPECTRAL"> F  </i>
   <i type="logical" name="LSPECTRALGW"> F  </i>
   <i type="logical" name="LSINGLES"> F  </i>
   <i type="logical" name="LFERMIGW"> F  </i>
   <i type="logical" name="ODDONLYGW"> F  </i>
   <i type="logical" name="EVENONLYGW"> F  </i>
   <i type="int" name="NKREDLFX">     1</i>
   <i type="int" name="NKREDLFY">     1</i>
   <i type="int" name="NKREDLFZ">     1</i>
   <i type="int" name="MAXMEM">  2800</i>
   <i type="int" name="TELESCOPE">     0</i>
   <i type="int" name="TAUPAR">     1</i>
   <i type="int" name="OMEGAPAR">    -1</i>
   <i name="LAMBDA">      1.00000000</i>
  </separator>
  <separator name="External order field" >
   <i name="OFIELD_KAPPA">      0.00000000</i>
   <v name="OFIELD_K">      0.00000000      0.00000000      0.00000000</v>
   <i name="OFIELD_Q6_NEAR">      0.00000000</i>
   <i name="OFIELD_Q6_FAR">      0.00000000</i>
   <i name="OFIELD_A">      0.00000000</i>
  </separator>
 </parameters>
 <atominfo>
  <atoms>       5 </atoms>
  <types>       2 </types>
  <array name="atoms" >
   <dimension dim="1">ion</dimension>
   <field type="string">element</field>
   <field type="int">atomtype</field>
   <set>
    <rc><c>Cu</c><c>   1</c></rc>
    <rc><c>Cu</c><c>   1</c></rc>
    <rc><c>Cu</c><c>   1</c></rc>
    <rc><c>Cu</c><c>   1</c></rc>
    <rc><c>H </c><c>   2</c></rc>
   </set>
  </array>
  <array name="atomtypes" >
   <dimension dim="1">type</dimension>
   <field type="int">atomspertype</field>
   <field type="string">element</field>
   <field>mass</field>
   <field>valence</field>
   <field type="string">pseudopotential</field>
   <set>
    <rc><c>   4</c><c>Cu</c><c>     63.54600000</c><c>     11.00000000</c><c> PAW_PBE Cu 05Jan2001                   </c></rc>
    <rc><c>   1</c><c>H </c><c>      1.00000000</c><c>      1.00000000</c><c> PAW_PBE H 15Jun2001                    </c></rc>
   </set>
  </array>
 </atominfo>
 <structure name="initialpos" >
  <crystal>
   <varray name="basis" >
    <v>       2.57386868       0.00000000       0.00000000 </v>
    <v>       1.28693434       2.22903567       0.00000000 </v>
    <v>       0.00000000       0.00000000      30.30466494 </v>
   </varray>
   <i name="volume">    173.86529028 </i>
   <varray name="rec_basis" >
    <v>       0.38852021      -0.22431225       0.00000000 </v>
    <v>       0.00000000       0.44862450       0.00000000 </v>
    <v>       0.00000000       0.00000000       0.03299822 </v>
   </varray>
  </crystal>
  <varray name="positions" >
   <v>       0.00000000       0.00000000       0.39597864 </v>
   <v>       0.33333333       0.33333333       0.46532621 </v>
   <v>       0.66666667       0.66666667       0.53467379 </v>
   <v>       0.00000000       0.00000000       0.60402136 </v>
   <v>       0.50000000       0.00000000       0.63701958 </v>
  </varray>
 </structure>
 <calculation>
  <scstep>
   <time name="dav">    0.61    0.62</time>
   <time name="total">    0.63    0.68</time>
   <energy>
    <i name="alphaZ">    120.87645803 </i>
    <i name="ewald">  38007.35946576 </i>
    <i name="hartreedc"> -43128.03042293 </i>
    <i name="XCdc">    177.43255702 </i>
    <i name="pawpsdc">   4328.99049516 </i>
    <i name="pawaedc">  -4905.09836044 </i>
    <i name="eentropy">     -0.03203831 </i>
    <i name="bandstr">     17.26753250 </i>
    <i name="atom">   5575.94961827 </i>
    <i name="e_fr_energy">    194.71530505 </i>
    <i name="e_wo_entrp">    194.74734337 </i>
    <i name="e_0_energy">    194.73132421 </i>
   </energy>
  </scstep>
  <scstep>
   <time name="dav">    0.61    0.61</time>
   <time name="total">    0.61    0.61</time>
   <energy>
    <i name="e_fr_energy">    -11.13013525 </i>
    <i name="e_wo_entrp">    -11.08569477 </i>
    <i name="e_0_energy">    -11.10791501 </i>
   </energy>
  </scstep>
  <scstep>
   <time name="dav">    0.63    0.63</time>
   <time name="total">    0.64    0.64</time>
   <energy>
    <i name="e_fr_energy">    -20.93370251 </i>
    <i name="e_wo_entrp">    -20.89013068 </i>
    <i name="e_0_energy">    -20.91191660 </i>
   </energy>
  </scstep>
  <scstep>
   <time name="dav">    0.63    0.63</time>
   <time name="total">    0.63    0.63</time>
   <energy>
    <i name="e_fr_energy">    -21.03444892 </i>
    <i name="e_wo_entrp">    -20.99078270 </i>
    <i name="e_0_energy">    -21.01261581 </i>
   </energy>
  </scstep>
  <scstep>
   <time name="dav">    0.66    0.66</time>
   <time name="total">    0.69    0.69</time>
   <energy>
    <i name="e_fr_energy">    -21.03562303 </i>
    <i name="e_wo_entrp">    -20.99195473 </i>
    <i name="e_0_energy">    -21.01378888 </i>
   </energy>
  </scstep>
  <scstep>
   <time name="diag">    0.12    0.12</time>
   <time name="diis">    0.33    0.33</time>
   <time name="orth">    0.02    0.02</time>
   <time name="total">    0.52    0.52</time>
   <energy>
    <i name="e_fr_energy">    -18.94125830 </i>
    <i name="e_wo_entrp">    -18.91454318 </i>
    <i name="e_0_energy">    -18.92790074 </i>
   </energy>
  </scstep>
  <scstep>
   <time name="diag">    0.12    0.12</time>
   <time name="diis">    0.33    0.33</time>
   <time name="orth">    0.02    0.02</time>
   <time name="total">    0.52    0.52</time>
   <energy>
    <i name="e_fr_energy">    -17.12144797 </i>
    <i name="e_wo_entrp">    -17.07686540 </i>
    <i name="e_0_energy">    -17.09915669 </i>
   </energy>
  </scstep>
  <scstep>
   <time name="diag">    0.12    0.12</time>
   <time name="diis">    0.33    0.33</time>
   <time name="orth">    0.02    0.02</time>
   <time name="total">    0.52    0.52</time>
   <energy>
    <i name="e_fr_energy">    -17.16884752 </i>
    <i name="e_wo_entrp">    -17.13020263 </i>
    <i name="e_0_energy">    -17.14952507 </i>
   </energy>
  </scstep>
  <scstep>
   <time name="diag">    0.12    0.12</time>
   <time name="diis">    0.32    0.33</time>
   <time name="orth">    0.02    0.02</time>
   <time name="total">    0.52    0.52</time>
   <energy>
    <i name="e_fr_energy">    -17.05556262 </i>
    <i name="e_wo_entrp">    -17.01012155 </i>
    <i name="e_0_energy">    -17.03284208 </i>
   </energy>
  </scstep>
  <scstep>
   <time name="diag">    0.12    0.12</time>
   <time name="diis">    0.33    0.33</time>
   <time name="orth">    0.02    0.02</time>
   <time name="total">    0.52    0.52</time>
   <energy>
    <i name="e_fr_energy">    -17.04627057 </i>
    <i name="e_wo_entrp">    -16.99915748 </i>
    <i name="e_0_energy">    -17.02271403 </i>
   </energy>
  </scstep>
  <scstep>
   <time name="diag">    0.12    0.12</time>
   <time name="diis">    0.32    0.32</time>
   <time name="orth">    0.02    0.02</time>
   <time name="total">    0.51    0.52</time>
   <energy>
    <i name="e_fr_energy">    -17.04119447 </i>
    <i name="e_wo_entrp">    -16.99453304 </i>
    <i name="e_0_energy">    -17.01786375 </i>
   </energy>
  </scstep>
  <scstep>
   <time name="diag">    0.12    0.12</time>
   <time name="diis">    0.33    0.33</time>
   <time name="orth">    0.02    0.02</time>
   <time name="total">    0.52    0.52</time>
   <energy>
    <i name="e_fr_energy">    -17.04053888 </i>
    <i name="e_wo_entrp">    -16.99368886 </i>
    <i name="e_0_energy">    -17.01711387 </i>
   </energy>
  </scstep>
  <scstep>
   <time name="diag">    0.12    0.12</time>
   <time name="diis">    0.32    0.32</time>
   <time name="orth">    0.02    0.02</time>
   <time name="total">    0.51    0.52</time>
   <energy>
    <i name="e_fr_energy">    -17.04012229 </i>
    <i name="e_wo_entrp">    -16.99324705 </i>
    <i name="e_0_energy">    -17.01668467 </i>
   </energy>
  </scstep>
  <scstep>
   <time name="diag">    0.12    0.12</time>
   <time name="diis">    0.32    0.33</time>
   <time name="orth">    0.02    0.02</time>
   <time name="total">    0.52    0.52</time>
   <energy>
    <i name="e_fr_energy">    -17.04014852 </i>
    <i name="e_wo_entrp">    -16.99337035 </i>
    <i name="e_0_energy">    -17.01675944 </i>
   </energy>
  </scstep>
  <scstep>
   <time name="diag">    0.12    0.12</time>
   <time name="diis">    0.30    0.30</time>
   <time name="orth">    0.02    0.02</time>
   <time name="total">    0.49    0.49</time>
   <energy>
    <i name="e_fr_energy">    -17.04029472 </i>
    <i name="e_wo_entrp">    -16.99328637 </i>
    <i name="e_0_energy">    -17.01679055 </i>
   </energy>
  </scstep>
  <scstep>
   <time name="diag">    0.12    0.12</time>
   <time name="diis">    0.24    0.24</time>
   <time name="orth">    0.02    0.02</time>
   <time name="total">    0.43    0.44</time>
   <energy>
    <i name="e_fr_energy">    -17.04053909 </i>
    <i name="e_wo_entrp">    -16.99346937 </i>
    <i name="e_0_energy">    -17.01700423 </i>
   </energy>
  </scstep>
  <scstep>
   <time name="diag">    0.12    0.12</time>
   <time name="diis">    0.24    0.24</time>
   <time name="orth">    0.02    0.02</time>
   <time name="total">    0.43    0.43</time>
   <energy>
    <i name="e_fr_energy">    -17.04068090 </i>
    <i name="e_wo_entrp">    -16.99358635 </i>
    <i name="e_0_energy">    -17.01713363 </i>
   </energy>
  </scstep>
  <scstep>
   <time name="diag">    0.12    0.12</time>
   <time name="diis">    0.21    0.21</time>
   <time name="orth">    0.02    0.02</time>
   <time name="total">    0.40    0.40</time>
   <energy>
    <i name="e_fr_energy">    -17.04074979 </i>
    <i name="e_wo_entrp">    -16.99365966 </i>
    <i name="e_0_energy">    -17.01720472 </i>
   </energy>
  </scstep>
  <scstep>
   <time name="diag">    0.12    0.12</time>
   <time name="diis">    0.20    0.20</time>
   <time name="orth">    0.02    0.02</time>
   <time name="total">    0.39    0.39</time>
   <energy>
    <i name="e_fr_energy">    -17.04079170 </i>
    <i name="e_wo_entrp">    -16.99369480 </i>
    <i name="e_0_energy">    -17.01724325 </i>
   </energy>
  </scstep>
  <scstep>
   <time name="diag">    0.12    0.12</time>
   <time name="diis">    0.19    0.19</time>
   <time name="orth">    0.02    0.02</time>
   <time name="total">    0.38    0.38</time>
   <energy>
    <i name="e_fr_energy">    -17.04081252 </i>
    <i name="e_wo_entrp">    -16.99371121 </i>
    <i name="e_0_energy">    -17.01726186 </i>
   </energy>
  </scstep>
  <scstep>
   <time name="diag">    0.12    0.12</time>
   <time name="diis">    0.16    0.16</time>
   <time name="orth">    0.02    0.02</time>
   <time name="total">    0.35    0.35</time>
   <energy>
    <i name="e_fr_energy">    -17.04082555 </i>
    <i name="e_wo_entrp">    -16.99372365 </i>
    <i name="e_0_energy">    -17.01727460 </i>
   </energy>
  </scstep>
  <scstep>
   <time name="diag">    0.12    0.12</time>
   <time name="diis">    0.14    0.14</time>
   <time name="orth">    0.01    0.02</time>
   <time name="total">    0.30    0.30</time>
   <energy>
    <i name="alphaZ">    120.87645803 </i>
    <i name="ewald">  38007.35946576 </i>
    <i name="hartreedc"> -43073.54155164 </i>
    <i name="XCdc">    173.38207178 </i>
    <i name="pawpsdc">   4395.25288316 </i>
    <i name="pawaedc">  -4971.14539356 </i>
    <i name="eentropy">     -0.04710144 </i>
    <i name="bandstr">   -245.12727913 </i>
    <i name="atom">   5575.94961827 </i>
    <i name="e_fr_energy">    -17.04082877 </i>
    <i name="e_wo_entrp">    -16.99372733 </i>
    <i name="e_0_energy">    -17.01727805 </i>
   </energy>
  </scstep>
  <structure>
   <crystal>
    <varray name="basis" >
     <v>       2.57386868       0.00000000       0.00000000 </v>
     <v>       1.28693434       2.22903567       0.00000000 </v>
     <v>       0.00000000       0.00000000      30.30466494 </v>
    </varray>
    <i name="volume">    173.86529028 </i>
    <varray name="rec_basis" >
     <v>       0.38852021      -0.22431225       0.00000000 </v>
     <v>       0.00000000       0.44862450       0.00000000 </v>
     <v>       0.00000000       0.00000000       0.03299822 </v>
    </varray>
   </crystal>
   <varray name="positions" >
    <v>       0.00000000       0.00000000       0.39597864 </v>
    <v>       0.33333333       0.33333333       0.46532621 </v>
    <v>       0.66666667       0.66666667       0.53467379 </v>
    <v>       0.00000000       0.00000000       0.60402136 </v>
    <v>       0.50000000       0.00000000       0.63701958 </v>
   </varray>
  </structure>
  <varray name="forces" >
   <v>       0.00000000       0.00727332       0.11607880 </v>
   <v>       0.00000000       0.00365469      -0.01909899 </v>
   <v>      -0.00000000       0.02450220      -0.26470725 </v>
   <v>       0.00000000      -0.02272470       0.06712806 </v>
   <v>       0.00000000      -0.01270551       0.10059938 </v>
  </varray>
  <varray name="stress" >
   <v>     -45.05964583       0.00000000       0.00000000 </v>
   <v>       0.00000000     -45.89018819      -1.20890249 </v>
   <v>       0.00000000      -1.21023321     -44.19322579 </v>
  </varray>
  <energy>
   <i name="e_fr_energy">    -17.04082877 </i>
   <i name="e_wo_entrp">    -17.01727805 </i>
   <i name="e_0_energy">     -0.04710144 </i>
  </energy>
  <time name="totalsc">   11.99   12.09</time>
 </calculation>
 <calculation>
  <scstep>
   <time name="dav">    0.61    0.61</time>
   <time name="total">    0.67    0.68</time>
   <energy>
    <i name="alphaZ">    120.87645803 </i>
    <i name="ewald">  38030.22176544 </i>
    <i name="hartreedc"> -43096.44390071 </i>
    <i name="XCdc">    173.38349940 </i>
    <i name="pawpsdc">   4395.25177106 </i>
    <i name="pawaedc">  -4971.14391027 </i>
    <i name="eentropy">     -0.04661369 </i>
    <i name="bandstr">   -245.09337703 </i>
    <i name="atom">   5575.94961827 </i>
    <i name="e_fr_energy">    -17.04468949 </i>
    <i name="e_wo_entrp">    -16.99807580 </i>
    <i name="e_0_energy">    -17.02138265 </i>
   </energy>
  </scstep>
  <scstep>
   <time name="diag">    0.12    0.12</time>
   <time name="diis">    0.33    0.33</time>
   <time name="orth">    0.02    0.02</time>
   <time name="total">    0.52    0.52</time>
   <energy>
    <i name="e_fr_energy">    -17.04489508 </i>
    <i name="e_wo_entrp">    -16.99820571 </i>
    <i name="e_0_energy">    -17.02155040 </i>
   </energy>
  </scstep>
  <scstep>
   <time name="diag">    0.12    0.12</time>
   <time name="diis">    0.33    0.33</time>
   <time name="orth">    0.02    0.02</time>
   <time name="total">    0.52    0.52</time>
   <energy>
    <i name="e_fr_energy">    -17.04482885 </i>
    <i name="e_wo_entrp">    -16.99817136 </i>
    <i name="e_0_energy">    -17.02150010 </i>
   </energy>
  </scstep>
  <scstep>
   <time name="diag">    0.12    0.12</time>
   <time name="diis">    0.23    0.23</time>
   <time name="orth">    0.01    0.02</time>
   <time name="total">    0.42    0.42</time>
   <energy>
    <i name="e_fr_energy">    -17.04481388 </i>
    <i name="e_wo_entrp">    -16.99812801 </i>
    <i name="e_0_energy">    -17.02147095 </i>
   </energy>
  </scstep>
  <scstep>
   <time name="diag">    0.12    0.12</time>
   <time name="diis">    0.19    0.19</time>
   <time name="orth">    0.01    0.02</time>
   <time name="total">    0.35    0.35</time>
   <energy>
    <i name="alphaZ">    120.87645803 </i>
    <i name="ewald">  38030.22176544 </i>
    <i name="hartreedc"> -43096.59762273 </i>
    <i name="XCdc">    173.38329064 </i>
    <i name="pawpsdc">   4395.38276407 </i>
    <i name="pawaedc">  -4971.27959212 </i>
    <i name="eentropy">     -0.04668783 </i>
    <i name="bandstr">   -244.93481341 </i>
    <i name="atom">   5575.94961827 </i>
    <i name="e_fr_energy">    -17.04481963 </i>
    <i name="e_wo_entrp">    -16.99813180 </i>
    <i name="e_0_energy">    -17.02147571 </i>
   </energy>
  </scstep>
  <structure>
   <crystal>
    <varray name="basis" >
     <v>       2.57386868       0.00000000       0.00000000 </v>
     <v>       1.28693434       2.22903567       0.00000000 </v>
     <v>       0.00000000       0.00000000      30.30466494 </v>
    </varray>
    <i name="volume">    173.86529028 </i>
    <varray name="rec_basis" >
     <v>       0.38852021      -0.22431225       0.00000000 </v>
     <v>       0.00000000       0.44862450       0.00000000 </v>
     <v>       0.00000000       0.00000000       0.03299822 </v>
    </varray>
   </crystal>
   <varray name="positions" >
    <v>      -0.00007871       0.00015742       0.39616343 </v>
    <v>       0.33329378       0.33341243       0.46529581 </v>
    <v>       0.66640152       0.66719696       0.53425239 </v>
    <v>       0.00024591      -0.00049183       0.60412822 </v>
    <v>       0.50013749      -0.00027498       0.63717973 </v>
   </varray>
  </structure>
  <varray name="forces" >
   <v>      -0.00000000       0.00788596       0.10078530 </v>
   <v>      -0.00000000       0.00392342      -0.03896913 </v>
   <v>      -0.00000000       0.02107844      -0.16430083 </v>
   <v>      -0.00000000      -0.02037589       0.02184396 </v>
   <v>       0.00000000      -0.01251194       0.08064070 </v>
  </varray>
  <varray name="stress" >
   <v>     -44.99426417       0.00000000       0.00000000 </v>
   <v>       0.00000000     -45.84936696      -1.16763702 </v>
   <v>       0.00000000      -1.16897222     -44.34849825 </v>
  </varray>
  <energy>
   <i name="e_fr_energy">    -17.04481963 </i>
   <i name="e_wo_entrp">    -17.02147571 </i>
   <i name="e_0_energy">     -0.04668783 </i>
  </energy>
  <time name="totalsc">    3.33    3.39</time>
 </calculation>
 <calculation>
  <scstep>
   <time name="dav">    0.58    0.58</time>
   <time name="total">    0.64    0.65</time>
   <energy>
    <i name="alphaZ">    120.87645803 </i>
    <i name="ewald">  38084.41182252 </i>
    <i name="hartreedc"> -43150.82766434 </i>
    <i name="XCdc">    173.39065326 </i>
    <i name="pawpsdc">   4395.37597251 </i>
    <i name="pawaedc">  -4971.27032958 </i>
    <i name="eentropy">     -0.04571137 </i>
    <i name="bandstr">   -244.90893974 </i>
    <i name="atom">   5575.94961827 </i>
    <i name="e_fr_energy">    -17.04812045 </i>
    <i name="e_wo_entrp">    -17.00240908 </i>
    <i name="e_0_energy">    -17.02526476 </i>
   </energy>
  </scstep>
  <scstep>
   <time name="diag">    0.12    0.12</time>
   <time name="diis">    0.33    0.33</time>
   <time name="orth">    0.02    0.02</time>
   <time name="total">    0.52    0.52</time>
   <energy>
    <i name="e_fr_energy">    -17.04841986 </i>
    <i name="e_wo_entrp">    -17.00250702 </i>
    <i name="e_0_energy">    -17.02546344 </i>
   </energy>
  </scstep>
  <scstep>
   <time name="diag">    0.12    0.12</time>
   <time name="diis">    0.33    0.33</time>
   <time name="orth">    0.02    0.02</time>
   <time name="total">    0.52    0.52</time>
   <energy>
    <i name="e_fr_energy">    -17.04847794 </i>
    <i name="e_wo_entrp">    -17.00258083 </i>
    <i name="e_0_energy">    -17.02552938 </i>
   </energy>
  </scstep>
  <scstep>
   <time name="diag">    0.12    0.12</time>
   <time name="diis">    0.22    0.22</time>
   <time name="orth">    0.02    0.02</time>
   <time name="total">    0.38    0.38</time>
   <energy>
    <i name="alphaZ">    120.87645803 </i>
    <i name="ewald">  38084.41182252 </i>
    <i name="hartreedc"> -43151.08360085 </i>
    <i name="XCdc">    173.38792503 </i>
    <i name="pawpsdc">   4395.83374197 </i>
    <i name="pawaedc">  -4971.74302074 </i>
    <i name="eentropy">     -0.04591989 </i>
    <i name="bandstr">   -244.63550961 </i>
    <i name="atom">   5575.94961827 </i>
    <i name="e_fr_energy">    -17.04848526 </i>
    <i name="e_wo_entrp">    -17.00256537 </i>
    <i name="e_0_energy">    -17.02552532 </i>
   </energy>
  </scstep>
  <structure>
   <crystal>
    <varray name="basis" >
     <v>       2.57386868       0.00000000       0.00000000 </v>
     <v>       1.28693434       2.22903567       0.00000000 </v>
     <v>       0.00000000       0.00000000      30.30466494 </v>
    </varray>
    <i name="volume">    173.86529028 </i>
    <varray name="rec_basis" >
     <v>       0.38852021      -0.22431225       0.00000000 </v>
     <v>       0.00000000       0.44862450       0.00000000 </v>
     <v>       0.00000000       0.00000000       0.03299822 </v>
    </varray>
   </crystal>
   <varray name="positions" >
    <v>      -0.00029344       0.00058687       0.39656714 </v>
    <v>       0.33318695       0.33362609       0.46513971 </v>
    <v>       0.66582757       0.66834486       0.53359426 </v>
    <v>       0.00080073      -0.00160146       0.60421572 </v>
    <v>       0.50047818      -0.00095636       0.63750274 </v>
   </varray>
  </structure>
  <varray name="forces" >
   <v>       0.00000000       0.00633781       0.04716808 </v>
   <v>       0.00000000       0.00632622      -0.03449062 </v>
   <v>       0.00000000       0.01213692      -0.02327368 </v>
   <v>      -0.00000000      -0.01441830      -0.01310347 </v>
   <v>      -0.00000000      -0.01038265       0.02369969 </v>
  </varray>
  <varray name="stress" >
   <v>     -45.07331017       0.00000000       0.00000000 </v>
   <v>       0.00000000     -45.56068246      -1.06344218 </v>
   <v>       0.00000000      -1.06478407     -44.32090492 </v>
  </varray>
  <energy>
   <i name="e_fr_energy">    -17.04848526 </i>
   <i name="e_wo_entrp">    -17.02552532 </i>
   <i name="e_0_energy">     -0.04591989 </i>
  </energy>
  <time name="totalsc">    2.84    2.86</time>
  <eigenvalues>
   <array>
    <dimension dim="1">band</dimension>
    <dimension dim="2">kpoint</dimension>
    <dimension dim="3">spin</dimension>
    <field>eigene</field>
    <field>occ</field>
    <set>
     <set comment="spin 1">
      <set comment="kpoint 1">
       <r>  -11.6009    1.0000 </r>
       <r>  -10.6990    1.0000 </r>
       <r>   -9.0585    1.0000 </r>
       <r>   -7.6076    1.0000 </r>
       <r>   -6.3042    1.0000 </r>
       <r>   -5.7248    1.0000 </r>
       <r>   -5.5465    1.0000 </r>
       <r>   -5.4893    1.0000 </r>
       <r>   -5.3691    1.0000 </r>
       <r>   -5.3661    1.0000 </r>
       <r>   -5.3453    1.0000 </r>
       <r>   -5.3387    1.0000 </r>
       <r>   -5.3294    1.0000 </r>
       <r>   -5.0667    1.0000 </r>
       <r>   -5.0633    1.0000 </r>
       <r>   -4.9211    1.0000 </r>
       <r>   -4.8850    1.0000 </r>
       <r>   -4.7399    1.0000 </r>
       <r>   -4.5712    1.0000 </r>
       <r>   -4.5677    1.0000 </r>
       <r>   -4.3489    1.0000 </r>
       <r>   -4.3345    1.0000 </r>
       <r>   -4.0599    1.0000 </r>
       <r>   -4.0568    1.0000 </r>
       <r>   -2.9476    0.9999 </r>
       <r>    1.6022    0.0000 </r>
       <r>    1.9242    0.0000 </r>
       <r>    2.3567    0.0000 </r>
      </set>
      <set comment="kpoint 2">
       <r>  -11.2930    1.0000 </r>
       <r>  -10.4029    1.0000 </r>
       <r>   -8.7983    1.0000 </r>
       <r>   -7.3895    1.0000 </r>
       <r>   -6.3257    1.0000 </r>
       <r>   -5.7700    1.0000 </r>
       <r>   -5.6510    1.0000 </r>
       <r>   -5.4996    1.0000 </r>
       <r>   -5.4513    1.0000 </r>
       <r>   -5.4058    1.0000 </r>
       <r>   -5.3724    1.0000 </r>
       <r>   -5.2629    1.0000 </r>
       <r>   -5.2410    1.0000 </r>
       <r>   -5.1680    1.0000 </r>
       <r>   -5.0795    1.0000 </r>
       <r>   -4.9775    1.0000 </r>
       <r>   -4.8148    1.0000 </r>
       <r>   -4.7516    1.0000 </r>
       <r>   -4.5783    1.0000 </r>
       <r>   -4.5372    1.0000 </r>
       <r>   -4.3610    1.0000 </r>
       <r>   -4.3324    1.0000 </r>
       <r>   -4.0528    1.0000 </r>
       <r>   -3.8187    1.0000 </r>
       <r>   -2.2641    0.1487 </r>
       <r>    1.8449    0.0000 </r>
       <r>    2.2282    0.0000 </r>
       <r>    2.6594    0.0000 </r>
      </set>
      <set comment="kpoint 3">
       <r>  -10.4067    1.0000 </r>
       <r>   -9.5669    1.0000 </r>
       <r>   -8.1281    1.0000 </r>
       <r>   -6.8830    1.0000 </r>
       <r>   -6.4349    1.0000 </r>
       <r>   -6.0010    1.0000 </r>
       <r>   -5.8225    1.0000 </r>
       <r>   -5.7415    1.0000 </r>
       <r>   -5.5783    1.0000 </r>
       <r>   -5.3485    1.0000 </r>
       <r>   -5.2853    1.0000 </r>
       <r>   -5.2408    1.0000 </r>
       <r>   -5.1226    1.0000 </r>
       <r>   -5.0700    1.0000 </r>
       <r>   -4.9693    1.0000 </r>
       <r>   -4.9087    1.0000 </r>
       <r>   -4.8537    1.0000 </r>
       <r>   -4.6806    1.0000 </r>
       <r>   -4.6252    1.0000 </r>
       <r>   -4.5166    1.0000 </r>
       <r>   -4.3346    1.0000 </r>
       <r>   -4.1304    1.0000 </r>
       <r>   -4.0464    1.0000 </r>
       <r>   -2.9188    0.9998 </r>
       <r>   -0.9332    0.0000 </r>
       <r>    2.5671    0.0000 </r>
       <r>    3.1392    0.0000 </r>
       <r>    3.5676    0.0000 </r>
      </set>
      <set comment="kpoint 4">
       <r>   -9.1042    1.0000 </r>
       <r>   -8.4257    1.0000 </r>
       <r>   -7.4867    1.0000 </r>
       <r>   -6.7225    1.0000 </r>
       <r>   -6.4498    1.0000 </r>
       <r>   -6.2761    1.0000 </r>
       <r>   -5.9584    1.0000 </r>
       <r>   -5.7370    1.0000 </r>
       <r>   -5.6214    1.0000 </r>
       <r>   -5.3566    1.0000 </r>
       <r>   -5.2211    1.0000 </r>
       <r>   -5.1288    1.0000 </r>
       <r>   -4.9535    1.0000 </r>
       <r>   -4.9044    1.0000 </r>
       <r>   -4.8134    1.0000 </r>
       <r>   -4.6783    1.0000 </r>
       <r>   -4.6109    1.0000 </r>
       <r>   -4.4330    1.0000 </r>
       <r>   -4.4048    1.0000 </r>
       <r>   -4.3311    1.0000 </r>
       <r>   -4.2103    1.0000 </r>
       <r>   -4.0325    1.0000 </r>
       <r>   -3.6234    1.0000 </r>
       <r>   -1.7129    0.0000 </r>
       <r>    0.7516    0.0000 </r>
       <r>    3.7496    0.0000 </r>
       <r>    4.6175    0.0000 </r>
       <r>    5.0160    0.0000 </r>
      </set>
      <set comment="kpoint 5">
       <r>   -8.0337    1.0000 </r>
       <r>   -7.4952    1.0000 </r>
       <r>   -7.1795    1.0000 </r>
       <r>   -6.8286    1.0000 </r>
       <r>   -6.5829    1.0000 </r>
       <r>   -6.4457    1.0000 </r>
       <r>   -6.0898    1.0000 </r>
       <r>   -5.5545    1.0000 </r>
       <r>   -5.4162    1.0000 </r>
       <r>   -5.3413    1.0000 </r>
       <r>   -5.2765    1.0000 </r>
       <r>   -4.9928    1.0000 </r>
       <r>   -4.8678    1.0000 </r>
       <r>   -4.5421    1.0000 </r>
       <r>   -4.4504    1.0000 </r>
       <r>   -4.3856    1.0000 </r>
       <r>   -4.1870    1.0000 </r>
       <r>   -4.1591    1.0000 </r>
       <r>   -4.1303    1.0000 </r>
       <r>   -4.0402    1.0000 </r>
       <r>   -3.8936    1.0000 </r>
       <r>   -3.6112    1.0000 </r>
       <r>   -2.5559    0.8466 </r>
       <r>   -0.2980    0.0000 </r>
       <r>    2.0549    0.0000 </r>
       <r>    2.8761    0.0000 </r>
       <r>    3.2043    0.0000 </r>
       <r>    4.3478    0.0000 </r>
      </set>
      <set comment="kpoint 6">
       <r>   -7.8217    1.0000 </r>
       <r>   -7.1876    1.0000 </r>
       <r>   -6.9922    1.0000 </r>
       <r>   -6.8917    1.0000 </r>
       <r>   -6.6524    1.0000 </r>
       <r>   -6.4990    1.0000 </r>
       <r>   -6.1179    1.0000 </r>
       <r>   -5.4751    1.0000 </r>
       <r>   -5.4254    1.0000 </r>
       <r>   -5.2978    1.0000 </r>
       <r>   -5.2024    1.0000 </r>
       <r>   -4.9802    1.0000 </r>
       <r>   -4.6276    1.0000 </r>
       <r>   -4.4890    1.0000 </r>
       <r>   -4.3381    1.0000 </r>
       <r>   -4.2636    1.0000 </r>
       <r>   -4.1166    1.0000 </r>
       <r>   -4.0361    1.0000 </r>
       <r>   -3.9743    1.0000 </r>
       <r>   -3.7786    1.0000 </r>
       <r>   -3.6808    1.0000 </r>
       <r>   -2.2900    0.1954 </r>
       <r>   -1.4253    0.0000 </r>
       <r>   -0.8850    0.0000 </r>
       <r>    1.2462    0.0000 </r>
       <r>    2.1784    0.0000 </r>
       <r>    2.8433    0.0000 </r>
       <r>    3.6214    0.0000 </r>
      </set>
      <set comment="kpoint 7">
       <r>  -11.3061    1.0000 </r>
       <r>  -10.4047    1.0000 </r>
       <r>   -8.7893    1.0000 </r>
       <r>   -7.3848    1.0000 </r>
       <r>   -6.2523    1.0000 </r>
       <r>   -5.7937    1.0000 </r>
       <r>   -5.5850    1.0000 </r>
       <r>   -5.4451    1.0000 </r>
       <r>   -5.4398    1.0000 </r>
       <r>   -5.4144    1.0000 </r>
       <r>   -5.3623    1.0000 </r>
       <r>   -5.2959    1.0000 </r>
       <r>   -5.2378    1.0000 </r>
       <r>   -5.1684    1.0000 </r>
       <r>   -5.0789    1.0000 </r>
       <r>   -5.0002    1.0000 </r>
       <r>   -4.9079    1.0000 </r>
       <r>   -4.7644    1.0000 </r>
       <r>   -4.5864    1.0000 </r>
       <r>   -4.5274    1.0000 </r>
       <r>   -4.3638    1.0000 </r>
       <r>   -4.3439    1.0000 </r>
       <r>   -4.0551    1.0000 </r>
       <r>   -3.8415    1.0000 </r>
       <r>   -2.2734    0.1646 </r>
       <r>    1.8459    0.0000 </r>
       <r>    2.2279    0.0000 </r>
       <r>    2.6595    0.0000 </r>
      </set>
      <set comment="kpoint 8">
       <r>  -10.6856    1.0000 </r>
       <r>   -9.8362    1.0000 </r>
       <r>   -8.3400    1.0000 </r>
       <r>   -7.0193    1.0000 </r>
       <r>   -6.4118    1.0000 </r>
       <r>   -5.8927    1.0000 </r>
       <r>   -5.8074    1.0000 </r>
       <r>   -5.6696    1.0000 </r>
       <r>   -5.5612    1.0000 </r>
       <r>   -5.4373    1.0000 </r>
       <r>   -5.3353    1.0000 </r>
       <r>   -5.2287    1.0000 </r>
       <r>   -5.1732    1.0000 </r>
       <r>   -5.1301    1.0000 </r>
       <r>   -5.0303    1.0000 </r>
       <r>   -4.9026    1.0000 </r>
       <r>   -4.7802    1.0000 </r>
       <r>   -4.6726    1.0000 </r>
       <r>   -4.6358    1.0000 </r>
       <r>   -4.5107    1.0000 </r>
       <r>   -4.4141    1.0000 </r>
       <r>   -4.1501    1.0000 </r>
       <r>   -4.0827    1.0000 </r>
       <r>   -3.1522    1.0000 </r>
       <r>   -1.3147    0.0000 </r>
       <r>    2.3274    0.0000 </r>
       <r>    2.8365    0.0000 </r>
       <r>    3.2655    0.0000 </r>
      </set>
      <set comment="kpoint 9">
       <r>   -9.5807    1.0000 </r>
       <r>   -8.8354    1.0000 </r>
       <r>   -7.6702    1.0000 </r>
       <r>   -6.6531    1.0000 </r>
       <r>   -6.3687    1.0000 </r>
       <r>   -6.1137    1.0000 </r>
       <r>   -5.9277    1.0000 </r>
       <r>   -5.8503    1.0000 </r>
       <r>   -5.6862    1.0000 </r>
       <r>   -5.3889    1.0000 </r>
       <r>   -5.3469    1.0000 </r>
       <r>   -5.2251    1.0000 </r>
       <r>   -5.1248    1.0000 </r>
       <r>   -5.0029    1.0000 </r>
       <r>   -4.9298    1.0000 </r>
       <r>   -4.8183    1.0000 </r>
       <r>   -4.6917    1.0000 </r>
       <r>   -4.5324    1.0000 </r>
       <r>   -4.4144    1.0000 </r>
       <r>   -4.3738    1.0000 </r>
       <r>   -4.2220    1.0000 </r>
       <r>   -4.1094    1.0000 </r>
       <r>   -3.7401    1.0000 </r>
       <r>   -2.1155    0.0182 </r>
       <r>    0.1502    0.0000 </r>
       <r>    3.3005    0.0000 </r>
       <r>    4.0459    0.0000 </r>
       <r>    4.4718    0.0000 </r>
      </set>
      <set comment="kpoint 10">
       <r>   -8.3751    1.0000 </r>
       <r>   -7.7679    1.0000 </r>
       <r>   -7.1944    1.0000 </r>
       <r>   -6.6829    1.0000 </r>
       <r>   -6.4346    1.0000 </r>
       <r>   -6.2810    1.0000 </r>
       <r>   -6.0053    1.0000 </r>
       <r>   -5.7057    1.0000 </r>
       <r>   -5.6211    1.0000 </r>
       <r>   -5.3556    1.0000 </r>
       <r>   -5.2968    1.0000 </r>
       <r>   -5.1457    1.0000 </r>
       <r>   -4.9808    1.0000 </r>
       <r>   -4.8143    1.0000 </r>
       <r>   -4.7286    1.0000 </r>
       <r>   -4.5744    1.0000 </r>
       <r>   -4.4606    1.0000 </r>
       <r>   -4.3453    1.0000 </r>
       <r>   -4.2426    1.0000 </r>
       <r>   -4.0614    1.0000 </r>
       <r>   -4.0107    1.0000 </r>
       <r>   -3.7014    1.0000 </r>
       <r>   -2.8417    0.9988 </r>
       <r>   -0.6889    0.0000 </r>
       <r>    1.9394    0.0000 </r>
       <r>    3.9342    0.0000 </r>
       <r>    4.4565    0.0000 </r>
       <r>    5.0691    0.0000 </r>
      </set>
      <set comment="kpoint 11">
       <r>   -7.8496    1.0000 </r>
       <r>   -7.1068    1.0000 </r>
       <r>   -6.9473    1.0000 </r>
       <r>   -6.7427    1.0000 </r>
       <r>   -6.5568    1.0000 </r>
       <r>   -6.3821    1.0000 </r>
       <r>   -6.0871    1.0000 </r>
       <r>   -5.5808    1.0000 </r>
       <r>   -5.4718    1.0000 </r>
       <r>   -5.3656    1.0000 </r>
       <r>   -5.2491    1.0000 </r>
       <r>   -5.0656    1.0000 </r>
       <r>   -4.8512    1.0000 </r>
       <r>   -4.6024    1.0000 </r>
       <r>   -4.4668    1.0000 </r>
       <r>   -4.3237    1.0000 </r>
       <r>   -4.2063    1.0000 </r>
       <r>   -4.1695    1.0000 </r>
       <r>   -4.0970    1.0000 </r>
       <r>   -3.9460    1.0000 </r>
       <r>   -3.4965    1.0000 </r>
       <r>   -2.4127    0.5036 </r>
       <r>   -1.3819    0.0000 </r>
       <r>    0.0617    0.0000 </r>
       <r>    1.5474    0.0000 </r>
       <r>    2.5455    0.0000 </r>
       <r>    3.0073    0.0000 </r>
       <r>    4.1216    0.0000 </r>
      </set>
      <set comment="kpoint 12">
       <r>   -7.7670    1.0000 </r>
       <r>   -7.1067    1.0000 </r>
       <r>   -6.9369    1.0000 </r>
       <r>   -6.7670    1.0000 </r>
       <r>   -6.5564    1.0000 </r>
       <r>   -6.4114    1.0000 </r>
       <r>   -6.1079    1.0000 </r>
       <r>   -5.6441    1.0000 </r>
       <r>   -5.4581    1.0000 </r>
       <r>   -5.3731    1.0000 </r>
       <r>   -5.2908    1.0000 </r>
       <r>   -5.0720    1.0000 </r>
       <r>   -4.8745    1.0000 </r>
       <r>   -4.5810    1.0000 </r>
       <r>   -4.4730    1.0000 </r>
       <r>   -4.3217    1.0000 </r>
       <r>   -4.2119    1.0000 </r>
       <r>   -4.1439    1.0000 </r>
       <r>   -4.0966    1.0000 </r>
       <r>   -3.9425    1.0000 </r>
       <r>   -3.4154    1.0000 </r>
       <r>   -2.4137    0.5065 </r>
       <r>   -1.4058    0.0000 </r>
       <r>    0.0517    0.0000 </r>
       <r>    1.5358    0.0000 </r>
       <r>    2.5113    0.0000 </r>
       <r>    3.0561    0.0000 </r>
       <r>    4.0986    0.0000 </r>
      </set>
      <set comment="kpoint 13">
       <r>   -8.3261    1.0000 </r>
       <r>   -7.7345    1.0000 </r>
       <r>   -7.1714    1.0000 </r>
       <r>   -6.6970    1.0000 </r>
       <r>   -6.4384    1.0000 </r>
       <r>   -6.3210    1.0000 </r>
       <r>   -6.0447    1.0000 </r>
       <r>   -5.7480    1.0000 </r>
       <r>   -5.6431    1.0000 </r>
       <r>   -5.3814    1.0000 </r>
       <r>   -5.3334    1.0000 </r>
       <r>   -5.1627    1.0000 </r>
       <r>   -4.9829    1.0000 </r>
       <r>   -4.8150    1.0000 </r>
       <r>   -4.6813    1.0000 </r>
       <r>   -4.5680    1.0000 </r>
       <r>   -4.4430    1.0000 </r>
       <r>   -4.2909    1.0000 </r>
       <r>   -4.2115    1.0000 </r>
       <r>   -4.0500    1.0000 </r>
       <r>   -3.9823    1.0000 </r>
       <r>   -3.6981    1.0000 </r>
       <r>   -2.8948    0.9997 </r>
       <r>   -0.7895    0.0000 </r>
       <r>    1.8639    0.0000 </r>
       <r>    3.9935    0.0000 </r>
       <r>    4.5271    0.0000 </r>
       <r>    5.0863    0.0000 </r>
      </set>
      <set comment="kpoint 14">
       <r>   -9.6258    1.0000 </r>
       <r>   -8.8129    1.0000 </r>
       <r>   -7.5900    1.0000 </r>
       <r>   -6.6150    1.0000 </r>
       <r>   -6.3552    1.0000 </r>
       <r>   -6.1366    1.0000 </r>
       <r>   -5.9541    1.0000 </r>
       <r>   -5.8574    1.0000 </r>
       <r>   -5.6818    1.0000 </r>
       <r>   -5.3946    1.0000 </r>
       <r>   -5.3487    1.0000 </r>
       <r>   -5.2529    1.0000 </r>
       <r>   -5.0981    1.0000 </r>
       <r>   -4.9925    1.0000 </r>
       <r>   -4.8643    1.0000 </r>
       <r>   -4.8186    1.0000 </r>
       <r>   -4.6649    1.0000 </r>
       <r>   -4.5706    1.0000 </r>
       <r>   -4.4329    1.0000 </r>
       <r>   -4.3700    1.0000 </r>
       <r>   -4.2201    1.0000 </r>
       <r>   -4.1156    1.0000 </r>
       <r>   -3.7900    1.0000 </r>
       <r>   -2.2289    0.0984 </r>
       <r>    0.0943    0.0000 </r>
       <r>    3.2966    0.0000 </r>
       <r>    4.0452    0.0000 </r>
       <r>    4.4694    0.0000 </r>
      </set>
      <set comment="kpoint 15">
       <r>  -10.7228    1.0000 </r>
       <r>   -9.8361    1.0000 </r>
       <r>   -8.3034    1.0000 </r>
       <r>   -7.0006    1.0000 </r>
       <r>   -6.2848    1.0000 </r>
       <r>   -5.8993    1.0000 </r>
       <r>   -5.7957    1.0000 </r>
       <r>   -5.6583    1.0000 </r>
       <r>   -5.5473    1.0000 </r>
       <r>   -5.4113    1.0000 </r>
       <r>   -5.2579    1.0000 </r>
       <r>   -5.2353    1.0000 </r>
       <r>   -5.1796    1.0000 </r>
       <r>   -5.1613    1.0000 </r>
       <r>   -5.0340    1.0000 </r>
       <r>   -4.9461    1.0000 </r>
       <r>   -4.7854    1.0000 </r>
       <r>   -4.7082    1.0000 </r>
       <r>   -4.6752    1.0000 </r>
       <r>   -4.5424    1.0000 </r>
       <r>   -4.4273    1.0000 </r>
       <r>   -4.1534    1.0000 </r>
       <r>   -4.0978    1.0000 </r>
       <r>   -3.2370    1.0000 </r>
       <r>   -1.3456    0.0000 </r>
       <r>    2.3290    0.0000 </r>
       <r>    2.8356    0.0000 </r>
       <r>    3.2650    0.0000 </r>
      </set>
      <set comment="kpoint 16">
       <r>  -10.4770    1.0000 </r>
       <r>   -9.5715    1.0000 </r>
       <r>   -8.0769    1.0000 </r>
       <r>   -6.8513    1.0000 </r>
       <r>   -6.2084    1.0000 </r>
       <r>   -5.9464    1.0000 </r>
       <r>   -5.7676    1.0000 </r>
       <r>   -5.6787    1.0000 </r>
       <r>   -5.5755    1.0000 </r>
       <r>   -5.3751    1.0000 </r>
       <r>   -5.2762    1.0000 </r>
       <r>   -5.2601    1.0000 </r>
       <r>   -5.1359    1.0000 </r>
       <r>   -5.1135    1.0000 </r>
       <r>   -5.0007    1.0000 </r>
       <r>   -4.9377    1.0000 </r>
       <r>   -4.8916    1.0000 </r>
       <r>   -4.7000    1.0000 </r>
       <r>   -4.6551    1.0000 </r>
       <r>   -4.5294    1.0000 </r>
       <r>   -4.3423    1.0000 </r>
       <r>   -4.1995    1.0000 </r>
       <r>   -4.0492    1.0000 </r>
       <r>   -3.0498    1.0000 </r>
       <r>   -0.9840    0.0000 </r>
       <r>    2.5649    0.0000 </r>
       <r>    3.1381    0.0000 </r>
       <r>    3.5666    0.0000 </r>
      </set>
      <set comment="kpoint 17">
       <r>   -8.5249    1.0000 </r>
       <r>   -7.8601    1.0000 </r>
       <r>   -7.1474    1.0000 </r>
       <r>   -6.5512    1.0000 </r>
       <r>   -6.2261    1.0000 </r>
       <r>   -6.1280    1.0000 </r>
       <r>   -6.0158    1.0000 </r>
       <r>   -5.9227    1.0000 </r>
       <r>   -5.6561    1.0000 </r>
       <r>   -5.5144    1.0000 </r>
       <r>   -5.3879    1.0000 </r>
       <r>   -5.3108    1.0000 </r>
       <r>   -5.0651    1.0000 </r>
       <r>   -5.0022    1.0000 </r>
       <r>   -4.8005    1.0000 </r>
       <r>   -4.7375    1.0000 </r>
       <r>   -4.4939    1.0000 </r>
       <r>   -4.3848    1.0000 </r>
       <r>   -4.2823    1.0000 </r>
       <r>   -4.0553    1.0000 </r>
       <r>   -4.0083    1.0000 </r>
       <r>   -3.6483    1.0000 </r>
       <r>   -2.8456    0.9989 </r>
       <r>   -0.8189    0.0000 </r>
       <r>    1.7254    0.0000 </r>
       <r>    4.5379    0.0000 </r>
       <r>    5.1684    0.0000 </r>
       <r>    5.6321    0.0000 </r>
      </set>
      <set comment="kpoint 18">
       <r>   -7.8946    1.0000 </r>
       <r>   -6.9519    1.0000 </r>
       <r>   -6.7439    1.0000 </r>
       <r>   -6.5267    1.0000 </r>
       <r>   -6.3361    1.0000 </r>
       <r>   -6.1991    1.0000 </r>
       <r>   -6.0038    1.0000 </r>
       <r>   -5.8436    1.0000 </r>
       <r>   -5.6471    1.0000 </r>
       <r>   -5.5443    1.0000 </r>
       <r>   -5.4006    1.0000 </r>
       <r>   -5.1319    1.0000 </r>
       <r>   -5.0330    1.0000 </r>
       <r>   -4.8929    1.0000 </r>
       <r>   -4.7124    1.0000 </r>
       <r>   -4.6045    1.0000 </r>
       <r>   -4.4546    1.0000 </r>
       <r>   -4.2686    1.0000 </r>
       <r>   -4.1246    1.0000 </r>
       <r>   -3.9626    1.0000 </r>
       <r>   -3.3421    1.0000 </r>
       <r>   -2.4316    0.5568 </r>
       <r>   -1.2353    0.0000 </r>
       <r>    0.8448    0.0000 </r>
       <r>    2.6880    0.0000 </r>
       <r>    3.6148    0.0000 </r>
       <r>    3.8158    0.0000 </r>
       <r>    4.9127    0.0000 </r>
      </set>
      <set comment="kpoint 19">
       <r>   -7.6543    1.0000 </r>
       <r>   -6.7239    1.0000 </r>
       <r>   -6.6585    1.0000 </r>
       <r>   -6.4656    1.0000 </r>
       <r>   -6.3633    1.0000 </r>
       <r>   -6.2159    1.0000 </r>
       <r>   -6.0307    1.0000 </r>
       <r>   -5.8907    1.0000 </r>
       <r>   -5.6209    1.0000 </r>
       <r>   -5.5329    1.0000 </r>
       <r>   -5.3780    1.0000 </r>
       <r>   -5.1686    1.0000 </r>
       <r>   -4.9607    1.0000 </r>
       <r>   -4.7754    1.0000 </r>
       <r>   -4.6334    1.0000 </r>
       <r>   -4.5344    1.0000 </r>
       <r>   -4.3526    1.0000 </r>
       <r>   -4.1915    1.0000 </r>
       <r>   -4.1288    1.0000 </r>
       <r>   -4.0285    1.0000 </r>
       <r>   -2.5269    0.7930 </r>
       <r>   -0.7839    0.0000 </r>
       <r>   -0.2042    0.0000 </r>
       <r>    0.5701    0.0000 </r>
       <r>    1.6442    0.0000 </r>
       <r>    2.8090    0.0000 </r>
       <r>    3.3886    0.0000 </r>
       <r>    4.2373    0.0000 </r>
      </set>
      <set comment="kpoint 20">
       <r>   -7.7516    1.0000 </r>
       <r>   -6.9623    1.0000 </r>
       <r>   -6.7528    1.0000 </r>
       <r>   -6.5297    1.0000 </r>
       <r>   -6.3417    1.0000 </r>
       <r>   -6.2455    1.0000 </r>
       <r>   -6.0239    1.0000 </r>
       <r>   -5.8805    1.0000 </r>
       <r>   -5.6533    1.0000 </r>
       <r>   -5.5773    1.0000 </r>
       <r>   -5.4655    1.0000 </r>
       <r>   -5.1364    1.0000 </r>
       <r>   -5.0373    1.0000 </r>
       <r>   -4.8910    1.0000 </r>
       <r>   -4.7303    1.0000 </r>
       <r>   -4.6062    1.0000 </r>
       <r>   -4.4493    1.0000 </r>
       <r>   -4.2645    1.0000 </r>
       <r>   -4.0947    1.0000 </r>
       <r>   -3.9638    1.0000 </r>
       <r>   -3.1716    1.0000 </r>
       <r>   -2.4439    0.5908 </r>
       <r>   -1.3341    0.0000 </r>
       <r>    0.6763    0.0000 </r>
       <r>    2.6694    0.0000 </r>
       <r>    3.5889    0.0000 </r>
       <r>    3.8269    0.0000 </r>
       <r>    4.8284    0.0000 </r>
      </set>
      <set comment="kpoint 21">
       <r>   -8.6119    1.0000 </r>
       <r>   -7.7823    1.0000 </r>
       <r>   -7.0235    1.0000 </r>
       <r>   -6.5192    1.0000 </r>
       <r>   -6.2054    1.0000 </r>
       <r>   -6.1302    1.0000 </r>
       <r>   -6.0102    1.0000 </r>
       <r>   -5.9263    1.0000 </r>
       <r>   -5.6576    1.0000 </r>
       <r>   -5.5187    1.0000 </r>
       <r>   -5.4422    1.0000 </r>
       <r>   -5.3766    1.0000 </r>
       <r>   -5.0682    1.0000 </r>
       <r>   -5.0098    1.0000 </r>
       <r>   -4.8575    1.0000 </r>
       <r>   -4.6746    1.0000 </r>
       <r>   -4.5056    1.0000 </r>
       <r>   -4.3419    1.0000 </r>
       <r>   -4.2054    1.0000 </r>
       <r>   -4.0602    1.0000 </r>
       <r>   -3.9517    1.0000 </r>
       <r>   -3.6575    1.0000 </r>
       <r>   -2.9656    1.0000 </r>
       <r>   -1.0624    0.0000 </r>
       <r>    1.5353    0.0000 </r>
       <r>    4.4099    0.0000 </r>
       <r>    5.3862    0.0000 </r>
       <r>    5.6018    0.0000 </r>
      </set>
      <set comment="kpoint 22">
       <r>   -9.7119    1.0000 </r>
       <r>   -8.8159    1.0000 </r>
       <r>   -7.5376    1.0000 </r>
       <r>   -6.5359    1.0000 </r>
       <r>   -6.2763    1.0000 </r>
       <r>   -6.0455    1.0000 </r>
       <r>   -5.8825    1.0000 </r>
       <r>   -5.8183    1.0000 </r>
       <r>   -5.6901    1.0000 </r>
       <r>   -5.3795    1.0000 </r>
       <r>   -5.3467    1.0000 </r>
       <r>   -5.2829    1.0000 </r>
       <r>   -5.1797    1.0000 </r>
       <r>   -5.0158    1.0000 </r>
       <r>   -4.8655    1.0000 </r>
       <r>   -4.8330    1.0000 </r>
       <r>   -4.6651    1.0000 </r>
       <r>   -4.5847    1.0000 </r>
       <r>   -4.4682    1.0000 </r>
       <r>   -4.3728    1.0000 </r>
       <r>   -4.2202    1.0000 </r>
       <r>   -4.1163    1.0000 </r>
       <r>   -3.8505    1.0000 </r>
       <r>   -2.3377    0.3012 </r>
       <r>    0.0368    0.0000 </r>
       <r>    3.2781    0.0000 </r>
       <r>    4.0453    0.0000 </r>
       <r>    4.4604    0.0000 </r>
      </set>
      <set comment="kpoint 23">
       <r>   -9.3589    1.0000 </r>
       <r>   -8.4054    1.0000 </r>
       <r>   -7.3357    1.0000 </r>
       <r>   -6.5401    1.0000 </r>
       <r>   -6.3853    1.0000 </r>
       <r>   -6.0770    1.0000 </r>
       <r>   -5.7857    1.0000 </r>
       <r>   -5.6987    1.0000 </r>
       <r>   -5.4760    1.0000 </r>
       <r>   -5.3626    1.0000 </r>
       <r>   -5.3050    1.0000 </r>
       <r>   -5.1632    1.0000 </r>
       <r>   -5.0205    1.0000 </r>
       <r>   -4.9172    1.0000 </r>
       <r>   -4.8072    1.0000 </r>
       <r>   -4.7748    1.0000 </r>
       <r>   -4.6132    1.0000 </r>
       <r>   -4.4535    1.0000 </r>
       <r>   -4.4193    1.0000 </r>
       <r>   -4.3355    1.0000 </r>
       <r>   -4.2107    1.0000 </r>
       <r>   -4.0350    1.0000 </r>
       <r>   -3.8187    1.0000 </r>
       <r>   -2.0205    0.0029 </r>
       <r>    0.5481    0.0000 </r>
       <r>    3.6177    0.0000 </r>
       <r>    4.6365    0.0000 </r>
       <r>    4.8604    0.0000 </r>
      </set>
      <set comment="kpoint 24">
       <r>   -7.6227    1.0000 </r>
       <r>   -6.4843    1.0000 </r>
       <r>   -6.4160    1.0000 </r>
       <r>   -6.3452    1.0000 </r>
       <r>   -6.2408    1.0000 </r>
       <r>   -6.1157    1.0000 </r>
       <r>   -6.0616    1.0000 </r>
       <r>   -5.9689    1.0000 </r>
       <r>   -5.7853    1.0000 </r>
       <r>   -5.5918    1.0000 </r>
       <r>   -5.5068    1.0000 </r>
       <r>   -5.1186    1.0000 </r>
       <r>   -5.0685    1.0000 </r>
       <r>   -4.8852    1.0000 </r>
       <r>   -4.7296    1.0000 </r>
       <r>   -4.5782    1.0000 </r>
       <r>   -4.5201    1.0000 </r>
       <r>   -4.2331    1.0000 </r>
       <r>   -4.1425    1.0000 </r>
       <r>   -4.0516    1.0000 </r>
       <r>   -2.1453    0.0299 </r>
       <r>   -0.4579    0.0000 </r>
       <r>    0.7468    0.0000 </r>
       <r>    2.1705    0.0000 </r>
       <r>    2.2213    0.0000 </r>
       <r>    2.4920    0.0000 </r>
       <r>    3.2900    0.0000 </r>
       <r>    3.9592    0.0000 </r>
      </set>
      <set comment="kpoint 25">
       <r>   -7.5780    1.0000 </r>
       <r>   -6.4955    1.0000 </r>
       <r>   -6.4382    1.0000 </r>
       <r>   -6.3435    1.0000 </r>
       <r>   -6.2404    1.0000 </r>
       <r>   -6.1163    1.0000 </r>
       <r>   -6.0633    1.0000 </r>
       <r>   -5.9559    1.0000 </r>
       <r>   -5.7439    1.0000 </r>
       <r>   -5.6361    1.0000 </r>
       <r>   -5.5111    1.0000 </r>
       <r>   -5.1198    1.0000 </r>
       <r>   -5.0681    1.0000 </r>
       <r>   -4.9068    1.0000 </r>
       <r>   -4.7367    1.0000 </r>
       <r>   -4.5905    1.0000 </r>
       <r>   -4.5180    1.0000 </r>
       <r>   -4.2194    1.0000 </r>
       <r>   -4.1404    1.0000 </r>
       <r>   -4.0537    1.0000 </r>
       <r>   -1.9918    0.0015 </r>
       <r>   -0.4841    0.0000 </r>
       <r>    0.5988    0.0000 </r>
       <r>    1.7532    0.0000 </r>
       <r>    2.2981    0.0000 </r>
       <r>    2.4693    0.0000 </r>
       <r>    3.2176    0.0000 </r>
       <r>    3.7752    0.0000 </r>
      </set>
      <set comment="kpoint 26">
       <r>   -7.9825    1.0000 </r>
       <r>   -6.9214    1.0000 </r>
       <r>   -6.7163    1.0000 </r>
       <r>   -6.4565    1.0000 </r>
       <r>   -6.3212    1.0000 </r>
       <r>   -6.0855    1.0000 </r>
       <r>   -5.9775    1.0000 </r>
       <r>   -5.8110    1.0000 </r>
       <r>   -5.6502    1.0000 </r>
       <r>   -5.5683    1.0000 </r>
       <r>   -5.4416    1.0000 </r>
       <r>   -5.1425    1.0000 </r>
       <r>   -5.0723    1.0000 </r>
       <r>   -4.9253    1.0000 </r>
       <r>   -4.7115    1.0000 </r>
       <r>   -4.6423    1.0000 </r>
       <r>   -4.4518    1.0000 </r>
       <r>   -4.2738    1.0000 </r>
       <r>   -4.0880    1.0000 </r>
       <r>   -3.9639    1.0000 </r>
       <r>   -3.0609    1.0000 </r>
       <r>   -2.4633    0.6431 </r>
       <r>   -1.4444    0.0000 </r>
       <r>    0.3546    0.0000 </r>
       <r>    2.1153    0.0000 </r>
       <r>    3.2355    0.0000 </r>
       <r>    4.2725    0.0000 </r>
       <r>    5.5714    0.0000 </r>
      </set>
      <set comment="kpoint 27">
       <r>   -8.6948    1.0000 </r>
       <r>   -7.6845    1.0000 </r>
       <r>   -7.0341    1.0000 </r>
       <r>   -6.5078    1.0000 </r>
       <r>   -6.4171    1.0000 </r>
       <r>   -6.1191    1.0000 </r>
       <r>   -5.8632    1.0000 </r>
       <r>   -5.6736    1.0000 </r>
       <r>   -5.5309    1.0000 </r>
       <r>   -5.4298    1.0000 </r>
       <r>   -5.2875    1.0000 </r>
       <r>   -5.1986    1.0000 </r>
       <r>   -5.0510    1.0000 </r>
       <r>   -4.8228    1.0000 </r>
       <r>   -4.7469    1.0000 </r>
       <r>   -4.5877    1.0000 </r>
       <r>   -4.4511    1.0000 </r>
       <r>   -4.2725    1.0000 </r>
       <r>   -4.2237    1.0000 </r>
       <r>   -4.0575    1.0000 </r>
       <r>   -3.9798    1.0000 </r>
       <r>   -3.7196    1.0000 </r>
       <r>   -3.0635    1.0000 </r>
       <r>   -1.1215    0.0000 </r>
       <r>    1.4622    0.0000 </r>
       <r>    3.5945    0.0000 </r>
       <r>    4.5441    0.0000 </r>
       <r>    5.4009    0.0000 </r>
      </set>
      <set comment="kpoint 28">
       <r>   -8.5549    1.0000 </r>
       <r>   -7.4303    1.0000 </r>
       <r>   -7.0650    1.0000 </r>
       <r>   -6.5959    1.0000 </r>
       <r>   -6.5534    1.0000 </r>
       <r>   -6.2221    1.0000 </r>
       <r>   -5.8208    1.0000 </r>
       <r>   -5.5022    1.0000 </r>
       <r>   -5.3866    1.0000 </r>
       <r>   -5.3856    1.0000 </r>
       <r>   -5.1312    1.0000 </r>
       <r>   -5.0693    1.0000 </r>
       <r>   -4.7100    1.0000 </r>
       <r>   -4.5602    1.0000 </r>
       <r>   -4.4304    1.0000 </r>
       <r>   -4.4217    1.0000 </r>
       <r>   -4.1881    1.0000 </r>
       <r>   -4.1295    1.0000 </r>
       <r>   -4.0624    1.0000 </r>
       <r>   -4.0432    1.0000 </r>
       <r>   -3.8940    1.0000 </r>
       <r>   -3.6076    1.0000 </r>
       <r>   -2.8770    0.9995 </r>
       <r>   -0.9371    0.0000 </r>
       <r>    0.9969    0.0000 </r>
       <r>    2.5872    0.0000 </r>
       <r>    3.5047    0.0000 </r>
       <r>    4.9671    0.0000 </r>
      </set>
      <set comment="kpoint 29">
       <r>   -7.8442    1.0000 </r>
       <r>   -6.7067    1.0000 </r>
       <r>   -6.6616    1.0000 </r>
       <r>   -6.3876    1.0000 </r>
       <r>   -6.3068    1.0000 </r>
       <r>   -6.0654    1.0000 </r>
       <r>   -5.9974    1.0000 </r>
       <r>   -5.9464    1.0000 </r>
       <r>   -5.5616    1.0000 </r>
       <r>   -5.5034    1.0000 </r>
       <r>   -5.3051    1.0000 </r>
       <r>   -5.1626    1.0000 </r>
       <r>   -5.0287    1.0000 </r>
       <r>   -4.7781    1.0000 </r>
       <r>   -4.6639    1.0000 </r>
       <r>   -4.5614    1.0000 </r>
       <r>   -4.3554    1.0000 </r>
       <r>   -4.1783    1.0000 </r>
       <r>   -4.1274    1.0000 </r>
       <r>   -4.0296    1.0000 </r>
       <r>   -1.9638    0.0008 </r>
       <r>   -0.8608    0.0000 </r>
       <r>   -0.4929    0.0000 </r>
       <r>    0.0768    0.0000 </r>
       <r>    0.7442    0.0000 </r>
       <r>    2.4010    0.0000 </r>
       <r>    3.7432    0.0000 </r>
       <r>    5.0042    0.0000 </r>
      </set>
      <set comment="kpoint 30">
       <r>   -8.2389    1.0000 </r>
       <r>   -7.0693    1.0000 </r>
       <r>   -6.9369    1.0000 </r>
       <r>   -6.5619    1.0000 </r>
       <r>   -6.4907    1.0000 </r>
       <r>   -6.2100    1.0000 </r>
       <r>   -5.8557    1.0000 </r>
       <r>   -5.6406    1.0000 </r>
       <r>   -5.4568    1.0000 </r>
       <r>   -5.3247    1.0000 </r>
       <r>   -5.2778    1.0000 </r>
       <r>   -4.9723    1.0000 </r>
       <r>   -4.8024    1.0000 </r>
       <r>   -4.6773    1.0000 </r>
       <r>   -4.4810    1.0000 </r>
       <r>   -4.3386    1.0000 </r>
       <r>   -4.2077    1.0000 </r>
       <r>   -4.1461    1.0000 </r>
       <r>   -4.0829    1.0000 </r>
       <r>   -3.9451    1.0000 </r>
       <r>   -2.9257    0.9999 </r>
       <r>   -2.4723    0.6666 </r>
       <r>   -1.7058    0.0000 </r>
       <r>   -0.5602    0.0000 </r>
       <r>    0.2687    0.0000 </r>
       <r>    2.1669    0.0000 </r>
       <r>    3.3330    0.0000 </r>
       <r>    4.8813    0.0000 </r>
      </set>
      <set comment="kpoint 31">
       <r>   -8.3399    1.0000 </r>
       <r>   -7.1397    1.0000 </r>
       <r>   -7.0423    1.0000 </r>
       <r>   -6.6553    1.0000 </r>
       <r>   -6.5768    1.0000 </r>
       <r>   -6.2875    1.0000 </r>
       <r>   -5.8255    1.0000 </r>
       <r>   -5.4795    1.0000 </r>
       <r>   -5.4189    1.0000 </r>
       <r>   -5.3536    1.0000 </r>
       <r>   -5.0904    1.0000 </r>
       <r>   -5.0055    1.0000 </r>
       <r>   -4.5423    1.0000 </r>
       <r>   -4.5142    1.0000 </r>
       <r>   -4.3117    1.0000 </r>
       <r>   -4.1716    1.0000 </r>
       <r>   -4.1197    1.0000 </r>
       <r>   -4.0358    1.0000 </r>
       <r>   -3.9745    1.0000 </r>
       <r>   -3.7786    1.0000 </r>
       <r>   -2.7572    0.9928 </r>
       <r>   -2.4223    0.5307 </r>
       <r>   -1.7821    0.0000 </r>
       <r>   -1.2470    0.0000 </r>
       <r>   -0.8611    0.0000 </r>
       <r>    1.8652    0.0000 </r>
       <r>    3.0161    0.0000 </r>
       <r>    4.4870    0.0000 </r>
      </set>
     </set>
    </set>
   </array>
  </eigenvalues>
  <separator name="orbital magnetization" >
   <v name="MAGDIPOLOUT">      0.00000000      0.00000000      0.00000000</v>
  </separator>
 </calculation>
 <structure name="finalpos" >
  <crystal>
   <varray name="basis" >
    <v>       2.57386868       0.00000000       0.00000000 </v>
    <v>       1.28693434       2.22903567       0.00000000 </v>
    <v>       0.00000000       0.00000000      30.30466494 </v>
   </varray>
   <i name="volume">    173.86529028 </i>
   <varray name="rec_basis" >
    <v>       0.38852021      -0.22431225       0.00000000 </v>
    <v>       0.00000000       0.44862450       0.00000000 </v>
    <v>       0.00000000       0.00000000       0.03299822 </v>
   </varray>
  </crystal>
  <varray name="positions" >
   <v>      -0.00029344       0.00058687       0.39656714 </v>
   <v>       0.33318695       0.33362609       0.46513971 </v>
   <v>       0.66582757       0.66834486       0.53359426 </v>
   <v>       0.00080073      -0.00160146       0.60421572 </v>
   <v>       0.50047818      -0.00095636       0.63750274 </v>
  </varray>
 </structure>
</modeling>
