unknown system                          
           1
     2.573869    0.000000    0.000000
     1.286934    2.229036    0.000000
     0.000000    0.000000   30.304665
   Cu   H 
   4   1
Direct configuration=     1
   0.00000000  0.00000000  0.39597864
   0.33333333  0.33333333  0.46532621
   0.66666667  0.66666667  0.53467379
   0.00000000  0.00000000  0.60402136
   0.50000000  0.00000000  0.63701958
Direct configuration=     2
  -0.00007871  0.00015742  0.39616343
   0.33329378  0.33341243  0.46529581
   0.66640152  0.66719696  0.53425239
   0.00024591 -0.00049183  0.60412822
   0.50013749 -0.00027498  0.63717973
Direct configuration=     3
  -0.00029344  0.00058687  0.39656714
   0.33318695  0.33362609  0.46513971
   0.66582757  0.66834486  0.53359426
   0.00080073 -0.00160146  0.60421572
   0.50047818 -0.00095636  0.63750274
