  20  20   0   0
  0.1957362E+02  0.3905268E-09  0.3905268E-09  0.2566844E-08  0.5000000E-15
  1.000000000000000E-004
  CAR 
 unknown system                          
      9.90802448    -35.86320072  301      0.63935138      1.00000000
    -35.863  0.0000E+00  0.0000E+00
    -35.711  0.0000E+00  0.0000E+00
    -35.558  0.0000E+00  0.0000E+00
    -35.405  0.0000E+00  0.0000E+00
    -35.253  0.0000E+00  0.0000E+00
    -35.100  0.0000E+00  0.0000E+00
    -34.948  0.0000E+00  0.0000E+00
    -34.795  0.0000E+00  0.0000E+00
    -34.643  0.0000E+00  0.0000E+00
    -34.490  0.0000E+00  0.0000E+00
    -34.337  0.0000E+00  0.0000E+00
    -34.185  0.0000E+00  0.0000E+00
    -34.032  0.0000E+00  0.0000E+00
    -33.880  0.0000E+00  0.0000E+00
    -33.727  0.0000E+00  0.2000E+01
    -33.575  0.0000E+00  0.2000E+01
    -33.422  0.0000E+00  0.2000E+01
    -33.269  0.0000E+00  0.2000E+01
    -33.117  0.0000E+00  0.2000E+01
    -32.964  0.0000E+00  0.2000E+01
    -32.812  0.0000E+00  0.2000E+01
    -32.659  0.2341E+02  0.6028E+01
    -32.507  0.0000E+00  0.8000E+01
    -32.354  0.0000E+00  0.8000E+01
    -32.202  0.0000E+00  0.8000E+01
    -32.049  0.0000E+00  0.8000E+01
    -31.896  0.0000E+00  0.8000E+01
    -31.744  0.0000E+00  0.8000E+01
    -31.591  0.0000E+00  0.8000E+01
    -31.439  0.0000E+00  0.8000E+01
    -31.286  0.0000E+00  0.8000E+01
    -31.134  0.0000E+00  0.8000E+01
    -30.981  0.0000E+00  0.8000E+01
    -30.828  0.0000E+00  0.8000E+01
    -30.676  0.0000E+00  0.8000E+01
    -30.523  0.0000E+00  0.8000E+01
    -30.371  0.0000E+00  0.8000E+01
    -30.218  0.0000E+00  0.8000E+01
    -30.066  0.0000E+00  0.8000E+01
    -29.913  0.0000E+00  0.8000E+01
    -29.760  0.0000E+00  0.8000E+01
    -29.608  0.0000E+00  0.8000E+01
    -29.455  0.0000E+00  0.8000E+01
    -29.303  0.0000E+00  0.8000E+01
    -29.150  0.0000E+00  0.8000E+01
    -28.998  0.0000E+00  0.8000E+01
    -28.845  0.0000E+00  0.8000E+01
    -28.692  0.0000E+00  0.8000E+01
    -28.540  0.0000E+00  0.8000E+01
    -28.387  0.0000E+00  0.8000E+01
    -28.235  0.0000E+00  0.8000E+01
    -28.082  0.0000E+00  0.8000E+01
    -27.930  0.0000E+00  0.8000E+01
    -27.777  0.0000E+00  0.8000E+01
    -27.624  0.0000E+00  0.8000E+01
    -27.472  0.0000E+00  0.8000E+01
    -27.319  0.0000E+00  0.8000E+01
    -27.167  0.0000E+00  0.8000E+01
    -27.014  0.0000E+00  0.8000E+01
    -26.862  0.0000E+00  0.8000E+01
    -26.709  0.0000E+00  0.8000E+01
    -26.556  0.0000E+00  0.8000E+01
    -26.404  0.0000E+00  0.8000E+01
    -26.251  0.0000E+00  0.8000E+01
    -26.099  0.0000E+00  0.8000E+01
    -25.946  0.0000E+00  0.8000E+01
    -25.794  0.0000E+00  0.8000E+01
    -25.641  0.0000E+00  0.8000E+01
    -25.488  0.0000E+00  0.8000E+01
    -25.336  0.0000E+00  0.8000E+01
    -25.183  0.0000E+00  0.8000E+01
    -25.031  0.0000E+00  0.8000E+01
    -24.878  0.0000E+00  0.8000E+01
    -24.726  0.0000E+00  0.8000E+01
    -24.573  0.0000E+00  0.8000E+01
    -24.420  0.0000E+00  0.8000E+01
    -24.268  0.0000E+00  0.8000E+01
    -24.115  0.0000E+00  0.8000E+01
    -23.963  0.0000E+00  0.8000E+01
    -23.810  0.0000E+00  0.8000E+01
    -23.658  0.0000E+00  0.8000E+01
    -23.505  0.0000E+00  0.8000E+01
    -23.352  0.0000E+00  0.8000E+01
    -23.200  0.0000E+00  0.8000E+01
    -23.047  0.0000E+00  0.8000E+01
    -22.895  0.0000E+00  0.8000E+01
    -22.742  0.0000E+00  0.8000E+01
    -22.590  0.0000E+00  0.8000E+01
    -22.437  0.0000E+00  0.8000E+01
    -22.284  0.0000E+00  0.8000E+01
    -22.132  0.0000E+00  0.8000E+01
    -21.979  0.0000E+00  0.8000E+01
    -21.827  0.0000E+00  0.8000E+01
    -21.674  0.0000E+00  0.8000E+01
    -21.522  0.0000E+00  0.8000E+01
    -21.369  0.0000E+00  0.8000E+01
    -21.216  0.0000E+00  0.8000E+01
    -21.064  0.0000E+00  0.8000E+01
    -20.911  0.0000E+00  0.8000E+01
    -20.759  0.0000E+00  0.8000E+01
    -20.606  0.0000E+00  0.8000E+01
    -20.454  0.0000E+00  0.8000E+01
    -20.301  0.0000E+00  0.8000E+01
    -20.148  0.0000E+00  0.8000E+01
    -19.996  0.0000E+00  0.8000E+01
    -19.843  0.0000E+00  0.8000E+01
    -19.691  0.0000E+00  0.8000E+01
    -19.538  0.0000E+00  0.8000E+01
    -19.386  0.0000E+00  0.8000E+01
    -19.233  0.0000E+00  0.8000E+01
    -19.080  0.0000E+00  0.8000E+01
    -18.928  0.0000E+00  0.8000E+01
    -18.775  0.0000E+00  0.8000E+01
    -18.623  0.0000E+00  0.8000E+01
    -18.470  0.0000E+00  0.8000E+01
    -18.318  0.0000E+00  0.8000E+01
    -18.165  0.0000E+00  0.8000E+01
    -18.012  0.0000E+00  0.8000E+01
    -17.860  0.0000E+00  0.8000E+01
    -17.707  0.1750E+00  0.8001E+01
    -17.555  0.9882E+01  0.9068E+01
    -17.402  0.1218E+02  0.1071E+02
    -17.250  0.6706E+01  0.1197E+02
    -17.097  0.4343E+01  0.1298E+02
    -16.944  0.7186E+01  0.1434E+02
    -16.792  0.3944E+01  0.1535E+02
    -16.639  0.4963E+02  0.1747E+02
    -16.487  0.4170E+02  0.2277E+02
    -16.334  0.4429E+01  0.2649E+02
    -16.182  0.1773E+02  0.2821E+02
    -16.029  0.6493E+01  0.2959E+02
    -15.876  0.7629E+01  0.3195E+02
    -15.724  0.1392E+02  0.3341E+02
    -15.571  0.5130E-01  0.3600E+02
    -15.419  0.3058E+00  0.3603E+02
    -15.266  0.1388E+01  0.3622E+02
    -15.114  0.2596E+01  0.3654E+02
    -14.961  0.1002E+02  0.3734E+02
    -14.808  0.2050E+02  0.4060E+02
    -14.656  0.2593E+02  0.4617E+02
    -14.503  0.2530E+02  0.5034E+02
    -14.351  0.1774E+02  0.5519E+02
    -14.198  0.0000E+00  0.5600E+02
    -14.046  0.0000E+00  0.5600E+02
    -13.893  0.0000E+00  0.5600E+02
    -13.740  0.0000E+00  0.5600E+02
    -13.588  0.0000E+00  0.5600E+02
    -13.435  0.0000E+00  0.5600E+02
    -13.283  0.0000E+00  0.5600E+02
    -13.130  0.0000E+00  0.5600E+02
    -12.978  0.0000E+00  0.5600E+02
    -12.825  0.0000E+00  0.5600E+02
    -12.672  0.0000E+00  0.5600E+02
    -12.520  0.0000E+00  0.5600E+02
    -12.367  0.0000E+00  0.5600E+02
    -12.215  0.0000E+00  0.5600E+02
    -12.062  0.0000E+00  0.5600E+02
    -11.910  0.0000E+00  0.5600E+02
    -11.757  0.0000E+00  0.5600E+02
    -11.604  0.0000E+00  0.5600E+02
    -11.452  0.0000E+00  0.5600E+02
    -11.299  0.0000E+00  0.5600E+02
    -11.147  0.0000E+00  0.5600E+02
    -10.994  0.0000E+00  0.5600E+02
    -10.842  0.0000E+00  0.5600E+02
    -10.689  0.0000E+00  0.5600E+02
    -10.536  0.0000E+00  0.5600E+02
    -10.384  0.0000E+00  0.5600E+02
    -10.231  0.0000E+00  0.5600E+02
    -10.079  0.0000E+00  0.5600E+02
     -9.926  0.0000E+00  0.5600E+02
     -9.774  0.0000E+00  0.5600E+02
     -9.621  0.0000E+00  0.5600E+02
     -9.468  0.0000E+00  0.5600E+02
     -9.316  0.0000E+00  0.5600E+02
     -9.163  0.0000E+00  0.5600E+02
     -9.011  0.0000E+00  0.5600E+02
     -8.858  0.0000E+00  0.5600E+02
     -8.706  0.0000E+00  0.5600E+02
     -8.553  0.0000E+00  0.5600E+02
     -8.400  0.0000E+00  0.5600E+02
     -8.248  0.0000E+00  0.5600E+02
     -8.095  0.0000E+00  0.5600E+02
     -7.943  0.0000E+00  0.5600E+02
     -7.790  0.0000E+00  0.5600E+02
     -7.638  0.0000E+00  0.5600E+02
     -7.485  0.0000E+00  0.5600E+02
     -7.332  0.0000E+00  0.5600E+02
     -7.180  0.0000E+00  0.5600E+02
     -7.027  0.0000E+00  0.5600E+02
     -6.875  0.0000E+00  0.5600E+02
     -6.722  0.0000E+00  0.5600E+02
     -6.570  0.0000E+00  0.5600E+02
     -6.417  0.0000E+00  0.5600E+02
     -6.264  0.0000E+00  0.5600E+02
     -6.112  0.0000E+00  0.5600E+02
     -5.959  0.0000E+00  0.5600E+02
     -5.807  0.0000E+00  0.5600E+02
     -5.654  0.0000E+00  0.5600E+02
     -5.502  0.0000E+00  0.5600E+02
     -5.349  0.0000E+00  0.5600E+02
     -5.196  0.0000E+00  0.5600E+02
     -5.044  0.0000E+00  0.5600E+02
     -4.891  0.0000E+00  0.5600E+02
     -4.739  0.0000E+00  0.5600E+02
     -4.586  0.1754E+01  0.5607E+02
     -4.434  0.1008E+02  0.5734E+02
     -4.281  0.2000E+02  0.5977E+02
     -4.128  0.1518E+02  0.6225E+02
     -3.976  0.1387E+02  0.6462E+02
     -3.823  0.1338E+02  0.6688E+02
     -3.671  0.1484E+02  0.6924E+02
     -3.518  0.1757E+02  0.7181E+02
     -3.366  0.1953E+02  0.7486E+02
     -3.213  0.2207E+02  0.7803E+02
     -3.060  0.2530E+02  0.8202E+02
     -2.908  0.1955E+02  0.8551E+02
     -2.755  0.1359E+02  0.8784E+02
     -2.603  0.1427E+02  0.9001E+02
     -2.450  0.1137E+02  0.9195E+02
     -2.298  0.1292E+02  0.9387E+02
     -2.145  0.1052E+02  0.9581E+02
     -1.992  0.9942E+01  0.9747E+02
     -1.840  0.9989E+01  0.9904E+02
     -1.687  0.2315E+02  0.1009E+03
     -1.535  0.1117E+02  0.1028E+03
     -1.382  0.1225E+02  0.1053E+03
     -1.230  0.2053E+02  0.1087E+03
     -1.077  0.2552E+02  0.1117E+03
     -0.924  0.2055E+02  0.1156E+03
     -0.772  0.1021E+02  0.1180E+03
     -0.619  0.2048E+02  0.1210E+03
     -0.467  0.1683E+02  0.1237E+03
     -0.314  0.1138E+02  0.1257E+03
     -0.162  0.4880E+01  0.1272E+03
     -0.009  0.1228E+01  0.1274E+03
      0.143  0.1164E+01  0.1276E+03
      0.296  0.8940E+00  0.1278E+03
      0.449  0.6454E+00  0.1279E+03
      0.601  0.0000E+00  0.1280E+03
      0.754  0.0000E+00  0.1280E+03
      0.906  0.0000E+00  0.1280E+03
      1.059  0.0000E+00  0.1280E+03
      1.211  0.0000E+00  0.1280E+03
      1.364  0.0000E+00  0.1280E+03
      1.517  0.0000E+00  0.1280E+03
      1.669  0.5189E+00  0.1280E+03
      1.822  0.3380E+01  0.1282E+03
      1.974  0.3753E+01  0.1288E+03
      2.127  0.4262E+01  0.1294E+03
      2.279  0.4403E+01  0.1300E+03
      2.432  0.8111E+01  0.1310E+03
      2.585  0.6963E+01  0.1322E+03
      2.737  0.6805E+01  0.1332E+03
      2.890  0.9446E+01  0.1345E+03
      3.042  0.1139E+02  0.1361E+03
      3.195  0.1216E+02  0.1378E+03
      3.347  0.1402E+02  0.1399E+03
      3.500  0.1589E+02  0.1426E+03
      3.653  0.1523E+02  0.1454E+03
      3.805  0.1145E+02  0.1474E+03
      3.958  0.3443E+01  0.1486E+03
      4.110  0.4594E+00  0.1489E+03
      4.263  0.4592E+00  0.1490E+03
      4.415  0.4590E+00  0.1491E+03
      4.568  0.4588E+00  0.1491E+03
      4.721  0.4586E+00  0.1492E+03
      4.873  0.4584E+00  0.1493E+03
      5.026  0.4689E+00  0.1493E+03
      5.178  0.5094E+00  0.1494E+03
      5.331  0.5500E+00  0.1495E+03
      5.483  0.5905E+00  0.1496E+03
      5.636  0.7274E+00  0.1497E+03
      5.789  0.9539E+00  0.1498E+03
      5.941  0.1346E+01  0.1500E+03
      6.094  0.7840E+00  0.1502E+03
      6.246  0.7003E+00  0.1503E+03
      6.399  0.7125E+00  0.1504E+03
      6.551  0.7247E+00  0.1505E+03
      6.704  0.7369E+00  0.1506E+03
      6.857  0.7491E+00  0.1507E+03
      7.009  0.8426E+00  0.1508E+03
      7.162  0.7503E+00  0.1509E+03
      7.314  0.7270E+00  0.1511E+03
      7.467  0.7075E+00  0.1512E+03
      7.619  0.1820E+01  0.1514E+03
      7.772  0.3145E+01  0.1518E+03
      7.925  0.0000E+00  0.1520E+03
      8.077  0.0000E+00  0.1520E+03
      8.230  0.0000E+00  0.1520E+03
      8.382  0.0000E+00  0.1520E+03
      8.535  0.0000E+00  0.1520E+03
      8.687  0.0000E+00  0.1520E+03
      8.840  0.0000E+00  0.1520E+03
      8.993  0.0000E+00  0.1520E+03
      9.145  0.0000E+00  0.1520E+03
      9.298  0.0000E+00  0.1520E+03
      9.450  0.0000E+00  0.1520E+03
      9.603  0.0000E+00  0.1520E+03
      9.755  0.0000E+00  0.1520E+03
      9.908  0.0000E+00  0.1520E+03
