Automatically generated mesh
      10
Reciprocal lattice
    0.00000000000000    0.00000000000000    0.00000000000000             1
    0.14285714285714    0.00000000000000    0.00000000000000             4
    0.28571428571429    0.00000000000000    0.00000000000000             4
    0.42857142857143    0.00000000000000    0.00000000000000             4
    0.14285714285714    0.14285714285714    0.00000000000000             4
    0.28571428571429    0.14285714285714    0.00000000000000             8
    0.42857142857143    0.14285714285714    0.00000000000000             8
    0.28571428571429    0.28571428571429    0.00000000000000             4
    0.42857142857143    0.28571428571429    0.00000000000000             8
    0.42857142857143    0.42857142857143    0.00000000000000             4
Tetrahedra
        65    0.00340136054422
         4         1         1         2         5
         4         1         2         2         5
         4         1         2         5         5
         4         2         2         3         6
         4         2         2         5         6
         4         2         5         5         6
         4         2         3         3         6
         4         2         3         6         6
         4         2         5         6         6
         4         3         3         4         7
         4         3         3         6         7
         4         3         6         6         7
         4         3         4         4         7
         4         3         4         7         7
         4         3         6         7         7
         8         4         4         4         7
         8         4         4         7         7
         8         4         7         7         7
         4         3         4         4         6
         4         4         4         6         7
         4         4         6         7         7
         4         3         3         4         6
         4         3         4         6         6
         4         4         6         6         7
         4         2         3         3         5
         4         3         3         5         6
         4         3         5         6         6
         4         2         2         3         5
         4         2         3         5         5
         4         3         5         5         6
         4         1         2         2         2
         4         2         2         2         5
         2         2         2         5         5
         2         1         1         2         2
         4         5         5         6         8
         4         5         6         6         8
         4         5         6         8         8
         4         6         6         7         9
         4         6         6         8         9
         4         6         8         8         9
         4         6         7         7         9
         4         6         7         9         9
         4         6         8         9         9
         8         7         7         7         9
         8         7         7         9         9
         8         7         9         9         9
         4         6         7         7         8
         4         7         7         8         9
         4         7         8         9         9
         4         6         6         7         8
         4         6         7         8         8
         4         7         8         8         9
         4         5         6         6         6
         4         6         6         6         8
         2         6         6         8         8
         2         5         5         6         6
         4         8         8         9        10
         4         8         9         9        10
         4         8         9        10        10
        12         9         9         9        10
        10         9         9        10        10
         8         9        10        10        10
         4         8         9         9         9
         2         8         8         9         9
         6        10        10        10        10
