 vasp.5.4.4.18Apr17-6-g9f103f2a35 (build Jun 30 2017 11:15:00) complex          
  
 executed on    STALLO_VASP_5.4.4 date 2019.11.06  13:22:58
 running on    4 total cores
 distrk:  each k-point on    4 cores,    1 groups
 distr:  one band on NCORES_PER_BAND=   2 cores,    2 groups


--------------------------------------------------------------------------------------------------------


 INCAR:
 POTCAR:   PAW_PBE O 08Apr2002                    
 POTCAR:   PAW_PBE Sr_sv 07Sep2000                
 POTCAR:   PAW_PBE Ti 08Apr2002                   
 POTCAR:   PAW_PBE O 08Apr2002                    
   VRHFIN =O: s2p4                                                              
   LEXCH  = PE                                                                  
   EATOM  =   432.3788 eV,   31.7789 Ry                                         
                                                                                
   TITEL  = PAW_PBE O 08Apr2002                                                 
   LULTRA =        F    use ultrasoft PP ?                                      
   IUNSCR =        0    unscreen: 0-lin 1-nonlin 2-no                           
   RPACOR =     .000    partial core radius                                     
   POMASS =   16.000; ZVAL   =    6.000    mass and valenz                      
   RCORE  =    1.520    outmost cutoff radius                                   
   RWIGS  =    1.550; RWIGS  =     .820    wigner-seitz radius (au A)           
   ENMAX  =  400.000; ENMIN  =  300.000 eV                                      
   ICORE  =        2    local potential                                         
   LCOR   =        T    correct aug charges                                     
   LPAW   =        T    paw PP                                                  
   EAUG   =  605.392                                                            
   DEXC   =     .000                                                            
   RMAX   =    2.264    core radius for proj-oper                               
   RAUG   =    1.300    factor for augmentation sphere                          
   RDEP   =    1.550    radius for radial grids                                 
   QCUT   =   -5.520; QGAM   =   11.041    optimization parameters              
                                                                                
   Description                                                                  
     l     E      TYP  RCUT    TYP  RCUT                                        
     0   .000     23  1.200                                                     
     0  -.700     23  1.200                                                     
     1   .000     23  1.520                                                     
     1   .600     23  1.520                                                     
     2   .000      7  1.500                                                     
  local pseudopotential read in
  atomic valenz-charges read in
  non local Contribution for L=           0  read in
    real space projection operators read in
  non local Contribution for L=           0  read in
    real space projection operators read in
  non local Contribution for L=           1  read in
    real space projection operators read in
  non local Contribution for L=           1  read in
    real space projection operators read in
    PAW grid and wavefunctions read in
 
   number of l-projection  operators is LMAX  =           4
   number of lm-projection operators is LMMAX =           8
 
 POTCAR:   PAW_PBE Sr_sv 07Sep2000                
   VRHFIN =Sr: 4s4p5s                                                           
   LEXCH  = PE                                                                  
   EATOM  =   842.4562 eV,   61.9188 Ry                                         
                                                                                
   TITEL  = PAW_PBE Sr_sv 07Sep2000                                             
   LULTRA =        F    use ultrasoft PP ?                                      
   IUNSCR =        1    unscreen: 0-lin 1-nonlin 2-no                           
   RPACOR =    2.200    partial core radius                                     
   POMASS =   87.620; ZVAL   =   10.000    mass and valenz                      
   RCORE  =    2.500    outmost cutoff radius                                   
   RWIGS  =    4.040; RWIGS  =    2.138    wigner-seitz radius (au A)           
   ENMAX  =  229.282; ENMIN  =  171.961 eV                                      
   RCLOC  =    2.201    cutoff for local pot                                    
   LCOR   =        T    correct aug charges                                     
   LPAW   =        T    paw PP                                                  
   EAUG   =  366.804                                                            
   DEXC   =     .000                                                            
   RMAX   =    3.045    core radius for proj-oper                               
   RAUG   =    1.300    factor for augmentation sphere                          
   RDEP   =    2.562    radius for radial grids                                 
   QCUT   =   -4.105; QGAM   =    8.210    optimization parameters              
                                                                                
   Description                                                                  
     l     E      TYP  RCUT    TYP  RCUT                                        
     0   .000     23  2.480                                                     
     0   .000     23  2.480                                                     
     1   .000     23  2.500                                                     
     1   .000     23  2.500                                                     
     2   .000     23  2.500                                                     
     2   .000     23  2.500                                                     
  local pseudopotential read in
  partial core-charges read in
  atomic valenz-charges read in
  non local Contribution for L=           0  read in
    real space projection operators read in
  non local Contribution for L=           0  read in
    real space projection operators read in
  non local Contribution for L=           1  read in
    real space projection operators read in
  non local Contribution for L=           1  read in
    real space projection operators read in
  non local Contribution for L=           2  read in
    real space projection operators read in
  non local Contribution for L=           2  read in
    real space projection operators read in
    PAW grid and wavefunctions read in
 
   number of l-projection  operators is LMAX  =           6
   number of lm-projection operators is LMMAX =          18
 
 POTCAR:   PAW_PBE Ti 08Apr2002                   
   VRHFIN =Ti: d3 s1                                                            
   LEXCH  = PE                                                                  
   EATOM  =    94.7929 eV,    6.9671 Ry                                         
                                                                                
   TITEL  = PAW_PBE Ti 08Apr2002                                                
   LULTRA =        F    use ultrasoft PP ?                                      
   IUNSCR =        1    unscreen: 0-lin 1-nonlin 2-no                           
   RPACOR =    2.200    partial core radius                                     
   POMASS =   47.880; ZVAL   =    4.000    mass and valenz                      
   RCORE  =    2.800    outmost cutoff radius                                   
   RWIGS  =    2.500; RWIGS  =    1.323    wigner-seitz radius (au A)           
   ENMAX  =  178.330; ENMIN  =  133.747 eV                                      
   RCLOC  =    2.215    cutoff for local pot                                    
   LCOR   =        T    correct aug charges                                     
   LPAW   =        T    paw PP                                                  
   EAUG   =  328.883                                                            
   DEXC   =    -.043                                                            
   RMAX   =    3.453    core radius for proj-oper                               
   RAUG   =    1.300    factor for augmentation sphere                          
   RDEP   =    2.885    radius for radial grids                                 
   QCUT   =   -3.620; QGAM   =    7.241    optimization parameters              
                                                                                
   Description                                                                  
     l     E      TYP  RCUT    TYP  RCUT                                        
     2   .000     23  2.800                                                     
     2   .000     23  2.800                                                     
     0   .000     23  2.800                                                     
     0  1.500     23  2.800                                                     
     1  -.400     23  2.800                                                     
     3   .000      7   .000                                                     
  local pseudopotential read in
  partial core-charges read in
  atomic valenz-charges read in
  non local Contribution for L=           2  read in
    real space projection operators read in
  non local Contribution for L=           2  read in
    real space projection operators read in
  non local Contribution for L=           0  read in
    real space projection operators read in
  non local Contribution for L=           0  read in
    real space projection operators read in
  non local Contribution for L=           1  read in
    real space projection operators read in
    PAW grid and wavefunctions read in
 
   number of l-projection  operators is LMAX  =           5
   number of lm-projection operators is LMMAX =          15
 

 ----------------------------------------------------------------------------- 
|                                                                             |
|  ADVICE TO THIS USER RUNNING 'VASP/VAMP'   (HEAR YOUR MASTER'S VOICE ...):  |
|                                                                             |
|      You have a (more or less) 'large supercell' and for larger cells       |
|      it might be more efficient to use real space projection operators      |
|      So try LREAL= Auto  in the INCAR   file.                               |
|      Mind: If you want to do a very accurate calculations keep the          |
|      reciprocal projection scheme          (i.e. LREAL=.FALSE.)             |
|                                                                             |
 ----------------------------------------------------------------------------- 

 WARNING: PSMAXN for non-local potential too small
          PSMAXN should be >   13.5545592237991       NTYP=           3
 PAW_PBE O 08Apr2002                    :
 energy of atom  1       EATOM= -432.3788
 kinetic energy error for atom=    0.0091 (will be added to EATOM!!)
 PAW_PBE Sr_sv 07Sep2000                :
 energy of atom  2       EATOM= -842.4562
 kinetic energy error for atom=    0.0004 (will be added to EATOM!!)
 PAW_PBE Ti 08Apr2002                   :
 energy of atom  3       EATOM=  -94.7929
 kinetic energy error for atom=    0.0000 (will be added to EATOM!!)
 
 
 POSCAR:  O Sr Ti                                
  positions in direct lattice
  No initial velocities read in
 exchange correlation table for  LEXCH =        8
   RHO(1)=    0.500       N(1)  =     2000
   RHO(2)=  100.500       N(2)  =     4000
 


--------------------------------------------------------------------------------------------------------


 ion  position               nearest neighbor table
   1  0.500  0.500  0.234-  17 1.95  13 2.76  13 2.76  13 2.76  13 2.76
   2  0.500  0.000  0.310-  17 1.95  17 1.95  13 2.76  14 2.76  13 2.76  14 2.76
   3  0.000  0.500  0.310-  17 1.95  17 1.95  13 2.76  13 2.76  14 2.76  14 2.76
   4  0.500  0.500  0.386-  17 1.95  18 1.95  14 2.76  14 2.76  14 2.76  14 2.76
   5  0.500  0.000  0.462-  18 1.95  18 1.95  15 2.76  15 2.76  14 2.76  14 2.76
   6  0.000  0.500  0.462-  18 1.95  18 1.95  15 2.76  15 2.76  14 2.76  14 2.76
   7  0.500  0.500  0.538-  18 1.95  19 1.95  15 2.76  15 2.76  15 2.76  15 2.76
   8  0.500  0.000  0.614-  19 1.95  19 1.95  16 2.76  16 2.76  15 2.76  15 2.76
   9  0.000  0.500  0.614-  19 1.95  19 1.95  16 2.76  16 2.76  15 2.76  15 2.76
  10  0.500  0.500  0.690-  19 1.95  20 1.95  16 2.76  16 2.76  16 2.76  16 2.76
  11  0.500  0.000  0.766-  20 1.95  20 1.95  16 2.76  16 2.76
  12  0.000  0.500  0.766-  20 1.95  20 1.95  16 2.76  16 2.76
  13  0.000  0.000  0.234-   2 2.76   3 2.76   3 2.76   2 2.76   1 2.76   1 2.76   1 2.76   1 2.76
                            17 3.38  17 3.38  17 3.38  17 3.38  14 3.91
  14  0.000  0.000  0.386-   2 2.76   3 2.76   3 2.76   2 2.76   4 2.76   4 2.76   4 2.76   4 2.76
                             5 2.76   6 2.76   5 2.76   6 2.76  17 3.38  17 3.38  17 3.38  17 3.38
  15  0.000  0.000  0.538-   5 2.76   6 2.76   6 2.76   5 2.76   7 2.76   7 2.76   7 2.76   7 2.76
                             8 2.76   9 2.76   8 2.76   9 2.76  18 3.38  18 3.38  18 3.38  18 3.38
  16  0.000  0.000  0.690-   8 2.76   9 2.76  11 2.76  12 2.76   9 2.76  12 2.76   8 2.76  11 2.76
                            10 2.76  10 2.76  10 2.76  10 2.76  20 3.38  19 3.38  19 3.38  19 3.38
  17  0.500  0.500  0.310-   1 1.95   4 1.95   3 1.95   2 1.95   2 1.95   3 1.95  13 3.38  13 3.38
                            14 3.38  14 3.38  13 3.38  14 3.38  13 3.38  14 3.38
  18  0.500  0.500  0.462-   7 1.95   6 1.95   5 1.95   5 1.95   6 1.95   4 1.95  15 3.38  15 3.38
                            15 3.38  15 3.38  14 3.38  14 3.38  14 3.38  14 3.38
  19  0.500  0.500  0.614-  10 1.95   9 1.95   8 1.95   8 1.95   9 1.95   7 1.95  16 3.38  16 3.38
                            16 3.38  16 3.38  15 3.38  15 3.38  15 3.38  15 3.38
  20  0.500  0.500  0.766-  10 1.95  11 1.95  12 1.95  11 1.95  12 1.95  16 3.38  16 3.38  16 3.38
                            16 3.38
 
  LATTYP: Found a simple tetragonal cell.
 ALAT       =     3.9052680000
 C/A-ratio  =     6.5727724704
  
  Lattice vectors:
  
 A1 = (   3.9052680000,   0.0000000000,   0.0000000000)
 A2 = (   0.0000000000,   3.9052680000,   0.0000000000)
 A3 = (   0.0000000000,   0.0000000000,  25.6684380000)


Analysis of symmetry for initial positions (statically):
=====================================================================
 Subroutine PRICEL returns:
 Original cell was already a primitive cell.
 

 Routine SETGRP: Setting up the symmetry group for a 
 simple tetragonal supercell.


 Subroutine GETGRP returns: Found  8 space group operations
 (whereof  8 operations were pure point group operations)
 out of a pool of 16 trial point group operations.


The static configuration has the point symmetry C_4v.


Analysis of symmetry for dynamics (positions and initial velocities):
=====================================================================
 Subroutine PRICEL returns:
 Original cell was already a primitive cell.
 

 Routine SETGRP: Setting up the symmetry group for a 
 simple tetragonal supercell.


 Subroutine GETGRP returns: Found  8 space group operations
 (whereof  8 operations were pure point group operations)
 out of a pool of 16 trial point group operations.


The dynamic configuration has the point symmetry C_4v.


 Subroutine INISYM returns: Found  8 space group operations
 (whereof  8 operations are pure point group operations),
 and found     1 'primitive' translations

 
 
 KPOINTS: k-density: 4.0                          

Automatic generation of k-mesh.
Space group operators:
 irot       det(A)        alpha          n_x          n_y          n_z        tau_x        tau_y        tau_z
    1     1.000000     0.000000     1.000000     0.000000     0.000000     0.000000     0.000000     0.000000
    2     1.000000    90.000000     0.000000     0.000000    -1.000000     0.000000     0.000000     0.000000
    3     1.000000   180.000000     0.000000     0.000000     1.000000     0.000000     0.000000     0.000000
    4     1.000000    90.000000     0.000000     0.000000     1.000000     0.000000     0.000000     0.000000
    5    -1.000000   180.000000     0.000000     1.000000     0.000000     0.000000     0.000000     0.000000
    6    -1.000000   180.000000     0.707107     0.707107     0.000000     0.000000     0.000000     0.000000
    7    -1.000000   180.000000     1.000000     0.000000     0.000000     0.000000     0.000000     0.000000
    8    -1.000000   180.000000     0.707107    -0.707107     0.000000     0.000000     0.000000     0.000000
 
 Subroutine IBZKPT returns following result:
 ===========================================
 
 Found     10 irreducible k-points:
 
 Following reciprocal coordinates:
            Coordinates               Weight
  0.000000  0.000000  0.000000      1.000000
  0.142857  0.000000  0.000000      4.000000
  0.285714  0.000000  0.000000      4.000000
  0.428571  0.000000  0.000000      4.000000
  0.142857  0.142857  0.000000      4.000000
  0.285714  0.142857  0.000000      8.000000
  0.428571  0.142857  0.000000      8.000000
  0.285714  0.285714  0.000000      4.000000
  0.428571  0.285714  0.000000      8.000000
  0.428571  0.428571  0.000000      4.000000
 
 Following cartesian coordinates:
            Coordinates               Weight
  0.000000  0.000000  0.000000      1.000000
  0.036581  0.000000  0.000000      4.000000
  0.073161  0.000000  0.000000      4.000000
  0.109742  0.000000  0.000000      4.000000
  0.036581  0.036581  0.000000      4.000000
  0.073161  0.036581  0.000000      8.000000
  0.109742  0.036581  0.000000      8.000000
  0.073161  0.073161  0.000000      4.000000
  0.109742  0.073161  0.000000      8.000000
  0.109742  0.109742  0.000000      4.000000
 
 TETIRR: Found     65 inequivalent tetrahedra from      294


--------------------------------------------------------------------------------------------------------




 Dimension of arrays:
   k-points           NKPTS =     10   k-points in BZ     NKDIM =     10   number of bands    NBANDS=     76
   number of dos      NEDOS =    301   number of ions     NIONS =     20
   non local maximal  LDIM  =      6   non local SUM 2l+1 LMDIM =     18
   total plane-waves  NPLWV = 131712
   max r-space proj   IRMAX =      1   max aug-charges    IRDMAX=  23434
   dimension x,y,z NGX =    28 NGY =   28 NGZ =  168
   dimension x,y,z NGXF=    56 NGYF=   56 NGZF=  336
   support grid    NGXF=    56 NGYF=   56 NGZF=  336
   ions per type =              12   4   4
   NGX,Y,Z   is equivalent  to a cutoff of  11.92, 11.92, 10.88 a.u.
   NGXF,Y,Z  is equivalent  to a cutoff of  23.84, 23.84, 21.76 a.u.

 SYSTEM =  unknown system                          
 POSCAR =   O Sr Ti                                

 Startparameter for this run:
   NWRITE =      2    write-flag & timer
   PREC   = normal    normal or accurate (medium, high low for compatibility)
   ISTART =      0    job   : 0-new  1-cont  2-samecut
   ICHARG =      2    charge: 1-file 2-atom 10-const
   ISPIN  =      1    spin polarized calculation?
   LNONCOLLINEAR =      F non collinear calculations
   LSORBIT =      F    spin-orbit coupling
   INIWAV =      1    electr: 0-lowe 1-rand  2-diag
   LASPH  =      F    aspherical Exc in radial PAW
   METAGGA=      F    non-selfconsistent MetaGGA calc.

 Electronic Relaxation 1
   ENCUT  =  700.0 eV  51.45 Ry    7.17 a.u.   8.42  8.42 55.37*2*pi/ulx,y,z
   ENINI  =  700.0     initial cutoff
   ENAUG  =  605.4 eV  augmentation charge cutoff
   NELM   =     60;   NELMIN=  4; NELMDL= -5     # of ELM steps 
   EDIFF  = 0.1E-04   stopping-criterion for ELM
   LREAL  =      F    real-space projection
   NLSPLINE    = F    spline interpolate recip. space projectors
   LCOMPAT=      F    compatible to vasp.4.4
   GGA_COMPAT  = T    GGA compatible to vasp.4.4-vasp.4.6
   LMAXPAW     = -100 max onsite density
   LMAXMIX     =    2 max onsite mixed and CHGCAR
   VOSKOWN=      0    Vosko Wilk Nusair interpolation
   ROPT   =    0.00000   0.00000   0.00000
 Ionic relaxation
   EDIFFG = 0.1E-03   stopping-criterion for IOM
   NSW    =      0    number of steps for IOM
   NBLOCK =      1;   KBLOCK =      1    inner block; outer block 
   IBRION =     -1    ionic relax: 0-MD 1-quasi-New 2-CG
   NFREE  =      0    steps in history (QN), initial steepest desc. (CG)
   ISIF   =      2    stress and relaxation
   IWAVPR =     10    prediction:  0-non 1-charg 2-wave 3-comb
   ISYM   =      2    0-nonsym 1-usesym 2-fastsym
   LCORR  =      T    Harris-Foulkes like correction to forces

   POTIM  = 0.5000    time-step for ionic-motion
   TEIN   =    0.0    initial temperature
   TEBEG  =    0.0;   TEEND  =   0.0 temperature during run
   SMASS  =  -3.00    Nose mass-parameter (am)
   estimated Nose-frequenzy (Omega)   =  0.10E-29 period in steps =****** mass=  -0.349E-27a.u.
   SCALEE = 1.0000    scale energy and forces
   NPACO  =    256;   APACO  = 16.0  distance and # of slots for P.C.
   PSTRESS=    0.0 pullay stress

  Mass of Ions in am
   POMASS =  16.00 87.62 47.88
  Ionic Valenz
   ZVAL   =   6.00 10.00  4.00
  Atomic Wigner-Seitz radii
   RWIGS  =  -1.00 -1.00 -1.00
  virtual crystal weights 
   VCA    =   1.00  1.00  1.00
   NELECT =     128.0000    total number of electrons
   NUPDOWN=      -1.0000    fix difference up-down

 DOS related values:
   EMIN   =  10.00;   EMAX   =-10.00  energy-range for DOS
   EFERMI =   0.00
   ISMEAR =    -5;   SIGMA  =   0.20  broadening in eV -4-tet -1-fermi 0-gaus

 Electronic relaxation 2 (details)
   IALGO  =     68    algorithm
   LDIAG  =      T    sub-space diagonalisation (order eigenvalues)
   LSUBROT=      F    optimize rotation matrix (better conditioning)
   TURBO    =      0    0=normal 1=particle mesh
   IRESTART =      0    0=no restart 2=restart with 2 vectors
   NREBOOT  =      0    no. of reboots
   NMIN     =      0    reboot dimension
   EREF     =   0.00    reference energy to select bands
   IMIX   =      4    mixing-type and parameters
     AMIX     =   0.40;   BMIX     =  1.00
     AMIX_MAG =   1.60;   BMIX_MAG =  1.00
     AMIN     =   0.10
     WC   =   100.;   INIMIX=   1;  MIXPRE=   1;  MAXMIX= -45

 Intra band minimization:
   WEIMIN = 0.0000     energy-eigenvalue tresh-hold
   EBREAK =  0.33E-07  absolut break condition
   DEPER  =   0.30     relativ break condition  

   TIME   =   0.40     timestep for ELM

  volume/ion in A,a.u.               =      19.57       132.09
  Fermi-wavevector in a.u.,A,eV,Ry     =   1.127832  2.131294 17.306682  1.272005
  Thomas-Fermi vector in A             =   2.264520
 
 Write flags
   LWAVE        =      F    write WAVECAR
   LDOWNSAMPLE  =      F    k-point downsampling of WAVECAR
   LCHARG       =      T    write CHGCAR
   LVTOT        =      F    write LOCPOT, total local potential
   LVHAR        =      F    write LOCPOT, Hartree potential only
   LELF         =      F    write electronic localiz. function (ELF)
   LORBIT       =      0    0 simple, 1 ext, 2 COOP (PROOUT), +10 PAW based schemes


 Dipole corrections
   LMONO  =      F    monopole corrections only (constant potential shift)
   LDIPOL =      F    correct potential (dipole corrections)
   IDIPOL =      0    1-x, 2-y, 3-z, 4-all directions 
   EPSILON=  1.0000000 bulk dielectric constant

 Exchange correlation treatment:
   GGA     =    --    GGA type
   LEXCH   =     8    internal setting for exchange type
   VOSKOWN=      0    Vosko Wilk Nusair interpolation
   LHFCALC =     F    Hartree Fock is set to
   LHFONE  =     F    Hartree Fock one center treatment
   AEXX    =    0.0000 exact exchange contribution

 Linear response parameters
   LEPSILON=     F    determine dielectric tensor
   LRPA    =     F    only Hartree local field effects (RPA)
   LNABLA  =     F    use nabla operator in PAW spheres
   LVEL    =     F    velocity operator in full k-point grid
   LINTERFAST=   F  fast interpolation
   KINTER  =     0    interpolate to denser k-point grid
   CSHIFT  =0.1000    complex shift for real part using Kramers Kronig
   OMEGAMAX=  -1.0    maximum frequency
   DEG_THRESHOLD= 0.2000000E-02 threshold for treating states as degnerate
   RTIME   =   -0.100 relaxation time in fs
  (WPLASMAI=    0.000 imaginary part of plasma frequency in eV, 0.658/RTIME)
   DFIELD  = 0.0000000 0.0000000 0.0000000 field for delta impulse in time
 
 Orbital magnetization related:
   ORBITALMAG=     F  switch on orbital magnetization
   LCHIMAG   =     F  perturbation theory with respect to B field
   DQ        =  0.001000  dq finite difference perturbation B field
   LLRAUG    =     F  two centre corrections for induced B field



--------------------------------------------------------------------------------------------------------


 Static calculation
 charge density and potential will be updated during run
 non-spin polarized calculation
 RMM-DIIS sequential band-by-band and
  variant of blocked Davidson during initial phase
 perform sub-space diagonalisation
    before iterative eigenvector-optimisation
 modified Broyden-mixing scheme, WC =      100.0
 initial mixing is a Kerker type mixing with AMIX =  0.4000 and BMIX =      1.0000
 Hartree-type preconditioning will be used
 using additional bands           12
 reciprocal scheme for non local part
 use partial core corrections
 calculate Harris-corrections to forces 
   (improved forces if not selfconsistent)
 use gradient corrections 
 use of overlap-Matrix (Vanderbilt PP)
 Fermi weights with tetrahedron method with Bloechl corrections


--------------------------------------------------------------------------------------------------------


  energy-cutoff  :      700.00
  volume of cell :      391.47
      direct lattice vectors                 reciprocal lattice vectors
     3.905268000  0.000000000  0.000000000     0.256064373  0.000000000  0.000000000
     0.000000000  3.905268000  0.000000000     0.000000000  0.256064373  0.000000000
     0.000000000  0.000000000 25.668438000     0.000000000  0.000000000  0.038958350

  length of vectors
     3.905268000  3.905268000 25.668438000     0.256064373  0.256064373  0.038958350


 
 k-points in units of 2pi/SCALE and weight: k-density: 4.0                          
   0.00000000  0.00000000  0.00000000       0.020
   0.03658062  0.00000000  0.00000000       0.082
   0.07316125  0.00000000  0.00000000       0.082
   0.10974187  0.00000000  0.00000000       0.082
   0.03658062  0.03658062  0.00000000       0.082
   0.07316125  0.03658062  0.00000000       0.163
   0.10974187  0.03658062  0.00000000       0.163
   0.07316125  0.07316125  0.00000000       0.082
   0.10974187  0.07316125  0.00000000       0.163
   0.10974187  0.10974187  0.00000000       0.082
 
 k-points in reciprocal lattice and weights: k-density: 4.0                          
   0.00000000  0.00000000  0.00000000       0.020
   0.14285714  0.00000000  0.00000000       0.082
   0.28571429  0.00000000  0.00000000       0.082
   0.42857143  0.00000000  0.00000000       0.082
   0.14285714  0.14285714  0.00000000       0.082
   0.28571429  0.14285714  0.00000000       0.163
   0.42857143  0.14285714  0.00000000       0.163
   0.28571429  0.28571429  0.00000000       0.082
   0.42857143  0.28571429  0.00000000       0.163
   0.42857143  0.42857143  0.00000000       0.082
 
 position of ions in fractional coordinates (direct lattice) 
   0.50000000  0.50000000  0.23375010
   0.50000000  0.00000000  0.30982150
   0.00000000  0.50000000  0.30982150
   0.50000000  0.50000000  0.38589290
   0.50000000  0.00000000  0.46196430
   0.00000000  0.50000000  0.46196430
   0.50000000  0.50000000  0.53803570
   0.50000000  0.00000000  0.61410710
   0.00000000  0.50000000  0.61410710
   0.50000000  0.50000000  0.69017850
   0.50000000  0.00000000  0.76624990
   0.00000000  0.50000000  0.76624990
   0.00000000  0.00000000  0.23375010
   0.00000000  0.00000000  0.38589290
   0.00000000  0.00000000  0.53803570
   0.00000000  0.00000000  0.69017850
   0.50000000  0.50000000  0.30982150
   0.50000000  0.50000000  0.46196430
   0.50000000  0.50000000  0.61410710
   0.50000000  0.50000000  0.76624990
 
 position of ions in cartesian coordinates  (Angst):
   1.95263400  1.95263400  6.00000000
   1.95263400  0.00000000  7.95263400
   0.00000000  1.95263400  7.95263400
   1.95263400  1.95263400  9.90526800
   1.95263400  0.00000000 11.85790200
   0.00000000  1.95263400 11.85790200
   1.95263400  1.95263400 13.81053600
   1.95263400  0.00000000 15.76317000
   0.00000000  1.95263400 15.76317000
   1.95263400  1.95263400 17.71580400
   1.95263400  0.00000000 19.66843800
   0.00000000  1.95263400 19.66843800
   0.00000000  0.00000000  6.00000000
   0.00000000  0.00000000  9.90526800
   0.00000000  0.00000000 13.81053600
   0.00000000  0.00000000 17.71580400
   1.95263400  1.95263400  7.95263400
   1.95263400  1.95263400 11.85790200
   1.95263400  1.95263400 15.76317000
   1.95263400  1.95263400 19.66843800
 


--------------------------------------------------------------------------------------------------------


 k-point  1 :   0.0000 0.0000 0.0000  plane waves:   16483
 k-point  2 :   0.1429 0.0000 0.0000  plane waves:   16499
 k-point  3 :   0.2857 0.0000 0.0000  plane waves:   16495
 k-point  4 :   0.4286 0.0000 0.0000  plane waves:   16484
 k-point  5 :   0.1429 0.1429 0.0000  plane waves:   16500
 k-point  6 :   0.2857 0.1429 0.0000  plane waves:   16487
 k-point  7 :   0.4286 0.1429 0.0000  plane waves:   16464
 k-point  8 :   0.2857 0.2857 0.0000  plane waves:   16454
 k-point  9 :   0.4286 0.2857 0.0000  plane waves:   16403
 k-point 10 :   0.4286 0.4286 0.0000  plane waves:   16384

 maximum and minimum number of plane-waves per node :      8313     8170

 maximum number of plane-waves:     16500
 maximum index in each direction: 
   IXMAX=    8   IYMAX=    8   IZMAX=   55
   IXMIN=   -8   IYMIN=   -8   IZMIN=  -55


 parallel 3D FFT for wavefunctions:
    minimum data exchange during FFTs selected (reduces bandwidth)
 parallel 3D FFT for charge:
    minimum data exchange during FFTs selected (reduces bandwidth)


 total amount of memory used by VASP MPI-rank0   150439. kBytes
=======================================================================

   base      :      30000. kBytes
   nonl-proj :      38576. kBytes
   fftplans  :      10892. kBytes
   grid      :      19574. kBytes
   one-center:        155. kBytes
   wavefun   :      51242. kBytes
 
     INWAV:  cpu time    0.0000: real time    0.0000
 Broyden mixing: mesh for mixing (old mesh)
   NGX = 17   NGY = 17   NGZ =111
  (NGX  = 56   NGY  = 56   NGZ  =336)
  gives a total of  32079 points

 initial charge density was supplied:
 charge density of overlapping atoms calculated
 number of electron     128.0000000 magnetization 
 keeping initial charge density in first step


--------------------------------------------------------------------------------------------------------


 Maximum index for augmentation-charges         5679 (set IRDMAX)


--------------------------------------------------------------------------------------------------------


 First call to EWALD:  gamma=   0.242
 Maximum number of real-space cells 5x 5x 1
 Maximum number of reciprocal cells 2x 2x 8

    FEWALD:  cpu time    0.0010: real time    0.0020


--------------------------------------- Iteration      1(   1)  ---------------------------------------


    POTLOK:  cpu time    0.2080: real time    0.2510
    SETDIJ:  cpu time    0.0170: real time    0.0166
     EDDAV:  cpu time    9.5116: real time    9.5099
 BZINTS: Fermi energy: 17.244159;128.000000 electrons
         Band energy: 420.735888;  BLOECHL correction: -0.107726
       DOS:  cpu time    0.0080: real time    0.0079
    --------------------------------------------
      LOOP:  cpu time    9.7445: real time    9.7855

 eigenvalue-minimisations  :  1520
 total energy-change (2. order) : 0.1880247E+04  (-0.6612284E+04)
 number of electron     128.0000000 magnetization 
 augmentation part      128.0000000 magnetization 

 Free energy of the ion-electron system (eV)
  ---------------------------------------------------
  alpha Z        PSCENC =       451.31605171
  Ewald energy   TEWEN  =     24913.70541863
  -Hartree energ DENC   =    -33364.93616085
  -exchange      EXHF   =         0.00000000
  -V(xc)+E(xc)   XCENC  =       326.68050673
  PAW double counting   =      5334.45189010    -5139.13784255
  entropy T*S    EENTRO =         0.00000000
  eigenvalues    EBANDS =       420.73588821
  atomic energy  EATOM  =      8937.43125330
  Solvation  Ediel_sol  =         0.00000000
  ---------------------------------------------------
  free energy    TOTEN  =      1880.24700528 eV

  energy without entropy =     1880.24700528  energy(sigma->0) =     1880.24700528


--------------------------------------------------------------------------------------------------------




--------------------------------------- Iteration      1(   2)  ---------------------------------------


     EDDAV:  cpu time   10.6754: real time   10.6765
 BZINTS: Fermi energy:  5.584992;128.000000 electrons
         Band energy:***********;  BLOECHL correction: -0.088207
       DOS:  cpu time    0.0080: real time    0.0080
    --------------------------------------------
      LOOP:  cpu time   10.6834: real time   10.6845

 eigenvalue-minimisations  :  1772
 total energy-change (2. order) :-0.1625981E+04  (-0.1553528E+04)
 number of electron     128.0000000 magnetization 
 augmentation part      128.0000000 magnetization 

 Free energy of the ion-electron system (eV)
  ---------------------------------------------------
  alpha Z        PSCENC =       451.31605171
  Ewald energy   TEWEN  =     24913.70541863
  -Hartree energ DENC   =    -33364.93616085
  -exchange      EXHF   =         0.00000000
  -V(xc)+E(xc)   XCENC  =       326.68050673
  PAW double counting   =      5334.45189010    -5139.13784255
  entropy T*S    EENTRO =         0.00000000
  eigenvalues    EBANDS =     -1205.24490453
  atomic energy  EATOM  =      8937.43125330
  Solvation  Ediel_sol  =         0.00000000
  ---------------------------------------------------
  free energy    TOTEN  =       254.26621255 eV

  energy without entropy =      254.26621255  energy(sigma->0) =      254.26621255


--------------------------------------------------------------------------------------------------------




--------------------------------------- Iteration      1(   3)  ---------------------------------------


     EDDAV:  cpu time   11.8512: real time   11.8521
 BZINTS: Fermi energy: -2.352645;128.000000 electrons
         Band energy:***********;  BLOECHL correction:  0.000000
       DOS:  cpu time    0.0010: real time    0.0013
    --------------------------------------------
      LOOP:  cpu time   11.8522: real time   11.8534

 eigenvalue-minimisations  :  2016
 total energy-change (2. order) :-0.4171811E+03  (-0.4016382E+03)
 number of electron     128.0000000 magnetization 
 augmentation part      128.0000000 magnetization 

 Free energy of the ion-electron system (eV)
  ---------------------------------------------------
  alpha Z        PSCENC =       451.31605171
  Ewald energy   TEWEN  =     24913.70541863
  -Hartree energ DENC   =    -33364.93616085
  -exchange      EXHF   =         0.00000000
  -V(xc)+E(xc)   XCENC  =       326.68050673
  PAW double counting   =      5334.45189010    -5139.13784255
  entropy T*S    EENTRO =         0.00000000
  eigenvalues    EBANDS =     -1622.42605407
  atomic energy  EATOM  =      8937.43125330
  Solvation  Ediel_sol  =         0.00000000
  ---------------------------------------------------
  free energy    TOTEN  =      -162.91493700 eV

  energy without entropy =     -162.91493700  energy(sigma->0) =     -162.91493700


--------------------------------------------------------------------------------------------------------




--------------------------------------- Iteration      1(   4)  ---------------------------------------


     EDDAV:  cpu time   11.9452: real time   11.9449
 BZINTS: Fermi energy: -4.190147;128.000000 electrons
         Band energy:***********;  BLOECHL correction:  0.000000
       DOS:  cpu time    0.0010: real time    0.0015
    --------------------------------------------
      LOOP:  cpu time   11.9462: real time   11.9464

 eigenvalue-minimisations  :  2032
 total energy-change (2. order) :-0.3697476E+02  (-0.3683658E+02)
 number of electron     128.0000000 magnetization 
 augmentation part      128.0000000 magnetization 

 Free energy of the ion-electron system (eV)
  ---------------------------------------------------
  alpha Z        PSCENC =       451.31605171
  Ewald energy   TEWEN  =     24913.70541863
  -Hartree energ DENC   =    -33364.93616085
  -exchange      EXHF   =         0.00000000
  -V(xc)+E(xc)   XCENC  =       326.68050673
  PAW double counting   =      5334.45189010    -5139.13784255
  entropy T*S    EENTRO =         0.00000000
  eigenvalues    EBANDS =     -1659.40081659
  atomic energy  EATOM  =      8937.43125330
  Solvation  Ediel_sol  =         0.00000000
  ---------------------------------------------------
  free energy    TOTEN  =      -199.88969952 eV

  energy without entropy =     -199.88969952  energy(sigma->0) =     -199.88969952


--------------------------------------------------------------------------------------------------------




--------------------------------------- Iteration      1(   5)  ---------------------------------------


     EDDAV:  cpu time   13.8729: real time   13.8720
 BZINTS: Fermi energy: -4.223896;128.000000 electrons
         Band energy:***********;  BLOECHL correction:  0.000000
       DOS:  cpu time    0.0010: real time    0.0015
    CHARGE:  cpu time    0.3689: real time    0.3694
    MIXING:  cpu time    0.0060: real time    0.0050
    --------------------------------------------
      LOOP:  cpu time   14.2488: real time   14.2479

 eigenvalue-minimisations  :  2464
 total energy-change (2. order) :-0.1867905E+01  (-0.1866753E+01)
 number of electron     128.0000094 magnetization 
 augmentation part       13.8896360 magnetization 

 Broyden mixing:
  rms(total) = 0.37191E+01    rms(broyden)= 0.37190E+01
  rms(prec ) = 0.39696E+01
  weight for this iteration     100.00

 Free energy of the ion-electron system (eV)
  ---------------------------------------------------
  alpha Z        PSCENC =       451.31605171
  Ewald energy   TEWEN  =     24913.70541863
  -Hartree energ DENC   =    -33364.93616085
  -exchange      EXHF   =         0.00000000
  -V(xc)+E(xc)   XCENC  =       326.68050673
  PAW double counting   =      5334.45189010    -5139.13784255
  entropy T*S    EENTRO =         0.00000000
  eigenvalues    EBANDS =     -1661.26872206
  atomic energy  EATOM  =      8937.43125330
  Solvation  Ediel_sol  =         0.00000000
  ---------------------------------------------------
  free energy    TOTEN  =      -201.75760499 eV

  energy without entropy =     -201.75760499  energy(sigma->0) =     -201.75760499


--------------------------------------------------------------------------------------------------------




--------------------------------------- Iteration      1(   6)  ---------------------------------------


    POTLOK:  cpu time    0.2040: real time    0.2083
    SETDIJ:  cpu time    0.0180: real time    0.0166
    EDDIAG:  cpu time    1.1888: real time    1.1897
  RMM-DIIS:  cpu time    7.8228: real time    7.8205
    ORTHCH:  cpu time    0.2000: real time    0.1998
 BZINTS: Fermi energy: -0.049338;128.000000 electrons
         Band energy:***********;  BLOECHL correction: -0.050428
       DOS:  cpu time    0.0070: real time    0.0078
    CHARGE:  cpu time    0.3779: real time    0.3767
    MIXING:  cpu time    0.0050: real time    0.0055
    --------------------------------------------
      LOOP:  cpu time    9.8235: real time    9.8249

 eigenvalue-minimisations  :  1702
 total energy-change (2. order) : 0.4039752E+02  (-0.2844491E+02)
 number of electron     128.0000070 magnetization 
 augmentation part       14.3880387 magnetization 

 Broyden mixing:
  rms(total) = 0.13744E+01    rms(broyden)= 0.13742E+01
  rms(prec ) = 0.14445E+01
  weight for this iteration     100.00

 eigenvalues of (default mixing * dielectric matrix)
  average eigenvalue GAMMA=   0.7731
  0.7731

 Free energy of the ion-electron system (eV)
  ---------------------------------------------------
  alpha Z        PSCENC =       451.31605171
  Ewald energy   TEWEN  =     24913.70541863
  -Hartree energ DENC   =    -33646.07812688
  -exchange      EXHF   =         0.00000000
  -V(xc)+E(xc)   XCENC  =       346.39516231
  PAW double counting   =      5950.27942269    -5768.74656355
  entropy T*S    EENTRO =         0.00000000
  eigenvalues    EBANDS =     -1345.66269851
  atomic energy  EATOM  =      8937.43125330
  Solvation  Ediel_sol  =         0.00000000
  ---------------------------------------------------
  free energy    TOTEN  =      -161.36008031 eV

  energy without entropy =     -161.36008031  energy(sigma->0) =     -161.36008031


--------------------------------------------------------------------------------------------------------




--------------------------------------- Iteration      1(   7)  ---------------------------------------


    POTLOK:  cpu time    0.2000: real time    0.2043
    SETDIJ:  cpu time    0.0170: real time    0.0167
    EDDIAG:  cpu time    1.1878: real time    1.1876
  RMM-DIIS:  cpu time    8.3977: real time    8.3954
    ORTHCH:  cpu time    0.1980: real time    0.1986
 BZINTS: Fermi energy: -0.980083;128.000000 electrons
         Band energy:***********;  BLOECHL correction:  0.000000
       DOS:  cpu time    0.0010: real time    0.0013
    CHARGE:  cpu time    0.3699: real time    0.3702
    MIXING:  cpu time    0.0060: real time    0.0054
    --------------------------------------------
      LOOP:  cpu time   10.3774: real time   10.3795

 eigenvalue-minimisations  :  1844
 total energy-change (2. order) : 0.3601510E+01  (-0.1286434E+01)
 number of electron     128.0000073 magnetization 
 augmentation part       13.5418774 magnetization 

 Broyden mixing:
  rms(total) = 0.70179E+00    rms(broyden)= 0.70178E+00
  rms(prec ) = 0.73132E+00
  weight for this iteration     100.00

 eigenvalues of (default mixing * dielectric matrix)
  average eigenvalue GAMMA=   1.0447
  0.9118  1.1776

 Free energy of the ion-electron system (eV)
  ---------------------------------------------------
  alpha Z        PSCENC =       451.31605171
  Ewald energy   TEWEN  =     24913.70541863
  -Hartree energ DENC   =    -33654.89424565
  -exchange      EXHF   =         0.00000000
  -V(xc)+E(xc)   XCENC  =       342.72953091
  PAW double counting   =      5975.21036714    -5798.69709798
  entropy T*S    EENTRO =         0.00000000
  eigenvalues    EBANDS =     -1324.55984841
  atomic energy  EATOM  =      8937.43125330
  Solvation  Ediel_sol  =         0.00000000
  ---------------------------------------------------
  free energy    TOTEN  =      -157.75857034 eV

  energy without entropy =     -157.75857034  energy(sigma->0) =     -157.75857034


--------------------------------------------------------------------------------------------------------




--------------------------------------- Iteration      1(   8)  ---------------------------------------


    POTLOK:  cpu time    0.2040: real time    0.2074
    SETDIJ:  cpu time    0.0180: real time    0.0168
    EDDIAG:  cpu time    1.1878: real time    1.1882
  RMM-DIIS:  cpu time    9.2956: real time    9.2927
    ORTHCH:  cpu time    0.1980: real time    0.1988
 BZINTS: Fermi energy: -0.638061;128.000000 electrons
         Band energy:***********;  BLOECHL correction:  0.000000
       DOS:  cpu time    0.0010: real time    0.0013
    CHARGE:  cpu time    0.3699: real time    0.3696
    MIXING:  cpu time    0.0060: real time    0.0058
    --------------------------------------------
      LOOP:  cpu time   11.2803: real time   11.2806

 eigenvalue-minimisations  :  2016
 total energy-change (2. order) : 0.7241520E+00  (-0.3175782E+00)
 number of electron     128.0000073 magnetization 
 augmentation part       13.7708974 magnetization 

 Broyden mixing:
  rms(total) = 0.32035E+00    rms(broyden)= 0.32034E+00
  rms(prec ) = 0.34084E+00
  weight for this iteration     100.00

 eigenvalues of (default mixing * dielectric matrix)
  average eigenvalue GAMMA=   1.2675
  2.1766  0.9179  0.7081

 Free energy of the ion-electron system (eV)
  ---------------------------------------------------
  alpha Z        PSCENC =       451.31605171
  Ewald energy   TEWEN  =     24913.70541863
  -Hartree energ DENC   =    -33673.34677920
  -exchange      EXHF   =         0.00000000
  -V(xc)+E(xc)   XCENC  =       342.47211152
  PAW double counting   =      6070.44573733    -5897.49661698
  entropy T*S    EENTRO =         0.00000000
  eigenvalues    EBANDS =     -1301.56159466
  atomic energy  EATOM  =      8937.43125330
  Solvation  Ediel_sol  =         0.00000000
  ---------------------------------------------------
  free energy    TOTEN  =      -157.03441835 eV

  energy without entropy =     -157.03441835  energy(sigma->0) =     -157.03441835


--------------------------------------------------------------------------------------------------------




--------------------------------------- Iteration      1(   9)  ---------------------------------------


    POTLOK:  cpu time    0.2030: real time    0.2051
    SETDIJ:  cpu time    0.0170: real time    0.0169
    EDDIAG:  cpu time    1.1858: real time    1.1854
  RMM-DIIS:  cpu time    9.6345: real time    9.6325
    ORTHCH:  cpu time    0.1980: real time    0.1979
 BZINTS: Fermi energy: -0.155511;128.000000 electrons
         Band energy:***********;  BLOECHL correction:  0.000000
       DOS:  cpu time    0.0010: real time    0.0015
    CHARGE:  cpu time    0.3689: real time    0.3686
    MIXING:  cpu time    0.0060: real time    0.0062
    --------------------------------------------
      LOOP:  cpu time   11.6142: real time   11.6139

 eigenvalue-minimisations  :  2124
 total energy-change (2. order) : 0.2122815E+00  (-0.1331485E+00)
 number of electron     128.0000074 magnetization 
 augmentation part       13.7712961 magnetization 

 Broyden mixing:
  rms(total) = 0.96630E-01    rms(broyden)= 0.96611E-01
  rms(prec ) = 0.11540E+00
  weight for this iteration     100.00

 eigenvalues of (default mixing * dielectric matrix)
  average eigenvalue GAMMA=   1.1795
  2.1959  0.9005  0.9005  0.7210

 Free energy of the ion-electron system (eV)
  ---------------------------------------------------
  alpha Z        PSCENC =       451.31605171
  Ewald energy   TEWEN  =     24913.70541863
  -Hartree energ DENC   =    -33700.20052323
  -exchange      EXHF   =         0.00000000
  -V(xc)+E(xc)   XCENC  =       342.16397809
  PAW double counting   =      6168.13321133    -5998.58032768
  entropy T*S    EENTRO =         0.00000000
  eigenvalues    EBANDS =     -1270.79119901
  atomic energy  EATOM  =      8937.43125330
  Solvation  Ediel_sol  =         0.00000000
  ---------------------------------------------------
  free energy    TOTEN  =      -156.82213685 eV

  energy without entropy =     -156.82213685  energy(sigma->0) =     -156.82213685


--------------------------------------------------------------------------------------------------------




--------------------------------------- Iteration      1(  10)  ---------------------------------------


    POTLOK:  cpu time    0.2050: real time    0.2075
    SETDIJ:  cpu time    0.0170: real time    0.0168
    EDDIAG:  cpu time    1.1868: real time    1.1873
  RMM-DIIS:  cpu time   11.1083: real time   11.1055
    ORTHCH:  cpu time    0.1990: real time    0.1986
 BZINTS: Fermi energy: -0.064085;128.000000 electrons
         Band energy:***********;  BLOECHL correction:  0.000000
       DOS:  cpu time    0.0000: real time    0.0013
    CHARGE:  cpu time    0.3549: real time    0.3538
    MIXING:  cpu time    0.0060: real time    0.0061
    --------------------------------------------
      LOOP:  cpu time   13.0770: real time   13.0769

 eigenvalue-minimisations  :  2442
 total energy-change (2. order) : 0.4038827E-01  (-0.2389262E-01)
 number of electron     128.0000074 magnetization 
 augmentation part       13.7217914 magnetization 

 Broyden mixing:
  rms(total) = 0.59583E-01    rms(broyden)= 0.59583E-01
  rms(prec ) = 0.75321E-01
  weight for this iteration     100.00

 eigenvalues of (default mixing * dielectric matrix)
  average eigenvalue GAMMA=   1.2124
  2.0514  1.5903  1.0060  0.7511  0.6630

 Free energy of the ion-electron system (eV)
  ---------------------------------------------------
  alpha Z        PSCENC =       451.31605171
  Ewald energy   TEWEN  =     24913.70541863
  -Hartree energ DENC   =    -33718.14205342
  -exchange      EXHF   =         0.00000000
  -V(xc)+E(xc)   XCENC  =       342.52932000
  PAW double counting   =      6188.56251930    -6019.38782825
  entropy T*S    EENTRO =         0.00000000
  eigenvalues    EBANDS =     -1252.79642985
  atomic energy  EATOM  =      8937.43125330
  Solvation  Ediel_sol  =         0.00000000
  ---------------------------------------------------
  free energy    TOTEN  =      -156.78174859 eV

  energy without entropy =     -156.78174859  energy(sigma->0) =     -156.78174859


--------------------------------------------------------------------------------------------------------




--------------------------------------- Iteration      1(  11)  ---------------------------------------


    POTLOK:  cpu time    0.1890: real time    0.1935
    SETDIJ:  cpu time    0.0150: real time    0.0159
    EDDIAG:  cpu time    1.0998: real time    1.0996
  RMM-DIIS:  cpu time   10.6234: real time   10.6202
    ORTHCH:  cpu time    0.1930: real time    0.1941
 BZINTS: Fermi energy:  0.094377;128.000000 electrons
         Band energy:***********;  BLOECHL correction:  0.000000
       DOS:  cpu time    0.0020: real time    0.0013
    CHARGE:  cpu time    0.3429: real time    0.3435
    MIXING:  cpu time    0.0070: real time    0.0067
    --------------------------------------------
      LOOP:  cpu time   12.4721: real time   12.4748

 eigenvalue-minimisations  :  2345
 total energy-change (2. order) : 0.2220203E-01  (-0.1607374E-01)
 number of electron     128.0000074 magnetization 
 augmentation part       13.6586691 magnetization 

 Broyden mixing:
  rms(total) = 0.41448E-01    rms(broyden)= 0.41445E-01
  rms(prec ) = 0.53069E-01
  weight for this iteration     100.00

 eigenvalues of (default mixing * dielectric matrix)
  average eigenvalue GAMMA=   1.3086
  2.3235  2.3235  0.9119  0.9119  0.6260  0.7550

 Free energy of the ion-electron system (eV)
  ---------------------------------------------------
  alpha Z        PSCENC =       451.31605171
  Ewald energy   TEWEN  =     24913.70541863
  -Hartree energ DENC   =    -33738.72064932
  -exchange      EXHF   =         0.00000000
  -V(xc)+E(xc)   XCENC  =       342.91613879
  PAW double counting   =      6204.40223870    -6035.24606399
  entropy T*S    EENTRO =         0.00000000
  eigenvalues    EBANDS =     -1232.56393436
  atomic energy  EATOM  =      8937.43125330
  Solvation  Ediel_sol  =         0.00000000
  ---------------------------------------------------
  free energy    TOTEN  =      -156.75954655 eV

  energy without entropy =     -156.75954655  energy(sigma->0) =     -156.75954655


--------------------------------------------------------------------------------------------------------




--------------------------------------- Iteration      1(  12)  ---------------------------------------


    POTLOK:  cpu time    0.2040: real time    0.2052
    SETDIJ:  cpu time    0.0170: real time    0.0167
    EDDIAG:  cpu time    1.1838: real time    1.1841
  RMM-DIIS:  cpu time   11.2163: real time   11.2132
    ORTHCH:  cpu time    0.1980: real time    0.1983
 BZINTS: Fermi energy:  0.346258;128.000000 electrons
         Band energy:***********;  BLOECHL correction:  0.000000
       DOS:  cpu time    0.0020: real time    0.0015
    CHARGE:  cpu time    0.3689: real time    0.3689
    MIXING:  cpu time    0.0070: real time    0.0071
    --------------------------------------------
      LOOP:  cpu time   13.1970: real time   13.1950

 eigenvalue-minimisations  :  2474
 total energy-change (2. order) : 0.1294669E-01  (-0.5273615E-02)
 number of electron     128.0000074 magnetization 
 augmentation part       13.6266413 magnetization 

 Broyden mixing:
  rms(total) = 0.30259E-01    rms(broyden)= 0.30258E-01
  rms(prec ) = 0.38453E-01
  weight for this iteration     100.00

 eigenvalues of (default mixing * dielectric matrix)
  average eigenvalue GAMMA=   1.2416
  2.4255  2.2466  0.9798  0.9798  0.7820  0.6594  0.6182

 Free energy of the ion-electron system (eV)
  ---------------------------------------------------
  alpha Z        PSCENC =       451.31605171
  Ewald energy   TEWEN  =     24913.70541863
  -Hartree energ DENC   =    -33752.51125932
  -exchange      EXHF   =         0.00000000
  -V(xc)+E(xc)   XCENC  =       342.99489991
  PAW double counting   =      6209.17061601    -6039.83815187
  entropy T*S    EENTRO =         0.00000000
  eigenvalues    EBANDS =     -1219.01542823
  atomic energy  EATOM  =      8937.43125330
  Solvation  Ediel_sol  =         0.00000000
  ---------------------------------------------------
  free energy    TOTEN  =      -156.74659986 eV

  energy without entropy =     -156.74659986  energy(sigma->0) =     -156.74659986


--------------------------------------------------------------------------------------------------------




--------------------------------------- Iteration      1(  13)  ---------------------------------------


    POTLOK:  cpu time    0.2030: real time    0.2059
    SETDIJ:  cpu time    0.0160: real time    0.0165
    EDDIAG:  cpu time    1.1858: real time    1.1850
  RMM-DIIS:  cpu time   11.8502: real time   11.8472
    ORTHCH:  cpu time    0.1980: real time    0.1988
 BZINTS: Fermi energy:  0.413799;128.000000 electrons
         Band energy:***********;  BLOECHL correction:  0.000000
       DOS:  cpu time    0.0020: real time    0.0016
    CHARGE:  cpu time    0.3669: real time    0.3674
    MIXING:  cpu time    0.0070: real time    0.0069
    --------------------------------------------
      LOOP:  cpu time   13.8289: real time   13.8293

 eigenvalue-minimisations  :  2615
 total energy-change (2. order) : 0.4863722E-02  (-0.2053277E-02)
 number of electron     128.0000074 magnetization 
 augmentation part       13.6370570 magnetization 

 Broyden mixing:
  rms(total) = 0.16953E-01    rms(broyden)= 0.16953E-01
  rms(prec ) = 0.25238E-01
  weight for this iteration     100.00

 eigenvalues of (default mixing * dielectric matrix)
  average eigenvalue GAMMA=   1.4009
  2.8327  2.8327  1.3924  0.9391  0.9391  0.9475  0.6882  0.6358

 Free energy of the ion-electron system (eV)
  ---------------------------------------------------
  alpha Z        PSCENC =       451.31605171
  Ewald energy   TEWEN  =     24913.70541863
  -Hartree energ DENC   =    -33756.88457208
  -exchange      EXHF   =         0.00000000
  -V(xc)+E(xc)   XCENC  =       342.96971840
  PAW double counting   =      6208.46516932    -6039.03631140
  entropy T*S    EENTRO =         0.00000000
  eigenvalues    EBANDS =     -1214.70846401
  atomic energy  EATOM  =      8937.43125330
  Solvation  Ediel_sol  =         0.00000000
  ---------------------------------------------------
  free energy    TOTEN  =      -156.74173614 eV

  energy without entropy =     -156.74173614  energy(sigma->0) =     -156.74173614


--------------------------------------------------------------------------------------------------------




--------------------------------------- Iteration      1(  14)  ---------------------------------------


    POTLOK:  cpu time    0.2040: real time    0.2063
    SETDIJ:  cpu time    0.0170: real time    0.0165
    EDDIAG:  cpu time    1.1878: real time    1.1879
  RMM-DIIS:  cpu time   10.2054: real time   10.2027
    ORTHCH:  cpu time    0.1990: real time    0.1999
 BZINTS: Fermi energy:  0.435117;128.000000 electrons
         Band energy:***********;  BLOECHL correction:  0.000000
       DOS:  cpu time    0.0020: real time    0.0013
    CHARGE:  cpu time    0.3679: real time    0.3686
    MIXING:  cpu time    0.0080: real time    0.0074
    --------------------------------------------
      LOOP:  cpu time   12.1911: real time   12.1906

 eigenvalue-minimisations  :  2259
 total energy-change (2. order) : 0.4442034E-02  (-0.2177800E-02)
 number of electron     128.0000074 magnetization 
 augmentation part       13.6472044 magnetization 

 Broyden mixing:
  rms(total) = 0.14225E-01    rms(broyden)= 0.14224E-01
  rms(prec ) = 0.18092E-01
  weight for this iteration     100.00

 eigenvalues of (default mixing * dielectric matrix)
  average eigenvalue GAMMA=   1.3996
  3.3474  2.6446  1.4979  1.0397  1.0397  0.8792  0.8792  0.6598  0.6088

 Free energy of the ion-electron system (eV)
  ---------------------------------------------------
  alpha Z        PSCENC =       451.31605171
  Ewald energy   TEWEN  =     24913.70541863
  -Hartree energ DENC   =    -33768.43011350
  -exchange      EXHF   =         0.00000000
  -V(xc)+E(xc)   XCENC  =       342.90020497
  PAW double counting   =      6201.10676466    -6031.25683628
  entropy T*S    EENTRO =         0.00000000
  eigenvalues    EBANDS =     -1203.51003760
  atomic energy  EATOM  =      8937.43125330
  Solvation  Ediel_sol  =         0.00000000
  ---------------------------------------------------
  free energy    TOTEN  =      -156.73729411 eV

  energy without entropy =     -156.73729411  energy(sigma->0) =     -156.73729411


--------------------------------------------------------------------------------------------------------




--------------------------------------- Iteration      1(  15)  ---------------------------------------


    POTLOK:  cpu time    0.1940: real time    0.1974
    SETDIJ:  cpu time    0.0170: real time    0.0161
    EDDIAG:  cpu time    1.0658: real time    1.0661
  RMM-DIIS:  cpu time   11.7222: real time   11.7195
    ORTHCH:  cpu time    0.1980: real time    0.1977
 BZINTS: Fermi energy:  0.482310;128.000000 electrons
         Band energy:***********;  BLOECHL correction:  0.000000
       DOS:  cpu time    0.0010: real time    0.0013
    CHARGE:  cpu time    0.3679: real time    0.3685
    MIXING:  cpu time    0.0080: real time    0.0076
    --------------------------------------------
      LOOP:  cpu time   13.5739: real time   13.5743

 eigenvalue-minimisations  :  2576
 total energy-change (2. order) : 0.5283794E-03  (-0.5850742E-03)
 number of electron     128.0000074 magnetization 
 augmentation part       13.6435081 magnetization 

 Broyden mixing:
  rms(total) = 0.81794E-02    rms(broyden)= 0.81792E-02
  rms(prec ) = 0.11645E-01
  weight for this iteration     100.00

 eigenvalues of (default mixing * dielectric matrix)
  average eigenvalue GAMMA=   1.4733
  4.0866  2.3050  1.7832  1.6187  1.0953  0.9187  0.9187  0.7685  0.6368  0.6015

 Free energy of the ion-electron system (eV)
  ---------------------------------------------------
  alpha Z        PSCENC =       451.31605171
  Ewald energy   TEWEN  =     24913.70541863
  -Hartree energ DENC   =    -33773.27410567
  -exchange      EXHF   =         0.00000000
  -V(xc)+E(xc)   XCENC  =       342.94539467
  PAW double counting   =      6202.01792286    -6032.17660987
  entropy T*S    EENTRO =         0.00000000
  eigenvalues    EBANDS =     -1198.70209135
  atomic energy  EATOM  =      8937.43125330
  Solvation  Ediel_sol  =         0.00000000
  ---------------------------------------------------
  free energy    TOTEN  =      -156.73676573 eV

  energy without entropy =     -156.73676573  energy(sigma->0) =     -156.73676573


--------------------------------------------------------------------------------------------------------




--------------------------------------- Iteration      1(  16)  ---------------------------------------


    POTLOK:  cpu time    0.2030: real time    0.2073
    SETDIJ:  cpu time    0.0180: real time    0.0167
    EDDIAG:  cpu time    1.2048: real time    1.2048
  RMM-DIIS:  cpu time   10.4624: real time   10.4597
    ORTHCH:  cpu time    0.1980: real time    0.1984
 BZINTS: Fermi energy:  0.544866;128.000000 electrons
         Band energy:***********;  BLOECHL correction:  0.000000
       DOS:  cpu time    0.0010: real time    0.0014
    CHARGE:  cpu time    0.3659: real time    0.3660
    MIXING:  cpu time    0.0080: real time    0.0081
    --------------------------------------------
      LOOP:  cpu time   12.4621: real time   12.4624

 eigenvalue-minimisations  :  2318
 total energy-change (2. order) :-0.1188739E-02  (-0.7578924E-03)
 number of electron     128.0000074 magnetization 
 augmentation part       13.6359395 magnetization 

 Broyden mixing:
  rms(total) = 0.11504E-01    rms(broyden)= 0.11504E-01
  rms(prec ) = 0.12832E-01
  weight for this iteration     100.00

 eigenvalues of (default mixing * dielectric matrix)
  average eigenvalue GAMMA=   1.6311
  5.4733  2.8462  2.3127  1.3227  1.1594  1.1594  0.8615  0.8615  0.7049  0.6199
  0.6199

 Free energy of the ion-electron system (eV)
  ---------------------------------------------------
  alpha Z        PSCENC =       451.31605171
  Ewald energy   TEWEN  =     24913.70541863
  -Hartree energ DENC   =    -33781.31591542
  -exchange      EXHF   =         0.00000000
  -V(xc)+E(xc)   XCENC  =       343.01120437
  PAW double counting   =      6203.80955440    -6034.05794608
  entropy T*S    EENTRO =         0.00000000
  eigenvalues    EBANDS =     -1190.63757539
  atomic energy  EATOM  =      8937.43125330
  Solvation  Ediel_sol  =         0.00000000
  ---------------------------------------------------
  free energy    TOTEN  =      -156.73795447 eV

  energy without entropy =     -156.73795447  energy(sigma->0) =     -156.73795447


--------------------------------------------------------------------------------------------------------




--------------------------------------- Iteration      1(  17)  ---------------------------------------


    POTLOK:  cpu time    0.1990: real time    0.2030
    SETDIJ:  cpu time    0.0180: real time    0.0168
    EDDIAG:  cpu time    1.1618: real time    1.1624
  RMM-DIIS:  cpu time   10.0135: real time   10.0103
    ORTHCH:  cpu time    0.1970: real time    0.1981
 BZINTS: Fermi energy:  0.574448;128.000000 electrons
         Band energy:***********;  BLOECHL correction:  0.000000
       DOS:  cpu time    0.0010: real time    0.0013
    CHARGE:  cpu time    0.3639: real time    0.3639
    MIXING:  cpu time    0.0100: real time    0.0088
    --------------------------------------------
      LOOP:  cpu time   11.9632: real time   11.9646

 eigenvalue-minimisations  :  2231
 total energy-change (2. order) :-0.4446664E-03  (-0.3079244E-03)
 number of electron     128.0000074 magnetization 
 augmentation part       13.6313624 magnetization 

 Broyden mixing:
  rms(total) = 0.35311E-02    rms(broyden)= 0.35306E-02
  rms(prec ) = 0.44362E-02
  weight for this iteration     100.00

 eigenvalues of (default mixing * dielectric matrix)
  average eigenvalue GAMMA=   1.5924
  5.7327  2.8456  2.3362  1.1740  1.1740  1.1242  1.1242  0.8559  0.8559  0.6655
  0.6190  0.6010

 Free energy of the ion-electron system (eV)
  ---------------------------------------------------
  alpha Z        PSCENC =       451.31605171
  Ewald energy   TEWEN  =     24913.70541863
  -Hartree energ DENC   =    -33783.26674843
  -exchange      EXHF   =         0.00000000
  -V(xc)+E(xc)   XCENC  =       342.95219295
  PAW double counting   =      6201.26928706    -6031.47887716
  entropy T*S    EENTRO =         0.00000000
  eigenvalues    EBANDS =     -1188.66697719
  atomic energy  EATOM  =      8937.43125330
  Solvation  Ediel_sol  =         0.00000000
  ---------------------------------------------------
  free energy    TOTEN  =      -156.73839913 eV

  energy without entropy =     -156.73839913  energy(sigma->0) =     -156.73839913


--------------------------------------------------------------------------------------------------------




--------------------------------------- Iteration      1(  18)  ---------------------------------------


    POTLOK:  cpu time    0.1980: real time    0.2022
    SETDIJ:  cpu time    0.0170: real time    0.0168
    EDDIAG:  cpu time    1.1808: real time    1.1803
  RMM-DIIS:  cpu time    9.9645: real time    9.9613
    ORTHCH:  cpu time    0.1950: real time    0.1950
 BZINTS: Fermi energy:  0.587656;128.000000 electrons
         Band energy:***********;  BLOECHL correction:  0.000000
       DOS:  cpu time    0.0010: real time    0.0013
    CHARGE:  cpu time    0.3429: real time    0.3434
    MIXING:  cpu time    0.0090: real time    0.0084
    --------------------------------------------
      LOOP:  cpu time   11.9082: real time   11.9088

 eigenvalue-minimisations  :  2212
 total energy-change (2. order) :-0.7910064E-03  (-0.7604726E-04)
 number of electron     128.0000074 magnetization 
 augmentation part       13.6342558 magnetization 

 Broyden mixing:
  rms(total) = 0.19807E-02    rms(broyden)= 0.19806E-02
  rms(prec ) = 0.26792E-02
  weight for this iteration     100.00

 eigenvalues of (default mixing * dielectric matrix)
  average eigenvalue GAMMA=   1.7173
  6.7848  3.1192  2.2500  2.2500  1.2333  1.2333  1.0853  0.8553  0.8553  0.7974
  0.6403  0.6403  0.5801

 Free energy of the ion-electron system (eV)
  ---------------------------------------------------
  alpha Z        PSCENC =       451.31605171
  Ewald energy   TEWEN  =     24913.70541863
  -Hartree energ DENC   =    -33783.97275799
  -exchange      EXHF   =         0.00000000
  -V(xc)+E(xc)   XCENC  =       342.95973563
  PAW double counting   =      6201.48337108    -6031.67810849
  entropy T*S    EENTRO =         0.00000000
  eigenvalues    EBANDS =     -1187.98415400
  atomic energy  EATOM  =      8937.43125330
  Solvation  Ediel_sol  =         0.00000000
  ---------------------------------------------------
  free energy    TOTEN  =      -156.73919014 eV

  energy without entropy =     -156.73919014  energy(sigma->0) =     -156.73919014


--------------------------------------------------------------------------------------------------------




--------------------------------------- Iteration      1(  19)  ---------------------------------------


    POTLOK:  cpu time    0.1940: real time    0.1951
    SETDIJ:  cpu time    0.0170: real time    0.0166
    EDDIAG:  cpu time    1.1828: real time    1.1819
  RMM-DIIS:  cpu time    8.9516: real time    8.9495
    ORTHCH:  cpu time    0.1930: real time    0.1937
 BZINTS: Fermi energy:  0.602155;128.000000 electrons
         Band energy:***********;  BLOECHL correction:  0.000000
       DOS:  cpu time    0.0010: real time    0.0013
    CHARGE:  cpu time    0.3509: real time    0.3510
    MIXING:  cpu time    0.0090: real time    0.0089
    --------------------------------------------
      LOOP:  cpu time   10.8993: real time   10.8980

 eigenvalue-minimisations  :  2079
 total energy-change (2. order) :-0.1535093E-02  (-0.5671733E-04)
 number of electron     128.0000074 magnetization 
 augmentation part       13.6336738 magnetization 

 Broyden mixing:
  rms(total) = 0.10930E-02    rms(broyden)= 0.10930E-02
  rms(prec ) = 0.13488E-02
  weight for this iteration     100.00

 eigenvalues of (default mixing * dielectric matrix)
  average eigenvalue GAMMA=   1.7613
  7.2375  3.7105  2.2918  2.2918  1.3217  1.1859  1.1859  0.9566  0.9566  0.8202
  0.8202  0.6470  0.6470  0.5855

 Free energy of the ion-electron system (eV)
  ---------------------------------------------------
  alpha Z        PSCENC =       451.31605171
  Ewald energy   TEWEN  =     24913.70541863
  -Hartree energ DENC   =    -33784.43997747
  -exchange      EXHF   =         0.00000000
  -V(xc)+E(xc)   XCENC  =       342.95936019
  PAW double counting   =      6201.54648613    -6031.71307330
  entropy T*S    EENTRO =         0.00000000
  eigenvalues    EBANDS =     -1187.54624442
  atomic energy  EATOM  =      8937.43125330
  Solvation  Ediel_sol  =         0.00000000
  ---------------------------------------------------
  free energy    TOTEN  =      -156.74072523 eV

  energy without entropy =     -156.74072523  energy(sigma->0) =     -156.74072523


--------------------------------------------------------------------------------------------------------




--------------------------------------- Iteration      1(  20)  ---------------------------------------


    POTLOK:  cpu time    0.1950: real time    0.1987
    SETDIJ:  cpu time    0.0160: real time    0.0164
    EDDIAG:  cpu time    1.1188: real time    1.1184
  RMM-DIIS:  cpu time    7.3739: real time    7.3720
    ORTHCH:  cpu time    0.1740: real time    0.1741
 BZINTS: Fermi energy:  0.625167;128.000000 electrons
         Band energy:***********;  BLOECHL correction:  0.000000
       DOS:  cpu time    0.0010: real time    0.0012
    CHARGE:  cpu time    0.2990: real time    0.2994
    MIXING:  cpu time    0.0080: real time    0.0084
    --------------------------------------------
      LOOP:  cpu time    9.1856: real time    9.1886

 eigenvalue-minimisations  :  1795
 total energy-change (2. order) :-0.4905514E-03  (-0.2282055E-04)
 number of electron     128.0000074 magnetization 
 augmentation part       13.6326652 magnetization 

 Broyden mixing:
  rms(total) = 0.80402E-03    rms(broyden)= 0.80400E-03
  rms(prec ) = 0.91799E-03
  weight for this iteration     100.00

 eigenvalues of (default mixing * dielectric matrix)
  average eigenvalue GAMMA=   1.8594
  8.0093  4.1820  2.6334  2.1474  2.1474  1.1747  1.1747  1.1847  0.9171  0.8552
  0.8552  0.7186  0.6532  0.6532  0.5854

 Free energy of the ion-electron system (eV)
  ---------------------------------------------------
  alpha Z        PSCENC =       451.31605171
  Ewald energy   TEWEN  =     24913.70541863
  -Hartree energ DENC   =    -33784.43925918
  -exchange      EXHF   =         0.00000000
  -V(xc)+E(xc)   XCENC  =       342.95677131
  PAW double counting   =      6201.83133389    -6032.00776080
  entropy T*S    EENTRO =         0.00000000
  eigenvalues    EBANDS =     -1187.53502465
  atomic energy  EATOM  =      8937.43125330
  Solvation  Ediel_sol  =         0.00000000
  ---------------------------------------------------
  free energy    TOTEN  =      -156.74121578 eV

  energy without entropy =     -156.74121578  energy(sigma->0) =     -156.74121578


--------------------------------------------------------------------------------------------------------




--------------------------------------- Iteration      1(  21)  ---------------------------------------


    POTLOK:  cpu time    0.1660: real time    0.1700
    SETDIJ:  cpu time    0.0150: real time    0.0150
    EDDIAG:  cpu time    0.8609: real time    0.8675
  RMM-DIIS:  cpu time    6.3710: real time    6.3691
    ORTHCH:  cpu time    0.1750: real time    0.1755
 BZINTS: Fermi energy:  0.604026;128.000000 electrons
         Band energy:***********;  BLOECHL correction:  0.000000
       DOS:  cpu time    0.0010: real time    0.0014
    CHARGE:  cpu time    0.3010: real time    0.3014
    MIXING:  cpu time    0.0090: real time    0.0087
    --------------------------------------------
      LOOP:  cpu time    7.8988: real time    7.9086

 eigenvalue-minimisations  :  1706
 total energy-change (2. order) :-0.2865420E-03  (-0.1371876E-04)
 number of electron     128.0000074 magnetization 
 augmentation part       13.6319330 magnetization 

 Broyden mixing:
  rms(total) = 0.56027E-03    rms(broyden)= 0.56025E-03
  rms(prec ) = 0.61747E-03
  weight for this iteration     100.00

 eigenvalues of (default mixing * dielectric matrix)
  average eigenvalue GAMMA=   1.8797
  8.3345  4.6844  2.5967  2.5967  2.1060  1.3454  1.1824  1.1824  0.9157  0.9157
  0.7877  0.7877  0.7679  0.6445  0.6445  0.5831

 Free energy of the ion-electron system (eV)
  ---------------------------------------------------
  alpha Z        PSCENC =       451.31605171
  Ewald energy   TEWEN  =     24913.70541863
  -Hartree energ DENC   =    -33784.42201742
  -exchange      EXHF   =         0.00000000
  -V(xc)+E(xc)   XCENC  =       342.96024958
  PAW double counting   =      6202.07023527    -6032.24568894
  entropy T*S    EENTRO =         0.00000000
  eigenvalues    EBANDS =     -1187.55700445
  atomic energy  EATOM  =      8937.43125330
  Solvation  Ediel_sol  =         0.00000000
  ---------------------------------------------------
  free energy    TOTEN  =      -156.74150233 eV

  energy without entropy =     -156.74150233  energy(sigma->0) =     -156.74150233


--------------------------------------------------------------------------------------------------------




--------------------------------------- Iteration      1(  22)  ---------------------------------------


    POTLOK:  cpu time    0.1650: real time    0.1684
    SETDIJ:  cpu time    0.0150: real time    0.0150
    EDDIAG:  cpu time    0.8609: real time    0.8599
  RMM-DIIS:  cpu time    5.2622: real time    5.2604
    ORTHCH:  cpu time    0.1740: real time    0.1743
 BZINTS: Fermi energy:  0.618202;128.000000 electrons
         Band energy:***********;  BLOECHL correction:  0.000000
       DOS:  cpu time    0.0000: real time    0.0014
    CHARGE:  cpu time    0.2980: real time    0.2967
    MIXING:  cpu time    0.0080: real time    0.0089
    --------------------------------------------
      LOOP:  cpu time    6.7830: real time    6.7850

 eigenvalue-minimisations  :  1394
 total energy-change (2. order) :-0.6733716E-04  (-0.4795418E-05)
 number of electron     128.0000074 magnetization 
 augmentation part       13.6314855 magnetization 

 Broyden mixing:
  rms(total) = 0.36583E-03    rms(broyden)= 0.36582E-03
  rms(prec ) = 0.41280E-03
  weight for this iteration     100.00

 eigenvalues of (default mixing * dielectric matrix)
  average eigenvalue GAMMA=   1.8839
  8.3293  5.0899  2.9777  2.2917  2.2917  1.2473  1.2473  1.2647  1.2647  0.9511
  0.9511  0.7852  0.7852  0.5843  0.6778  0.6361  0.6514

 Free energy of the ion-electron system (eV)
  ---------------------------------------------------
  alpha Z        PSCENC =       451.31605171
  Ewald energy   TEWEN  =     24913.70541863
  -Hartree energ DENC   =    -33784.34246325
  -exchange      EXHF   =         0.00000000
  -V(xc)+E(xc)   XCENC  =       342.95827009
  PAW double counting   =      6201.94913477    -6032.11517742
  entropy T*S    EENTRO =         0.00000000
  eigenvalues    EBANDS =     -1187.64405750
  atomic energy  EATOM  =      8937.43125330
  Solvation  Ediel_sol  =         0.00000000
  ---------------------------------------------------
  free energy    TOTEN  =      -156.74156966 eV

  energy without entropy =     -156.74156966  energy(sigma->0) =     -156.74156966


--------------------------------------------------------------------------------------------------------




--------------------------------------- Iteration      1(  23)  ---------------------------------------


    POTLOK:  cpu time    0.1620: real time    0.1661
    SETDIJ:  cpu time    0.0150: real time    0.0147
    EDDIAG:  cpu time    0.8449: real time    0.8437
  RMM-DIIS:  cpu time    4.8133: real time    4.8126
    ORTHCH:  cpu time    0.1700: real time    0.1703
 BZINTS: Fermi energy:  0.629955;128.000000 electrons
         Band energy:***********;  BLOECHL correction:  0.000000
       DOS:  cpu time    0.0010: real time    0.0014
    CHARGE:  cpu time    0.2930: real time    0.2920
    MIXING:  cpu time    0.0090: real time    0.0092
    --------------------------------------------
      LOOP:  cpu time    6.3080: real time    6.3100

 eigenvalue-minimisations  :  1260
 total energy-change (2. order) :-0.2180020E-04  (-0.2516888E-05)
 number of electron     128.0000074 magnetization 
 augmentation part       13.6320653 magnetization 

 Broyden mixing:
  rms(total) = 0.26761E-03    rms(broyden)= 0.26761E-03
  rms(prec ) = 0.29681E-03
  weight for this iteration     100.00

 eigenvalues of (default mixing * dielectric matrix)
  average eigenvalue GAMMA=   1.8494
  8.3100  5.3745  2.9940  2.7078  2.1096  1.2310  1.2310  1.3899  1.3361  0.9568
  0.9568  0.7921  0.7921  0.7348  0.6443  0.6443  0.5833  0.5015

 Free energy of the ion-electron system (eV)
  ---------------------------------------------------
  alpha Z        PSCENC =       451.31605171
  Ewald energy   TEWEN  =     24913.70541863
  -Hartree energ DENC   =    -33784.31655978
  -exchange      EXHF   =         0.00000000
  -V(xc)+E(xc)   XCENC  =       342.95875078
  PAW double counting   =      6201.94883195    -6032.11020005
  entropy T*S    EENTRO =         0.00000000
  eigenvalues    EBANDS =     -1187.67513801
  atomic energy  EATOM  =      8937.43125330
  Solvation  Ediel_sol  =         0.00000000
  ---------------------------------------------------
  free energy    TOTEN  =      -156.74159146 eV

  energy without entropy =     -156.74159146  energy(sigma->0) =     -156.74159146


--------------------------------------------------------------------------------------------------------




--------------------------------------- Iteration      1(  24)  ---------------------------------------


    POTLOK:  cpu time    0.1590: real time    0.1629
    SETDIJ:  cpu time    0.0140: real time    0.0145
    EDDIAG:  cpu time    0.8449: real time    0.8448
  RMM-DIIS:  cpu time    4.4503: real time    4.4481
    ORTHCH:  cpu time    0.1700: real time    0.1705
 BZINTS: Fermi energy:  0.639351;128.000000 electrons
         Band energy:***********;  BLOECHL correction:  0.000000
       DOS:  cpu time    0.0010: real time    0.0014
    --------------------------------------------
      LOOP:  cpu time    5.6391: real time    5.6421

 eigenvalue-minimisations  :  1146
 total energy-change (2. order) :-0.8337011E-05  (-0.1219073E-05)
 number of electron     128.0000074 magnetization 
 augmentation part       13.6320653 magnetization 

 Free energy of the ion-electron system (eV)
  ---------------------------------------------------
  alpha Z        PSCENC =       451.31605171
  Ewald energy   TEWEN  =     24913.70541863
  -Hartree energ DENC   =    -33784.27869370
  -exchange      EXHF   =         0.00000000
  -V(xc)+E(xc)   XCENC  =       342.95793399
  PAW double counting   =      6201.90817042    -6032.06756841
  entropy T*S    EENTRO =         0.00000000
  eigenvalues    EBANDS =     -1187.71416574
  atomic energy  EATOM  =      8937.43125330
  Solvation  Ediel_sol  =         0.00000000
  ---------------------------------------------------
  free energy    TOTEN  =      -156.74159980 eV

  energy without entropy =     -156.74159980  energy(sigma->0) =     -156.74159980


--------------------------------------------------------------------------------------------------------




 average (electrostatic) potential at core
  the test charge radii are     0.7215  1.1929  1.2598
  (the norm of the test charge is              1.0000)
       1 -73.1661       2 -73.6909       3 -73.6909       4 -73.6521       5 -73.7364
       6 -73.7364       7 -73.8156       8 -73.8381       9 -73.8381      10 -74.0720
      11 -73.4496      12 -73.4496      13 -39.8952      14 -38.7725      15 -38.8619
[...]
     43      -3.0641      2.00000
     44      -2.9784      2.00000
     45      -2.6463      2.00000
     46      -2.6058      2.00000
     47      -2.4710      2.00000
     48      -2.3458      2.00000
     49      -2.2089      2.00000
     50      -1.9108      2.00000
     51      -1.7150      2.00000
     52      -1.7023      2.00000
     53      -1.4046      2.00000
     54      -1.3404      2.00000
     55      -1.2754      2.00000
     56      -1.2540      2.00000
     57      -1.2211      2.00000
     58      -1.1104      2.00000
     59      -1.0795      2.00000
     60      -0.9739      2.00000
     61      -0.7387      2.00000
     62      -0.5757      2.00000
     63      -0.4246      2.00000
     64      -0.2349      2.00000
     65       2.1604      0.00000
     66       2.6035      0.00000
     67       3.0762      0.00000
     68       3.4292      0.00000
     69       3.4436      0.00000
     70       3.5125      0.00000
     71       3.5623      0.00000
     72       3.6083      0.00000
     73       3.6677      0.00000
     74       3.7679      0.00000
     75       3.8335      0.00000
     76       7.7393      0.00000

 k-point     8 :       0.2857    0.2857    0.0000
  band No.  band energies     occupation 
      1     -33.7610      2.00000
      2     -32.7715      2.00000
      3     -32.6813      2.00000
      4     -32.6359      2.00000
      5     -17.3941      2.00000
      6     -17.2206      2.00000
      7     -17.0737      2.00000
      8     -16.8449      2.00000
      9     -16.6589      2.00000
     10     -16.5770      2.00000
     11     -16.5291      2.00000
     12     -16.4404      2.00000
     13     -16.4311      2.00000
     14     -16.2543      2.00000
     15     -16.1575      2.00000
     16     -15.9169      2.00000
     17     -15.7595      2.00000
     18     -15.6597      2.00000
     19     -15.0127      2.00000
     20     -14.8933      2.00000
     21     -14.8013      2.00000
     22     -14.7259      2.00000
     23     -14.6793      2.00000
     24     -14.5949      2.00000
     25     -14.5905      2.00000
     26     -14.4889      2.00000
     27     -14.4441      2.00000
     28     -14.4359      2.00000
     29      -4.3331      2.00000
     30      -4.1794      2.00000
     31      -4.0488      2.00000
     32      -4.0340      2.00000
     33      -3.7632      2.00000
     34      -3.6879      2.00000
     35      -3.5846      2.00000
     36      -3.5621      2.00000
     37      -3.5370      2.00000
     38      -3.4772      2.00000
     39      -3.4701      2.00000
     40      -3.4426      2.00000
     41      -3.3107      2.00000
     42      -3.2674      2.00000
     43      -3.2068      2.00000
     44      -3.1507      2.00000
     45      -3.1278      2.00000
     46      -3.0950      2.00000
     47      -2.7899      2.00000
     48      -2.7626      2.00000
     49      -2.5797      2.00000
     50      -2.2695      2.00000
     51      -2.1006      2.00000
     52      -1.5935      2.00000
     53      -1.4719      2.00000
     54      -1.2354      2.00000
     55      -0.9918      2.00000
     56      -0.9499      2.00000
     57      -0.8365      2.00000
     58      -0.8191      2.00000
     59      -0.7160      2.00000
     60      -0.7051      2.00000
     61      -0.5843      2.00000
     62      -0.5561      2.00000
     63      -0.3980      2.00000
     64       0.0461      2.00000
     65       2.7167      0.00000
     66       2.9724      0.00000
     67       3.0587      0.00000
     68       3.1748      0.00000
     69       3.2619      0.00000
     70       3.3597      0.00000
     71       3.3999      0.00000
     72       3.4206      0.00000
     73       3.5216      0.00000
     74       3.6224      0.00000
     75       3.6862      0.00000
     76       3.7368      0.00000

 k-point     9 :       0.4286    0.2857    0.0000
  band No.  band energies     occupation 
      1     -33.7552      2.00000
      2     -32.7646      2.00000
      3     -32.6744      2.00000
      4     -32.6290      2.00000
      5     -17.3247      2.00000
      6     -17.1197      2.00000
      7     -16.9047      2.00000
      8     -16.6771      2.00000
      9     -16.6385      2.00000
     10     -16.6207      2.00000
     11     -16.4933      2.00000
     12     -16.4818      2.00000
     13     -16.3878      2.00000
     14     -16.0990      2.00000
     15     -16.0297      2.00000
     16     -15.9121      2.00000
     17     -15.8766      2.00000
     18     -15.6188      2.00000
     19     -15.0853      2.00000
     20     -14.9281      2.00000
     21     -14.8717      2.00000
     22     -14.7541      2.00000
     23     -14.6794      2.00000
     24     -14.6232      2.00000
     25     -14.5740      2.00000
     26     -14.5437      2.00000
     27     -14.4925      2.00000
     28     -14.4239      2.00000
     29      -4.4976      2.00000
     30      -4.3965      2.00000
     31      -4.2929      2.00000
     32      -4.1804      2.00000
     33      -4.1075      2.00000
     34      -4.0693      2.00000
     35      -4.0046      2.00000
     36      -3.9070      2.00000
     37      -3.7599      2.00000
     38      -3.7287      2.00000
     39      -3.6448      2.00000
     40      -3.6053      2.00000
     41      -3.5480      2.00000
     42      -3.4791      2.00000
     43      -3.4365      2.00000
     44      -3.2850      2.00000
     45      -3.1698      2.00000
     46      -3.1220      2.00000
     47      -3.0606      2.00000
     48      -2.9732      2.00000
     49      -2.6744      2.00000
     50      -2.5478      2.00000
     51      -2.1436      2.00000
     52      -1.5551      2.00000
     53      -1.4341      2.00000
     54      -1.3230      2.00000
     55      -1.0057      2.00000
     56      -0.9482      2.00000
     57      -0.7469      2.00000
     58      -0.6694      2.00000
     59      -0.6046      2.00000
     60      -0.5742      2.00000
     61      -0.5536      2.00000
     62      -0.4556      2.00000
     63      -0.2152      2.00000
     64       0.2095      2.00000
     65       2.8467      0.00000
     66       3.1592      0.00000
     67       3.4287      0.00000
     68       3.4651      0.00000
     69       3.6082      0.00000
     70       3.6379      0.00000
     71       3.7647      0.00000
     72       3.7697      0.00000
     73       3.7857      0.00000
     74       3.8750      0.00000
     75       3.9801      0.00000
     76       7.8275      0.00000

 k-point    10 :       0.4286    0.4286    0.0000
  band No.  band energies     occupation 
      1     -33.7495      2.00000
      2     -32.7580      2.00000
      3     -32.6679      2.00000
      4     -32.6224      2.00000
      5     -17.0468      2.00000
      6     -16.8488      2.00000
      7     -16.7217      2.00000
      8     -16.6857      2.00000
      9     -16.6288      2.00000
     10     -16.5868      2.00000
     11     -16.4497      2.00000
     12     -16.4205      2.00000
     13     -16.3840      2.00000
     14     -16.0098      2.00000
     15     -15.9224      2.00000
     16     -15.8913      2.00000
     17     -15.8151      2.00000
     18     -15.6531      2.00000
     19     -15.3843      2.00000
     20     -14.9790      2.00000
     21     -14.9280      2.00000
     22     -14.9201      2.00000
     23     -14.7738      2.00000
     24     -14.7028      2.00000
     25     -14.6283      2.00000
     26     -14.5742      2.00000
     27     -14.4901      2.00000
     28     -14.4692      2.00000
     29      -4.6057      2.00000
     30      -4.5277      2.00000
     31      -4.4669      2.00000
     32      -4.3963      2.00000
     33      -4.2741      2.00000
     34      -4.2394      2.00000
     35      -4.1706      2.00000
     36      -4.1600      2.00000
     37      -4.0759      2.00000
     38      -4.0319      2.00000
     39      -3.9168      2.00000
     40      -3.8532      2.00000
     41      -3.7922      2.00000
     42      -3.7335      2.00000
     43      -3.5272      2.00000
     44      -3.4738      2.00000
     45      -3.4579      2.00000
     46      -3.3937      2.00000
     47      -3.1491      2.00000
     48      -3.1161      2.00000
     49      -2.7584      2.00000
     50      -2.6624      2.00000
     51      -2.4059      2.00000
     52      -1.4257      2.00000
     53      -1.3535      2.00000
     54      -1.3450      2.00000
     55      -0.9476      2.00000
     56      -0.9024      2.00000
     57      -0.5474      2.00000
     58      -0.5042      2.00000
     59      -0.2925      2.00000
     60      -0.2539      2.00000
     61      -0.2283      2.00000
     62      -0.1814      2.00000
     63      -0.1538      2.00000
     64       0.5530      2.00000
     65       3.4152      0.00000
     66       3.4704      0.00000
     67       3.6502      0.00000
     68       3.7006      0.00000
     69       3.8659      0.00000
     70       3.8949      0.00000
     71       3.9456      0.00000
     72       4.0719      0.00000
     73       4.0788      0.00000
     74       7.2680      0.00000
     75       7.4084      0.00000
     76       7.6273      0.00000


--------------------------------------------------------------------------------------------------------


 soft charge-density along one line, spin component           1
         0         1         2         3         4         5         6         7         8         9
 total charge-density along one line
 
 pseudopotential strength for first ion, spin component:           1
 12.656  -0.342   0.000  -0.022   0.000  -0.000   0.001  -0.000
 -0.342   0.083  -0.000   0.002  -0.000   0.000  -0.000   0.000
  0.000  -0.000  -8.950   0.000  -0.000  -0.091  -0.000   0.000
 -0.022   0.002   0.000  -8.971   0.000  -0.000  -0.088  -0.000
  0.000  -0.000  -0.000   0.000  -8.950   0.000  -0.000  -0.091
 -0.000   0.000  -0.091  -0.000   0.000   0.247   0.000  -0.000
  0.001  -0.000  -0.000  -0.088  -0.000   0.000   0.246   0.000
 -0.000   0.000   0.000  -0.000  -0.091  -0.000   0.000   0.247
 total augmentation occupancy for first ion, spin component:           1
  1.862   0.116   0.000  -0.006   0.000  -0.000   0.013   0.000
  0.116   0.011  -0.000   0.026   0.000   0.000   0.005   0.000
 -0.000   0.000   1.520   0.000   0.000   0.126   0.000   0.000
 -0.006   0.026   0.000   1.520  -0.000   0.000   0.136   0.000
  0.000   0.000   0.000   0.000   1.520   0.000   0.000   0.126
  0.000   0.000   0.126   0.000   0.000   0.012   0.000   0.000
  0.013   0.005  -0.000   0.136   0.000   0.000   0.013  -0.000
  0.000   0.000   0.000   0.000   0.126   0.000  -0.000   0.012


------------------------ aborting loop because EDIFF is reached ----------------------------------------


    CHARGE:  cpu time    0.2910: real time    0.2923
    FORLOC:  cpu time    0.0330: real time    0.0325
    FORNL :  cpu time    3.2195: real time    3.2190
    STRESS:  cpu time    6.8950: real time    6.8929
    FORCOR:  cpu time    0.1730: real time    0.1726
    FORHAR:  cpu time    0.0610: real time    0.0605
    MIXING:  cpu time    0.0090: real time    0.0096
    OFIELD:  cpu time    0.0000: real time    0.0000

  FORCE on cell =-STRESS in cart. coord.  units (eV):
  Direction    XX          YY          ZZ          XY          YZ          ZX
  --------------------------------------------------------------------------------------
  Alpha Z   451.31605   451.31605   451.31605
  Ewald   30025.31756 30025.31756-35136.94585     0.00000     0.00000     0.00000
  Hartree 32582.02046 32582.02046-31379.76019    -0.00000    -0.00000    -0.00000
  E(xc)    -579.83629  -579.83629  -579.33371    -0.00000     0.00000    -0.00000
  Local  -64349.98183-64349.98183 64782.13411     0.00000     0.00000    -0.00000
  n-local  -488.10438  -465.02274  -478.82946    -1.75295    -0.00006    -0.00001
  augment   115.81922   115.81922   114.81662    -0.00000     0.00000    -0.00000
  Kinetic  2211.89335  2257.63092  2230.61705    -9.55413     0.00001    -0.00001
  Fock        0.00000     0.00000     0.00000     0.00000     0.00000     0.00000
  -------------------------------------------------------------------------------------
  Total       2.85375     2.85375     4.01461     0.00000     0.00000     0.00000
  in kB      11.67954    11.67954    16.43059     0.00000     0.00000     0.00000
  external pressure =       13.26 kB  Pullay stress =        0.00 kB


 VOLUME and BASIS-vectors are now :
 -----------------------------------------------------------------------------
  energy-cutoff  :      700.00
  volume of cell :      391.47
      direct lattice vectors                 reciprocal lattice vectors
     3.905268000  0.000000000  0.000000000     0.256064373  0.000000000  0.000000000
     0.000000000  3.905268000  0.000000000     0.000000000  0.256064373  0.000000000
     0.000000000  0.000000000 25.668438000     0.000000000  0.000000000  0.038958350

  length of vectors
     3.905268000  3.905268000 25.668438000     0.256064373  0.256064373  0.038958350


 FORCES acting on ions
    electron-ion (+dipol)            ewald-force                    non-local-force                 convergence-correction
 -----------------------------------------------------------------------------------------------
   0.159E-12 -.175E-12 0.157E+04   -.276E-14 0.267E-14 -.158E+04   0.000E+00 0.424E-21 0.789E+01   0.232E-13 -.263E-13 0.295E-02
   0.141E-12 -.164E-12 0.112E+04   -.723E-14 -.374E-14 -.111E+04   0.000E+00 0.847E-21 -.244E+00   0.146E-13 -.172E-13 0.120E-02
   -.113E-13 0.142E-12 0.112E+04   0.548E-14 -.847E-14 -.111E+04   0.000E+00 0.265E-22 -.244E+00   -.171E-13 -.223E-13 0.120E-02
   0.150E-12 -.710E-13 0.669E+03   -.956E-14 -.300E-14 -.669E+03   -.847E-21 0.000E+00 0.675E+00   0.313E-13 -.766E-14 0.278E-03
   0.161E-12 -.582E-13 0.223E+03   -.458E-14 -.321E-14 -.223E+03   0.000E+00 -.424E-21 0.208E+00   0.154E-13 0.470E-14 -.128E-03
   -.890E-15 0.200E-13 0.223E+03   0.843E-14 -.119E-13 -.223E+03   0.000E+00 0.000E+00 0.208E+00   -.128E-13 0.109E-13 -.128E-03
   0.155E-12 -.542E-12 -.223E+03   0.148E-14 0.548E-14 0.223E+03   0.000E+00 -.238E-21 0.551E+00   0.263E-13 -.580E-14 -.397E-03
   0.155E-12 -.111E-12 -.669E+03   -.364E-14 -.423E-14 0.669E+03   0.000E+00 0.529E-22 0.404E-01   0.137E-13 0.140E-13 -.594E-03
   -.144E-14 0.109E-13 -.669E+03   0.918E-14 -.129E-13 0.669E+03   0.000E+00 0.212E-21 0.404E-01   -.212E-13 0.204E-13 -.594E-03
   0.147E-12 0.495E-12 -.112E+04   -.275E-14 -.659E-17 0.111E+04   0.000E+00 0.127E-20 0.272E+01   0.301E-13 0.243E-13 0.160E-04
   0.165E-12 -.277E-12 -.154E+04   -.662E-14 -.619E-14 0.154E+04   0.000E+00 0.847E-21 -.219E+01   0.435E-14 0.238E-13 0.150E-02
   -.747E-14 0.124E-12 -.154E+04   0.656E-14 -.517E-14 0.154E+04   0.000E+00 -.847E-21 -.219E+01   -.727E-14 0.409E-13 0.150E-02
   -.446E-14 -.369E-13 0.255E+04   0.718E-14 0.728E-15 -.255E+04   0.212E-21 0.000E+00 -.499E+01   -.360E-14 -.286E-13 0.422E-02
   -.377E-14 0.726E-13 0.111E+04   0.107E-13 0.217E-14 -.111E+04   -.106E-21 0.000E+00 0.177E-01   -.393E-14 -.179E-13 0.709E-03
   -.838E-14 0.140E-13 -.372E+03   0.231E-14 0.116E-13 0.372E+03   0.000E+00 0.847E-21 0.105E+00   -.290E-14 0.434E-14 -.583E-03
   -.727E-15 0.943E-13 -.186E+04   0.115E-13 0.210E-14 0.186E+04   0.000E+00 0.000E+00 -.810E+00   0.702E-14 0.228E-13 -.290E-03
   0.211E-14 -.229E-12 0.743E+03   -.881E-14 0.112E-13 -.744E+03   0.424E-21 0.000E+00 -.381E+00   0.501E-14 -.344E-14 0.102E-02
   0.152E-14 -.425E-12 0.148E+03   -.903E-14 0.795E-14 -.149E+03   -.529E-22 0.000E+00 -.864E-01   0.421E-14 -.123E-14 -.617E-04
   0.815E-14 0.134E-12 -.446E+03   -.935E-14 0.112E-13 0.446E+03   0.000E+00 0.000E+00 -.128E-01   0.704E-14 0.228E-15 -.350E-03
   0.565E-14 0.131E-12 -.105E+04   -.597E-14 0.907E-14 0.104E+04   0.000E+00 0.000E+00 0.144E+01   0.182E-14 0.107E-14 0.117E-02
 -----------------------------------------------------------------------------------------------
   0.121E-11 -.852E-12 -.275E+01   -.747E-14 0.527E-14 0.909E-12   -.371E-21 0.302E-20 0.274E+01   0.115E-12 0.369E-13 0.126E-01
 
 
 POSITION                                       TOTAL-FORCE (eV/Angst)
 -----------------------------------------------------------------------------------
      1.95263      1.95263      6.00000        -0.000000      0.000000     -1.070803
      1.95263      0.00000      7.95263        -0.000000      0.000000     -0.001585
      0.00000      1.95263      7.95263        -0.000000     -0.000000     -0.001585
      1.95263      1.95263      9.90527         0.000000      0.000000      0.379087
      1.95263      0.00000     11.85790        -0.000000      0.000000      0.066905
      0.00000      1.95263     11.85790        -0.000000      0.000000      0.066905
      1.95263      1.95263     13.81054        -0.000000      0.000000      0.306708
      1.95263      0.00000     15.76317         0.000000      0.000000      0.021259
      0.00000      1.95263     15.76317        -0.000000      0.000000      0.021259
      1.95263      1.95263     17.71580        -0.000000      0.000000      1.062423
      1.95263      0.00000     19.66844        -0.000000     -0.000000      0.453959
      0.00000      1.95263     19.66844        -0.000000      0.000000      0.453959
      0.00000      0.00000      6.00000        -0.000000     -0.000000      1.191079
      0.00000      0.00000      9.90527        -0.000000     -0.000000     -0.006437
      0.00000      0.00000     13.81054        -0.000000     -0.000000     -0.058382
      0.00000      0.00000     17.71580        -0.000000      0.000000      0.662155
      1.95263      1.95263      7.95263        -0.000000     -0.000000     -1.025694
      1.95263      1.95263     11.85790        -0.000000     -0.000000     -0.310588
      1.95263      1.95263     15.76317        -0.000000      0.000000     -0.368426
      1.95263      1.95263     19.66844        -0.000000      0.000000     -1.842200
 -----------------------------------------------------------------------------------
    total drift:                                0.000000     -0.000000      0.001349


--------------------------------------------------------------------------------------------------------



  FREE ENERGIE OF THE ION-ELECTRON SYSTEM (eV)
  ---------------------------------------------------
  free  energy   TOTEN  =      -156.74159980 eV

  energy  without entropy=     -156.74159980  energy(sigma->0) =     -156.74159980
 


--------------------------------------------------------------------------------------------------------


    POTLOK:  cpu time    0.1750: real time    0.1747


--------------------------------------------------------------------------------------------------------


     LOOP+:  cpu time  274.8962: real time  276.4012
    4ORBIT:  cpu time    0.0000: real time    0.0000
 BZINTS: Fermi energy:  0.639351;128.000000 electrons
         Band energy:***********;  BLOECHL correction:  0.000000

 total amount of memory used by VASP MPI-rank0   150439. kBytes
=======================================================================

   base      :      30000. kBytes
   nonl-proj :      38576. kBytes
   fftplans  :      10892. kBytes
   grid      :      19574. kBytes
   one-center:        155. kBytes
   wavefun   :      51242. kBytes
 
  
  
 General timing and accounting informations for this job:
 ========================================================
  
                  Total CPU time used (sec):      278.549
                            User time (sec):      273.049
                          System time (sec):        5.499
                         Elapsed time (sec):      280.388
  
                   Maximum memory used (kb):      163636.
                   Average memory used (kb):           0.
  
                          Minor page faults:        60350
                          Major page faults:          125
                 Voluntary context switches:         3396
