<?xml version="1.0" encoding="ISO-8859-1"?>
<modeling>
 <generator>
  <i name="program" type="string">vasp </i>
  <i name="version" type="string">5.4.4.18Apr17-6-g9f103f2a35  </i>
  <i name="subversion" type="string">(build Jun 30 2017 11:15:00) complex            parallel </i>
  <i name="platform" type="string">STALLO_VASP_5.4.4 </i>
  <i name="date" type="string">2019 11 06 </i>
  <i name="time" type="string">13:22:58 </i>
 </generator>
 <incar>
  <i type="string" name="PREC">normal    ! low/normal/accurate</i>
  <i type="string" name="ALGO"> Fast      ! Algorithm for electronic re</i>
  <i type="int" name="ISPIN">     1</i>
  <i type="int" name="NELMIN">     4</i>
  <i name="EDIFF">      0.00001000</i>
  <i type="int" name="NSW">     0</i>
  <i name="ENCUT">    700.00000000</i>
  <i type="logical" name="LREAL"> F  </i>
  <i type="int" name="ISMEAR">    -5</i>
  <i name="SIGMA">      0.20000000</i>
  <i type="logical" name="LWAVE"> F  </i>
  <v type="int" name="KPOINT_BSE">    -1     0     0     0</v>
 </incar>
 <structure name="primitive_cell" >
  <crystal>
   <varray name="basis" >
    <v>       3.90526800       0.00000000       0.00000000 </v>
    <v>       0.00000000       3.90526800       0.00000000 </v>
    <v>       0.00000000       0.00000000      25.66843800 </v>
   </varray>
   <i name="volume">    391.47238071 </i>
   <varray name="rec_basis" >
    <v>       0.25606437       0.00000000       0.00000000 </v>
    <v>       0.00000000       0.25606437       0.00000000 </v>
    <v>       0.00000000       0.00000000       0.03895835 </v>
   </varray>
  </crystal>
  <varray name="positions" >
   <v>      -0.50000000      -0.50000000       0.23375010 </v>
   <v>      -0.50000000      -0.50000000       0.30982150 </v>
   <v>      -0.50000000       0.00000000       0.30982150 </v>
   <v>       0.00000000      -0.50000000       0.30982150 </v>
   <v>       0.00000000       0.00000000       0.23375010 </v>
   <v>      -0.50000000      -0.50000000       0.38589290 </v>
   <v>       0.00000000       0.00000000       0.38589290 </v>
   <v>      -0.50000000      -0.50000000       0.46196430 </v>
   <v>      -0.50000000       0.00000000       0.46196430 </v>
   <v>       0.00000000      -0.50000000       0.46196430 </v>
   <v>      -0.50000000      -0.50000000      -0.46196430 </v>
   <v>       0.00000000       0.00000000      -0.46196430 </v>
   <v>      -0.50000000      -0.50000000      -0.38589290 </v>
   <v>      -0.50000000       0.00000000      -0.38589290 </v>
   <v>       0.00000000      -0.50000000      -0.38589290 </v>
   <v>      -0.50000000      -0.50000000      -0.30982150 </v>
   <v>      -0.50000000      -0.50000000      -0.23375010 </v>
   <v>       0.00000000       0.00000000      -0.30982150 </v>
   <v>      -0.50000000       0.00000000      -0.23375010 </v>
   <v>       0.00000000      -0.50000000      -0.23375010 </v>
  </varray>
 </structure>
 <varray name="primitive_index" >
  <v type="int" >        1 </v>
  <v type="int" >       17 </v>
  <v type="int" >        2 </v>
  <v type="int" >        3 </v>
  <v type="int" >       13 </v>
  <v type="int" >        4 </v>
  <v type="int" >       14 </v>
  <v type="int" >       18 </v>
  <v type="int" >        5 </v>
  <v type="int" >        6 </v>
  <v type="int" >        7 </v>
  <v type="int" >       15 </v>
  <v type="int" >       19 </v>
  <v type="int" >        8 </v>
  <v type="int" >        9 </v>
  <v type="int" >       10 </v>
  <v type="int" >       20 </v>
  <v type="int" >       16 </v>
  <v type="int" >       11 </v>
  <v type="int" >       12 </v>
 </varray>
 <kpoints>
  <generation param="Gamma">
   <v type="int" name="divisions">       7        7        1 </v>
   <v name="usershift">      0.00000000       0.00000000       0.00000000 </v>
   <v name="genvec1">      0.14285714       0.00000000       0.00000000 </v>
   <v name="genvec2">      0.00000000       0.14285714       0.00000000 </v>
   <v name="genvec3">      0.00000000       0.00000000       1.00000000 </v>
   <v name="shift">      0.00000000       0.00000000       0.00000000 </v>
  </generation>
  <varray name="kpointlist" >
   <v>       0.00000000       0.00000000       0.00000000 </v>
   <v>       0.14285714       0.00000000       0.00000000 </v>
   <v>       0.28571429       0.00000000       0.00000000 </v>
   <v>       0.42857143       0.00000000       0.00000000 </v>
   <v>       0.14285714       0.14285714       0.00000000 </v>
   <v>       0.28571429       0.14285714       0.00000000 </v>
   <v>       0.42857143       0.14285714       0.00000000 </v>
   <v>       0.28571429       0.28571429       0.00000000 </v>
   <v>       0.42857143       0.28571429       0.00000000 </v>
   <v>       0.42857143       0.42857143       0.00000000 </v>
  </varray>
  <varray name="weights" >
   <v>       0.02040816 </v>
   <v>       0.08163265 </v>
   <v>       0.08163265 </v>
   <v>       0.08163265 </v>
   <v>       0.08163265 </v>
   <v>       0.16326531 </v>
   <v>       0.16326531 </v>
   <v>       0.08163265 </v>
   <v>       0.16326531 </v>
   <v>       0.08163265 </v>
  </varray>
  <varray name="tetrahedronlist"  type="int" >
   <v type="int" >        4        1        1        2        5 </v>
   <v type="int" >        4        1        2        2        5 </v>
   <v type="int" >        4        1        2        5        5 </v>
   <v type="int" >        4        2        2        3        6 </v>
   <v type="int" >        4        2        2        5        6 </v>
   <v type="int" >        4        2        5        5        6 </v>
   <v type="int" >        4        2        3        3        6 </v>
   <v type="int" >        4        2        3        6        6 </v>
   <v type="int" >        4        2        5        6        6 </v>
   <v type="int" >        4        3        3        4        7 </v>
   <v type="int" >        4        3        3        6        7 </v>
   <v type="int" >        4        3        6        6        7 </v>
   <v type="int" >        4        3        4        4        7 </v>
   <v type="int" >        4        3        4        7        7 </v>
   <v type="int" >        4        3        6        7        7 </v>
   <v type="int" >        8        4        4        4        7 </v>
   <v type="int" >        8        4        4        7        7 </v>
   <v type="int" >        8        4        7        7        7 </v>
   <v type="int" >        4        3        4        4        6 </v>
   <v type="int" >        4        4        4        6        7 </v>
   <v type="int" >        4        4        6        7        7 </v>
   <v type="int" >        4        3        3        4        6 </v>
   <v type="int" >        4        3        4        6        6 </v>
   <v type="int" >        4        4        6        6        7 </v>
   <v type="int" >        4        2        3        3        5 </v>
   <v type="int" >        4        3        3        5        6 </v>
   <v type="int" >        4        3        5        6        6 </v>
   <v type="int" >        4        2        2        3        5 </v>
   <v type="int" >        4        2        3        5        5 </v>
   <v type="int" >        4        3        5        5        6 </v>
   <v type="int" >        4        1        2        2        2 </v>
   <v type="int" >        4        2        2        2        5 </v>
   <v type="int" >        2        2        2        5        5 </v>
   <v type="int" >        2        1        1        2        2 </v>
   <v type="int" >        4        5        5        6        8 </v>
   <v type="int" >        4        5        6        6        8 </v>
   <v type="int" >        4        5        6        8        8 </v>
   <v type="int" >        4        6        6        7        9 </v>
   <v type="int" >        4        6        6        8        9 </v>
   <v type="int" >        4        6        8        8        9 </v>
   <v type="int" >        4        6        7        7        9 </v>
   <v type="int" >        4        6        7        9        9 </v>
   <v type="int" >        4        6        8        9        9 </v>
   <v type="int" >        8        7        7        7        9 </v>
   <v type="int" >        8        7        7        9        9 </v>
   <v type="int" >        8        7        9        9        9 </v>
   <v type="int" >        4        6        7        7        8 </v>
   <v type="int" >        4        7        7        8        9 </v>
   <v type="int" >        4        7        8        9        9 </v>
   <v type="int" >        4        6        6        7        8 </v>
   <v type="int" >        4        6        7        8        8 </v>
   <v type="int" >        4        7        8        8        9 </v>
   <v type="int" >        4        5        6        6        6 </v>
   <v type="int" >        4        6        6        6        8 </v>
   <v type="int" >        2        6        6        8        8 </v>
   <v type="int" >        2        5        5        6        6 </v>
   <v type="int" >        4        8        8        9       10 </v>
   <v type="int" >        4        8        9        9       10 </v>
   <v type="int" >        4        8        9       10       10 </v>
   <v type="int" >       12        9        9        9       10 </v>
   <v type="int" >       10        9        9       10       10 </v>
   <v type="int" >        8        9       10       10       10 </v>
   <v type="int" >        4        8        9        9        9 </v>
   <v type="int" >        2        8        8        9        9 </v>
   <v type="int" >        6       10       10       10       10 </v>
  </varray>
  <i name="volumeweight">      0.00340136 </i>
 </kpoints>
 <parameters>
  <separator name="general" >
   <i type="string" name="SYSTEM">unknown system</i>
   <i type="logical" name="LCOMPAT"> F  </i>
  </separator>
  <separator name="electronic" >
   <i type="string" name="PREC">normal</i>
   <i name="ENMAX">    700.00000000</i>
   <i name="ENAUG">    605.39200000</i>
   <i name="EDIFF">      0.00001000</i>
   <i type="int" name="IALGO">    68</i>
   <i type="int" name="IWAVPR">    10</i>
   <i type="int" name="NBANDS">    76</i>
   <i name="NELECT">    128.00000000</i>
   <i type="int" name="TURBO">     0</i>
   <i type="int" name="IRESTART">     0</i>
   <i type="int" name="NREBOOT">     0</i>
   <i type="int" name="NMIN">     0</i>
   <i name="EREF">      0.00000000</i>
   <separator name="electronic smearing" >
    <i type="int" name="ISMEAR">    -5</i>
    <i name="SIGMA">      0.20000000</i>
    <i name="KSPACING">      0.50000000</i>
    <i type="logical" name="KGAMMA"> T  </i>
   </separator>
   <separator name="electronic projectors" >
    <i type="logical" name="LREAL"> F  </i>
    <v name="ROPT">      0.00000000      0.00000000      0.00000000</v>
    <i type="int" name="LMAXPAW">  -100</i>
    <i type="int" name="LMAXMIX">     2</i>
    <i type="logical" name="NLSPLINE"> F  </i>
   </separator>
   <separator name="electronic startup" >
    <i type="int" name="ISTART">     0</i>
    <i type="int" name="ICHARG">     2</i>
    <i type="int" name="INIWAV">     1</i>
   </separator>
   <separator name="electronic spin" >
    <i type="int" name="ISPIN">     1</i>
    <i type="logical" name="LNONCOLLINEAR"> F  </i>
    <v name="MAGMOM">      1.00000000      1.00000000      1.00000000      1.00000000      1.00000000      1.00000000      1.00000000      1.00000000      1.00000000      1.00000000      1.00000000      1.00000000      1.00000000      1.00000000      1.00000000      1.00000000      1.00000000      1.00000000      1.00000000      1.00000000
</v>
    <i name="NUPDOWN">     -1.00000000</i>
    <i type="logical" name="LSORBIT"> F  </i>
    <v name="SAXIS">      0.00000000      0.00000000      1.00000000</v>
    <i type="logical" name="LSPIRAL"> F  </i>
    <v name="QSPIRAL">      0.00000000      0.00000000      0.00000000</v>
    <i type="logical" name="LZEROZ"> F  </i>
   </separator>
   <separator name="electronic exchange-correlation" >
    <i type="logical" name="LASPH"> F  </i>
    <i type="logical" name="LMETAGGA"> F  </i>
   </separator>
   <separator name="electronic convergence" >
    <i type="int" name="NELM">    60</i>
    <i type="int" name="NELMDL">    -5</i>
    <i type="int" name="NELMIN">     4</i>
    <i name="ENINI">    700.00000000</i>
    <separator name="electronic convergence detail" >
     <i type="logical" name="LDIAG"> T  </i>
     <i type="logical" name="LSUBROT"> F  </i>
     <i name="WEIMIN">      0.00000000</i>
     <i name="EBREAK">      0.00000003</i>
     <i name="DEPER">      0.30000000</i>
     <i type="int" name="NRMM">     4</i>
     <i name="TIME">      0.40000000</i>
    </separator>
   </separator>
   <separator name="electronic mixer" >
    <i name="AMIX">      0.40000000</i>
    <i name="BMIX">      1.00000000</i>
    <i name="AMIN">      0.10000000</i>
    <i name="AMIX_MAG">      1.60000000</i>
    <i name="BMIX_MAG">      1.00000000</i>
    <separator name="electronic mixer details" >
     <i type="int" name="IMIX">     4</i>
     <i type="logical" name="MIXFIRST"> F  </i>
     <i type="int" name="MAXMIX">   -45</i>
     <i name="WC">    100.00000000</i>
     <i type="int" name="INIMIX">     1</i>
     <i type="int" name="MIXPRE">     1</i>
     <i type="int" name="MREMOVE">     5</i>
    </separator>
   </separator>
   <separator name="electronic dipolcorrection" >
    <i type="logical" name="LDIPOL"> F  </i>
    <i type="logical" name="LMONO"> F  </i>
    <i type="int" name="IDIPOL">     0</i>
    <i name="EPSILON">      1.00000000</i>
    <v name="DIPOL">   -100.00000000   -100.00000000   -100.00000000</v>
    <i name="EFIELD">      0.00000000</i>
   </separator>
  </separator>
  <separator name="grids" >
   <i type="int" name="NGX">    28</i>
   <i type="int" name="NGY">    28</i>
   <i type="int" name="NGZ">   168</i>
   <i type="int" name="NGXF">    56</i>
   <i type="int" name="NGYF">    56</i>
   <i type="int" name="NGZF">   336</i>
   <i type="logical" name="ADDGRID"> F  </i>
  </separator>
  <separator name="ionic" >
   <i type="int" name="NSW">     0</i>
   <i type="int" name="IBRION">    -1</i>
   <i type="int" name="MDALGO">     0</i>
   <i type="int" name="ISIF">     2</i>
   <i name="PSTRESS">      0.00000000</i>
   <i name="EDIFFG">      0.00010000</i>
   <i type="int" name="NFREE">     0</i>
   <i name="POTIM">      0.50000000</i>
   <i name="SMASS">     -3.00000000</i>
   <i name="SCALEE">      1.00000000</i>
  </separator>
  <separator name="ionic md" >
   <i name="TEBEG">      0.00010000</i>
   <i name="TEEND">      0.00010000</i>
   <i type="int" name="NBLOCK">     1</i>
   <i type="int" name="KBLOCK">     1</i>
   <i type="int" name="NPACO">   256</i>
   <i name="APACO">     16.00000000</i>
  </separator>
  <separator name="symmetry" >
   <i type="int" name="ISYM">     2</i>
   <i name="SYMPREC">      0.00001000</i>
  </separator>
  <separator name="dos" >
   <i type="int" name="LORBIT">     0</i>
   <v name="RWIGS">     -1.00000000     -1.00000000     -1.00000000</v>
   <i type="int" name="NEDOS">   301</i>
   <i name="EMIN">     10.00000000</i>
   <i name="EMAX">    -10.00000000</i>
   <i name="EFERMI">      0.00000000</i>
  </separator>
  <separator name="writing" >
   <i type="int" name="NWRITE">     2</i>
   <i type="logical" name="LWAVE"> F  </i>
   <i type="logical" name="LDOWNSAMPLE"> F  </i>
   <i type="logical" name="LCHARG"> T  </i>
   <i type="logical" name="LPARD"> F  </i>
   <i type="logical" name="LVTOT"> F  </i>
   <i type="logical" name="LVHAR"> F  </i>
   <i type="logical" name="LELF"> F  </i>
   <i type="logical" name="LOPTICS"> F  </i>
   <v name="STM">      0.00000000      0.00000000      0.00000000      0.00000000      0.00000000      0.00000000      0.00000000</v>
  </separator>
  <separator name="performance" >
   <i type="int" name="NPAR">     2</i>
   <i type="int" name="NSIM">     4</i>
   <i type="int" name="NBLK">    -1</i>
   <i type="logical" name="LPLANE"> T  </i>
   <i type="logical" name="LSCALAPACK"> T  </i>
   <i type="logical" name="LSCAAWARE"> F  </i>
   <i type="logical" name="LSCALU"> F  </i>
   <i type="logical" name="LASYNC"> F  </i>
   <i type="logical" name="LORBITALREAL"> F  </i>
  </separator>
  <separator name="miscellaneous" >
   <i type="int" name="IDIOT">     3</i>
   <i type="int" name="ISPECIAL">     0</i>
   <i type="logical" name="LMUSIC"> F  </i>
   <v name="POMASS">     16.00000000     87.62000000     47.88000000</v>
   <v name="DARWINR">      0.00000000      0.00000000      0.00000000</v>
   <v name="DARWINV">      1.00000000      1.00000000      1.00000000</v>
   <i type="logical" name="LCORR"> T  </i>
  </separator>
  <i type="logical" name="GGA_COMPAT"> T  </i>
  <i type="logical" name="LBERRY"> F  </i>
  <i type="int" name="ICORELEVEL">     0</i>
  <i type="logical" name="LDAU"> F  </i>
  <i type="int" name="I_CONSTRAINED_M">     0</i>
  <separator name="electronic exchange-correlation" >
   <i type="string" name="GGA">--</i>
   <i type="int" name="VOSKOWN">     0</i>
   <i type="logical" name="LHFCALC"> F  </i>
   <i type="string" name="PRECFOCK"></i>
   <i type="logical" name="LSYMGRAD"> F  </i>
   <i type="logical" name="LHFONE"> F  </i>
   <i type="logical" name="LRHFCALC"> F  </i>
   <i type="logical" name="LTHOMAS"> F  </i>
   <i type="logical" name="LMODELHF"> F  </i>
   <i name="ENCUT4O">     -1.00000000</i>
   <i type="int" name="EXXOEP">     0</i>
   <i type="int" name="FOURORBIT">     0</i>
   <i name="AEXX">      0.00000000</i>
   <i name="HFALPHA">      0.00000000</i>
   <i name="MCALPHA">      0.00000000</i>
   <i name="ALDAX">      1.00000000</i>
   <i name="AGGAX">      1.00000000</i>
   <i name="ALDAC">      1.00000000</i>
   <i name="AGGAC">      1.00000000</i>
   <i type="int" name="NKREDX">     1</i>
   <i type="int" name="NKREDY">     1</i>
   <i type="int" name="NKREDZ">     1</i>
   <i type="logical" name="SHIFTRED"> F  </i>
   <i type="logical" name="ODDONLY"> F  </i>
   <i type="logical" name="EVENONLY"> F  </i>
   <i type="int" name="LMAXFOCK">     0</i>
   <i type="int" name="NMAXFOCKAE">     0</i>
   <i type="logical" name="LFOCKAEDFT"> F  </i>
   <i name="HFSCREEN">      0.00000000</i>
   <i name="HFSCREENC">      0.00000000</i>
   <i type="int" name="NBANDSGWLOW">     0</i>
  </separator>
  <separator name="vdW DFT" >
   <i type="logical" name="LUSE_VDW"> F  </i>
   <i name="Zab_VDW">     -0.84910000</i>
   <i name="PARAM1">      0.12340000</i>
   <i name="PARAM2">      1.00000000</i>
   <i name="PARAM3">      0.00000000</i>
  </separator>
  <separator name="model GW" >
   <i type="int" name="MODEL_GW">     0</i>
   <i name="MODEL_EPS0">     11.74417142</i>
   <i name="MODEL_ALPHA">      1.00000000</i>
  </separator>
  <separator name="linear response parameters" >
   <i type="logical" name="LEPSILON"> F  </i>
   <i type="logical" name="LRPA"> F  </i>
   <i type="logical" name="LNABLA"> F  </i>
   <i type="logical" name="LVEL"> F  </i>
   <i type="int" name="KINTER">     0</i>
   <i name="CSHIFT">      0.10000000</i>
   <i name="OMEGAMAX">     -1.00000000</i>
   <i name="DEG_THRESHOLD">      0.00200000</i>
   <i name="RTIME">     -0.10000000</i>
   <i name="WPLASMAI">      0.00000000</i>
   <v name="DFIELD">      0.00000000      0.00000000      0.00000000</v>
   <v name="WPLASMA">      0.00000000      0.00000000      0.00000000      0.00000000      0.00000000      0.00000000      0.00000000      0.00000000      0.00000000</v>
  </separator>
  <separator name="orbital magnetization" >
   <i type="logical" name="NUCIND"> F  </i>
   <v name="MAGPOS">      0.00000000      0.00000000      0.00000000</v>
   <i type="logical" name="LNICSALL"> T  </i>
   <i type="logical" name="ORBITALMAG"> F  </i>
   <i type="logical" name="LMAGBLOCH"> F  </i>
   <i type="logical" name="LCHIMAG"> F  </i>
   <i type="logical" name="LGAUGE"> T  </i>
   <i type="int" name="MAGATOM">     0</i>
   <v name="MAGDIPOL">      0.00000000      0.00000000      0.00000000</v>
   <v name="AVECCONST">      0.00000000      0.00000000      0.00000000</v>
  </separator>
  <separator name="response functions" >
   <i type="logical" name="LADDER"> F  </i>
   <i type="logical" name="LRPAFORCE"> F  </i>
   <i type="logical" name="LFXC"> F  </i>
   <i type="logical" name="LHARTREE"> T  </i>
   <i type="int" name="IBSE">     0</i>
   <v type="int" name="KPOINT">    -1     0     0     0</v>
   <i type="logical" name="LTCTE"> F  </i>
   <i type="logical" name="LTETE"> F  </i>
   <i type="logical" name="LTRIPLET"> F  </i>
   <i type="logical" name="LFXCEPS"> F  </i>
   <i type="logical" name="LFXHEG"> F  </i>
   <i type="int" name="NATURALO">     2</i>
   <i type="logical" name="L2ORDER"> F  </i>
   <i type="logical" name="LMP2LT"> F  </i>
   <i type="logical" name="LUSEW"> F  </i>
   <i name="ENCUTGW">     -2.00000000</i>
   <i name="ENCUTGWSOFT">     -2.00000000</i>
   <i name="ENCUTLF">     -1.00000000</i>
   <i type="int" name="LMAXMP2">    -1</i>
   <i name="SCISSOR">      0.00000000</i>
   <i type="int" name="NOMEGA">     0</i>
   <i type="int" name="NOMEGAR">     0</i>
   <i type="int" name="NBANDSGW">    -1</i>
   <i type="int" name="NBANDSO">    -1</i>
   <i type="int" name="NBANDSV">    -1</i>
   <i type="int" name="NELM">     1</i>
   <i type="int" name="NELMHF">     1</i>
   <i type="int" name="DIM">     3</i>
   <i type="int" name="ANTIRES">     0</i>
   <i name="OMEGAMAX">    -30.00000000</i>
   <i name="OMEGAMIN">    -30.00000000</i>
   <i name="OMEGATL">   -200.00000000</i>
   <i type="int" name="OMEGAGRID">   140</i>
   <i name="CSHIFT">     -0.10000000</i>
   <i type="logical" name="SELFENERGY"> F  </i>
   <i type="logical" name="LSPECTRAL"> F  </i>
   <i type="logical" name="LSPECTRALGW"> F  </i>
   <i type="logical" name="LSINGLES"> F  </i>
   <i type="logical" name="LFERMIGW"> F  </i>
   <i type="logical" name="ODDONLYGW"> F  </i>
   <i type="logical" name="EVENONLYGW"> F  </i>
   <i type="int" name="NKREDLFX">     1</i>
   <i type="int" name="NKREDLFY">     1</i>
   <i type="int" name="NKREDLFZ">     1</i>
   <i type="int" name="MAXMEM">  2800</i>
   <i type="int" name="TELESCOPE">     0</i>
   <i type="int" name="TAUPAR">     1</i>
   <i type="int" name="OMEGAPAR">    -1</i>
   <i name="LAMBDA">      1.00000000</i>
  </separator>
  <separator name="External order field" >
   <i name="OFIELD_KAPPA">      0.00000000</i>
   <v name="OFIELD_K">      0.00000000      0.00000000      0.00000000</v>
   <i name="OFIELD_Q6_NEAR">      0.00000000</i>
   <i name="OFIELD_Q6_FAR">      0.00000000</i>
   <i name="OFIELD_A">      0.00000000</i>
  </separator>
 </parameters>
 <atominfo>
  <atoms>      20 </atoms>
  <types>       3 </types>
  <array name="atoms" >
   <dimension dim="1">ion</dimension>
   <field type="string">element</field>
   <field type="int">atomtype</field>
   <set>
    <rc><c>O </c><c>   1</c></rc>
    <rc><c>O </c><c>   1</c></rc>
    <rc><c>O </c><c>   1</c></rc>
    <rc><c>O </c><c>   1</c></rc>
    <rc><c>O </c><c>   1</c></rc>
    <rc><c>O </c><c>   1</c></rc>
    <rc><c>O </c><c>   1</c></rc>
    <rc><c>O </c><c>   1</c></rc>
    <rc><c>O </c><c>   1</c></rc>
    <rc><c>O </c><c>   1</c></rc>
    <rc><c>O </c><c>   1</c></rc>
    <rc><c>O </c><c>   1</c></rc>
    <rc><c>Sr</c><c>   2</c></rc>
    <rc><c>Sr</c><c>   2</c></rc>
    <rc><c>Sr</c><c>   2</c></rc>
    <rc><c>Sr</c><c>   2</c></rc>
    <rc><c>Ti</c><c>   3</c></rc>
    <rc><c>Ti</c><c>   3</c></rc>
    <rc><c>Ti</c><c>   3</c></rc>
    <rc><c>Ti</c><c>   3</c></rc>
   </set>
  </array>
  <array name="atomtypes" >
   <dimension dim="1">type</dimension>
   <field type="int">atomspertype</field>
   <field type="string">element</field>
   <field>mass</field>
   <field>valence</field>
   <field type="string">pseudopotential</field>
   <set>
    <rc><c>  12</c><c>O </c><c>     16.00000000</c><c>      6.00000000</c><c> PAW_PBE O 08Apr2002                    </c></rc>
    <rc><c>   4</c><c>Sr</c><c>     87.62000000</c><c>     10.00000000</c><c> PAW_PBE Sr_sv 07Sep2000                </c></rc>
    <rc><c>   4</c><c>Ti</c><c>     47.88000000</c><c>      4.00000000</c><c> PAW_PBE Ti 08Apr2002                   </c></rc>
   </set>
  </array>
 </atominfo>
 <structure name="initialpos" >
  <crystal>
   <varray name="basis" >
    <v>       3.90526800       0.00000000       0.00000000 </v>
    <v>       0.00000000       3.90526800       0.00000000 </v>
    <v>       0.00000000       0.00000000      25.66843800 </v>
   </varray>
   <i name="volume">    391.47238071 </i>
   <varray name="rec_basis" >
    <v>       0.25606437       0.00000000       0.00000000 </v>
    <v>       0.00000000       0.25606437       0.00000000 </v>
    <v>       0.00000000       0.00000000       0.03895835 </v>
   </varray>
  </crystal>
  <varray name="positions" >
   <v>       0.50000000       0.50000000       0.23375010 </v>
   <v>       0.50000000       0.00000000       0.30982150 </v>
   <v>       0.00000000       0.50000000       0.30982150 </v>
   <v>       0.50000000       0.50000000       0.38589290 </v>
   <v>       0.50000000       0.00000000       0.46196430 </v>
   <v>       0.00000000       0.50000000       0.46196430 </v>
   <v>       0.50000000       0.50000000       0.53803570 </v>
   <v>       0.50000000       0.00000000       0.61410710 </v>
   <v>       0.00000000       0.50000000       0.61410710 </v>
   <v>       0.50000000       0.50000000       0.69017850 </v>
   <v>       0.50000000       0.00000000       0.76624990 </v>
   <v>       0.00000000       0.50000000       0.76624990 </v>
   <v>       0.00000000       0.00000000       0.23375010 </v>
   <v>       0.00000000       0.00000000       0.38589290 </v>
   <v>       0.00000000       0.00000000       0.53803570 </v>
   <v>       0.00000000       0.00000000       0.69017850 </v>
   <v>       0.50000000       0.50000000       0.30982150 </v>
   <v>       0.50000000       0.50000000       0.46196430 </v>
   <v>       0.50000000       0.50000000       0.61410710 </v>
   <v>       0.50000000       0.50000000       0.76624990 </v>
  </varray>
 </structure>
 <calculation>
  <scstep>
   <time name="dav">    9.51    9.51</time>
   <time name="total">    9.74    9.79</time>
   <energy>
    <i name="alphaZ">    451.31605171 </i>
    <i name="ewald">  24913.70541863 </i>
    <i name="hartreedc"> -33364.93616085 </i>
    <i name="XCdc">    326.68050673 </i>
    <i name="pawpsdc">   5334.45189010 </i>
    <i name="pawaedc">  -5139.13784255 </i>
    <i name="eentropy">      0.00000000 </i>
    <i name="bandstr">    420.73588821 </i>
    <i name="atom">   8937.43125330 </i>
    <i name="e_fr_energy">   1880.24700528 </i>
    <i name="e_wo_entrp">   1880.24700528 </i>
    <i name="e_0_energy">   1880.24700528 </i>
   </energy>
  </scstep>
  <scstep>
   <time name="dav">   10.68   10.68</time>
   <time name="total">   10.68   10.68</time>
   <energy>
    <i name="e_fr_energy">    254.26621255 </i>
    <i name="e_wo_entrp">    254.26621255 </i>
    <i name="e_0_energy">    254.26621255 </i>
   </energy>
  </scstep>
  <scstep>
   <time name="dav">   11.85   11.85</time>
   <time name="total">   11.85   11.85</time>
   <energy>
    <i name="e_fr_energy">   -162.91493700 </i>
    <i name="e_wo_entrp">   -162.91493700 </i>
    <i name="e_0_energy">   -162.91493700 </i>
   </energy>
  </scstep>
  <scstep>
   <time name="dav">   11.95   11.94</time>
   <time name="total">   11.95   11.95</time>
   <energy>
    <i name="e_fr_energy">   -199.88969952 </i>
    <i name="e_wo_entrp">   -199.88969952 </i>
    <i name="e_0_energy">   -199.88969952 </i>
   </energy>
  </scstep>
  <scstep>
   <time name="dav">   13.87   13.87</time>
   <time name="total">   14.25   14.25</time>
   <energy>
    <i name="e_fr_energy">   -201.75760499 </i>
    <i name="e_wo_entrp">   -201.75760499 </i>
    <i name="e_0_energy">   -201.75760499 </i>
   </energy>
  </scstep>
  <scstep>
   <time name="diag">    1.19    1.19</time>
   <time name="diis">    7.82    7.82</time>
   <time name="orth">    0.20    0.20</time>
   <time name="total">    9.82    9.82</time>
   <energy>
    <i name="e_fr_energy">   -161.36008031 </i>
    <i name="e_wo_entrp">   -161.36008031 </i>
    <i name="e_0_energy">   -161.36008031 </i>
   </energy>
  </scstep>
  <scstep>
   <time name="diag">    1.19    1.19</time>
   <time name="diis">    8.40    8.40</time>
   <time name="orth">    0.20    0.20</time>
   <time name="total">   10.38   10.38</time>
   <energy>
    <i name="e_fr_energy">   -157.75857034 </i>
    <i name="e_wo_entrp">   -157.75857034 </i>
    <i name="e_0_energy">   -157.75857034 </i>
   </energy>
  </scstep>
  <scstep>
   <time name="diag">    1.19    1.19</time>
   <time name="diis">    9.30    9.29</time>
   <time name="orth">    0.20    0.20</time>
   <time name="total">   11.28   11.28</time>
   <energy>
    <i name="e_fr_energy">   -157.03441835 </i>
    <i name="e_wo_entrp">   -157.03441835 </i>
    <i name="e_0_energy">   -157.03441835 </i>
   </energy>
  </scstep>
  <scstep>
   <time name="diag">    1.19    1.19</time>
   <time name="diis">    9.63    9.63</time>
   <time name="orth">    0.20    0.20</time>
   <time name="total">   11.61   11.61</time>
   <energy>
    <i name="e_fr_energy">   -156.82213685 </i>
    <i name="e_wo_entrp">   -156.82213685 </i>
    <i name="e_0_energy">   -156.82213685 </i>
   </energy>
  </scstep>
  <scstep>
   <time name="diag">    1.19    1.19</time>
   <time name="diis">   11.11   11.11</time>
   <time name="orth">    0.20    0.20</time>
   <time name="total">   13.08   13.08</time>
   <energy>
    <i name="e_fr_energy">   -156.78174859 </i>
    <i name="e_wo_entrp">   -156.78174859 </i>
    <i name="e_0_energy">   -156.78174859 </i>
   </energy>
  </scstep>
  <scstep>
   <time name="diag">    1.10    1.10</time>
   <time name="diis">   10.62   10.62</time>
   <time name="orth">    0.19    0.19</time>
   <time name="total">   12.47   12.47</time>
   <energy>
    <i name="e_fr_energy">   -156.75954655 </i>
    <i name="e_wo_entrp">   -156.75954655 </i>
    <i name="e_0_energy">   -156.75954655 </i>
   </energy>
  </scstep>
  <scstep>
   <time name="diag">    1.18    1.18</time>
   <time name="diis">   11.22   11.21</time>
   <time name="orth">    0.20    0.20</time>
   <time name="total">   13.20   13.20</time>
   <energy>
    <i name="e_fr_energy">   -156.74659986 </i>
    <i name="e_wo_entrp">   -156.74659986 </i>
    <i name="e_0_energy">   -156.74659986 </i>
   </energy>
  </scstep>
  <scstep>
   <time name="diag">    1.19    1.18</time>
   <time name="diis">   11.85   11.85</time>
   <time name="orth">    0.20    0.20</time>
   <time name="total">   13.83   13.83</time>
   <energy>
    <i name="e_fr_energy">   -156.74173614 </i>
    <i name="e_wo_entrp">   -156.74173614 </i>
    <i name="e_0_energy">   -156.74173614 </i>
   </energy>
  </scstep>
  <scstep>
   <time name="diag">    1.19    1.19</time>
   <time name="diis">   10.21   10.20</time>
   <time name="orth">    0.20    0.20</time>
   <time name="total">   12.19   12.19</time>
   <energy>
    <i name="e_fr_energy">   -156.73729411 </i>
    <i name="e_wo_entrp">   -156.73729411 </i>
    <i name="e_0_energy">   -156.73729411 </i>
   </energy>
  </scstep>
  <scstep>
   <time name="diag">    1.07    1.07</time>
   <time name="diis">   11.72   11.72</time>
   <time name="orth">    0.20    0.20</time>
   <time name="total">   13.57   13.57</time>
   <energy>
    <i name="e_fr_energy">   -156.73676573 </i>
    <i name="e_wo_entrp">   -156.73676573 </i>
    <i name="e_0_energy">   -156.73676573 </i>
   </energy>
  </scstep>
  <scstep>
   <time name="diag">    1.20    1.20</time>
   <time name="diis">   10.46   10.46</time>
   <time name="orth">    0.20    0.20</time>
   <time name="total">   12.46   12.46</time>
   <energy>
    <i name="e_fr_energy">   -156.73795447 </i>
    <i name="e_wo_entrp">   -156.73795447 </i>
    <i name="e_0_energy">   -156.73795447 </i>
   </energy>
  </scstep>
  <scstep>
   <time name="diag">    1.16    1.16</time>
   <time name="diis">   10.01   10.01</time>
   <time name="orth">    0.20    0.20</time>
   <time name="total">   11.96   11.96</time>
   <energy>
    <i name="e_fr_energy">   -156.73839913 </i>
    <i name="e_wo_entrp">   -156.73839913 </i>
    <i name="e_0_energy">   -156.73839913 </i>
   </energy>
  </scstep>
  <scstep>
   <time name="diag">    1.18    1.18</time>
   <time name="diis">    9.96    9.96</time>
   <time name="orth">    0.19    0.20</time>
   <time name="total">   11.91   11.91</time>
   <energy>
    <i name="e_fr_energy">   -156.73919014 </i>
    <i name="e_wo_entrp">   -156.73919014 </i>
    <i name="e_0_energy">   -156.73919014 </i>
   </energy>
  </scstep>
  <scstep>
   <time name="diag">    1.18    1.18</time>
   <time name="diis">    8.95    8.95</time>
   <time name="orth">    0.19    0.19</time>
   <time name="total">   10.90   10.90</time>
   <energy>
    <i name="e_fr_energy">   -156.74072523 </i>
    <i name="e_wo_entrp">   -156.74072523 </i>
    <i name="e_0_energy">   -156.74072523 </i>
   </energy>
  </scstep>
  <scstep>
   <time name="diag">    1.12    1.12</time>
   <time name="diis">    7.37    7.37</time>
   <time name="orth">    0.17    0.17</time>
   <time name="total">    9.19    9.19</time>
   <energy>
    <i name="e_fr_energy">   -156.74121578 </i>
    <i name="e_wo_entrp">   -156.74121578 </i>
    <i name="e_0_energy">   -156.74121578 </i>
   </energy>
  </scstep>
  <scstep>
   <time name="diag">    0.86    0.87</time>
   <time name="diis">    6.37    6.37</time>
   <time name="orth">    0.17    0.18</time>
   <time name="total">    7.90    7.91</time>
   <energy>
    <i name="e_fr_energy">   -156.74150233 </i>
    <i name="e_wo_entrp">   -156.74150233 </i>
    <i name="e_0_energy">   -156.74150233 </i>
   </energy>
  </scstep>
  <scstep>
   <time name="diag">    0.86    0.86</time>
   <time name="diis">    5.26    5.26</time>
   <time name="orth">    0.17    0.17</time>
   <time name="total">    6.78    6.79</time>
   <energy>
    <i name="e_fr_energy">   -156.74156966 </i>
    <i name="e_wo_entrp">   -156.74156966 </i>
    <i name="e_0_energy">   -156.74156966 </i>
   </energy>
  </scstep>
  <scstep>
   <time name="diag">    0.84    0.84</time>
   <time name="diis">    4.81    4.81</time>
   <time name="orth">    0.17    0.17</time>
   <time name="total">    6.31    6.31</time>
   <energy>
    <i name="e_fr_energy">   -156.74159146 </i>
    <i name="e_wo_entrp">   -156.74159146 </i>
    <i name="e_0_energy">   -156.74159146 </i>
   </energy>
  </scstep>
  <scstep>
   <time name="diag">    0.84    0.84</time>
   <time name="diis">    4.45    4.45</time>
   <time name="orth">    0.17    0.17</time>
   <time name="total">    5.64    5.64</time>
   <energy>
    <i name="alphaZ">    451.31605171 </i>
    <i name="ewald">  24913.70541863 </i>
    <i name="hartreedc"> -33784.27869370 </i>
    <i name="XCdc">    342.95793399 </i>
    <i name="pawpsdc">   6201.90817042 </i>
    <i name="pawaedc">  -6032.06756841 </i>
    <i name="eentropy">      0.00000000 </i>
    <i name="bandstr">  -1187.71416574 </i>
    <i name="atom">   8937.43125330 </i>
    <i name="e_fr_energy">   -156.74159980 </i>
    <i name="e_wo_entrp">   -156.74159980 </i>
    <i name="e_0_energy">   -156.74159980 </i>
   </energy>
  </scstep>
  <structure>
   <crystal>
    <varray name="basis" >
     <v>       3.90526800       0.00000000       0.00000000 </v>
     <v>       0.00000000       3.90526800       0.00000000 </v>
     <v>       0.00000000       0.00000000      25.66843800 </v>
    </varray>
    <i name="volume">    391.47238071 </i>
    <varray name="rec_basis" >
     <v>       0.25606437       0.00000000       0.00000000 </v>
     <v>       0.00000000       0.25606437       0.00000000 </v>
     <v>       0.00000000       0.00000000       0.03895835 </v>
    </varray>
   </crystal>
   <varray name="positions" >
    <v>       0.50000000       0.50000000       0.23375010 </v>
    <v>       0.50000000       0.00000000       0.30982150 </v>
    <v>       0.00000000       0.50000000       0.30982150 </v>
    <v>       0.50000000       0.50000000       0.38589290 </v>
    <v>       0.50000000       0.00000000       0.46196430 </v>
    <v>       0.00000000       0.50000000       0.46196430 </v>
    <v>       0.50000000       0.50000000       0.53803570 </v>
    <v>       0.50000000       0.00000000       0.61410710 </v>
    <v>       0.00000000       0.50000000       0.61410710 </v>
    <v>       0.50000000       0.50000000       0.69017850 </v>
    <v>       0.50000000       0.00000000       0.76624990 </v>
    <v>       0.00000000       0.50000000       0.76624990 </v>
    <v>       0.00000000       0.00000000       0.23375010 </v>
    <v>       0.00000000       0.00000000       0.38589290 </v>
    <v>       0.00000000       0.00000000       0.53803570 </v>
    <v>       0.00000000       0.00000000       0.69017850 </v>
    <v>       0.50000000       0.50000000       0.30982150 </v>
    <v>       0.50000000       0.50000000       0.46196430 </v>
    <v>       0.50000000       0.50000000       0.61410710 </v>
    <v>       0.50000000       0.50000000       0.76624990 </v>
   </varray>
  </structure>
  <varray name="forces" >
   <v>      -0.00000000       0.00000000      -1.07080252 </v>
   <v>      -0.00000000       0.00000000      -0.00158479 </v>
   <v>      -0.00000000      -0.00000000      -0.00158479 </v>
   <v>       0.00000000       0.00000000       0.37908739 </v>
   <v>      -0.00000000       0.00000000       0.06690494 </v>
   <v>      -0.00000000       0.00000000       0.06690494 </v>
   <v>      -0.00000000       0.00000000       0.30670804 </v>
   <v>       0.00000000       0.00000000       0.02125890 </v>
   <v>      -0.00000000       0.00000000       0.02125890 </v>
   <v>      -0.00000000       0.00000000       1.06242338 </v>
   <v>      -0.00000000      -0.00000000       0.45395936 </v>
   <v>      -0.00000000       0.00000000       0.45395936 </v>
   <v>      -0.00000000      -0.00000000       1.19107868 </v>
   <v>      -0.00000000      -0.00000000      -0.00643704 </v>
   <v>      -0.00000000      -0.00000000      -0.05838197 </v>
   <v>      -0.00000000       0.00000000       0.66215491 </v>
   <v>      -0.00000000      -0.00000000      -1.02569386 </v>
   <v>      -0.00000000      -0.00000000      -0.31058804 </v>
   <v>      -0.00000000       0.00000000      -0.36842617 </v>
   <v>      -0.00000000       0.00000000      -1.84219961 </v>
  </varray>
  <varray name="stress" >
   <v>      11.67954068       0.00000000       0.00000000 </v>
   <v>       0.00000000      11.67954068      -0.00000000 </v>
   <v>       0.00000000       0.00000000      16.43059495 </v>
  </varray>
  <energy>
   <i name="e_fr_energy">   -156.74159980 </i>
   <i name="e_wo_entrp">   -156.74159980 </i>
   <i name="e_0_energy">      0.00000000 </i>
  </energy>
  <time name="totalsc">  274.90  276.40</time>
  <eigenvalues>
   <array>
    <dimension dim="1">band</dimension>
    <dimension dim="2">kpoint</dimension>
    <dimension dim="3">spin</dimension>
    <field>eigene</field>
    <field>occ</field>
    <set>
     <set comment="spin 1">
      <set comment="kpoint 1">
       <r>  -33.7827    1.0000 </r>
       <r>  -32.7972    1.0000 </r>
       <r>  -32.7066    1.0000 </r>
       <r>  -32.6616    1.0000 </r>
       <r>  -17.7133    1.0000 </r>
       <r>  -17.6271    1.0000 </r>
       <r>  -17.5218    1.0000 </r>
       <r>  -17.0516    1.0000 </r>
       <r>  -16.5688    1.0000 </r>
       <r>  -16.5213    1.0000 </r>
       <r>  -16.4958    1.0000 </r>
       <r>  -16.4673    1.0000 </r>
       <r>  -16.4194    1.0000 </r>
       <r>  -16.3758    1.0000 </r>
       <r>  -15.9530    1.0000 </r>
       <r>  -15.7484    1.0000 </r>
       <r>  -15.6989    1.0000 </r>
       <r>  -15.6989    1.0000 </r>
       <r>  -15.6020    1.0000 </r>
       <r>  -14.8519    1.0000 </r>
       <r>  -14.8519    1.0000 </r>
       <r>  -14.7550    1.0000 </r>
       <r>  -14.7550    1.0000 </r>
       <r>  -14.7323    1.0000 </r>
       <r>  -14.7323    1.0000 </r>
       <r>  -14.6987    1.0000 </r>
       <r>  -14.4057    1.0000 </r>
       <r>  -14.2675    1.0000 </r>
       <r>   -4.2660    1.0000 </r>
       <r>   -3.7200    1.0000 </r>
       <r>   -3.1819    1.0000 </r>
       <r>   -3.0103    1.0000 </r>
       <r>   -3.0103    1.0000 </r>
       <r>   -2.9101    1.0000 </r>
       <r>   -2.9101    1.0000 </r>
       <r>   -2.8422    1.0000 </r>
       <r>   -2.8422    1.0000 </r>
       <r>   -2.5486    1.0000 </r>
       <r>   -2.5486    1.0000 </r>
       <r>   -2.5243    1.0000 </r>
       <r>   -2.2695    1.0000 </r>
       <r>   -2.1669    1.0000 </r>
       <r>   -2.1669    1.0000 </r>
       <r>   -1.9519    1.0000 </r>
       <r>   -1.8426    1.0000 </r>
       <r>   -1.7816    1.0000 </r>
       <r>   -1.7816    1.0000 </r>
       <r>   -1.7022    1.0000 </r>
       <r>   -1.4508    1.0000 </r>
       <r>   -1.4508    1.0000 </r>
       <r>   -1.3723    1.0000 </r>
       <r>   -1.3520    1.0000 </r>
       <r>   -1.0732    1.0000 </r>
       <r>   -1.0732    1.0000 </r>
       <r>   -0.8584    1.0000 </r>
       <r>   -0.7492    1.0000 </r>
       <r>   -0.7492    1.0000 </r>
       <r>   -0.6471    1.0000 </r>
       <r>   -0.5991    1.0000 </r>
       <r>   -0.5991    1.0000 </r>
       <r>   -0.3692    1.0000 </r>
       <r>   -0.3692    1.0000 </r>
       <r>   -0.0637    1.0000 </r>
       <r>   -0.0637    1.0000 </r>
       <r>    1.6077    0.0000 </r>
       <r>    1.7151    0.0000 </r>
       <r>    1.7151    0.0000 </r>
       <r>    1.7498    0.0000 </r>
       <r>    1.8840    0.0000 </r>
       <r>    1.9922    0.0000 </r>
       <r>    2.2889    0.0000 </r>
       <r>    2.2909    0.0000 </r>
       <r>    2.3277    0.0000 </r>
       <r>    2.9796    0.0000 </r>
       <r>    4.9856    0.0000 </r>
       <r>    5.5569    0.0000 </r>
      </set>
      <set comment="kpoint 2">
       <r>  -33.7793    1.0000 </r>
       <r>  -32.7931    1.0000 </r>
       <r>  -32.7026    1.0000 </r>
       <r>  -32.6575    1.0000 </r>
       <r>  -17.6366    1.0000 </r>
       <r>  -17.5639    1.0000 </r>
       <r>  -17.5019    1.0000 </r>
       <r>  -17.0481    1.0000 </r>
       <r>  -16.5834    1.0000 </r>
       <r>  -16.5512    1.0000 </r>
       <r>  -16.5052    1.0000 </r>
       <r>  -16.4626    1.0000 </r>
       <r>  -16.4501    1.0000 </r>
       <r>  -16.4076    1.0000 </r>
       <r>  -16.0457    1.0000 </r>
       <r>  -15.9456    1.0000 </r>
       <r>  -15.7105    1.0000 </r>
       <r>  -15.6910    1.0000 </r>
       <r>  -15.2532    1.0000 </r>
       <r>  -14.8422    1.0000 </r>
       <r>  -14.7499    1.0000 </r>
       <r>  -14.7451    1.0000 </r>
       <r>  -14.7221    1.0000 </r>
       <r>  -14.7206    1.0000 </r>
       <r>  -14.6433    1.0000 </r>
       <r>  -14.6249    1.0000 </r>
       <r>  -14.4253    1.0000 </r>
       <r>  -14.3031    1.0000 </r>
       <r>   -4.2786    1.0000 </r>
       <r>   -3.7715    1.0000 </r>
       <r>   -3.3605    1.0000 </r>
       <r>   -3.3077    1.0000 </r>
       <r>   -3.2168    1.0000 </r>
       <r>   -3.1089    1.0000 </r>
       <r>   -3.0194    1.0000 </r>
       <r>   -2.9995    1.0000 </r>
       <r>   -2.9196    1.0000 </r>
       <r>   -2.8467    1.0000 </r>
       <r>   -2.8165    1.0000 </r>
       <r>   -2.6168    1.0000 </r>
       <r>   -2.5013    1.0000 </r>
       <r>   -2.2828    1.0000 </r>
       <r>   -2.2536    1.0000 </r>
       <r>   -2.0491    1.0000 </r>
       <r>   -2.0186    1.0000 </r>
       <r>   -1.8753    1.0000 </r>
       <r>   -1.7319    1.0000 </r>
       <r>   -1.6075    1.0000 </r>
       <r>   -1.5024    1.0000 </r>
       <r>   -1.3867    1.0000 </r>
       <r>   -1.3334    1.0000 </r>
       <r>   -1.2927    1.0000 </r>
       <r>   -1.2340    1.0000 </r>
       <r>   -1.1592    1.0000 </r>
       <r>   -1.0930    1.0000 </r>
       <r>   -1.0032    1.0000 </r>
       <r>   -0.9589    1.0000 </r>
       <r>   -0.9383    1.0000 </r>
       <r>   -0.8595    1.0000 </r>
       <r>   -0.8064    1.0000 </r>
       <r>   -0.5121    1.0000 </r>
       <r>   -0.4974    1.0000 </r>
       <r>   -0.4552    1.0000 </r>
       <r>   -0.3742    1.0000 </r>
       <r>    1.7325    0.0000 </r>
       <r>    2.0351    0.0000 </r>
       <r>    2.0856    0.0000 </r>
       <r>    2.1717    0.0000 </r>
       <r>    2.2787    0.0000 </r>
       <r>    2.3253    0.0000 </r>
       <r>    2.4289    0.0000 </r>
       <r>    2.4671    0.0000 </r>
       <r>    2.8615    0.0000 </r>
       <r>    3.1023    0.0000 </r>
       <r>    5.8930    0.0000 </r>
       <r>    5.9478    0.0000 </r>
      </set>
      <set comment="kpoint 3">
       <r>  -33.7715    1.0000 </r>
       <r>  -32.7838    1.0000 </r>
       <r>  -32.6935    1.0000 </r>
       <r>  -32.6483    1.0000 </r>
       <r>  -17.6029    1.0000 </r>
       <r>  -17.4576    1.0000 </r>
       <r>  -17.3693    1.0000 </r>
       <r>  -17.0416    1.0000 </r>
       <r>  -16.6770    1.0000 </r>
       <r>  -16.5802    1.0000 </r>
       <r>  -16.5652    1.0000 </r>
       <r>  -16.5180    1.0000 </r>
       <r>  -16.4249    1.0000 </r>
       <r>  -16.3471    1.0000 </r>
       <r>  -16.1961    1.0000 </r>
       <r>  -15.9156    1.0000 </r>
       <r>  -15.7034    1.0000 </r>
       <r>  -15.6732    1.0000 </r>
       <r>  -14.9206    1.0000 </r>
       <r>  -14.8203    1.0000 </r>
       <r>  -14.7227    1.0000 </r>
       <r>  -14.7124    1.0000 </r>
       <r>  -14.6990    1.0000 </r>
       <r>  -14.5758    1.0000 </r>
       <r>  -14.4696    1.0000 </r>
       <r>  -14.4485    1.0000 </r>
       <r>  -14.4274    1.0000 </r>
       <r>  -14.3626    1.0000 </r>
       <r>   -4.3183    1.0000 </r>
       <r>   -4.1584    1.0000 </r>
       <r>   -3.8991    1.0000 </r>
       <r>   -3.8668    1.0000 </r>
       <r>   -3.7133    1.0000 </r>
       <r>   -3.6044    1.0000 </r>
       <r>   -3.5333    1.0000 </r>
       <r>   -3.2628    1.0000 </r>
       <r>   -3.1481    1.0000 </r>
       <r>   -3.0337    1.0000 </r>
       <r>   -2.9416    1.0000 </r>
       <r>   -2.8879    1.0000 </r>
       <r>   -2.8533    1.0000 </r>
       <r>   -2.7737    1.0000 </r>
       <r>   -2.4770    1.0000 </r>
       <r>   -2.2936    1.0000 </r>
       <r>   -2.1881    1.0000 </r>
       <r>   -2.1666    1.0000 </r>
       <r>   -1.8713    1.0000 </r>
       <r>   -1.8336    1.0000 </r>
       <r>   -1.8196    1.0000 </r>
       <r>   -1.7757    1.0000 </r>
       <r>   -1.7410    1.0000 </r>
       <r>   -1.6045    1.0000 </r>
       <r>   -1.4860    1.0000 </r>
       <r>   -1.4006    1.0000 </r>
       <r>   -1.3693    1.0000 </r>
       <r>   -1.2726    1.0000 </r>
       <r>   -1.1056    1.0000 </r>
       <r>   -0.9978    1.0000 </r>
       <r>   -0.8689    1.0000 </r>
       <r>   -0.8310    1.0000 </r>
       <r>   -0.7080    1.0000 </r>
       <r>   -0.6635    1.0000 </r>
       <r>   -0.6356    1.0000 </r>
       <r>   -0.4298    1.0000 </r>
       <r>    1.7797    0.0000 </r>
       <r>    2.3309    0.0000 </r>
       <r>    2.8224    0.0000 </r>
       <r>    2.8277    0.0000 </r>
       <r>    2.8916    0.0000 </r>
       <r>    2.9797    0.0000 </r>
       <r>    3.0293    0.0000 </r>
       <r>    3.0674    0.0000 </r>
       <r>    3.1922    0.0000 </r>
       <r>    3.3617    0.0000 </r>
       <r>    3.4264    0.0000 </r>
       <r>    6.8859    0.0000 </r>
      </set>
      <set comment="kpoint 4">
       <r>  -33.7653    1.0000 </r>
       <r>  -32.7764    1.0000 </r>
       <r>  -32.6862    1.0000 </r>
       <r>  -32.6408    1.0000 </r>
       <r>  -17.6747    1.0000 </r>
       <r>  -17.4635    1.0000 </r>
       <r>  -17.2168    1.0000 </r>
       <r>  -16.9346    1.0000 </r>
       <r>  -16.7163    1.0000 </r>
       <r>  -16.6810    1.0000 </r>
       <r>  -16.5791    1.0000 </r>
       <r>  -16.4872    1.0000 </r>
       <r>  -16.4357    1.0000 </r>
       <r>  -16.2417    1.0000 </r>
       <r>  -16.2373    1.0000 </r>
       <r>  -15.8833    1.0000 </r>
       <r>  -15.6708    1.0000 </r>
       <r>  -15.6588    1.0000 </r>
       <r>  -14.8026    1.0000 </r>
       <r>  -14.7372    1.0000 </r>
       <r>  -14.7047    1.0000 </r>
       <r>  -14.7046    1.0000 </r>
       <r>  -14.6803    1.0000 </r>
       <r>  -14.5031    1.0000 </r>
       <r>  -14.4436    1.0000 </r>
       <r>  -14.3918    1.0000 </r>
       <r>  -14.3246    1.0000 </r>
       <r>  -14.2811    1.0000 </r>
       <r>   -4.5402    1.0000 </r>
       <r>   -4.4971    1.0000 </r>
       <r>   -4.3653    1.0000 </r>
       <r>   -4.2602    1.0000 </r>
       <r>   -4.1829    1.0000 </r>
       <r>   -4.0936    1.0000 </r>
       <r>   -3.9420    1.0000 </r>
       <r>   -3.6500    1.0000 </r>
       <r>   -3.4335    1.0000 </r>
       <r>   -3.1107    1.0000 </r>
       <r>   -3.0298    1.0000 </r>
       <r>   -2.9731    1.0000 </r>
       <r>   -2.8799    1.0000 </r>
       <r>   -2.8404    1.0000 </r>
       <r>   -2.6868    1.0000 </r>
       <r>   -2.6474    1.0000 </r>
       <r>   -2.4625    1.0000 </r>
       <r>   -2.3263    1.0000 </r>
       <r>   -2.1658    1.0000 </r>
       <r>   -2.1553    1.0000 </r>
       <r>   -1.9732    1.0000 </r>
       <r>   -1.8883    1.0000 </r>
       <r>   -1.7321    1.0000 </r>
       <r>   -1.6871    1.0000 </r>
       <r>   -1.6457    1.0000 </r>
       <r>   -1.6273    1.0000 </r>
       <r>   -1.3668    1.0000 </r>
       <r>   -1.3118    1.0000 </r>
       <r>   -1.2749    1.0000 </r>
       <r>   -1.1333    1.0000 </r>
       <r>   -1.0407    1.0000 </r>
       <r>   -0.9654    1.0000 </r>
       <r>   -0.7717    1.0000 </r>
       <r>   -0.7351    1.0000 </r>
       <r>   -0.5196    1.0000 </r>
       <r>   -0.2457    1.0000 </r>
       <r>    1.8190    0.0000 </r>
       <r>    2.3645    0.0000 </r>
       <r>    2.9348    0.0000 </r>
       <r>    3.3722    0.0000 </r>
       <r>    3.4135    0.0000 </r>
       <r>    3.4251    0.0000 </r>
       <r>    3.5007    0.0000 </r>
       <r>    3.5541    0.0000 </r>
       <r>    3.5914    0.0000 </r>
       <r>    3.6180    0.0000 </r>
       <r>    3.7531    0.0000 </r>
       <r>    7.5976    0.0000 </r>
      </set>
      <set comment="kpoint 5">
       <r>  -33.7759    1.0000 </r>
       <r>  -32.7891    1.0000 </r>
       <r>  -32.6986    1.0000 </r>
       <r>  -32.6535    1.0000 </r>
       <r>  -17.5738    1.0000 </r>
       <r>  -17.4890    1.0000 </r>
       <r>  -17.4610    1.0000 </r>
       <r>  -17.0264    1.0000 </r>
       <r>  -16.5896    1.0000 </r>
       <r>  -16.5669    1.0000 </r>
       <r>  -16.4978    1.0000 </r>
       <r>  -16.4793    1.0000 </r>
       <r>  -16.4385    1.0000 </r>
       <r>  -16.4176    1.0000 </r>
       <r>  -16.1647    1.0000 </r>
       <r>  -15.9438    1.0000 </r>
       <r>  -15.7137    1.0000 </r>
       <r>  -15.6814    1.0000 </r>
       <r>  -15.1327    1.0000 </r>
       <r>  -14.8450    1.0000 </r>
       <r>  -14.7385    1.0000 </r>
       <r>  -14.7356    1.0000 </r>
       <r>  -14.7077    1.0000 </r>
       <r>  -14.6954    1.0000 </r>
       <r>  -14.5741    1.0000 </r>
       <r>  -14.5555    1.0000 </r>
       <r>  -14.4407    1.0000 </r>
       <r>  -14.3430    1.0000 </r>
       <r>   -4.2889    1.0000 </r>
       <r>   -3.8367    1.0000 </r>
       <r>   -3.5285    1.0000 </r>
       <r>   -3.4316    1.0000 </r>
       <r>   -3.3556    1.0000 </r>
       <r>   -3.2003    1.0000 </r>
       <r>   -3.1176    1.0000 </r>
       <r>   -3.0759    1.0000 </r>
       <r>   -3.0568    1.0000 </r>
       <r>   -2.9968    1.0000 </r>
       <r>   -2.8901    1.0000 </r>
       <r>   -2.8889    1.0000 </r>
       <r>   -2.6798    1.0000 </r>
       <r>   -2.5518    1.0000 </r>
       <r>   -2.3858    1.0000 </r>
       <r>   -2.2878    1.0000 </r>
       <r>   -2.0769    1.0000 </r>
       <r>   -2.0692    1.0000 </r>
       <r>   -1.8499    1.0000 </r>
       <r>   -1.7754    1.0000 </r>
       <r>   -1.6641    1.0000 </r>
       <r>   -1.5974    1.0000 </r>
       <r>   -1.4343    1.0000 </r>
       <r>   -1.2859    1.0000 </r>
       <r>   -1.1829    1.0000 </r>
       <r>   -1.1642    1.0000 </r>
       <r>   -1.0978    1.0000 </r>
       <r>   -1.0773    1.0000 </r>
       <r>   -1.0659    1.0000 </r>
       <r>   -1.0105    1.0000 </r>
       <r>   -1.0031    1.0000 </r>
       <r>   -0.8946    1.0000 </r>
       <r>   -0.8267    1.0000 </r>
       <r>   -0.6754    1.0000 </r>
       <r>   -0.5444    1.0000 </r>
       <r>   -0.2753    1.0000 </r>
       <r>    2.0171    0.0000 </r>
       <r>    2.1832    0.0000 </r>
       <r>    2.2975    0.0000 </r>
       <r>    2.4333    0.0000 </r>
       <r>    2.4512    0.0000 </r>
       <r>    2.5428    0.0000 </r>
       <r>    2.5708    0.0000 </r>
       <r>    2.6920    0.0000 </r>
       <r>    2.7685    0.0000 </r>
       <r>    3.2408    0.0000 </r>
       <r>    6.0576    0.0000 </r>
       <r>    6.1672    0.0000 </r>
      </set>
      <set comment="kpoint 6">
       <r>  -33.7683    1.0000 </r>
       <r>  -32.7800    1.0000 </r>
       <r>  -32.6897    1.0000 </r>
       <r>  -32.6445    1.0000 </r>
       <r>  -17.5334    1.0000 </r>
       <r>  -17.3822    1.0000 </r>
       <r>  -17.2820    1.0000 </r>
       <r>  -16.9834    1.0000 </r>
       <r>  -16.6365    1.0000 </r>
       <r>  -16.5839    1.0000 </r>
       <r>  -16.5433    1.0000 </r>
       <r>  -16.5115    1.0000 </r>
       <r>  -16.4402    1.0000 </r>
       <r>  -16.2932    1.0000 </r>
       <r>  -16.2326    1.0000 </r>
       <r>  -15.9229    1.0000 </r>
       <r>  -15.7531    1.0000 </r>
       <r>  -15.6418    1.0000 </r>
       <r>  -14.9449    1.0000 </r>
       <r>  -14.8427    1.0000 </r>
       <r>  -14.7683    1.0000 </r>
       <r>  -14.7056    1.0000 </r>
       <r>  -14.6655    1.0000 </r>
       <r>  -14.6068    1.0000 </r>
       <r>  -14.4910    1.0000 </r>
       <r>  -14.4483    1.0000 </r>
       <r>  -14.4292    1.0000 </r>
       <r>  -14.4038    1.0000 </r>
       <r>   -4.3210    1.0000 </r>
       <r>   -4.1309    1.0000 </r>
       <r>   -3.9342    1.0000 </r>
       <r>   -3.8956    1.0000 </r>
       <r>   -3.7217    1.0000 </r>
       <r>   -3.5932    1.0000 </r>
       <r>   -3.5155    1.0000 </r>
       <r>   -3.2865    1.0000 </r>
       <r>   -3.2459    1.0000 </r>
       <r>   -3.2004    1.0000 </r>
       <r>   -3.1671    1.0000 </r>
       <r>   -3.1086    1.0000 </r>
       <r>   -3.0106    1.0000 </r>
       <r>   -2.8845    1.0000 </r>
       <r>   -2.8021    1.0000 </r>
       <r>   -2.7125    1.0000 </r>
       <r>   -2.5107    1.0000 </r>
       <r>   -2.4005    1.0000 </r>
       <r>   -2.2708    1.0000 </r>
       <r>   -2.2173    1.0000 </r>
       <r>   -2.0749    1.0000 </r>
       <r>   -1.8380    1.0000 </r>
       <r>   -1.6689    1.0000 </r>
       <r>   -1.5436    1.0000 </r>
       <r>   -1.3810    1.0000 </r>
       <r>   -1.2702    1.0000 </r>
       <r>   -1.2359    1.0000 </r>
       <r>   -1.1455    1.0000 </r>
       <r>   -1.1108    1.0000 </r>
       <r>   -1.1000    1.0000 </r>
       <r>   -0.9986    1.0000 </r>
       <r>   -0.8278    1.0000 </r>
       <r>   -0.6924    1.0000 </r>
       <r>   -0.6450    1.0000 </r>
       <r>   -0.4514    1.0000 </r>
       <r>   -0.3591    1.0000 </r>
       <r>    2.1215    0.0000 </r>
       <r>    2.5513    0.0000 </r>
       <r>    2.8398    0.0000 </r>
       <r>    2.9281    0.0000 </r>
       <r>    3.0129    0.0000 </r>
       <r>    3.0532    0.0000 </r>
       <r>    3.0759    0.0000 </r>
       <r>    3.1626    0.0000 </r>
       <r>    3.2589    0.0000 </r>
       <r>    3.3436    0.0000 </r>
       <r>    3.4799    0.0000 </r>
       <r>    7.0173    0.0000 </r>
      </set>
      <set comment="kpoint 7">
       <r>  -33.7622    1.0000 </r>
       <r>  -32.7727    1.0000 </r>
       <r>  -32.6826    1.0000 </r>
       <r>  -32.6372    1.0000 </r>
       <r>  -17.5773    1.0000 </r>
       <r>  -17.3674    1.0000 </r>
       <r>  -17.1276    1.0000 </r>
       <r>  -16.8577    1.0000 </r>
       <r>  -16.6682    1.0000 </r>
       <r>  -16.6448    1.0000 </r>
       <r>  -16.5478    1.0000 </r>
       <r>  -16.4921    1.0000 </r>
       <r>  -16.4372    1.0000 </r>
       <r>  -16.1970    1.0000 </r>
       <r>  -16.1732    1.0000 </r>
       <r>  -15.9021    1.0000 </r>
       <r>  -15.8001    1.0000 </r>
       <r>  -15.5974    1.0000 </r>
       <r>  -14.8424    1.0000 </r>
       <r>  -14.8318    1.0000 </r>
       <r>  -14.8006    1.0000 </r>
       <r>  -14.6784    1.0000 </r>
       <r>  -14.6144    1.0000 </r>
       <r>  -14.5524    1.0000 </r>
       <r>  -14.5122    1.0000 </r>
       <r>  -14.4469    1.0000 </r>
       <r>  -14.3822    1.0000 </r>
       <r>  -14.3313    1.0000 </r>
       <r>   -4.4961    1.0000 </r>
       <r>   -4.4128    1.0000 </r>
       <r>   -4.3577    1.0000 </r>
       <r>   -4.2633    1.0000 </r>
       <r>   -4.1755    1.0000 </r>
       <r>   -4.0264    1.0000 </r>
       <r>   -3.9222    1.0000 </r>
       <r>   -3.6539    1.0000 </r>
       <r>   -3.5101    1.0000 </r>
       <r>   -3.3250    1.0000 </r>
       <r>   -3.2354    1.0000 </r>
       <r>   -3.1952    1.0000 </r>
       <r>   -3.1591    1.0000 </r>
       <r>   -3.1010    1.0000 </r>
       <r>   -3.0641    1.0000 </r>
       <r>   -2.9784    1.0000 </r>
       <r>   -2.6463    1.0000 </r>
       <r>   -2.6058    1.0000 </r>
       <r>   -2.4710    1.0000 </r>
       <r>   -2.3458    1.0000 </r>
       <r>   -2.2089    1.0000 </r>
       <r>   -1.9108    1.0000 </r>
       <r>   -1.7150    1.0000 </r>
       <r>   -1.7023    1.0000 </r>
       <r>   -1.4046    1.0000 </r>
       <r>   -1.3404    1.0000 </r>
       <r>   -1.2754    1.0000 </r>
       <r>   -1.2540    1.0000 </r>
       <r>   -1.2211    1.0000 </r>
       <r>   -1.1104    1.0000 </r>
       <r>   -1.0795    1.0000 </r>
       <r>   -0.9739    1.0000 </r>
       <r>   -0.7387    1.0000 </r>
       <r>   -0.5757    1.0000 </r>
       <r>   -0.4246    1.0000 </r>
       <r>   -0.2349    1.0000 </r>
       <r>    2.1604    0.0000 </r>
       <r>    2.6035    0.0000 </r>
       <r>    3.0762    0.0000 </r>
       <r>    3.4292    0.0000 </r>
       <r>    3.4436    0.0000 </r>
       <r>    3.5125    0.0000 </r>
       <r>    3.5623    0.0000 </r>
       <r>    3.6083    0.0000 </r>
       <r>    3.6677    0.0000 </r>
       <r>    3.7679    0.0000 </r>
       <r>    3.8335    0.0000 </r>
       <r>    7.7393    0.0000 </r>
      </set>
      <set comment="kpoint 8">
       <r>  -33.7610    1.0000 </r>
       <r>  -32.7715    1.0000 </r>
       <r>  -32.6813    1.0000 </r>
       <r>  -32.6359    1.0000 </r>
       <r>  -17.3941    1.0000 </r>
       <r>  -17.2206    1.0000 </r>
       <r>  -17.0737    1.0000 </r>
       <r>  -16.8449    1.0000 </r>
       <r>  -16.6589    1.0000 </r>
       <r>  -16.5770    1.0000 </r>
       <r>  -16.5291    1.0000 </r>
       <r>  -16.4404    1.0000 </r>
       <r>  -16.4311    1.0000 </r>
       <r>  -16.2543    1.0000 </r>
       <r>  -16.1575    1.0000 </r>
       <r>  -15.9169    1.0000 </r>
       <r>  -15.7595    1.0000 </r>
       <r>  -15.6597    1.0000 </r>
       <r>  -15.0127    1.0000 </r>
       <r>  -14.8933    1.0000 </r>
       <r>  -14.8013    1.0000 </r>
       <r>  -14.7259    1.0000 </r>
       <r>  -14.6793    1.0000 </r>
       <r>  -14.5949    1.0000 </r>
       <r>  -14.5905    1.0000 </r>
       <r>  -14.4889    1.0000 </r>
       <r>  -14.4441    1.0000 </r>
       <r>  -14.4359    1.0000 </r>
       <r>   -4.3331    1.0000 </r>
       <r>   -4.1794    1.0000 </r>
       <r>   -4.0488    1.0000 </r>
       <r>   -4.0340    1.0000 </r>
       <r>   -3.7632    1.0000 </r>
       <r>   -3.6879    1.0000 </r>
       <r>   -3.5846    1.0000 </r>
       <r>   -3.5621    1.0000 </r>
       <r>   -3.5370    1.0000 </r>
       <r>   -3.4772    1.0000 </r>
       <r>   -3.4701    1.0000 </r>
       <r>   -3.4426    1.0000 </r>
       <r>   -3.3107    1.0000 </r>
       <r>   -3.2674    1.0000 </r>
       <r>   -3.2068    1.0000 </r>
       <r>   -3.1507    1.0000 </r>
       <r>   -3.1278    1.0000 </r>
       <r>   -3.0950    1.0000 </r>
       <r>   -2.7899    1.0000 </r>
       <r>   -2.7626    1.0000 </r>
       <r>   -2.5797    1.0000 </r>
       <r>   -2.2695    1.0000 </r>
       <r>   -2.1006    1.0000 </r>
       <r>   -1.5935    1.0000 </r>
       <r>   -1.4719    1.0000 </r>
       <r>   -1.2354    1.0000 </r>
       <r>   -0.9918    1.0000 </r>
       <r>   -0.9499    1.0000 </r>
       <r>   -0.8365    1.0000 </r>
       <r>   -0.8191    1.0000 </r>
       <r>   -0.7160    1.0000 </r>
       <r>   -0.7051    1.0000 </r>
       <r>   -0.5843    1.0000 </r>
       <r>   -0.5561    1.0000 </r>
       <r>   -0.3980    1.0000 </r>
       <r>    0.0461    1.0000 </r>
       <r>    2.7167    0.0000 </r>
       <r>    2.9724    0.0000 </r>
       <r>    3.0587    0.0000 </r>
       <r>    3.1748    0.0000 </r>
       <r>    3.2619    0.0000 </r>
       <r>    3.3597    0.0000 </r>
       <r>    3.3999    0.0000 </r>
       <r>    3.4206    0.0000 </r>
       <r>    3.5216    0.0000 </r>
       <r>    3.6224    0.0000 </r>
       <r>    3.6862    0.0000 </r>
       <r>    3.7368    0.0000 </r>
      </set>
      <set comment="kpoint 9">
       <r>  -33.7552    1.0000 </r>
       <r>  -32.7646    1.0000 </r>
       <r>  -32.6744    1.0000 </r>
       <r>  -32.6290    1.0000 </r>
       <r>  -17.3247    1.0000 </r>
       <r>  -17.1197    1.0000 </r>
       <r>  -16.9047    1.0000 </r>
       <r>  -16.6771    1.0000 </r>
       <r>  -16.6385    1.0000 </r>
       <r>  -16.6207    1.0000 </r>
       <r>  -16.4933    1.0000 </r>
       <r>  -16.4818    1.0000 </r>
       <r>  -16.3878    1.0000 </r>
       <r>  -16.0990    1.0000 </r>
       <r>  -16.0297    1.0000 </r>
       <r>  -15.9121    1.0000 </r>
       <r>  -15.8766    1.0000 </r>
       <r>  -15.6188    1.0000 </r>
       <r>  -15.0853    1.0000 </r>
       <r>  -14.9281    1.0000 </r>
       <r>  -14.8717    1.0000 </r>
       <r>  -14.7541    1.0000 </r>
       <r>  -14.6794    1.0000 </r>
       <r>  -14.6232    1.0000 </r>
       <r>  -14.5740    1.0000 </r>
       <r>  -14.5437    1.0000 </r>
       <r>  -14.4925    1.0000 </r>
       <r>  -14.4239    1.0000 </r>
       <r>   -4.4976    1.0000 </r>
       <r>   -4.3965    1.0000 </r>
       <r>   -4.2929    1.0000 </r>
       <r>   -4.1804    1.0000 </r>
       <r>   -4.1075    1.0000 </r>
       <r>   -4.0693    1.0000 </r>
       <r>   -4.0046    1.0000 </r>
       <r>   -3.9070    1.0000 </r>
       <r>   -3.7599    1.0000 </r>
       <r>   -3.7287    1.0000 </r>
       <r>   -3.6448    1.0000 </r>
       <r>   -3.6053    1.0000 </r>
       <r>   -3.5480    1.0000 </r>
       <r>   -3.4791    1.0000 </r>
       <r>   -3.4365    1.0000 </r>
       <r>   -3.2850    1.0000 </r>
       <r>   -3.1698    1.0000 </r>
       <r>   -3.1220    1.0000 </r>
       <r>   -3.0606    1.0000 </r>
       <r>   -2.9732    1.0000 </r>
       <r>   -2.6744    1.0000 </r>
       <r>   -2.5478    1.0000 </r>
       <r>   -2.1436    1.0000 </r>
       <r>   -1.5551    1.0000 </r>
       <r>   -1.4341    1.0000 </r>
       <r>   -1.3230    1.0000 </r>
       <r>   -1.0057    1.0000 </r>
       <r>   -0.9482    1.0000 </r>
       <r>   -0.7469    1.0000 </r>
       <r>   -0.6694    1.0000 </r>
       <r>   -0.6046    1.0000 </r>
       <r>   -0.5742    1.0000 </r>
       <r>   -0.5536    1.0000 </r>
       <r>   -0.4556    1.0000 </r>
       <r>   -0.2152    1.0000 </r>
       <r>    0.2095    1.0000 </r>
       <r>    2.8467    0.0000 </r>
       <r>    3.1592    0.0000 </r>
       <r>    3.4287    0.0000 </r>
       <r>    3.4651    0.0000 </r>
       <r>    3.6082    0.0000 </r>
       <r>    3.6379    0.0000 </r>
       <r>    3.7647    0.0000 </r>
       <r>    3.7697    0.0000 </r>
       <r>    3.7857    0.0000 </r>
       <r>    3.8750    0.0000 </r>
       <r>    3.9801    0.0000 </r>
       <r>    7.8275    0.0000 </r>
      </set>
      <set comment="kpoint 10">
       <r>  -33.7495    1.0000 </r>
       <r>  -32.7580    1.0000 </r>
       <r>  -32.6679    1.0000 </r>
       <r>  -32.6224    1.0000 </r>
       <r>  -17.0468    1.0000 </r>
       <r>  -16.8488    1.0000 </r>
       <r>  -16.7217    1.0000 </r>
       <r>  -16.6857    1.0000 </r>
       <r>  -16.6288    1.0000 </r>
       <r>  -16.5868    1.0000 </r>
       <r>  -16.4497    1.0000 </r>
       <r>  -16.4205    1.0000 </r>
       <r>  -16.3840    1.0000 </r>
       <r>  -16.0098    1.0000 </r>
       <r>  -15.9224    1.0000 </r>
       <r>  -15.8913    1.0000 </r>
       <r>  -15.8151    1.0000 </r>
       <r>  -15.6531    1.0000 </r>
       <r>  -15.3843    1.0000 </r>
       <r>  -14.9790    1.0000 </r>
       <r>  -14.9280    1.0000 </r>
       <r>  -14.9201    1.0000 </r>
       <r>  -14.7738    1.0000 </r>
       <r>  -14.7028    1.0000 </r>
       <r>  -14.6283    1.0000 </r>
       <r>  -14.5742    1.0000 </r>
       <r>  -14.4901    1.0000 </r>
       <r>  -14.4692    1.0000 </r>
       <r>   -4.6057    1.0000 </r>
       <r>   -4.5277    1.0000 </r>
       <r>   -4.4669    1.0000 </r>
       <r>   -4.3963    1.0000 </r>
       <r>   -4.2741    1.0000 </r>
       <r>   -4.2394    1.0000 </r>
       <r>   -4.1706    1.0000 </r>
       <r>   -4.1600    1.0000 </r>
       <r>   -4.0759    1.0000 </r>
       <r>   -4.0319    1.0000 </r>
       <r>   -3.9168    1.0000 </r>
       <r>   -3.8532    1.0000 </r>
       <r>   -3.7922    1.0000 </r>
       <r>   -3.7335    1.0000 </r>
       <r>   -3.5272    1.0000 </r>
       <r>   -3.4738    1.0000 </r>
       <r>   -3.4579    1.0000 </r>
       <r>   -3.3937    1.0000 </r>
       <r>   -3.1491    1.0000 </r>
       <r>   -3.1161    1.0000 </r>
       <r>   -2.7584    1.0000 </r>
       <r>   -2.6624    1.0000 </r>
       <r>   -2.4059    1.0000 </r>
       <r>   -1.4257    1.0000 </r>
       <r>   -1.3535    1.0000 </r>
       <r>   -1.3450    1.0000 </r>
       <r>   -0.9476    1.0000 </r>
       <r>   -0.9024    1.0000 </r>
       <r>   -0.5474    1.0000 </r>
       <r>   -0.5042    1.0000 </r>
       <r>   -0.2925    1.0000 </r>
       <r>   -0.2539    1.0000 </r>
       <r>   -0.2283    1.0000 </r>
       <r>   -0.1814    1.0000 </r>
       <r>   -0.1538    1.0000 </r>
       <r>    0.5530    1.0000 </r>
       <r>    3.4152    0.0000 </r>
       <r>    3.4704    0.0000 </r>
       <r>    3.6502    0.0000 </r>
       <r>    3.7006    0.0000 </r>
       <r>    3.8659    0.0000 </r>
       <r>    3.8949    0.0000 </r>
       <r>    3.9456    0.0000 </r>
       <r>    4.0719    0.0000 </r>
       <r>    4.0788    0.0000 </r>
       <r>    7.2680    0.0000 </r>
       <r>    7.4084    0.0000 </r>
       <r>    7.6273    0.0000 </r>
      </set>
     </set>
    </set>
   </array>
  </eigenvalues>
  <separator name="orbital magnetization" >
   <v name="MAGDIPOLOUT">      0.00000000      0.00000000      0.00000000</v>
  </separator>
  <dos>
   <i name="efermi">      0.63935138 </i>
   <total>
    <array>
     <dimension dim="1">gridpoints</dimension>
     <dimension dim="2">spin</dimension>
     <field>energy</field>
     <field>total</field>
     <field>integrated</field>
     <set>
      <set comment="spin 1">
       <r>   -35.8632     0.0000     0.0000 </r>
       <r>   -35.7106     0.0000     0.0000 </r>
       <r>   -35.5581     0.0000     0.0000 </r>
       <r>   -35.4055     0.0000     0.0000 </r>
       <r>   -35.2529     0.0000     0.0000 </r>
       <r>   -35.1003     0.0000     0.0000 </r>
       <r>   -34.9478     0.0000     0.0000 </r>
       <r>   -34.7952     0.0000     0.0000 </r>
       <r>   -34.6426     0.0000     0.0000 </r>
       <r>   -34.4901     0.0000     0.0000 </r>
       <r>   -34.3375     0.0000     0.0000 </r>
       <r>   -34.1849     0.0000     0.0000 </r>
       <r>   -34.0324     0.0000     0.0000 </r>
       <r>   -33.8798     0.0000     0.0000 </r>
       <r>   -33.7272     0.0000     2.0000 </r>
       <r>   -33.5746     0.0000     2.0000 </r>
       <r>   -33.4221     0.0000     2.0000 </r>
       <r>   -33.2695     0.0000     2.0000 </r>
       <r>   -33.1169     0.0000     2.0000 </r>
       <r>   -32.9644     0.0000     2.0000 </r>
       <r>   -32.8118     0.0000     2.0000 </r>
       <r>   -32.6592    23.4055     6.0281 </r>
       <r>   -32.5066     0.0000     8.0000 </r>
       <r>   -32.3541     0.0000     8.0000 </r>
       <r>   -32.2015     0.0000     8.0000 </r>
       <r>   -32.0489     0.0000     8.0000 </r>
       <r>   -31.8964     0.0000     8.0000 </r>
       <r>   -31.7438     0.0000     8.0000 </r>
       <r>   -31.5912     0.0000     8.0000 </r>
       <r>   -31.4386     0.0000     8.0000 </r>
       <r>   -31.2861     0.0000     8.0000 </r>
       <r>   -31.1335     0.0000     8.0000 </r>
       <r>   -30.9809     0.0000     8.0000 </r>
       <r>   -30.8284     0.0000     8.0000 </r>
       <r>   -30.6758     0.0000     8.0000 </r>
       <r>   -30.5232     0.0000     8.0000 </r>
       <r>   -30.3707     0.0000     8.0000 </r>
       <r>   -30.2181     0.0000     8.0000 </r>
       <r>   -30.0655     0.0000     8.0000 </r>
       <r>   -29.9129     0.0000     8.0000 </r>
       <r>   -29.7604     0.0000     8.0000 </r>
       <r>   -29.6078     0.0000     8.0000 </r>
       <r>   -29.4552     0.0000     8.0000 </r>
       <r>   -29.3027     0.0000     8.0000 </r>
       <r>   -29.1501     0.0000     8.0000 </r>
       <r>   -28.9975     0.0000     8.0000 </r>
       <r>   -28.8449     0.0000     8.0000 </r>
       <r>   -28.6924     0.0000     8.0000 </r>
       <r>   -28.5398     0.0000     8.0000 </r>
       <r>   -28.3872     0.0000     8.0000 </r>
       <r>   -28.2347     0.0000     8.0000 </r>
       <r>   -28.0821     0.0000     8.0000 </r>
       <r>   -27.9295     0.0000     8.0000 </r>
       <r>   -27.7770     0.0000     8.0000 </r>
       <r>   -27.6244     0.0000     8.0000 </r>
       <r>   -27.4718     0.0000     8.0000 </r>
       <r>   -27.3192     0.0000     8.0000 </r>
       <r>   -27.1667     0.0000     8.0000 </r>
       <r>   -27.0141     0.0000     8.0000 </r>
       <r>   -26.8615     0.0000     8.0000 </r>
       <r>   -26.7090     0.0000     8.0000 </r>
       <r>   -26.5564     0.0000     8.0000 </r>
       <r>   -26.4038     0.0000     8.0000 </r>
       <r>   -26.2512     0.0000     8.0000 </r>
       <r>   -26.0987     0.0000     8.0000 </r>
       <r>   -25.9461     0.0000     8.0000 </r>
       <r>   -25.7935     0.0000     8.0000 </r>
       <r>   -25.6410     0.0000     8.0000 </r>
       <r>   -25.4884     0.0000     8.0000 </r>
       <r>   -25.3358     0.0000     8.0000 </r>
       <r>   -25.1832     0.0000     8.0000 </r>
       <r>   -25.0307     0.0000     8.0000 </r>
       <r>   -24.8781     0.0000     8.0000 </r>
       <r>   -24.7255     0.0000     8.0000 </r>
       <r>   -24.5730     0.0000     8.0000 </r>
       <r>   -24.4204     0.0000     8.0000 </r>
       <r>   -24.2678     0.0000     8.0000 </r>
       <r>   -24.1153     0.0000     8.0000 </r>
       <r>   -23.9627     0.0000     8.0000 </r>
       <r>   -23.8101     0.0000     8.0000 </r>
       <r>   -23.6575     0.0000     8.0000 </r>
       <r>   -23.5050     0.0000     8.0000 </r>
       <r>   -23.3524     0.0000     8.0000 </r>
       <r>   -23.1998     0.0000     8.0000 </r>
       <r>   -23.0473     0.0000     8.0000 </r>
       <r>   -22.8947     0.0000     8.0000 </r>
       <r>   -22.7421     0.0000     8.0000 </r>
       <r>   -22.5895     0.0000     8.0000 </r>
       <r>   -22.4370     0.0000     8.0000 </r>
       <r>   -22.2844     0.0000     8.0000 </r>
       <r>   -22.1318     0.0000     8.0000 </r>
       <r>   -21.9793     0.0000     8.0000 </r>
       <r>   -21.8267     0.0000     8.0000 </r>
       <r>   -21.6741     0.0000     8.0000 </r>
       <r>   -21.5216     0.0000     8.0000 </r>
       <r>   -21.3690     0.0000     8.0000 </r>
       <r>   -21.2164     0.0000     8.0000 </r>
       <r>   -21.0638     0.0000     8.0000 </r>
       <r>   -20.9113     0.0000     8.0000 </r>
       <r>   -20.7587     0.0000     8.0000 </r>
       <r>   -20.6061     0.0000     8.0000 </r>
       <r>   -20.4536     0.0000     8.0000 </r>
       <r>   -20.3010     0.0000     8.0000 </r>
       <r>   -20.1484     0.0000     8.0000 </r>
       <r>   -19.9958     0.0000     8.0000 </r>
       <r>   -19.8433     0.0000     8.0000 </r>
       <r>   -19.6907     0.0000     8.0000 </r>
       <r>   -19.5381     0.0000     8.0000 </r>
       <r>   -19.3856     0.0000     8.0000 </r>
       <r>   -19.2330     0.0000     8.0000 </r>
       <r>   -19.0804     0.0000     8.0000 </r>
       <r>   -18.9278     0.0000     8.0000 </r>
       <r>   -18.7753     0.0000     8.0000 </r>
       <r>   -18.6227     0.0000     8.0000 </r>
       <r>   -18.4701     0.0000     8.0000 </r>
       <r>   -18.3176     0.0000     8.0000 </r>
       <r>   -18.1650     0.0000     8.0000 </r>
       <r>   -18.0124     0.0000     8.0000 </r>
       <r>   -17.8599     0.0000     8.0000 </r>
       <r>   -17.7073     0.1750     8.0005 </r>
       <r>   -17.5547     9.8821     9.0676 </r>
       <r>   -17.4021    12.1757    10.7125 </r>
       <r>   -17.2496     6.7060    11.9654 </r>
       <r>   -17.0970     4.3429    12.9812 </r>
       <r>   -16.9444     7.1862    14.3400 </r>
       <r>   -16.7919     3.9442    15.3500 </r>
       <r>   -16.6393    49.6306    17.4667 </r>
       <r>   -16.4867    41.7041    22.7664 </r>
       <r>   -16.3341     4.4285    26.4889 </r>
       <r>   -16.1816    17.7297    28.2052 </r>
       <r>   -16.0290     6.4932    29.5892 </r>
       <r>   -15.8764     7.6290    31.9495 </r>
       <r>   -15.7239    13.9247    33.4089 </r>
       <r>   -15.5713     0.0513    36.0008 </r>
       <r>   -15.4187     0.3058    36.0280 </r>
       <r>   -15.2661     1.3879    36.2161 </r>
       <r>   -15.1136     2.5964    36.5373 </r>
       <r>   -14.9610    10.0197    37.3401 </r>
       <r>   -14.8084    20.4953    40.5984 </r>
       <r>   -14.6559    25.9253    46.1723 </r>
       <r>   -14.5033    25.2966    50.3398 </r>
       <r>   -14.3507    17.7387    55.1912 </r>
       <r>   -14.1982     0.0000    56.0000 </r>
       <r>   -14.0456     0.0000    56.0000 </r>
       <r>   -13.8930     0.0000    56.0000 </r>
       <r>   -13.7404     0.0000    56.0000 </r>
       <r>   -13.5879     0.0000    56.0000 </r>
       <r>   -13.4353     0.0000    56.0000 </r>
       <r>   -13.2827     0.0000    56.0000 </r>
       <r>   -13.1302     0.0000    56.0000 </r>
       <r>   -12.9776     0.0000    56.0000 </r>
       <r>   -12.8250     0.0000    56.0000 </r>
       <r>   -12.6724     0.0000    56.0000 </r>
       <r>   -12.5199     0.0000    56.0000 </r>
       <r>   -12.3673     0.0000    56.0000 </r>
       <r>   -12.2147     0.0000    56.0000 </r>
       <r>   -12.0622     0.0000    56.0000 </r>
       <r>   -11.9096     0.0000    56.0000 </r>
       <r>   -11.7570     0.0000    56.0000 </r>
       <r>   -11.6045     0.0000    56.0000 </r>
       <r>   -11.4519     0.0000    56.0000 </r>
       <r>   -11.2993     0.0000    56.0000 </r>
       <r>   -11.1467     0.0000    56.0000 </r>
       <r>   -10.9942     0.0000    56.0000 </r>
       <r>   -10.8416     0.0000    56.0000 </r>
       <r>   -10.6890     0.0000    56.0000 </r>
       <r>   -10.5365     0.0000    56.0000 </r>
       <r>   -10.3839     0.0000    56.0000 </r>
       <r>   -10.2313     0.0000    56.0000 </r>
       <r>   -10.0787     0.0000    56.0000 </r>
       <r>    -9.9262     0.0000    56.0000 </r>
       <r>    -9.7736     0.0000    56.0000 </r>
       <r>    -9.6210     0.0000    56.0000 </r>
       <r>    -9.4685     0.0000    56.0000 </r>
       <r>    -9.3159     0.0000    56.0000 </r>
       <r>    -9.1633     0.0000    56.0000 </r>
       <r>    -9.0107     0.0000    56.0000 </r>
       <r>    -8.8582     0.0000    56.0000 </r>
       <r>    -8.7056     0.0000    56.0000 </r>
       <r>    -8.5530     0.0000    56.0000 </r>
       <r>    -8.4005     0.0000    56.0000 </r>
       <r>    -8.2479     0.0000    56.0000 </r>
       <r>    -8.0953     0.0000    56.0000 </r>
       <r>    -7.9428     0.0000    56.0000 </r>
       <r>    -7.7902     0.0000    56.0000 </r>
       <r>    -7.6376     0.0000    56.0000 </r>
       <r>    -7.4850     0.0000    56.0000 </r>
       <r>    -7.3325     0.0000    56.0000 </r>
       <r>    -7.1799     0.0000    56.0000 </r>
       <r>    -7.0273     0.0000    56.0000 </r>
       <r>    -6.8748     0.0000    56.0000 </r>
       <r>    -6.7222     0.0000    56.0000 </r>
       <r>    -6.5696     0.0000    56.0000 </r>
       <r>    -6.4170     0.0000    56.0000 </r>
       <r>    -6.2645     0.0000    56.0000 </r>
       <r>    -6.1119     0.0000    56.0000 </r>
       <r>    -5.9593     0.0000    56.0000 </r>
       <r>    -5.8068     0.0000    56.0000 </r>
       <r>    -5.6542     0.0000    56.0000 </r>
       <r>    -5.5016     0.0000    56.0000 </r>
       <r>    -5.3491     0.0000    56.0000 </r>
       <r>    -5.1965     0.0000    56.0000 </r>
       <r>    -5.0439     0.0000    56.0000 </r>
       <r>    -4.8913     0.0000    56.0000 </r>
       <r>    -4.7388     0.0000    56.0000 </r>
       <r>    -4.5862     1.7542    56.0726 </r>
       <r>    -4.4336    10.0816    57.3371 </r>
       <r>    -4.2811    19.9960    59.7670 </r>
       <r>    -4.1285    15.1779    62.2506 </r>
       <r>    -3.9759    13.8665    64.6239 </r>
       <r>    -3.8233    13.3798    66.8817 </r>
       <r>    -3.6708    14.8438    69.2382 </r>
       <r>    -3.5182    17.5688    71.8130 </r>
       <r>    -3.3656    19.5300    74.8604 </r>
       <r>    -3.2131    22.0688    78.0269 </r>
       <r>    -3.0605    25.2968    82.0225 </r>
       <r>    -2.9079    19.5487    85.5092 </r>
       <r>    -2.7553    13.5949    87.8363 </r>
       <r>    -2.6028    14.2654    90.0075 </r>
       <r>    -2.4502    11.3722    91.9514 </r>
       <r>    -2.2976    12.9226    93.8742 </r>
       <r>    -2.1451    10.5244    95.8147 </r>
       <r>    -1.9925     9.9417    97.4721 </r>
       <r>    -1.8399     9.9891    99.0441 </r>
       <r>    -1.6874    23.1524   100.8737 </r>
       <r>    -1.5348    11.1718   102.7910 </r>
       <r>    -1.3822    12.2477   105.2839 </r>
       <r>    -1.2296    20.5256   108.7071 </r>
       <r>    -1.0771    25.5244   111.7046 </r>
       <r>    -0.9245    20.5486   115.6424 </r>
       <r>    -0.7719    10.2125   117.9735 </r>
       <r>    -0.6194    20.4841   120.9966 </r>
       <r>    -0.4668    16.8264   123.7495 </r>
       <r>    -0.3142    11.3758   125.6838 </r>
       <r>    -0.1616     4.8802   127.1517 </r>
       <r>    -0.0091     1.2275   127.4456 </r>
       <r>     0.1435     1.1640   127.6221 </r>
       <r>     0.2961     0.8940   127.7833 </r>
       <r>     0.4486     0.6454   127.9007 </r>
       <r>     0.6012     0.0000   128.0000 </r>
       <r>     0.7538     0.0000   128.0000 </r>
       <r>     0.9064     0.0000   128.0000 </r>
       <r>     1.0589     0.0000   128.0000 </r>
       <r>     1.2115     0.0000   128.0000 </r>
       <r>     1.3641     0.0000   128.0000 </r>
       <r>     1.5166     0.0000   128.0000 </r>
       <r>     1.6692     0.5189   128.0160 </r>
       <r>     1.8218     3.3803   128.2308 </r>
       <r>     1.9743     3.7525   128.7714 </r>
       <r>     2.1269     4.2620   129.4321 </r>
       <r>     2.2795     4.4030   130.0470 </r>
       <r>     2.4321     8.1105   131.0163 </r>
       <r>     2.5846     6.9627   132.1879 </r>
       <r>     2.7372     6.8052   133.1898 </r>
       <r>     2.8898     9.4458   134.4710 </r>
       <r>     3.0423    11.3907   136.0711 </r>
       <r>     3.1949    12.1621   137.8379 </r>
       <r>     3.3475    14.0177   139.8604 </r>
       <r>     3.5001    15.8875   142.6142 </r>
       <r>     3.6526    15.2315   145.3508 </r>
       <r>     3.8052    11.4504   147.3802 </r>
       <r>     3.9578     3.4435   148.5904 </r>
       <r>     4.1103     0.4594   148.9277 </r>
       <r>     4.2629     0.4592   148.9978 </r>
       <r>     4.4155     0.4590   149.0678 </r>
       <r>     4.5680     0.4588   149.1378 </r>
       <r>     4.7206     0.4586   149.2078 </r>
       <r>     4.8732     0.4584   149.2778 </r>
       <r>     5.0258     0.4689   149.3479 </r>
       <r>     5.1783     0.5094   149.4225 </r>
       <r>     5.3309     0.5500   149.5034 </r>
       <r>     5.4835     0.5905   149.5904 </r>
       <r>     5.6360     0.7274   149.6873 </r>
       <r>     5.7886     0.9539   149.8156 </r>
       <r>     5.9412     1.3461   149.9922 </r>
       <r>     6.0938     0.7840   150.1572 </r>
       <r>     6.2463     0.7003   150.2667 </r>
       <r>     6.3989     0.7125   150.3744 </r>
       <r>     6.5515     0.7247   150.4841 </r>
       <r>     6.7040     0.7369   150.5956 </r>
       <r>     6.8566     0.7491   150.7089 </r>
       <r>     7.0092     0.8426   150.8292 </r>
       <r>     7.1618     0.7503   150.9428 </r>
       <r>     7.3143     0.7270   151.0977 </r>
       <r>     7.4669     0.7075   151.2487 </r>
       <r>     7.6195     1.8200   151.3834 </r>
       <r>     7.7720     3.1453   151.8269 </r>
       <r>     7.9246     0.0000   152.0000 </r>
       <r>     8.0772     0.0000   152.0000 </r>
       <r>     8.2297     0.0000   152.0000 </r>
       <r>     8.3823     0.0000   152.0000 </r>
       <r>     8.5349     0.0000   152.0000 </r>
       <r>     8.6875     0.0000   152.0000 </r>
       <r>     8.8400     0.0000   152.0000 </r>
       <r>     8.9926     0.0000   152.0000 </r>
       <r>     9.1452     0.0000   152.0000 </r>
       <r>     9.2977     0.0000   152.0000 </r>
       <r>     9.4503     0.0000   152.0000 </r>
       <r>     9.6029     0.0000   152.0000 </r>
       <r>     9.7555     0.0000   152.0000 </r>
       <r>     9.9080     0.0000   152.0000 </r>
      </set>
     </set>
    </array>
   </total>
  </dos>
 </calculation>
 <structure name="finalpos" >
  <crystal>
   <varray name="basis" >
    <v>       3.90526800       0.00000000       0.00000000 </v>
    <v>       0.00000000       3.90526800       0.00000000 </v>
    <v>       0.00000000       0.00000000      25.66843800 </v>
   </varray>
   <i name="volume">    391.47238071 </i>
   <varray name="rec_basis" >
    <v>       0.25606437       0.00000000       0.00000000 </v>
    <v>       0.00000000       0.25606437       0.00000000 </v>
    <v>       0.00000000       0.00000000       0.03895835 </v>
   </varray>
  </crystal>
  <varray name="positions" >
   <v>       0.50000000       0.50000000       0.23375010 </v>
   <v>       0.50000000       0.00000000       0.30982150 </v>
   <v>       0.00000000       0.50000000       0.30982150 </v>
   <v>       0.50000000       0.50000000       0.38589290 </v>
   <v>       0.50000000       0.00000000       0.46196430 </v>
   <v>       0.00000000       0.50000000       0.46196430 </v>
   <v>       0.50000000       0.50000000       0.53803570 </v>
   <v>       0.50000000       0.00000000       0.61410710 </v>
   <v>       0.00000000       0.50000000       0.61410710 </v>
   <v>       0.50000000       0.50000000       0.69017850 </v>
   <v>       0.50000000       0.00000000       0.76624990 </v>
   <v>       0.00000000       0.50000000       0.76624990 </v>
   <v>       0.00000000       0.00000000       0.23375010 </v>
   <v>       0.00000000       0.00000000       0.38589290 </v>
   <v>       0.00000000       0.00000000       0.53803570 </v>
   <v>       0.00000000       0.00000000       0.69017850 </v>
   <v>       0.50000000       0.50000000       0.30982150 </v>
   <v>       0.50000000       0.50000000       0.46196430 </v>
   <v>       0.50000000       0.50000000       0.61410710 </v>
   <v>       0.50000000       0.50000000       0.76624990 </v>
  </varray>
 </structure>
</modeling>
