unknown system                          
   1.00000000000000     
     3.905268    0.000000    0.000000
     0.000000    3.905268    0.000000
     0.000000    0.000000    3.905268
   Sr   Ti   O 
     1     1     3
Direct
  0.000000  0.000000  0.000000
  0.500000  0.500000  0.500000
  0.500000  0.500000  0.000000
  0.500000  0.000000  0.500000
  0.000000  0.500000  0.500000
 
   40   40   40
  193.27      193.21      192.14      187.84      177.84      160.73      137.06      109.35      81.275      56.305    
  36.634      22.777      13.901      8.5654      5.5136      3.8427      2.9556      2.4994      2.2776      2.1821    
  2.1564      2.1821      2.2776      2.4994      2.9556      3.8427      5.5136      8.5654      13.901      22.777    
  36.634      56.305      81.275      109.35      137.06      160.73      177.84      187.84      192.14      193.21    
  193.21      193.00      191.52      186.66      176.13      158.66      134.89      107.34      79.619      55.083    
  35.827      22.299      13.648      8.4458      5.4687      3.8320      2.9530      2.4896      2.2543      2.1469    
  2.1165      2.1469      2.2543      2.4896      2.9530      3.8320      5.4687      8.4458      13.648      22.299    
  35.827      55.083      79.619      107.34      134.89      158.66      176.13      186.66      191.52      193.00    
  192.14      191.52      188.92      182.60      170.69      152.34      128.41      101.43      74.799      51.561    
  33.519      20.944      12.933      8.1157      5.3582      3.8342      3.0043      2.5546      2.3163      2.2018    
  2.1681      2.2018      2.3163      2.5546      3.0043      3.8342      5.3582      8.1157      12.933      20.944    
  33.519      51.561      74.799      101.43      128.41      152.34      170.69      182.60      188.92      191.52    
  187.84      186.66      182.60      174.39      160.79      141.53      117.77      92.006      67.276      46.159    
  30.034      18.924      11.879      7.6473      5.2309      3.9004      3.1839      2.8064      2.6162      2.5308    
  2.5071      2.5308      2.6162      2.8064      3.1839      3.9004      5.2309      7.6473      11.879      18.924    
  30.034      46.159      67.276      92.006      117.77      141.53      160.79      174.39      182.60      186.66    
  177.84      176.13      170.69      160.79      145.90      126.33      103.51      79.810      57.815      39.523    
  25.836      16.533      10.655      7.1331      5.1329      4.0439      3.4754      3.1965      3.0744      3.0308    
  3.0213      3.0308      3.0744      3.1965      3.4754      4.0439      5.1329      7.1331      10.655      16.533    
  25.836      39.523      57.815      79.810      103.51      126.33      145.90      160.79      170.69      176.13    
  160.73      158.66      152.34      141.53      126.33      107.52      86.695      65.980      47.423      32.427    
  21.449      14.082      9.4396      6.6798      5.1289      4.3017      3.8878      3.7018      3.6344      3.6194    
  3.6187      3.6194      3.6344      3.7018      3.8878      4.3017      5.1289      6.6798      9.4396      14.082    
  21.449      32.427      47.423      65.980      86.695      107.52      126.33      141.53      152.34      158.66    
  137.06      134.89      128.41      117.77      103.51      86.695      68.904      51.899      37.183      25.628    
  17.346      11.844      8.4104      6.4146      5.3396      4.8158      4.6036      4.5544      4.5764      4.6120    
  4.6276      4.6120      4.5764      4.5544      4.6036      4.8158      5.3396      6.4146      8.4104      11.844    
  17.346      25.628      37.183      51.899      68.904      86.695      103.51      117.77      128.41      134.89    
  109.35      107.34      101.43      92.006      79.810      65.980      51.899      38.916      28.037      19.720    
  13.871      10.038      7.7290      6.4845      5.9297      5.7932      5.8884      6.0866      6.2956      6.4492    
  6.5052      6.4492      6.2956      6.0866      5.8884      5.7932      5.9297      6.4845      7.7290      10.038    
  13.871      19.720      28.037      38.916      51.899      65.980      79.810      92.006      101.43      107.34    
  81.275      79.619      74.799      67.276      57.815      47.423      37.183      28.037      20.592      15.038    
  11.213      8.8225      7.5370      7.0383      7.0638      7.4112      7.9241      8.4763      8.9610      9.2915    
  9.4087      9.2915      8.9610      8.4763      7.9241      7.4112      7.0638      7.0383      7.5370      8.8225    
  11.213      15.038      20.592      28.037      37.183      47.423      57.815      67.276      74.799      79.619    
  56.305      55.083      51.561      46.159      39.523      32.427      25.628      19.720      15.038      11.642    
  9.4483      8.2869      7.9442      8.2092      8.8943      9.8362      10.888      11.909      12.766      13.338    
  13.539      13.338      12.766      11.909      10.888      9.8362      8.8943      8.2092      7.9442      8.2869    
  9.4483      11.642      15.038      19.720      25.628      32.427      39.523      46.159      51.561      55.083    
  36.634      35.827      33.519      30.034      25.836      21.449      17.346      13.871      11.213      9.4483    
  8.5599      8.4587      9.0213      10.113      11.600      13.347      15.203      16.987      18.488      19.497    
  19.853      19.497      18.488      16.987      15.203      13.347      11.600      10.113      9.0213      8.4587    
  8.5599      9.4483      11.213      13.871      17.346      21.449      25.836      30.034      33.519      35.827    
  22.777      22.299      20.944      18.924      16.533      14.082      11.844      10.038      8.8225      8.2869    
  8.4587      9.3159      10.807      12.871      15.443      18.434      21.677      24.889      27.668      29.573    
  30.252      29.573      27.668      24.889      21.677      18.434      15.443      12.871      10.807      9.3159    
  8.4587      8.2869      8.8225      10.038      11.844      14.082      16.533      18.924      20.944      22.299    
  13.901      13.648      12.933      11.879      10.655      9.4396      8.4104      7.7290      7.5370      7.9442    
  9.0213      10.807      13.334      16.653      20.831      25.865      31.557      37.397      42.581      46.191    
  47.489      46.191      42.581      37.397      31.557      25.865      20.831      16.653      13.334      10.807    
  9.0213      7.9442      7.5370      7.7290      8.4104      9.4396      10.655      11.879      12.933      13.648    
  8.5654      8.4458      8.1157      7.6473      7.1331      6.6798      6.4146      6.4845      7.0383      8.2092    
  10.113      12.871      16.653      21.719      28.370      36.765      46.613      56.962      66.264      72.813    
  75.191      72.813      66.264      56.962      46.613      36.765      28.370      21.719      16.653      12.871    
  10.113      8.2092      7.0383      6.4845      6.4146      6.6798      7.1331      7.6473      8.1157      8.4458    
  5.5136      5.4687      5.3582      5.2309      5.1329      5.1289      5.3396      5.9297      7.0638      8.8943    
  11.600      15.443      20.831      28.370      38.763      52.396      68.743      86.427      103.12      115.28    
  119.76      115.28      103.12      86.427      68.743      52.396      38.763      28.370      20.831      15.443    
  11.600      8.8943      7.0638      5.9297      5.3396      5.1289      5.1329      5.2309      5.3582      5.4687    
  3.8427      3.8320      3.8342      3.9004      4.0439      4.3017      4.8158      5.7932      7.4112      9.8362    
  13.347      18.434      25.865      36.765      52.396      73.397      99.850      130.05      158.86      179.71    
  187.32      179.71      158.86      130.05      99.850      73.397      52.396      36.765      25.865      18.434    
  13.347      9.8362      7.4112      5.7932      4.8158      4.3017      4.0439      3.9004      3.8342      3.8320    
  2.9556      2.9530      3.0043      3.1839      3.4754      3.8878      4.6036      5.8884      7.9241      10.888    
  15.203      21.677      31.557      46.613      68.743      99.850      141.00      187.79      231.18      261.61    
  272.49      261.61      231.18      187.79      141.00      99.850      68.743      46.613      31.557      21.677    
  15.203      10.888      7.9241      5.8884      4.6036      3.8878      3.4754      3.1839      3.0043      2.9530    
  2.4994      2.4896      2.5546      2.8064      3.1965      3.7018      4.5544      6.0866      8.4763      11.909    
  16.987      24.889      37.397      56.962      86.427      130.05      187.79      251.24      307.36      344.92    
  357.97      344.92      307.36      251.24      187.79      130.05      86.427      56.962      37.397      24.889    
  16.987      11.909      8.4763      6.0866      4.5544      3.7018      3.1965      2.8064      2.5546      2.4896    
  2.2776      2.2543      2.3163      2.6162      3.0744      3.6344      4.5764      6.2956      8.9610      12.766    
  18.488      27.668      42.581      66.264      103.12      158.86      231.18      307.36      371.12      411.45    
  424.92      411.45      371.12      307.36      231.18      158.86      103.12      66.264      42.581      27.668    
  18.488      12.766      8.9610      6.2956      4.5764      3.6344      3.0744      2.6162      2.3163      2.2543    
  2.1821      2.1469      2.2018      2.5308      3.0308      3.6194      4.6120      6.4492      9.2915      13.338    
  19.497      29.573      46.191      72.813      115.28      179.71      261.61      344.92      411.45      451.32    
  464.13      451.32      411.45      344.92      261.61      179.71      115.28      72.813      46.191      29.573    
  19.497      13.338      9.2915      6.4492      4.6120      3.6194      3.0308      2.5308      2.2018      2.1469    
  2.1564      2.1165      2.1681      2.5071      3.0213      3.6187      4.6276      6.5052      9.4087      13.539    
  19.853      30.252      47.489      75.191      119.76      187.32      272.49      357.97      424.92      464.13    
  476.49      464.13      424.92      357.97      272.49      187.32      119.76      75.191      47.489      30.252    
  19.853      13.539      9.4087      6.5052      4.6276      3.6187      3.0213      2.5071      2.1681      2.1165    
  2.1821      2.1469      2.2018      2.5308      3.0308      3.6194      4.6120      6.4492      9.2915      13.338    
  19.497      29.573      46.191      72.813      115.28      179.71      261.61      344.92      411.45      451.32    
  464.13      451.32      411.45      344.92      261.61      179.71      115.28      72.813      46.191      29.573    
  19.497      13.338      9.2915      6.4492      4.6120      3.6194      3.0308      2.5308      2.2018      2.1469    
  2.2776      2.2543      2.3163      2.6162      3.0744      3.6344      4.5764      6.2956      8.9610      12.766    
  18.488      27.668      42.581      66.264      103.12      158.86      231.18      307.36      371.12      411.45    
  424.92      411.45      371.12      307.36      231.18      158.86      103.12      66.264      42.581      27.668    
  18.488      12.766      8.9610      6.2956      4.5764      3.6344      3.0744      2.6162      2.3163      2.2543    
  2.4994      2.4896      2.5546      2.8064      3.1965      3.7018      4.5544      6.0866      8.4763      11.909    
  16.987      24.889      37.397      56.962      86.427      130.05      187.79      251.24      307.36      344.92    
  357.97      344.92      307.36      251.24      187.79      130.05      86.427      56.962      37.397      24.889    
  16.987      11.909      8.4763      6.0866      4.5544      3.7018      3.1965      2.8064      2.5546      2.4896    
  2.9556      2.9530      3.0043      3.1839      3.4754      3.8878      4.6036      5.8884      7.9241      10.888    
  15.203      21.677      31.557      46.613      68.743      99.850      141.00      187.79      231.18      261.61    
  272.49      261.61      231.18      187.79      141.00      99.850      68.743      46.613      31.557      21.677    
  15.203      10.888      7.9241      5.8884      4.6036      3.8878      3.4754      3.1839      3.0043      2.9530    
  3.8427      3.8320      3.8342      3.9004      4.0439      4.3017      4.8158      5.7932      7.4112      9.8362    
  13.347      18.434      25.865      36.765      52.396      73.397      99.850      130.05      158.86      179.71    
  187.32      179.71      158.86      130.05      99.850      73.397      52.396      36.765      25.865      18.434    
  13.347      9.8362      7.4112      5.7932      4.8158      4.3017      4.0439      3.9004      3.8342      3.8320    
  5.5136      5.4687      5.3582      5.2309      5.1329      5.1289      5.3396      5.9297      7.0638      8.8943    
  11.600      15.443      20.831      28.370      38.763      52.396      68.743      86.427      103.12      115.28    
  119.76      115.28      103.12      86.427      68.743      52.396      38.763      28.370      20.831      15.443    
  11.600      8.8943      7.0638      5.9297      5.3396      5.1289      5.1329      5.2309      5.3582      5.4687    
  8.5654      8.4458      8.1157      7.6473      7.1331      6.6798      6.4146      6.4845      7.0383      8.2092    
  10.113      12.871      16.653      21.719      28.370      36.765      46.613      56.962      66.264      72.813    
  75.191      72.813      66.264      56.962      46.613      36.765      28.370      21.719      16.653      12.871    
  10.113      8.2092      7.0383      6.4845      6.4146      6.6798      7.1331      7.6473      8.1157      8.4458    
  13.901      13.648      12.933      11.879      10.655      9.4396      8.4104      7.7290      7.5370      7.9442    
  9.0213      10.807      13.334      16.653      20.831      25.865      31.557      37.397      42.581      46.191    
  47.489      46.191      42.581      37.397      31.557      25.865      20.831      16.653      13.334      10.807    
  9.0213      7.9442      7.5370      7.7290      8.4104      9.4396      10.655      11.879      12.933      13.648    
  22.777      22.299      20.944      18.924      16.533      14.082      11.844      10.038      8.8225      8.2869    
  8.4587      9.3159      10.807      12.871      15.443      18.434      21.677      24.889      27.668      29.573    
  30.252      29.573      27.668      24.889      21.677      18.434      15.443      12.871      10.807      9.3159    
  8.4587      8.2869      8.8225      10.038      11.844      14.082      16.533      18.924      20.944      22.299    
  36.634      35.827      33.519      30.034      25.836      21.449      17.346      13.871      11.213      9.4483    
  8.5599      8.4587      9.0213      10.113      11.600      13.347      15.203      16.987      18.488      19.497    
  19.853      19.497      18.488      16.987      15.203      13.347      11.600      10.113      9.0213      8.4587    
  8.5599      9.4483      11.213      13.871      17.346      21.449      25.836      30.034      33.519      35.827    
  56.305      55.083      51.561      46.159      39.523      32.427      25.628      19.720      15.038      11.642    
  9.4483      8.2869      7.9442      8.2092      8.8943      9.8362      10.888      11.909      12.766      13.338    
  13.539      13.338      12.766      11.909      10.888      9.8362      8.8943      8.2092      7.9442      8.2869    
  9.4483      11.642      15.038      19.720      25.628      32.427      39.523      46.159      51.561      55.083    
  81.275      79.619      74.799      67.276      57.815      47.423      37.183      28.037      20.592      15.038    
  11.213      8.8225      7.5370      7.0383      7.0638      7.4112      7.9241      8.4763      8.9610      9.2915    
  9.4087      9.2915      8.9610      8.4763      7.9241      7.4112      7.0638      7.0383      7.5370      8.8225    
  11.213      15.038      20.592      28.037      37.183      47.423      57.815      67.276      74.799      79.619    
  109.35      107.34      101.43      92.006      79.810      65.980      51.899      38.916      28.037      19.720    
  13.871      10.038      7.7290      6.4845      5.9297      5.7932      5.8884      6.0866      6.2956      6.4492    
  6.5052      6.4492      6.2956      6.0866      5.8884      5.7932      5.9297      6.4845      7.7290      10.038    
  13.871      19.720      28.037      38.916      51.899      65.980      79.810      92.006      101.43      107.34    
  137.06      134.89      128.41      117.77      103.51      86.695      68.904      51.899      37.183      25.628    
  17.346      11.844      8.4104      6.4146      5.3396      4.8158      4.6036      4.5544      4.5764      4.6120    
  4.6276      4.6120      4.5764      4.5544      4.6036      4.8158      5.3396      6.4146      8.4104      11.844    
  17.346      25.628      37.183      51.899      68.904      86.695      103.51      117.77      128.41      134.89    
  160.73      158.66      152.34      141.53      126.33      107.52      86.695      65.980      47.423      32.427    
  21.449      14.082      9.4396      6.6798      5.1289      4.3017      3.8878      3.7018      3.6344      3.6194    
  3.6187      3.6194      3.6344      3.7018      3.8878      4.3017      5.1289      6.6798      9.4396      14.082    
  21.449      32.427      47.423      65.980      86.695      107.52      126.33      141.53      152.34      158.66    
  177.84      176.13      170.69      160.79      145.90      126.33      103.51      79.810      57.815      39.523    
  25.836      16.533      10.655      7.1331      5.1329      4.0439      3.4754      3.1965      3.0744      3.0308    
  3.0213      3.0308      3.0744      3.1965      3.4754      4.0439      5.1329      7.1331      10.655      16.533    
  25.836      39.523      57.815      79.810      103.51      126.33      145.90      160.79      170.69      176.13    
  187.84      186.66      182.60      174.39      160.79      141.53      117.77      92.006      67.276      46.159    
  30.034      18.924      11.879      7.6473      5.2309      3.9004      3.1839      2.8064      2.6162      2.5308    
  2.5071      2.5308      2.6162      2.8064      3.1839      3.9004      5.2309      7.6473      11.879      18.924    
  30.034      46.159      67.276      92.006      117.77      141.53      160.79      174.39      182.60      186.66    
  192.14      191.52      188.92      182.60      170.69      152.34      128.41      101.43      74.799      51.561    
  33.519      20.944      12.933      8.1157      5.3582      3.8342      3.0043      2.5546      2.3163      2.2018    
  2.1681      2.2018      2.3163      2.5546      3.0043      3.8342      5.3582      8.1157      12.933      20.944    
  33.519      51.561      74.799      101.43      128.41      152.34      170.69      182.60      188.92      191.52    
  193.21      193.00      191.52      186.66      176.13      158.66      134.89      107.34      79.619      55.083    
  35.827      22.299      13.648      8.4458      5.4687      3.8320      2.9530      2.4896      2.2543      2.1469    
  2.1165      2.1469      2.2543      2.4896      2.9530      3.8320      5.4687      8.4458      13.648      22.299    
  35.827      55.083      79.619      107.34      134.89      158.66      176.13      186.66      191.52      193.00    
  193.21      193.00      191.52      186.66      176.13      158.66      134.89      107.34      79.619      55.083    
  35.827      22.299      13.648      8.4458      5.4687      3.8320      2.9530      2.4896      2.2543      2.1469    
  2.1165      2.1469      2.2543      2.4896      2.9530      3.8320      5.4687      8.4458      13.648      22.299    
  35.827      55.083      79.619      107.34      134.89      158.66      176.13      186.66      191.52      193.00    
  193.00      192.64      190.76      185.39      174.37      156.57      132.72      105.35      77.986      53.884    
  35.037      21.833      13.400      8.3291      5.4254      3.8231      2.9536      2.4851      2.2386      2.1209    
  2.0864      2.1209      2.2386      2.4851      2.9536      3.8231      5.4254      8.3291      13.400      21.833    
  35.037      53.884      77.986      105.35      132.72      156.57      174.37      185.39      190.76      192.64    
  191.52      190.76      187.84      181.08      168.78      150.19      126.26      99.502      73.240      50.430    
  32.781      20.509      12.701      8.0065      5.3182      3.8282      3.0099      2.5589      2.3132      2.1914    
  2.1548      2.1914      2.3132      2.5589      3.0099      3.8282      5.3182      8.0065      12.701      20.509    
  32.781      50.430      73.240      99.502      126.26      150.19      168.78      181.08      187.84      190.76    
  186.66      185.39      181.08      172.56      158.71      139.34      115.68      90.186      65.842      45.137    
  29.374      18.537      11.672      7.5486      5.1940      3.8947      3.1901      2.8131      2.6180      2.5273    
  2.5013      2.5273      2.6180      2.8131      3.1901      3.8947      5.1940      7.5486      11.672      18.537    
  29.374      45.137      65.842      90.186      115.68      139.34      158.71      172.56      181.08      185.39    
  176.13      174.37      168.78      158.71      143.72      124.17      101.54      78.164      56.554      38.643    
  25.276      16.205      10.476      7.0464      5.0983      4.0362      3.4787      3.2014      3.0763      3.0289    
  3.0178      3.0289      3.0763      3.2014      3.4787      4.0362      5.0983      7.0464      10.476      16.205    
  25.276      38.643      56.554      78.164      101.54      124.17      143.72      158.71      168.78      174.37    
  158.66      156.57      150.19      139.34      124.17      105.51      84.945      64.567      46.372      31.709    
  20.996      13.815      9.2914      6.6041      5.0948      4.2897      3.8862      3.7036      3.6359      3.6195    
  3.6181      3.6195      3.6359      3.7036      3.8862      4.2897      5.0948      6.6041      9.2914      13.815    
  20.996      31.709      46.372      64.567      84.945      105.51      124.17      139.34      150.19      156.57    
  134.89      132.72      126.26      115.68      101.54      84.945      67.439      50.756      36.357      25.073    
  16.997      11.634      8.2885      6.3458      5.3007      4.7930      4.5887      4.5427      4.5655      4.6008    
  4.6163      4.6008      4.5655      4.5427      4.5887      4.7930      5.3007      6.3458      8.2885      11.634    
  16.997      25.073      36.357      50.756      67.439      84.945      101.54      115.68      126.26      132.72    
  107.34      105.35      99.502      90.186      78.164      64.567      50.756      38.052      27.426      19.314    
  13.611      9.8749      7.6258      6.4150      5.8773      5.7478      5.8444      6.0411      6.2476      6.3990    
  6.4542      6.3990      6.2476      6.0411      5.8444      5.7478      5.8773      6.4150      7.6258      9.8749    
  13.611      19.314      27.426      38.052      50.756      64.567      78.164      90.186      99.502      105.35    
  79.619      77.986      73.240      65.842      56.554      46.372      36.357      27.426      20.164      14.750    
  11.021      8.6926      7.4416      6.9584      6.9874      7.3311      7.8366      8.3798      8.8561      9.1804    
  9.2954      9.1804      8.8561      8.3798      7.8366      7.3311      6.9874      6.9584      7.4416      8.6926    
  11.021      14.750      20.164      27.426      36.357      46.372      56.554      65.842      73.240      77.986    
  55.083      53.884      50.430      45.137      38.643      31.709      25.073      19.314      14.750      11.441    
  9.3040      8.1744      7.8441      8.1080      8.7832      9.7097      10.743      11.745      12.585      13.145    
  13.342      13.145      12.585      11.745      10.743      9.7097      8.7832      8.1080      7.8441      8.1744    
  9.3040      11.441      14.750      19.314      25.073      31.709      38.643      45.137      50.430      53.884    
  35.827      35.037      32.781      29.374      25.276      20.996      16.997      13.611      11.021      9.3040    
  8.4414      8.3479      8.9037      9.9778      11.438      13.152      14.969      16.712      18.177      19.160    
  19.507      19.160      18.177      16.712      14.969      13.152      11.438      9.9778      8.9037      8.3479    
  8.4414      9.3040      11.021      13.611      16.997      20.996      25.276      29.374      32.781      35.037    
  22.299      21.833      20.509      18.537      16.205      13.815      11.634      9.8749      8.6926      8.1744    
  8.3479      9.1926      10.658      12.683      15.201      18.121      21.278      24.398      27.093      28.937    
  29.595      28.937      27.093      24.398      21.278      18.121      15.201      12.683      10.658      9.1926    
  8.3479      8.1744      8.6926      9.8749      11.634      13.815      16.205      18.537      20.509      21.833    
  13.648      13.400      12.701      11.672      10.476      9.2914      8.2885      7.6258      7.4416      7.8441    
  8.9037      10.658      13.136      16.384      20.456      25.347      30.858      36.501      41.504      44.985    
  46.235      44.985      41.504      36.501      30.858      25.347      20.456      16.384      13.136      10.658    
  8.9037      7.8441      7.4416      7.6258      8.2885      9.2914      10.476      11.672      12.701      13.400    
  8.4458      8.3291      8.0065      7.5486      7.0464      6.6041      6.3458      6.4150      6.9584      8.1080    
  9.9778      12.683      16.384      21.321      27.777      35.895      45.395      55.365      64.322      70.610    
  72.889      70.610      64.322      55.365      45.395      35.895      27.777      21.321      16.384      12.683    
  9.9778      8.1080      6.9584      6.4150      6.3458      6.6041      7.0464      7.5486      8.0065      8.3291    
  5.4687      5.4254      5.3182      5.1940      5.0983      5.0948      5.3007      5.8773      6.9874      8.7832    
  11.438      15.201      20.456      27.777      37.825      50.969      66.705      83.631      99.545      111.13    
  115.40      111.13      99.545      83.631      66.705      50.969      37.825      27.777      20.456      15.201    
  11.438      8.7832      6.9874      5.8773      5.3007      5.0948      5.0983      5.1940      5.3182      5.4254    
  3.8320      3.8231      3.8282      3.8947      4.0362      4.2897      4.7930      5.7478      7.3311      9.7097    
  13.152      18.121      25.347      35.895      50.969      71.170      96.429      125.19      152.66      172.57    
  179.84      172.57      152.66      125.19      96.429      71.170      50.969      35.895      25.347      18.121    
  13.152      9.7097      7.3311      5.7478      4.7930      4.2897      4.0362      3.8947      3.8282      3.8231    
  2.9530      2.9536      3.0099      3.1901      3.4787      3.8862      4.5887      5.8444      7.8366      10.743    
  14.969      21.278      30.858      45.395      66.705      96.429      135.62      180.28      221.89      251.20    
  261.72      251.20      221.89      180.28      135.62      96.429      66.705      45.395      30.858      21.278    
  14.969      10.743      7.8366      5.8444      4.5887      3.8862      3.4787      3.1901      3.0099      2.9536    
  2.4896      2.4851      2.5589      2.8131      3.2014      3.7036      4.5427      6.0411      8.3798      11.745    
  16.712      24.398      36.501      55.365      83.631      125.19      180.28      241.20      295.51      332.16    
  344.96      332.16      295.51      241.20      180.28      125.19      83.631      55.365      36.501      24.398    
  16.712      11.745      8.3798      6.0411      4.5427      3.7036      3.2014      2.8131      2.5589      2.4851    
  2.2543      2.2386      2.3132      2.6180      3.0763      3.6359      4.5655      6.2476      8.8561      12.585    
  18.177      27.093      41.504      64.322      99.545      152.66      221.89      295.51      357.90      397.88    
  411.38      397.88      357.90      295.51      221.89      152.66      99.545      64.322      41.504      27.093    
  18.177      12.585      8.8561      6.2476      4.5655      3.6359      3.0763      2.6180      2.3132      2.2386    
  2.1469      2.1209      2.1914      2.5273      3.0289      3.6195      4.6008      6.3990      9.1804      13.145    
  19.160      28.937      44.985      70.610      111.13      172.57      251.20      332.16      397.88      438.06    
  451.16      438.06      397.88      332.16      251.20      172.57      111.13      70.610      44.985      28.937    
  19.160      13.145      9.1804      6.3990      4.6008      3.6195      3.0289      2.5273      2.1914      2.1209    
  2.1165      2.0864      2.1548      2.5013      3.0178      3.6181      4.6163      6.4542      9.2954      13.342    
  19.507      29.595      46.235      72.889      115.40      179.84      261.72      344.96      411.38      451.16    
  463.92      451.16      411.38      344.96      261.72      179.84      115.40      72.889      46.235      29.595    
  19.507      13.342      9.2954      6.4542      4.6163      3.6181      3.0178      2.5013      2.1548      2.0864    