unknown system                          
   1.00000000000000     
     3.905268    0.000000    0.000000
     0.000000    3.905268    0.000000
     0.000000    0.000000    3.905268
   Sr   Ti   O 
     1     1     3
Direct
  0.000000  0.000000  0.000000
  0.500000  0.500000  0.500000
  0.500000  0.500000  0.000000
  0.500000  0.000000  0.500000
  0.000000  0.500000  0.500000
 
   40   40   40
 0.19327186278E+03 0.19321069482E+03 0.19214296565E+03 0.18784197974E+03 0.17784016277E+03
 0.16072948038E+03 0.13705533522E+03 0.10935056777E+03 0.81275411545E+02 0.56305241071E+02
 0.36634003714E+02 0.22776631967E+02 0.13901446229E+02 0.85653564822E+01 0.55136144444E+01
 0.38427046569E+01 0.29555934697E+01 0.24994034677E+01 0.22775822897E+01 0.21821205256E+01
 0.21563747429E+01 0.21821205256E+01 0.22775822897E+01 0.24994034677E+01 0.29555934697E+01
 0.38427046569E+01 0.55136144444E+01 0.85653564822E+01 0.13901446229E+02 0.22776631967E+02
 0.36634003714E+02 0.56305241071E+02 0.81275411545E+02 0.10935056777E+03 0.13705533522E+03
 0.16072948038E+03 0.17784016277E+03 0.18784197974E+03 0.19214296565E+03 0.19321069482E+03
 0.19321069482E+03 0.19299650299E+03 0.19151548479E+03 0.18666366944E+03 0.17613384158E+03
 0.15866461131E+03 0.13488854767E+03 0.10734305237E+03 0.79618866132E+02 0.55083108278E+02
 0.35826800507E+02 0.22299092803E+02 0.13647696874E+02 0.84458207176E+01 0.54687191874E+01
 0.38319757666E+01 0.29529723929E+01 0.24895938329E+01 0.22543001191E+01 0.21469171974E+01
 0.21164926159E+01 0.21469171974E+01 0.22543001191E+01 0.24895938329E+01 0.29529723929E+01
 0.38319757666E+01 0.54687191874E+01 0.84458207176E+01 0.13647696874E+02 0.22299092803E+02
 0.35826800507E+02 0.55083108278E+02 0.79618866132E+02 0.10734305237E+03 0.13488854767E+03
 0.15866461131E+03 0.17613384158E+03 0.18666366944E+03 0.19151548479E+03 0.19299650299E+03
 0.19214296565E+03 0.19151548479E+03 0.18892237470E+03 0.18260199044E+03 0.17069330105E+03
 0.15233965599E+03 0.12840745358E+03 0.10143313158E+03 0.74799287977E+02 0.51561047734E+02
 0.33519470189E+02 0.20943996061E+02 0.12932575372E+02 0.81157407025E+01 0.53581811748E+01
 0.38342061631E+01 0.30042870086E+01 0.25546093003E+01 0.23162764021E+01 0.22018036373E+01
 0.21681062680E+01 0.22018036373E+01 0.23162764021E+01 0.25546093003E+01 0.30042870086E+01
 0.38342061631E+01 0.53581811748E+01 0.81157407025E+01 0.12932575372E+02 0.20943996061E+02
 0.33519470189E+02 0.51561047734E+02 0.74799287977E+02 0.10143313158E+03 0.12840745358E+03
 0.15233965599E+03 0.17069330105E+03 0.18260199044E+03 0.18892237470E+03 0.19151548479E+03
 0.18784197974E+03 0.18666366944E+03 0.18260199044E+03 0.17438693819E+03 0.16079372381E+03
 0.14153144937E+03 0.11777147534E+03 0.92005973962E+02 0.67275668764E+02 0.46158886091E+02
 0.30033527542E+02 0.18923682349E+02 0.11879129212E+02 0.76472660712E+01 0.52308530250E+01
 0.39003643722E+01 0.31839229312E+01 0.28063502548E+01 0.26161629441E+01 0.25308338571E+01
 0.25070591928E+01 0.25308338571E+01 0.26161629441E+01 0.28063502548E+01 0.31839229312E+01
 0.39003643722E+01 0.52308530250E+01 0.76472660712E+01 0.11879129212E+02 0.18923682349E+02
 0.30033527542E+02 0.46158886091E+02 0.67275668764E+02 0.92005973962E+02 0.11777147534E+03
 0.14153144937E+03 0.16079372381E+03 0.17438693819E+03 0.18260199044E+03 0.18666366944E+03
 0.17784016277E+03 0.17613384158E+03 0.17069330105E+03 0.16079372381E+03 0.14590457299E+03
 0.12632768058E+03 0.10350933697E+03 0.79810396667E+02 0.57814616260E+02 0.39522939908E+02
 0.25836221829E+02 0.16532644195E+02 0.10654520189E+02 0.71331207562E+01 0.51328527335E+01
 0.40439410286E+01 0.34754229284E+01 0.31965148463E+01 0.30744025209E+01 0.30308114001E+01
 0.30212818379E+01 0.30308114001E+01 0.30744025209E+01 0.31965148463E+01 0.34754229284E+01
 0.40439410286E+01 0.51328527335E+01 0.71331207562E+01 0.10654520189E+02 0.16532644195E+02
 0.25836221829E+02 0.39522939908E+02 0.57814616260E+02 0.79810396667E+02 0.10350933697E+03
 0.12632768058E+03 0.14590457299E+03 0.16079372381E+03 0.17069330105E+03 0.17613384158E+03
 0.16072948038E+03 0.15866461131E+03 0.15233965599E+03 0.14153144937E+03 0.12632768058E+03
 0.10751639292E+03 0.86695426444E+02 0.65980277596E+02 0.47422506305E+02 0.32426626695E+02
 0.21448823645E+02 0.14082010584E+02 0.94396436560E+01 0.66797928420E+01 0.51289498628E+01
 0.43017165815E+01 0.38878257611E+01 0.37018448202E+01 0.36344264239E+01 0.36194265711E+01
 0.36187282660E+01 0.36194265711E+01 0.36344264239E+01 0.37018448202E+01 0.38878257611E+01
 0.43017165815E+01 0.51289498628E+01 0.66797928420E+01 0.94396436560E+01 0.14082010584E+02
 0.21448823645E+02 0.32426626695E+02 0.47422506305E+02 0.65980277596E+02 0.86695426444E+02
 0.10751639292E+03 0.12632768058E+03 0.14153144937E+03 0.15233965599E+03 0.15866461131E+03
 0.13705533522E+03 0.13488854767E+03 0.12840745358E+03 0.11777147534E+03 0.10350933697E+03
 0.86695426444E+02 0.68903908171E+02 0.51898604861E+02 0.37183015366E+02 0.25627555621E+02
 0.17345533098E+02 0.11844060723E+02 0.84103533680E+01 0.64146480803E+01 0.53395907463E+01
 0.48157872817E+01 0.46035585663E+01 0.45543878182E+01 0.45764141029E+01 0.46120020585E+01
 0.46276294214E+01 0.46120020585E+01 0.45764141029E+01 0.45543878182E+01 0.46035585663E+01
 0.48157872817E+01 0.53395907463E+01 0.64146480803E+01 0.84103533680E+01 0.11844060723E+02
 0.17345533098E+02 0.25627555621E+02 0.37183015366E+02 0.51898604861E+02 0.68903908171E+02
 0.86695426444E+02 0.10350933697E+03 0.11777147534E+03 0.12840745358E+03 0.13488854767E+03
 0.10935056777E+03 0.10734305237E+03 0.10143313158E+03 0.92005973962E+02 0.79810396667E+02
 0.65980277596E+02 0.51898604861E+02 0.38915926859E+02 0.28037058907E+02 0.19720241888E+02
 0.13871191263E+02 0.10038045196E+02 0.77290209102E+01 0.64845011775E+01 0.59297330028E+01
 0.57932150242E+01 0.58884121440E+01 0.60866004899E+01 0.62956249846E+01 0.64491527388E+01
 0.65052003150E+01 0.64491527388E+01 0.62956249846E+01 0.60866004899E+01 0.58884121440E+01
 0.57932150242E+01 0.59297330028E+01 0.64845011775E+01 0.77290209102E+01 0.10038045196E+02
 0.13871191263E+02 0.19720241888E+02 0.28037058907E+02 0.38915926859E+02 0.51898604861E+02
 0.65980277596E+02 0.79810396667E+02 0.92005973962E+02 0.10143313158E+03 0.10734305237E+03
 0.81275411545E+02 0.79618866132E+02 0.74799287977E+02 0.67275668764E+02 0.57814616260E+02
 0.47422506305E+02 0.37183015366E+02 0.28037058907E+02 0.20591563632E+02 0.15037513573E+02
 0.11212527459E+02 0.88224815048E+01 0.75370100500E+01 0.70382775654E+01 0.70638009083E+01
 0.74111558380E+01 0.79241330041E+01 0.84762966977E+01 0.89610270576E+01 0.92914742314E+01
 0.94086670960E+01 0.92914742314E+01 0.89610270576E+01 0.84762966977E+01 0.79241330041E+01
 0.74111558380E+01 0.70638009083E+01 0.70382775654E+01 0.75370100500E+01 0.88224815048E+01
 0.11212527459E+02 0.15037513573E+02 0.20591563632E+02 0.28037058907E+02 0.37183015366E+02
 0.47422506305E+02 0.57814616260E+02 0.67275668764E+02 0.74799287977E+02 0.79618866132E+02
 0.56305241071E+02 0.55083108278E+02 0.51561047734E+02 0.46158886091E+02 0.39522939908E+02
 0.32426626695E+02 0.25627555621E+02 0.19720241888E+02 0.15037513573E+02 0.11642028071E+02
 0.94483361858E+01 0.82869279119E+01 0.79441593302E+01 0.82091903661E+01 0.88943095048E+01
 0.98362009283E+01 0.10887805107E+02 0.11909309206E+02 0.12765958599E+02 0.13337679709E+02
 0.13538722596E+02 0.13337679709E+02 0.12765958599E+02 0.11909309206E+02 0.10887805107E+02
 0.98362009283E+01 0.88943095048E+01 0.82091903661E+01 0.79441593302E+01 0.82869279119E+01
 0.94483361858E+01 0.11642028071E+02 0.15037513573E+02 0.19720241888E+02 0.25627555621E+02
 0.32426626695E+02 0.39522939908E+02 0.46158886091E+02 0.51561047734E+02 0.55083108278E+02
 0.36634003714E+02 0.35826800507E+02 0.33519470189E+02 0.30033527542E+02 0.25836221829E+02
 0.21448823645E+02 0.17345533098E+02 0.13871191263E+02 0.11212527459E+02 0.94483361858E+01
 0.85598512497E+01 0.84586789339E+01 0.90212917719E+01 0.10113178754E+02 0.11600419480E+02
 0.13347449340E+02 0.15203317386E+02 0.16986969722E+02 0.18488361949E+02 0.19497148930E+02
 0.19853448973E+02 0.19497148930E+02 0.18488361949E+02 0.16986969722E+02 0.15203317386E+02
 0.13347449340E+02 0.11600419480E+02 0.10113178754E+02 0.90212917719E+01 0.84586789339E+01
 0.85598512497E+01 0.94483361858E+01 0.11212527459E+02 0.13871191263E+02 0.17345533098E+02
 0.21448823645E+02 0.25836221829E+02 0.30033527542E+02 0.33519470189E+02 0.35826800507E+02
 0.22776631967E+02 0.22299092803E+02 0.20943996061E+02 0.18923682349E+02 0.16532644195E+02
 0.14082010584E+02 0.11844060723E+02 0.10038045196E+02 0.88224815048E+01 0.82869279119E+01
 0.84586789339E+01 0.93159026998E+01 0.10807074593E+02 0.12871067710E+02 0.15443360880E+02
 0.18433585836E+02 0.21676886532E+02 0.24888833244E+02 0.27668029383E+02 0.29572691942E+02
 0.30252253533E+02 0.29572691942E+02 0.27668029383E+02 0.24888833244E+02 0.21676886532E+02
 0.18433585836E+02 0.15443360880E+02 0.12871067710E+02 0.10807074593E+02 0.93159026998E+01
 0.84586789339E+01 0.82869279119E+01 0.88224815048E+01 0.10038045196E+02 0.11844060723E+02
 0.14082010584E+02 0.16532644195E+02 0.18923682349E+02 0.20943996061E+02 0.22299092803E+02
 0.13901446229E+02 0.13647696874E+02 0.12932575372E+02 0.11879129212E+02 0.10654520189E+02
 0.94396436560E+01 0.84103533680E+01 0.77290209102E+01 0.75370100500E+01 0.79441593302E+01
 0.90212917719E+01 0.10807074593E+02 0.13333521732E+02 0.16653369379E+02 0.20831167905E+02
 0.25865484199E+02 0.31556594460E+02 0.37396550723E+02 0.42581146870E+02 0.46191249909E+02
 0.47488929047E+02 0.46191249909E+02 0.42581146870E+02 0.37396550723E+02 0.31556594460E+02
 0.25865484199E+02 0.20831167905E+02 0.16653369379E+02 0.13333521732E+02 0.10807074593E+02
 0.90212917719E+01 0.79441593302E+01 0.75370100500E+01 0.77290209102E+01 0.84103533680E+01
 0.94396436560E+01 0.10654520189E+02 0.11879129212E+02 0.12932575372E+02 0.13647696874E+02
 0.85653564822E+01 0.84458207176E+01 0.81157407025E+01 0.76472660712E+01 0.71331207562E+01
 0.66797928420E+01 0.64146480803E+01 0.64845011775E+01 0.70382775654E+01 0.82091903661E+01
 0.10113178754E+02 0.12871067710E+02 0.16653369379E+02 0.21718565167E+02 0.28370259658E+02
 0.36764801699E+02 0.46612869213E+02 0.56961530556E+02 0.66263622022E+02 0.72812558427E+02
 0.75191262638E+02 0.72812558427E+02 0.66263622022E+02 0.56961530556E+02 0.46612869213E+02
 0.36764801699E+02 0.28370259658E+02 0.21718565167E+02 0.16653369379E+02 0.12871067710E+02
 0.10113178754E+02 0.82091903661E+01 0.70382775654E+01 0.64845011775E+01 0.64146480803E+01
 0.66797928420E+01 0.71331207562E+01 0.76472660712E+01 0.81157407025E+01 0.84458207176E+01
 0.55136144444E+01 0.54687191874E+01 0.53581811748E+01 0.52308530250E+01 0.51328527335E+01
 0.51289498628E+01 0.53395907463E+01 0.59297330028E+01 0.70638009083E+01 0.88943095048E+01
 0.11600419480E+02 0.15443360880E+02 0.20831167905E+02 0.28370259658E+02 0.38763077166E+02
 0.52395701490E+02 0.68742588659E+02 0.86426558805E+02 0.10311663481E+03 0.11528403602E+03
 0.11976010438E+03 0.11528403602E+03 0.10311663481E+03 0.86426558805E+02 0.68742588659E+02
 0.52395701490E+02 0.38763077166E+02 0.28370259658E+02 0.20831167905E+02 0.15443360880E+02
 0.11600419480E+02 0.88943095048E+01 0.70638009083E+01 0.59297330028E+01 0.53395907463E+01
 0.51289498628E+01 0.51328527335E+01 0.52308530250E+01 0.53581811748E+01 0.54687191874E+01
 0.38427046569E+01 0.38319757666E+01 0.38342061631E+01 0.39003643722E+01 0.40439410286E+01
 0.43017165815E+01 0.48157872817E+01 0.57932150242E+01 0.74111558380E+01 0.98362009283E+01
 0.13347449340E+02 0.18433585836E+02 0.25865484199E+02 0.36764801699E+02 0.52395701490E+02
 0.73397204220E+02 0.99849699390E+02 0.13004796736E+03 0.15886360210E+03 0.17970906610E+03
 0.18731590566E+03 0.17970906610E+03 0.15886360210E+03 0.13004796736E+03 0.99849699390E+02
 0.73397204220E+02 0.52395701490E+02 0.36764801699E+02 0.25865484199E+02 0.18433585836E+02
 0.13347449340E+02 0.98362009283E+01 0.74111558380E+01 0.57932150242E+01 0.48157872817E+01
 0.43017165815E+01 0.40439410286E+01 0.39003643722E+01 0.38342061631E+01 0.38319757666E+01
 0.29555934697E+01 0.29529723929E+01 0.30042870086E+01 0.31839229312E+01 0.34754229284E+01
 0.38878257611E+01 0.46035585663E+01 0.58884121440E+01 0.79241330041E+01 0.10887805107E+02
 0.15203317386E+02 0.21676886532E+02 0.31556594460E+02 0.46612869213E+02 0.68742588659E+02
 0.99849699390E+02 0.14100462282E+03 0.18778946004E+03 0.23117944427E+03 0.26160507062E+03
 0.27249184957E+03 0.26160507062E+03 0.23117944427E+03 0.18778946004E+03 0.14100462282E+03
 0.99849699390E+02 0.68742588659E+02 0.46612869213E+02 0.31556594460E+02 0.21676886532E+02
 0.15203317386E+02 0.10887805107E+02 0.79241330041E+01 0.58884121440E+01 0.46035585663E+01
 0.38878257611E+01 0.34754229284E+01 0.31839229312E+01 0.30042870086E+01 0.29529723929E+01
 0.24994034677E+01 0.24895938329E+01 0.25546093003E+01 0.28063502548E+01 0.31965148463E+01
 0.37018448202E+01 0.45543878182E+01 0.60866004899E+01 0.84762966977E+01 0.11909309206E+02
 0.16986969722E+02 0.24888833244E+02 0.37396550723E+02 0.56961530556E+02 0.86426558805E+02
 0.13004796736E+03 0.18778946004E+03 0.25124259617E+03 0.30735706479E+03 0.34492265577E+03
 0.35797496259E+03 0.34492265577E+03 0.30735706479E+03 0.25124259617E+03 0.18778946004E+03
 0.13004796736E+03 0.86426558805E+02 0.56961530556E+02 0.37396550723E+02 0.24888833244E+02
 0.16986969722E+02 0.11909309206E+02 0.84762966977E+01 0.60866004899E+01 0.45543878182E+01
 0.37018448202E+01 0.31965148463E+01 0.28063502548E+01 0.25546093003E+01 0.24895938329E+01
 0.22775822897E+01 0.22543001191E+01 0.23162764021E+01 0.26161629441E+01 0.30744025209E+01
 0.36344264239E+01 0.45764141029E+01 0.62956249846E+01 0.89610270576E+01 0.12765958599E+02
 0.18488361949E+02 0.27668029383E+02 0.42581146870E+02 0.66263622022E+02 0.10311663481E+03
 0.15886360210E+03 0.23117944427E+03 0.30735706479E+03 0.37111898771E+03 0.41144532964E+03
 0.42492480145E+03 0.41144532964E+03 0.37111898771E+03 0.30735706479E+03 0.23117944427E+03
 0.15886360210E+03 0.10311663481E+03 0.66263622022E+02 0.42581146870E+02 0.27668029383E+02
 0.18488361949E+02 0.12765958599E+02 0.89610270576E+01 0.62956249846E+01 0.45764141029E+01
 0.36344264239E+01 0.30744025209E+01 0.26161629441E+01 0.23162764021E+01 0.22543001191E+01
 0.21821205256E+01 0.21469171974E+01 0.22018036373E+01 0.25308338571E+01 0.30308114001E+01
 0.36194265711E+01 0.46120020585E+01 0.64491527388E+01 0.92914742314E+01 0.13337679709E+02
 0.19497148930E+02 0.29572691942E+02 0.46191249909E+02 0.72812558427E+02 0.11528403602E+03
 0.17970906610E+03 0.26160507062E+03 0.34492265577E+03 0.41144532964E+03 0.45132350158E+03
 0.46413124000E+03 0.45132350158E+03 0.41144532964E+03 0.34492265577E+03 0.26160507062E+03
 0.17970906610E+03 0.11528403602E+03 0.72812558427E+02 0.46191249909E+02 0.29572691942E+02
 0.19497148930E+02 0.13337679709E+02 0.92914742314E+01 0.64491527388E+01 0.46120020585E+01
 0.36194265711E+01 0.30308114001E+01 0.25308338571E+01 0.22018036373E+01 0.21469171974E+01
 0.21563747429E+01 0.21164926159E+01 0.21681062680E+01 0.25070591928E+01 0.30212818379E+01
 0.36187282660E+01 0.46276294214E+01 0.65052003150E+01 0.94086670960E+01 0.13538722596E+02
 0.19853448973E+02 0.30252253533E+02 0.47488929047E+02 0.75191262638E+02 0.11976010438E+03
 0.18731590566E+03 0.27249184957E+03 0.35797496259E+03 0.42492480145E+03 0.46413124000E+03
 0.47649063282E+03 0.46413124000E+03 0.42492480145E+03 0.35797496259E+03 0.27249184957E+03
 0.18731590566E+03 0.11976010438E+03 0.75191262638E+02 0.47488929047E+02 0.30252253533E+02
 0.19853448973E+02 0.13538722596E+02 0.94086670960E+01 0.65052003150E+01 0.46276294214E+01
 0.36187282660E+01 0.30212818379E+01 0.25070591928E+01 0.21681062680E+01 0.21164926159E+01
 0.21821205256E+01 0.21469171974E+01 0.22018036373E+01 0.25308338571E+01 0.30308114001E+01
 0.36194265711E+01 0.46120020585E+01 0.64491527388E+01 0.92914742314E+01 0.13337679709E+02
 0.19497148930E+02 0.29572691942E+02 0.46191249909E+02 0.72812558427E+02 0.11528403602E+03
 0.17970906610E+03 0.26160507062E+03 0.34492265577E+03 0.41144532964E+03 0.45132350158E+03
 0.46413124000E+03 0.45132350158E+03 0.41144532964E+03 0.34492265577E+03 0.26160507062E+03
 0.17970906610E+03 0.11528403602E+03 0.72812558427E+02 0.46191249909E+02 0.29572691942E+02
 0.19497148930E+02 0.13337679709E+02 0.92914742314E+01 0.64491527388E+01 0.46120020585E+01
 0.36194265711E+01 0.30308114001E+01 0.25308338571E+01 0.22018036373E+01 0.21469171974E+01
 0.22775822897E+01 0.22543001191E+01 0.23162764021E+01 0.26161629441E+01 0.30744025209E+01
 0.36344264239E+01 0.45764141029E+01 0.62956249846E+01 0.89610270576E+01 0.12765958599E+02
 0.18488361949E+02 0.27668029383E+02 0.42581146870E+02 0.66263622022E+02 0.10311663481E+03
 0.15886360210E+03 0.23117944427E+03 0.30735706479E+03 0.37111898771E+03 0.41144532964E+03
 0.42492480145E+03 0.41144532964E+03 0.37111898771E+03 0.30735706479E+03 0.23117944427E+03
 0.15886360210E+03 0.10311663481E+03 0.66263622022E+02 0.42581146870E+02 0.27668029383E+02
 0.18488361949E+02 0.12765958599E+02 0.89610270576E+01 0.62956249846E+01 0.45764141029E+01
 0.36344264239E+01 0.30744025209E+01 0.26161629441E+01 0.23162764021E+01 0.22543001191E+01
 0.24994034677E+01 0.24895938329E+01 0.25546093003E+01 0.28063502548E+01 0.31965148463E+01
 0.37018448202E+01 0.45543878182E+01 0.60866004899E+01 0.84762966977E+01 0.11909309206E+02
 0.16986969722E+02 0.24888833244E+02 0.37396550723E+02 0.56961530556E+02 0.86426558805E+02
 0.13004796736E+03 0.18778946004E+03 0.25124259617E+03 0.30735706479E+03 0.34492265577E+03
 0.35797496259E+03 0.34492265577E+03 0.30735706479E+03 0.25124259617E+03 0.18778946004E+03
 0.13004796736E+03 0.86426558805E+02 0.56961530556E+02 0.37396550723E+02 0.24888833244E+02
 0.16986969722E+02 0.11909309206E+02 0.84762966977E+01 0.60866004899E+01 0.45543878182E+01
 0.37018448202E+01 0.31965148463E+01 0.28063502548E+01 0.25546093003E+01 0.24895938329E+01
 0.29555934697E+01 0.29529723929E+01 0.30042870086E+01 0.31839229312E+01 0.34754229284E+01
 0.38878257611E+01 0.46035585663E+01 0.58884121440E+01 0.79241330041E+01 0.10887805107E+02
 0.15203317386E+02 0.21676886532E+02 0.31556594460E+02 0.46612869213E+02 0.68742588659E+02
 0.99849699390E+02 0.14100462282E+03 0.18778946004E+03 0.23117944427E+03 0.26160507062E+03
 0.27249184957E+03 0.26160507062E+03 0.23117944427E+03 0.18778946004E+03 0.14100462282E+03
 0.99849699390E+02 0.68742588659E+02 0.46612869213E+02 0.31556594460E+02 0.21676886532E+02
 0.15203317386E+02 0.10887805107E+02 0.79241330041E+01 0.58884121440E+01 0.46035585663E+01
 0.38878257611E+01 0.34754229284E+01 0.31839229312E+01 0.30042870086E+01 0.29529723929E+01
 0.38427046569E+01 0.38319757666E+01 0.38342061631E+01 0.39003643722E+01 0.40439410286E+01
 0.43017165815E+01 0.48157872817E+01 0.57932150242E+01 0.74111558380E+01 0.98362009283E+01
 0.13347449340E+02 0.18433585836E+02 0.25865484199E+02 0.36764801699E+02 0.52395701490E+02
 0.73397204220E+02 0.99849699390E+02 0.13004796736E+03 0.15886360210E+03 0.17970906610E+03
 0.18731590566E+03 0.17970906610E+03 0.15886360210E+03 0.13004796736E+03 0.99849699390E+02
 0.73397204220E+02 0.52395701490E+02 0.36764801699E+02 0.25865484199E+02 0.18433585836E+02
 0.13347449340E+02 0.98362009283E+01 0.74111558380E+01 0.57932150242E+01 0.48157872817E+01
 0.43017165815E+01 0.40439410286E+01 0.39003643722E+01 0.38342061631E+01 0.38319757666E+01
 0.55136144444E+01 0.54687191874E+01 0.53581811748E+01 0.52308530250E+01 0.51328527335E+01
 0.51289498628E+01 0.53395907463E+01 0.59297330028E+01 0.70638009083E+01 0.88943095048E+01
 0.11600419480E+02 0.15443360880E+02 0.20831167905E+02 0.28370259658E+02 0.38763077166E+02
 0.52395701490E+02 0.68742588659E+02 0.86426558805E+02 0.10311663481E+03 0.11528403602E+03
 0.11976010438E+03 0.11528403602E+03 0.10311663481E+03 0.86426558805E+02 0.68742588659E+02
 0.52395701490E+02 0.38763077166E+02 0.28370259658E+02 0.20831167905E+02 0.15443360880E+02
 0.11600419480E+02 0.88943095048E+01 0.70638009083E+01 0.59297330028E+01 0.53395907463E+01
 0.51289498628E+01 0.51328527335E+01 0.52308530250E+01 0.53581811748E+01 0.54687191874E+01
 0.85653564822E+01 0.84458207176E+01 0.81157407025E+01 0.76472660712E+01 0.71331207562E+01
 0.66797928420E+01 0.64146480803E+01 0.64845011775E+01 0.70382775654E+01 0.82091903661E+01
 0.10113178754E+02 0.12871067710E+02 0.16653369379E+02 0.21718565167E+02 0.28370259658E+02
 0.36764801699E+02 0.46612869213E+02 0.56961530556E+02 0.66263622022E+02 0.72812558427E+02
 0.75191262638E+02 0.72812558427E+02 0.66263622022E+02 0.56961530556E+02 0.46612869213E+02
 0.36764801699E+02 0.28370259658E+02 0.21718565167E+02 0.16653369379E+02 0.12871067710E+02
 0.10113178754E+02 0.82091903661E+01 0.70382775654E+01 0.64845011775E+01 0.64146480803E+01
 0.66797928420E+01 0.71331207562E+01 0.76472660712E+01 0.81157407025E+01 0.84458207176E+01
 0.13901446229E+02 0.13647696874E+02 0.12932575372E+02 0.11879129212E+02 0.10654520189E+02
 0.94396436560E+01 0.84103533680E+01 0.77290209102E+01 0.75370100500E+01 0.79441593302E+01
 0.90212917719E+01 0.10807074593E+02 0.13333521732E+02 0.16653369379E+02 0.20831167905E+02
 0.25865484199E+02 0.31556594460E+02 0.37396550723E+02 0.42581146870E+02 0.46191249909E+02
 0.47488929047E+02 0.46191249909E+02 0.42581146870E+02 0.37396550723E+02 0.31556594460E+02
 0.25865484199E+02 0.20831167905E+02 0.16653369379E+02 0.13333521732E+02 0.10807074593E+02
 0.90212917719E+01 0.79441593302E+01 0.75370100500E+01 0.77290209102E+01 0.84103533680E+01
 0.94396436560E+01 0.10654520189E+02 0.11879129212E+02 0.12932575372E+02 0.13647696874E+02
 0.22776631967E+02 0.22299092803E+02 0.20943996061E+02 0.18923682349E+02 0.16532644195E+02
 0.14082010584E+02 0.11844060723E+02 0.10038045196E+02 0.88224815048E+01 0.82869279119E+01
 0.84586789339E+01 0.93159026998E+01 0.10807074593E+02 0.12871067710E+02 0.15443360880E+02
 0.18433585836E+02 0.21676886532E+02 0.24888833244E+02 0.27668029383E+02 0.29572691942E+02
 0.30252253533E+02 0.29572691942E+02 0.27668029383E+02 0.24888833244E+02 0.21676886532E+02
 0.18433585836E+02 0.15443360880E+02 0.12871067710E+02 0.10807074593E+02 0.93159026998E+01
 0.84586789339E+01 0.82869279119E+01 0.88224815048E+01 0.10038045196E+02 0.11844060723E+02
 0.14082010584E+02 0.16532644195E+02 0.18923682349E+02 0.20943996061E+02 0.22299092803E+02
 0.36634003714E+02 0.35826800507E+02 0.33519470189E+02 0.30033527542E+02 0.25836221829E+02
 0.21448823645E+02 0.17345533098E+02 0.13871191263E+02 0.11212527459E+02 0.94483361858E+01
 0.85598512497E+01 0.84586789339E+01 0.90212917719E+01 0.10113178754E+02 0.11600419480E+02
 0.13347449340E+02 0.15203317386E+02 0.16986969722E+02 0.18488361949E+02 0.19497148930E+02
 0.19853448973E+02 0.19497148930E+02 0.18488361949E+02 0.16986969722E+02 0.15203317386E+02
 0.13347449340E+02 0.11600419480E+02 0.10113178754E+02 0.90212917719E+01 0.84586789339E+01
 0.85598512497E+01 0.94483361858E+01 0.11212527459E+02 0.13871191263E+02 0.17345533098E+02
 0.21448823645E+02 0.25836221829E+02 0.30033527542E+02 0.33519470189E+02 0.35826800507E+02
 0.56305241071E+02 0.55083108278E+02 0.51561047734E+02 0.46158886091E+02 0.39522939908E+02
 0.32426626695E+02 0.25627555621E+02 0.19720241888E+02 0.15037513573E+02 0.11642028071E+02
 0.94483361858E+01 0.82869279119E+01 0.79441593302E+01 0.82091903661E+01 0.88943095048E+01
 0.98362009283E+01 0.10887805107E+02 0.11909309206E+02 0.12765958599E+02 0.13337679709E+02
 0.13538722596E+02 0.13337679709E+02 0.12765958599E+02 0.11909309206E+02 0.10887805107E+02
 0.98362009283E+01 0.88943095048E+01 0.82091903661E+01 0.79441593302E+01 0.82869279119E+01
 0.94483361858E+01 0.11642028071E+02 0.15037513573E+02 0.19720241888E+02 0.25627555621E+02
 0.32426626695E+02 0.39522939908E+02 0.46158886091E+02 0.51561047734E+02 0.55083108278E+02
 0.81275411545E+02 0.79618866132E+02 0.74799287977E+02 0.67275668764E+02 0.57814616260E+02
 0.47422506305E+02 0.37183015366E+02 0.28037058907E+02 0.20591563632E+02 0.15037513573E+02
 0.11212527459E+02 0.88224815048E+01 0.75370100500E+01 0.70382775654E+01 0.70638009083E+01
 0.74111558380E+01 0.79241330041E+01 0.84762966977E+01 0.89610270576E+01 0.92914742314E+01
 0.94086670960E+01 0.92914742314E+01 0.89610270576E+01 0.84762966977E+01 0.79241330041E+01
 0.74111558380E+01 0.70638009083E+01 0.70382775654E+01 0.75370100500E+01 0.88224815048E+01
 0.11212527459E+02 0.15037513573E+02 0.20591563632E+02 0.28037058907E+02 0.37183015366E+02
 0.47422506305E+02 0.57814616260E+02 0.67275668764E+02 0.74799287977E+02 0.79618866132E+02
 0.10935056777E+03 0.10734305237E+03 0.10143313158E+03 0.92005973962E+02 0.79810396667E+02
 0.65980277596E+02 0.51898604861E+02 0.38915926859E+02 0.28037058907E+02 0.19720241888E+02
 0.13871191263E+02 0.10038045196E+02 0.77290209102E+01 0.64845011775E+01 0.59297330028E+01
 0.57932150242E+01 0.58884121440E+01 0.60866004899E+01 0.62956249846E+01 0.64491527388E+01
 0.65052003150E+01 0.64491527388E+01 0.62956249846E+01 0.60866004899E+01 0.58884121440E+01
 0.57932150242E+01 0.59297330028E+01 0.64845011775E+01 0.77290209102E+01 0.10038045196E+02
 0.13871191263E+02 0.19720241888E+02 0.28037058907E+02 0.38915926859E+02 0.51898604861E+02
 0.65980277596E+02 0.79810396667E+02 0.92005973962E+02 0.10143313158E+03 0.10734305237E+03
 0.13705533522E+03 0.13488854767E+03 0.12840745358E+03 0.11777147534E+03 0.10350933697E+03
 0.86695426444E+02 0.68903908171E+02 0.51898604861E+02 0.37183015366E+02 0.25627555621E+02
 0.17345533098E+02 0.11844060723E+02 0.84103533680E+01 0.64146480803E+01 0.53395907463E+01
 0.48157872817E+01 0.46035585663E+01 0.45543878182E+01 0.45764141029E+01 0.46120020585E+01
 0.46276294214E+01 0.46120020585E+01 0.45764141029E+01 0.45543878182E+01 0.46035585663E+01
 0.48157872817E+01 0.53395907463E+01 0.64146480803E+01 0.84103533680E+01 0.11844060723E+02
 0.17345533098E+02 0.25627555621E+02 0.37183015366E+02 0.51898604861E+02 0.68903908171E+02
 0.86695426444E+02 0.10350933697E+03 0.11777147534E+03 0.12840745358E+03 0.13488854767E+03
 0.16072948038E+03 0.15866461131E+03 0.15233965599E+03 0.14153144937E+03 0.12632768058E+03
 0.10751639292E+03 0.86695426444E+02 0.65980277596E+02 0.47422506305E+02 0.32426626695E+02
 0.21448823645E+02 0.14082010584E+02 0.94396436560E+01 0.66797928420E+01 0.51289498628E+01
 0.43017165815E+01 0.38878257611E+01 0.37018448202E+01 0.36344264239E+01 0.36194265711E+01
 0.36187282660E+01 0.36194265711E+01 0.36344264239E+01 0.37018448202E+01 0.38878257611E+01
 0.43017165815E+01 0.51289498628E+01 0.66797928420E+01 0.94396436560E+01 0.14082010584E+02
 0.21448823645E+02 0.32426626695E+02 0.47422506305E+02 0.65980277596E+02 0.86695426444E+02
 0.10751639292E+03 0.12632768058E+03 0.14153144937E+03 0.15233965599E+03 0.15866461131E+03
 0.17784016277E+03 0.17613384158E+03 0.17069330105E+03 0.16079372381E+03 0.14590457299E+03
 0.12632768058E+03 0.10350933697E+03 0.79810396667E+02 0.57814616260E+02 0.39522939908E+02
 0.25836221829E+02 0.16532644195E+02 0.10654520189E+02 0.71331207562E+01 0.51328527335E+01
 0.40439410286E+01 0.34754229284E+01 0.31965148463E+01 0.30744025209E+01 0.30308114001E+01
 0.30212818379E+01 0.30308114001E+01 0.30744025209E+01 0.31965148463E+01 0.34754229284E+01
 0.40439410286E+01 0.51328527335E+01 0.71331207562E+01 0.10654520189E+02 0.16532644195E+02
 0.25836221829E+02 0.39522939908E+02 0.57814616260E+02 0.79810396667E+02 0.10350933697E+03
 0.12632768058E+03 0.14590457299E+03 0.16079372381E+03 0.17069330105E+03 0.17613384158E+03
 0.18784197974E+03 0.18666366944E+03 0.18260199044E+03 0.17438693819E+03 0.16079372381E+03
 0.14153144937E+03 0.11777147534E+03 0.92005973962E+02 0.67275668764E+02 0.46158886091E+02
 0.30033527542E+02 0.18923682349E+02 0.11879129212E+02 0.76472660712E+01 0.52308530250E+01
 0.39003643722E+01 0.31839229312E+01 0.28063502548E+01 0.26161629441E+01 0.25308338571E+01
 0.25070591928E+01 0.25308338571E+01 0.26161629441E+01 0.28063502548E+01 0.31839229312E+01
 0.39003643722E+01 0.52308530250E+01 0.76472660712E+01 0.11879129212E+02 0.18923682349E+02
 0.30033527542E+02 0.46158886091E+02 0.67275668764E+02 0.92005973962E+02 0.11777147534E+03
 0.14153144937E+03 0.16079372381E+03 0.17438693819E+03 0.18260199044E+03 0.18666366944E+03
 0.19214296565E+03 0.19151548479E+03 0.18892237470E+03 0.18260199044E+03 0.17069330105E+03
 0.15233965599E+03 0.12840745358E+03 0.10143313158E+03 0.74799287977E+02 0.51561047734E+02
 0.33519470189E+02 0.20943996061E+02 0.12932575372E+02 0.81157407025E+01 0.53581811748E+01
 0.38342061631E+01 0.30042870086E+01 0.25546093003E+01 0.23162764021E+01 0.22018036373E+01
 0.21681062680E+01 0.22018036373E+01 0.23162764021E+01 0.25546093003E+01 0.30042870086E+01
 0.38342061631E+01 0.53581811748E+01 0.81157407025E+01 0.12932575372E+02 0.20943996061E+02
 0.33519470189E+02 0.51561047734E+02 0.74799287977E+02 0.10143313158E+03 0.12840745358E+03
 0.15233965599E+03 0.17069330105E+03 0.18260199044E+03 0.18892237470E+03 0.19151548479E+03
 0.19321069482E+03 0.19299650299E+03 0.19151548479E+03 0.18666366944E+03 0.17613384158E+03
 0.15866461131E+03 0.13488854767E+03 0.10734305237E+03 0.79618866132E+02 0.55083108278E+02
 0.35826800507E+02 0.22299092803E+02 0.13647696874E+02 0.84458207176E+01 0.54687191874E+01
 0.38319757666E+01 0.29529723929E+01 0.24895938329E+01 0.22543001191E+01 0.21469171974E+01
 0.21164926159E+01 0.21469171974E+01 0.22543001191E+01 0.24895938329E+01 0.29529723929E+01
 0.38319757666E+01 0.54687191874E+01 0.84458207176E+01 0.13647696874E+02 0.22299092803E+02
 0.35826800507E+02 0.55083108278E+02 0.79618866132E+02 0.10734305237E+03 0.13488854767E+03
 0.15866461131E+03 0.17613384158E+03 0.18666366944E+03 0.19151548479E+03 0.19299650299E+03
 0.19321069482E+03 0.19299650299E+03 0.19151548479E+03 0.18666366944E+03 0.17613384158E+03
 0.15866461131E+03 0.13488854767E+03 0.10734305237E+03 0.79618866132E+02 0.55083108278E+02
 0.35826800507E+02 0.22299092803E+02 0.13647696874E+02 0.84458207176E+01 0.54687191874E+01
 0.38319757666E+01 0.29529723929E+01 0.24895938329E+01 0.22543001191E+01 0.21469171974E+01
 0.21164926159E+01 0.21469171974E+01 0.22543001191E+01 0.24895938329E+01 0.29529723929E+01