   5   5   0   0
  0.1191194E+02  0.3905268E-09  0.3905268E-09  0.3905268E-09  0.5000000E-15
  1.000000000000000E-004
  CAR 
 unknown system                          
     12.62681587    -32.11736926  301      2.55937421      1.00000000
    -32.117  0.0000E+00  0.0000E+00
    -31.968  0.0000E+00  0.0000E+00
    -31.819  0.0000E+00  0.0000E+00
    -31.670  0.0000E+00  0.0000E+00
    -31.521  0.0000E+00  0.0000E+00
    -31.372  0.0000E+00  0.0000E+00
    -31.222  0.0000E+00  0.0000E+00
    -31.073  0.0000E+00  0.0000E+00
    -30.924  0.0000E+00  0.0000E+00
    -30.775  0.0000E+00  0.0000E+00
    -30.626  0.0000E+00  0.0000E+00
    -30.477  0.0000E+00  0.0000E+00
    -30.328  0.0000E+00  0.0000E+00
    -30.178  0.0000E+00  0.0000E+00
    -30.029  0.1592E+02  0.1944E+01
    -29.880  0.0000E+00  0.2000E+01
    -29.731  0.0000E+00  0.2000E+01
    -29.582  0.0000E+00  0.2000E+01
    -29.433  0.0000E+00  0.2000E+01
    -29.284  0.0000E+00  0.2000E+01
    -29.134  0.0000E+00  0.2000E+01
    -28.985  0.0000E+00  0.2000E+01
    -28.836  0.0000E+00  0.2000E+01
    -28.687  0.0000E+00  0.2000E+01
    -28.538  0.0000E+00  0.2000E+01
    -28.389  0.0000E+00  0.2000E+01
    -28.240  0.0000E+00  0.2000E+01
    -28.090  0.0000E+00  0.2000E+01
    -27.941  0.0000E+00  0.2000E+01
    -27.792  0.0000E+00  0.2000E+01
    -27.643  0.0000E+00  0.2000E+01
    -27.494  0.0000E+00  0.2000E+01
    -27.345  0.0000E+00  0.2000E+01
    -27.196  0.0000E+00  0.2000E+01
    -27.046  0.0000E+00  0.2000E+01
    -26.897  0.0000E+00  0.2000E+01
    -26.748  0.0000E+00  0.2000E+01
    -26.599  0.0000E+00  0.2000E+01
    -26.450  0.0000E+00  0.2000E+01
    -26.301  0.0000E+00  0.2000E+01
    -26.151  0.0000E+00  0.2000E+01
    -26.002  0.0000E+00  0.2000E+01
    -25.853  0.0000E+00  0.2000E+01
    -25.704  0.0000E+00  0.2000E+01
    -25.555  0.0000E+00  0.2000E+01
    -25.406  0.0000E+00  0.2000E+01
    -25.257  0.0000E+00  0.2000E+01
    -25.107  0.0000E+00  0.2000E+01
    -24.958  0.0000E+00  0.2000E+01
    -24.809  0.0000E+00  0.2000E+01
    -24.660  0.0000E+00  0.2000E+01
    -24.511  0.0000E+00  0.2000E+01
    -24.362  0.0000E+00  0.2000E+01
    -24.213  0.0000E+00  0.2000E+01
    -24.063  0.0000E+00  0.2000E+01
    -23.914  0.0000E+00  0.2000E+01
    -23.765  0.0000E+00  0.2000E+01
    -23.616  0.0000E+00  0.2000E+01
    -23.467  0.0000E+00  0.2000E+01
    -23.318  0.0000E+00  0.2000E+01
    -23.169  0.0000E+00  0.2000E+01
    -23.019  0.0000E+00  0.2000E+01
    -22.870  0.0000E+00  0.2000E+01
    -22.721  0.0000E+00  0.2000E+01
    -22.572  0.0000E+00  0.2000E+01
    -22.423  0.0000E+00  0.2000E+01
    -22.274  0.0000E+00  0.2000E+01
    -22.125  0.0000E+00  0.2000E+01
    -21.975  0.0000E+00  0.2000E+01
    -21.826  0.0000E+00  0.2000E+01
    -21.677  0.0000E+00  0.2000E+01
    -21.528  0.0000E+00  0.2000E+01
    -21.379  0.0000E+00  0.2000E+01
    -21.230  0.0000E+00  0.2000E+01
    -21.080  0.0000E+00  0.2000E+01
    -20.931  0.0000E+00  0.2000E+01
    -20.782  0.0000E+00  0.2000E+01
    -20.633  0.0000E+00  0.2000E+01
    -20.484  0.0000E+00  0.2000E+01
    -20.335  0.0000E+00  0.2000E+01
    -20.186  0.0000E+00  0.2000E+01
    -20.036  0.0000E+00  0.2000E+01
    -19.887  0.0000E+00  0.2000E+01
    -19.738  0.0000E+00  0.2000E+01
    -19.589  0.0000E+00  0.2000E+01
    -19.440  0.0000E+00  0.2000E+01
    -19.291  0.0000E+00  0.2000E+01
    -19.142  0.0000E+00  0.2000E+01
    -18.992  0.0000E+00  0.2000E+01
    -18.843  0.0000E+00  0.2000E+01
    -18.694  0.0000E+00  0.2000E+01
    -18.545  0.0000E+00  0.2000E+01
    -18.396  0.0000E+00  0.2000E+01
    -18.247  0.0000E+00  0.2000E+01
    -18.098  0.0000E+00  0.2000E+01
    -17.948  0.0000E+00  0.2000E+01
    -17.799  0.0000E+00  0.2000E+01
    -17.650  0.0000E+00  0.2000E+01
    -17.501  0.0000E+00  0.2000E+01
    -17.352  0.0000E+00  0.2000E+01
    -17.203  0.0000E+00  0.2000E+01
    -17.053  0.0000E+00  0.2000E+01
    -16.904  0.0000E+00  0.2000E+01
    -16.755  0.0000E+00  0.2000E+01
    -16.606  0.0000E+00  0.2000E+01
    -16.457  0.0000E+00  0.2000E+01
    -16.308  0.0000E+00  0.2000E+01
    -16.159  0.0000E+00  0.2000E+01
    -16.009  0.0000E+00  0.2000E+01
    -15.860  0.0000E+00  0.2000E+01
    -15.711  0.0000E+00  0.2000E+01
    -15.562  0.0000E+00  0.2000E+01
    -15.413  0.0000E+00  0.2000E+01
    -15.264  0.0000E+00  0.2000E+01
    -15.115  0.0000E+00  0.2000E+01
    -14.965  0.7345E+00  0.2019E+01
    -14.816  0.5745E+01  0.2476E+01
    -14.667  0.2886E+01  0.2980E+01
    -14.518  0.1949E+01  0.3328E+01
    -14.369  0.1532E+01  0.3588E+01
    -14.220  0.9032E+00  0.3791E+01
    -14.071  0.5595E+00  0.3898E+01
    -13.921  0.8921E+01  0.4436E+01
    -13.772  0.1843E+02  0.6679E+01
    -13.623  0.0000E+00  0.8000E+01
    -13.474  0.0000E+00  0.8000E+01
    -13.325  0.0000E+00  0.8000E+01
    -13.176  0.0000E+00  0.8000E+01
    -13.027  0.0000E+00  0.8000E+01
    -12.877  0.0000E+00  0.8000E+01
    -12.728  0.0000E+00  0.8000E+01
    -12.579  0.0000E+00  0.8000E+01
    -12.430  0.0000E+00  0.8000E+01
    -12.281  0.3647E+01  0.8132E+01
    -12.132  0.1902E+02  0.8916E+01
    -11.982  0.1007E+02  0.1107E+02
    -11.833  0.6695E+01  0.1244E+02
    -11.684  0.3835E+01  0.1381E+02
    -11.535  0.0000E+00  0.1400E+02
    -11.386  0.0000E+00  0.1400E+02
    -11.237  0.0000E+00  0.1400E+02
    -11.088  0.0000E+00  0.1400E+02
    -10.938  0.0000E+00  0.1400E+02
    -10.789  0.0000E+00  0.1400E+02
    -10.640  0.0000E+00  0.1400E+02
    -10.491  0.0000E+00  0.1400E+02
    -10.342  0.0000E+00  0.1400E+02
    -10.193  0.0000E+00  0.1400E+02
    -10.044  0.0000E+00  0.1400E+02
     -9.894  0.0000E+00  0.1400E+02
     -9.745  0.0000E+00  0.1400E+02
     -9.596  0.0000E+00  0.1400E+02
     -9.447  0.0000E+00  0.1400E+02
     -9.298  0.0000E+00  0.1400E+02
     -9.149  0.0000E+00  0.1400E+02
     -9.000  0.0000E+00  0.1400E+02
     -8.850  0.0000E+00  0.1400E+02
     -8.701  0.0000E+00  0.1400E+02
     -8.552  0.0000E+00  0.1400E+02
     -8.403  0.0000E+00  0.1400E+02
     -8.254  0.0000E+00  0.1400E+02
     -8.105  0.0000E+00  0.1400E+02
     -7.956  0.0000E+00  0.1400E+02
     -7.806  0.0000E+00  0.1400E+02
     -7.657  0.0000E+00  0.1400E+02
     -7.508  0.0000E+00  0.1400E+02
     -7.359  0.0000E+00  0.1400E+02
     -7.210  0.0000E+00  0.1400E+02
     -7.061  0.0000E+00  0.1400E+02
     -6.911  0.0000E+00  0.1400E+02
     -6.762  0.0000E+00  0.1400E+02
     -6.613  0.0000E+00  0.1400E+02
     -6.464  0.0000E+00  0.1400E+02
     -6.315  0.0000E+00  0.1400E+02
     -6.166  0.0000E+00  0.1400E+02
     -6.017  0.0000E+00  0.1400E+02
     -5.867  0.0000E+00  0.1400E+02
     -5.718  0.0000E+00  0.1400E+02
     -5.569  0.0000E+00  0.1400E+02
     -5.420  0.0000E+00  0.1400E+02
     -5.271  0.0000E+00  0.1400E+02
     -5.122  0.0000E+00  0.1400E+02
     -4.973  0.0000E+00  0.1400E+02
     -4.823  0.0000E+00  0.1400E+02
     -4.674  0.0000E+00  0.1400E+02
     -4.525  0.0000E+00  0.1400E+02
     -4.376  0.0000E+00  0.1400E+02
     -4.227  0.0000E+00  0.1400E+02
     -4.078  0.0000E+00  0.1400E+02
     -3.929  0.0000E+00  0.1400E+02
     -3.779  0.0000E+00  0.1400E+02
     -3.630  0.0000E+00  0.1400E+02
     -3.481  0.0000E+00  0.1400E+02
     -3.332  0.0000E+00  0.1400E+02
     -3.183  0.0000E+00  0.1400E+02
     -3.034  0.0000E+00  0.1400E+02
     -2.885  0.0000E+00  0.1400E+02
     -2.735  0.0000E+00  0.1400E+02
     -2.586  0.0000E+00  0.1400E+02
     -2.437  0.0000E+00  0.1400E+02
     -2.288  0.0000E+00  0.1400E+02
     -2.139  0.0000E+00  0.1400E+02
     -1.990  0.0000E+00  0.1400E+02
     -1.840  0.2151E+01  0.1410E+02
     -1.691  0.7304E+01  0.1484E+02
     -1.542  0.3206E+01  0.1550E+02
     -1.393  0.4325E+01  0.1627E+02
     -1.244  0.3428E+01  0.1685E+02
     -1.095  0.3442E+01  0.1736E+02
     -0.946  0.5206E+01  0.1800E+02
     -0.796  0.4936E+01  0.1876E+02
     -0.647  0.5228E+01  0.1952E+02
     -0.498  0.6638E+01  0.2037E+02
     -0.349  0.8890E+01  0.2145E+02
     -0.200  0.3743E+01  0.2264E+02
     -0.051  0.3195E+01  0.2315E+02
      0.098  0.2452E+01  0.2356E+02
      0.248  0.2165E+01  0.2390E+02
      0.397  0.1866E+01  0.2418E+02
      0.546  0.2733E+01  0.2452E+02
      0.695  0.3167E+01  0.2497E+02
      0.844  0.3295E+01  0.2546E+02
      0.993  0.1057E+01  0.2577E+02
      1.142  0.2148E+01  0.2599E+02
      1.292  0.4741E+01  0.2649E+02
      1.441  0.5962E+01  0.2743E+02
      1.590  0.5892E+01  0.2848E+02
      1.739  0.5973E+01  0.2935E+02
      1.888  0.4794E+01  0.3017E+02
      2.037  0.3521E+01  0.3078E+02
      2.187  0.2839E+01  0.3126E+02
      2.336  0.2016E+01  0.3161E+02
      2.485  0.1508E+01  0.3192E+02
      2.634  0.0000E+00  0.3200E+02
      2.783  0.0000E+00  0.3200E+02
      2.932  0.0000E+00  0.3200E+02
      3.081  0.0000E+00  0.3200E+02
      3.231  0.0000E+00  0.3200E+02
      3.380  0.0000E+00  0.3200E+02
      3.529  0.0000E+00  0.3200E+02
      3.678  0.0000E+00  0.3200E+02
      3.827  0.0000E+00  0.3200E+02
      3.976  0.0000E+00  0.3200E+02
      4.125  0.0000E+00  0.3200E+02
      4.275  0.0000E+00  0.3200E+02
      4.424  0.1293E+00  0.3201E+02
      4.573  0.4694E+00  0.3205E+02
      4.722  0.8833E+00  0.3215E+02
      4.871  0.1524E+01  0.3233E+02
      5.020  0.1516E+01  0.3256E+02
      5.169  0.1429E+01  0.3278E+02
      5.319  0.1630E+01  0.3301E+02
      5.468  0.1837E+01  0.3327E+02
      5.617  0.2272E+01  0.3356E+02
      5.766  0.3119E+01  0.3399E+02
      5.915  0.3443E+01  0.3448E+02
      6.064  0.3916E+01  0.3502E+02
      6.213  0.8638E+01  0.3600E+02
      6.363  0.4198E+01  0.3683E+02
      6.512  0.3044E+01  0.3737E+02
      6.661  0.1374E+01  0.3770E+02
      6.810  0.1175E+00  0.3780E+02
      6.959  0.1111E+00  0.3781E+02
      7.108  0.1049E+00  0.3783E+02
      7.258  0.9881E-01  0.3785E+02
      7.407  0.9292E-01  0.3786E+02
      7.556  0.8719E-01  0.3787E+02
      7.705  0.8164E-01  0.3789E+02
      7.854  0.7627E-01  0.3790E+02
      8.003  0.7107E-01  0.3791E+02
      8.152  0.7080E-01  0.3792E+02
      8.302  0.1006E+00  0.3793E+02
      8.451  0.1610E+00  0.3795E+02
      8.600  0.2087E+00  0.3798E+02
      8.749  0.2301E+00  0.3801E+02
      8.898  0.2559E+00  0.3805E+02
      9.047  0.2995E+00  0.3809E+02
      9.196  0.3491E+00  0.3814E+02
      9.346  0.4090E+00  0.3819E+02
      9.495  0.4947E+00  0.3826E+02
      9.644  0.6056E+00  0.3834E+02
      9.793  0.7072E+00  0.3845E+02
      9.942  0.1302E+01  0.3860E+02
     10.091  0.1511E+01  0.3883E+02
     10.240  0.1750E+01  0.3907E+02
     10.390  0.2063E+01  0.3936E+02
     10.539  0.2217E+01  0.3968E+02
     10.688  0.0000E+00  0.4000E+02
     10.837  0.0000E+00  0.4000E+02
     10.986  0.0000E+00  0.4000E+02
     11.135  0.0000E+00  0.4000E+02
     11.284  0.0000E+00  0.4000E+02
     11.434  0.0000E+00  0.4000E+02
     11.583  0.0000E+00  0.4000E+02
     11.732  0.0000E+00  0.4000E+02
     11.881  0.0000E+00  0.4000E+02
     12.030  0.0000E+00  0.4000E+02
     12.179  0.0000E+00  0.4000E+02
     12.329  0.0000E+00  0.4000E+02
     12.478  0.0000E+00  0.4000E+02
     12.627  0.0000E+00  0.4000E+02
