       N       E                     dE             d eps       ncg     rms          rms(c)
DAV:   1     0.278507791713E+03    0.27851E+03   -0.13393E+04   800   0.131E+03
DAV:   2    -0.255128962486E+02   -0.30402E+03   -0.29383E+03  1112   0.335E+02
DAV:   3    -0.493770920061E+02   -0.23864E+02   -0.23700E+02   952   0.111E+02
DAV:   4    -0.501530068749E+02   -0.77591E+00   -0.77513E+00  1332   0.190E+01
DAV:   5    -0.501689128450E+02   -0.15906E-01   -0.15896E-01  1020   0.216E+00    0.180E+01
RMM:   6    -0.404205192726E+02    0.97484E+01   -0.56662E+01   863   0.433E+01    0.612E+00
RMM:   7    -0.398575255406E+02    0.56299E+00   -0.14691E+00   967   0.988E+00    0.321E+00
RMM:   8    -0.397760211197E+02    0.81504E-01   -0.93143E-01   955   0.730E+00    0.922E-01
RMM:   9    -0.397585003924E+02    0.17521E-01   -0.64065E-02  1067   0.207E+00    0.549E-01
RMM:  10    -0.397546502394E+02    0.38502E-02   -0.10110E-01   972   0.184E+00    0.227E-01
RMM:  11    -0.397546311608E+02    0.19079E-04   -0.14036E-02  1105   0.591E-01    0.161E-01
RMM:  12    -0.397562077928E+02   -0.15766E-02   -0.21010E-02  1001   0.826E-01    0.273E-01
RMM:  13    -0.397546224187E+02    0.15854E-02   -0.76602E-03   988   0.505E-01    0.439E-02
RMM:  14    -0.397546260031E+02   -0.35844E-05   -0.13445E-03  1035   0.183E-01    0.330E-02
RMM:  15    -0.397546739711E+02   -0.47968E-04   -0.49656E-04   944   0.649E-02    0.307E-02
RMM:  16    -0.397546735502E+02    0.42095E-06   -0.93060E-05   849   0.512E-02
   1 F= -.39754674E+02 E0= -.39754674E+02  d E =0.000000E+00
