   9   9   0   0
  0.1255774E+02  0.4913700E-09  0.4913700E-09  0.5405130E-09  0.5000000E-15
  1.000000000000000E-004
  CAR 
 unknown system                          
     13.73682879    -20.45151981  301      1.22959126      1.00000000
    -20.452  0.0000E+00  0.0000E+00
    -20.338  0.0000E+00  0.0000E+00
    -20.224  0.0000E+00  0.0000E+00
    -20.110  0.0000E+00  0.0000E+00
    -19.996  0.0000E+00  0.0000E+00
    -19.882  0.0000E+00  0.0000E+00
    -19.768  0.0000E+00  0.0000E+00
    -19.654  0.0000E+00  0.0000E+00
    -19.540  0.0000E+00  0.0000E+00
    -19.426  0.0000E+00  0.0000E+00
    -19.312  0.0000E+00  0.0000E+00
    -19.198  0.0000E+00  0.0000E+00
    -19.084  0.0000E+00  0.0000E+00
    -18.970  0.0000E+00  0.0000E+00
    -18.856  0.0000E+00  0.0000E+00
    -18.742  0.0000E+00  0.0000E+00
    -18.628  0.0000E+00  0.0000E+00
    -18.514  0.0000E+00  0.0000E+00
    -18.400  0.4287E+00  0.7330E-02
    -18.286  0.1757E+01  0.1496E+00
    -18.172  0.3910E+01  0.4363E+00
    -18.058  0.7643E+01  0.1086E+01
    -17.944  0.3669E+01  0.1905E+01
    -17.830  0.0000E+00  0.2000E+01
    -17.716  0.1451E+01  0.2057E+01
    -17.602  0.3200E+01  0.2295E+01
    -17.489  0.6084E+01  0.2797E+01
    -17.375  0.7744E+01  0.3523E+01
    -17.261  0.1066E+01  0.3950E+01
    -17.147  0.0000E+00  0.4000E+01
    -17.033  0.4043E+00  0.4007E+01
    -16.919  0.2352E+01  0.4156E+01
    -16.805  0.7586E+01  0.4787E+01
    -16.691  0.3972E+01  0.5486E+01
    -16.577  0.2645E+01  0.5846E+01
    -16.463  0.6591E+01  0.6172E+01
    -16.349  0.7100E+01  0.7155E+01
    -16.235  0.4658E+01  0.7784E+01
    -16.121  0.1358E+02  0.9155E+01
    -16.007  0.0000E+00  0.1000E+02
    -15.893  0.3020E+02  0.1096E+02
    -15.779  0.0000E+00  0.1200E+02
    -15.665  0.0000E+00  0.1200E+02
    -15.551  0.0000E+00  0.1200E+02
    -15.437  0.0000E+00  0.1200E+02
    -15.323  0.0000E+00  0.1200E+02
    -15.209  0.0000E+00  0.1200E+02
    -15.095  0.0000E+00  0.1200E+02
    -14.981  0.0000E+00  0.1200E+02
    -14.867  0.0000E+00  0.1200E+02
    -14.753  0.0000E+00  0.1200E+02
    -14.640  0.0000E+00  0.1200E+02
    -14.526  0.0000E+00  0.1200E+02
    -14.412  0.0000E+00  0.1200E+02
    -14.298  0.0000E+00  0.1200E+02
    -14.184  0.0000E+00  0.1200E+02
    -14.070  0.0000E+00  0.1200E+02
    -13.956  0.0000E+00  0.1200E+02
    -13.842  0.0000E+00  0.1200E+02
    -13.728  0.0000E+00  0.1200E+02
    -13.614  0.0000E+00  0.1200E+02
    -13.500  0.0000E+00  0.1200E+02
    -13.386  0.0000E+00  0.1200E+02
    -13.272  0.0000E+00  0.1200E+02
    -13.158  0.0000E+00  0.1200E+02
    -13.044  0.0000E+00  0.1200E+02
    -12.930  0.0000E+00  0.1200E+02
    -12.816  0.0000E+00  0.1200E+02
    -12.702  0.0000E+00  0.1200E+02
    -12.588  0.0000E+00  0.1200E+02
    -12.474  0.0000E+00  0.1200E+02
    -12.360  0.0000E+00  0.1200E+02
    -12.246  0.0000E+00  0.1200E+02
    -12.132  0.0000E+00  0.1200E+02
    -12.018  0.0000E+00  0.1200E+02
    -11.904  0.0000E+00  0.1200E+02
    -11.790  0.0000E+00  0.1200E+02
    -11.677  0.0000E+00  0.1200E+02
    -11.563  0.0000E+00  0.1200E+02
    -11.449  0.0000E+00  0.1200E+02
    -11.335  0.0000E+00  0.1200E+02
    -11.221  0.0000E+00  0.1200E+02
    -11.107  0.0000E+00  0.1200E+02
    -10.993  0.0000E+00  0.1200E+02
    -10.879  0.0000E+00  0.1200E+02
    -10.765  0.0000E+00  0.1200E+02
    -10.651  0.0000E+00  0.1200E+02
    -10.537  0.0000E+00  0.1200E+02
    -10.423  0.0000E+00  0.1200E+02
    -10.309  0.0000E+00  0.1200E+02
    -10.195  0.0000E+00  0.1200E+02
    -10.081  0.0000E+00  0.1200E+02
     -9.967  0.0000E+00  0.1200E+02
     -9.853  0.0000E+00  0.1200E+02
     -9.739  0.0000E+00  0.1200E+02
     -9.625  0.0000E+00  0.1200E+02
     -9.511  0.0000E+00  0.1200E+02
     -9.397  0.0000E+00  0.1200E+02
     -9.283  0.0000E+00  0.1200E+02
     -9.169  0.0000E+00  0.1200E+02
     -9.055  0.0000E+00  0.1200E+02
     -8.941  0.0000E+00  0.1200E+02
     -8.827  0.0000E+00  0.1200E+02
     -8.714  0.0000E+00  0.1200E+02
     -8.600  0.0000E+00  0.1200E+02
     -8.486  0.0000E+00  0.1200E+02
     -8.372  0.0000E+00  0.1200E+02
     -8.258  0.0000E+00  0.1200E+02
     -8.144  0.2088E+00  0.1201E+02
     -8.030  0.4045E+00  0.1205E+02
     -7.916  0.6102E+00  0.1211E+02
     -7.802  0.8323E+00  0.1219E+02
     -7.688  0.1135E+01  0.1230E+02
     -7.574  0.1559E+01  0.1245E+02
     -7.460  0.2572E+01  0.1267E+02
     -7.346  0.7730E+01  0.1325E+02
     -7.232  0.2353E+01  0.1380E+02
     -7.118  0.5759E+00  0.1395E+02
     -7.004  0.2470E+00  0.1399E+02
     -6.890  0.1915E+00  0.1402E+02
     -6.776  0.3128E+00  0.1405E+02
     -6.662  0.5077E+00  0.1409E+02
     -6.548  0.9992E+00  0.1417E+02
     -6.434  0.1718E+01  0.1432E+02
     -6.320  0.3055E+01  0.1460E+02
     -6.206  0.4626E+01  0.1504E+02
     -6.092  0.2479E+01  0.1551E+02
     -5.978  0.1412E+01  0.1572E+02
     -5.864  0.8584E+00  0.1584E+02
     -5.751  0.6187E+00  0.1592E+02
     -5.637  0.3815E+00  0.1599E+02
     -5.523  0.1042E+00  0.1600E+02
     -5.409  0.1605E+01  0.1609E+02
     -5.295  0.3335E+01  0.1639E+02
     -5.181  0.3184E+01  0.1676E+02
     -5.067  0.2961E+01  0.1711E+02
     -4.953  0.2507E+01  0.1743E+02
     -4.839  0.1697E+01  0.1765E+02
     -4.725  0.1351E+01  0.1782E+02
     -4.611  0.9433E+00  0.1796E+02
     -4.497  0.1322E+01  0.1802E+02
     -4.383  0.1168E+02  0.1887E+02
     -4.269  0.5362E+01  0.1981E+02
     -4.155  0.8025E+01  0.2043E+02
     -4.041  0.7127E+01  0.2137E+02
     -3.927  0.3520E+01  0.2201E+02
     -3.813  0.5368E+01  0.2232E+02
     -3.699  0.7263E+01  0.2324E+02
     -3.585  0.2925E+01  0.2379E+02
     -3.471  0.3049E+00  0.2400E+02
     -3.357  0.0000E+00  0.2400E+02
     -3.243  0.0000E+00  0.2400E+02
     -3.129  0.0000E+00  0.2400E+02
     -3.015  0.0000E+00  0.2400E+02
     -2.902  0.0000E+00  0.2400E+02
     -2.788  0.0000E+00  0.2400E+02
     -2.674  0.0000E+00  0.2400E+02
     -2.560  0.0000E+00  0.2400E+02
     -2.446  0.0000E+00  0.2400E+02
     -2.332  0.0000E+00  0.2400E+02
     -2.218  0.7935E+01  0.2407E+02
     -2.104  0.1215E+02  0.2535E+02
     -1.990  0.8236E+01  0.2626E+02
     -1.876  0.5322E+01  0.2705E+02
     -1.762  0.4429E+01  0.2774E+02
     -1.648  0.3020E+01  0.2808E+02
     -1.534  0.1097E+02  0.2900E+02
     -1.420  0.4309E+01  0.2987E+02
     -1.306  0.2891E+01  0.3006E+02
     -1.192  0.1257E+02  0.3105E+02
     -1.078  0.1254E+01  0.3196E+02
     -0.964  0.1521E+02  0.3241E+02
     -0.850  0.1420E+01  0.3386E+02
     -0.736  0.4129E+01  0.3407E+02
     -0.622  0.7574E+01  0.3479E+02
     -0.508  0.9476E+01  0.3589E+02
     -0.394  0.1267E+02  0.3693E+02
     -0.280  0.5072E+01  0.3777E+02
     -0.166  0.9128E+01  0.3845E+02
     -0.052  0.8433E+01  0.3951E+02
      0.061  0.5411E+01  0.4014E+02
      0.175  0.1471E+02  0.4115E+02
      0.289  0.8205E+00  0.4200E+02
      0.403  0.1209E+02  0.4253E+02
      0.517  0.3639E+01  0.4372E+02
      0.631  0.4521E+01  0.4406E+02
      0.745  0.6437E+01  0.4464E+02
      0.859  0.8947E+01  0.4586E+02
      0.973  0.6745E+01  0.4654E+02
      1.087  0.5871E+01  0.4771E+02
      1.201  0.0000E+00  0.4800E+02
      1.315  0.0000E+00  0.4800E+02
      1.429  0.0000E+00  0.4800E+02
      1.543  0.0000E+00  0.4800E+02
      1.657  0.0000E+00  0.4800E+02
      1.771  0.0000E+00  0.4800E+02
      1.885  0.0000E+00  0.4800E+02
      1.999  0.0000E+00  0.4800E+02
      2.113  0.0000E+00  0.4800E+02
      2.227  0.0000E+00  0.4800E+02
      2.341  0.0000E+00  0.4800E+02
      2.455  0.0000E+00  0.4800E+02
      2.569  0.0000E+00  0.4800E+02
      2.683  0.0000E+00  0.4800E+02
      2.797  0.0000E+00  0.4800E+02
      2.911  0.0000E+00  0.4800E+02
      3.024  0.0000E+00  0.4800E+02
      3.138  0.0000E+00  0.4800E+02
      3.252  0.0000E+00  0.4800E+02
      3.366  0.0000E+00  0.4800E+02
      3.480  0.0000E+00  0.4800E+02
      3.594  0.0000E+00  0.4800E+02
      3.708  0.0000E+00  0.4800E+02
      3.822  0.0000E+00  0.4800E+02
      3.936  0.0000E+00  0.4800E+02
      4.050  0.0000E+00  0.4800E+02
      4.164  0.0000E+00  0.4800E+02
      4.278  0.0000E+00  0.4800E+02
      4.392  0.0000E+00  0.4800E+02
      4.506  0.0000E+00  0.4800E+02
      4.620  0.0000E+00  0.4800E+02
      4.734  0.0000E+00  0.4800E+02
      4.848  0.0000E+00  0.4800E+02
      4.962  0.0000E+00  0.4800E+02
      5.076  0.0000E+00  0.4800E+02
      5.190  0.0000E+00  0.4800E+02
      5.304  0.0000E+00  0.4800E+02
      5.418  0.0000E+00  0.4800E+02
      5.532  0.0000E+00  0.4800E+02
      5.646  0.0000E+00  0.4800E+02
      5.760  0.0000E+00  0.4800E+02
      5.874  0.0000E+00  0.4800E+02
      5.987  0.0000E+00  0.4800E+02
      6.101  0.0000E+00  0.4800E+02
      6.215  0.0000E+00  0.4800E+02
      6.329  0.0000E+00  0.4800E+02
      6.443  0.0000E+00  0.4800E+02
      6.557  0.0000E+00  0.4800E+02
      6.671  0.0000E+00  0.4800E+02
      6.785  0.0000E+00  0.4800E+02
      6.899  0.0000E+00  0.4800E+02
      7.013  0.0000E+00  0.4800E+02
      7.127  0.8463E-03  0.4800E+02
      7.241  0.2062E-01  0.4800E+02
      7.355  0.6663E-01  0.4801E+02
      7.469  0.1389E+00  0.4802E+02
      7.583  0.2183E+00  0.4804E+02
      7.697  0.2607E+00  0.4807E+02
      7.811  0.2852E+00  0.4810E+02
      7.925  0.3153E+00  0.4813E+02
      8.039  0.3620E+00  0.4817E+02
      8.153  0.4112E+00  0.4821E+02
      8.267  0.4631E+00  0.4826E+02
      8.381  0.5172E+00  0.4832E+02
      8.495  0.5951E+00  0.4838E+02
      8.609  0.7534E+00  0.4846E+02
      8.723  0.8894E+00  0.4855E+02
      8.836  0.8573E+00  0.4865E+02
      8.950  0.9202E+00  0.4875E+02
      9.064  0.9852E+00  0.4886E+02
      9.178  0.1052E+01  0.4897E+02
      9.292  0.1477E+01  0.4911E+02
      9.406  0.1565E+01  0.4929E+02
      9.520  0.1306E+01  0.4945E+02
      9.634  0.1277E+01  0.4959E+02
      9.748  0.1496E+01  0.4975E+02
      9.862  0.2022E+01  0.4993E+02
      9.976  0.1171E+01  0.5012E+02
     10.090  0.1108E+01  0.5024E+02
     10.204  0.2902E+01  0.5044E+02
     10.318  0.9791E+01  0.5112E+02
     10.432  0.3473E+01  0.5198E+02
     10.546  0.5804E+01  0.5250E+02
     10.660  0.7873E+01  0.5339E+02
     10.774  0.4887E+01  0.5412E+02
     10.888  0.2321E+01  0.5447E+02
     11.002  0.3975E+01  0.5479E+02
     11.116  0.6728E+01  0.5545E+02
     11.230  0.4151E+01  0.5604E+02
     11.344  0.5147E+01  0.5657E+02
     11.458  0.6876E+01  0.5728E+02
     11.572  0.2586E+01  0.5786E+02
     11.686  0.2509E+00  0.5800E+02
     11.799  0.0000E+00  0.5800E+02
     11.913  0.0000E+00  0.5800E+02
     12.027  0.0000E+00  0.5800E+02
     12.141  0.0000E+00  0.5800E+02
     12.255  0.0000E+00  0.5800E+02
     12.369  0.0000E+00  0.5800E+02
     12.483  0.0000E+00  0.5800E+02
     12.597  0.0000E+00  0.5800E+02
     12.711  0.0000E+00  0.5800E+02
     12.825  0.0000E+00  0.5800E+02
     12.939  0.0000E+00  0.5800E+02
     13.053  0.0000E+00  0.5800E+02
     13.167  0.0000E+00  0.5800E+02
     13.281  0.0000E+00  0.5800E+02
     13.395  0.0000E+00  0.5800E+02
     13.509  0.0000E+00  0.5800E+02
     13.623  0.0000E+00  0.5800E+02
     13.737  0.0000E+00  0.5800E+02
