    9    9    1    1
  0.1255774E+02  0.4913700E-09  0.4913700E-09  0.5405130E-09  0.5000000E-15
  1.000000000000000E-004
  CAR 
 unknown system                          
     48     92     29
 
  0.0000000E+00  0.0000000E+00  0.0000000E+00  0.5555556E-02
    1      -18.451520   1.000000
    2      -17.148750   1.000000
    3      -16.788178   1.000000
    4      -16.173703   1.000000
    5      -16.042717   1.000000
    6      -15.962894   1.000000
    7       -7.271652   1.000000
    8       -7.112243   1.000000
    9       -4.538204   1.000000
   10       -4.229682   1.000000
   11       -4.133219   1.000000
   12       -4.114985   1.000000
   13       -1.947806   1.000000
   14       -1.841683   1.000000
   15       -1.754491   1.000000
   16       -1.264505   1.000000
   17       -0.554057   1.000000
   18       -0.439471   1.000000
   19       -0.393612   1.000000
   20        0.145038   1.000000
   21        0.227580   1.000000
   22        0.471384   1.000000
   23        0.750253   1.000000
   24        0.857713   1.000000
   25        7.098132   0.000000
   26       10.328324   0.000000
   27       10.429897   0.000000
   28       10.855290   0.000000
   29       10.955100   0.000000
 
  0.1666667E+00  0.0000000E+00  0.0000000E+00  0.1111111E-01
    1      -18.382205   1.000000
    2      -17.177214   1.000000
    3      -16.779036   1.000000
    4      -16.277024   1.000000
    5      -16.084689   1.000000
    6      -15.912056   1.000000
    7       -7.302303   1.000000
    8       -6.933251   1.000000
    9       -4.563840   1.000000
   10       -4.298141   1.000000
   11       -4.172164   1.000000
   12       -3.984955   1.000000
   13       -2.015568   1.000000
   14       -1.873029   1.000000
   15       -1.636052   1.000000
   16       -1.189357   1.000000
   17       -0.748248   1.000000
   18       -0.467418   1.000000
   19       -0.396076   1.000000
   20        0.090655   1.000000
   21        0.129207   1.000000
   22        0.383651   1.000000
   23        0.835332   1.000000
   24        0.933732   1.000000
   25        7.520898   0.000000
   26       10.350228   0.000000
   27       10.471513   0.000000
   28       10.872192   0.000000
   29       11.084384   0.000000
 
  0.3333333E+00  0.0000000E+00  0.0000000E+00  0.1111111E-01
    1      -18.210798   1.000000
    2      -17.273407   1.000000
    3      -16.760846   1.000000
    4      -16.457690   1.000000
    5      -16.117111   1.000000
    6      -15.878680   1.000000
    7       -7.367221   1.000000
    8       -6.512671   1.000000
    9       -4.623368   1.000000
   10       -4.539351   1.000000
   11       -4.187300   1.000000
   12       -3.680802   1.000000
   13       -2.133884   1.000000
   14       -1.695682   1.000000
   15       -1.615793   1.000000
   16       -1.303452   1.000000
   17       -0.988598   1.000000
   18       -0.555547   1.000000
   19       -0.451365   1.000000
   20        0.026732   1.000000
   21        0.068646   1.000000
   22        0.288757   1.000000
   23        0.910774   1.000000
   24        1.040645   1.000000
   25        8.518775   0.000000
   26       10.376597   0.000000
   27       10.597059   0.000000
   28       11.068966   0.000000
   29       11.695001   0.000000
 
  0.5000000E+00  0.8326673E-16  0.0000000E+00  0.5555556E-02
    1      -18.093938   1.000000
    2      -17.359485   1.000000
    3      -16.752318   1.000000
    4      -16.533283   1.000000
    5      -16.130975   1.000000
    6      -15.870462   1.000000
    7       -7.399008   1.000000
    8       -6.249838   1.000000
    9       -4.773451   1.000000
   10       -4.574157   1.000000
   11       -4.196373   1.000000
   12       -3.512438   1.000000
   13       -2.136891   1.000000
   14       -1.774561   1.000000
   15       -1.605201   1.000000
   16       -1.315535   1.000000
   17       -1.055934   1.000000
   18       -0.634102   1.000000
   19       -0.524138   1.000000
   20        0.044330   1.000000
   21        0.065051   1.000000
   22        0.268200   1.000000
   23        0.913334   1.000000
   24        1.089839   1.000000
   25        9.349781   0.000000
   26       10.087708   0.000000
   27       10.775768   0.000000
   28       10.937608   0.000000
   29       11.726954   0.000000
 
  0.0000000E+00  0.1666667E+00  0.0000000E+00  0.1111111E-01
    1      -18.376365   1.000000
    2      -17.188138   1.000000
    3      -16.812145   1.000000
    4      -16.181038   1.000000
    5      -16.110292   1.000000
    6      -15.943349   1.000000
    7       -7.257856   1.000000
    8       -6.988771   1.000000
    9       -4.547114   1.000000
   10       -4.293818   1.000000
   11       -4.205855   1.000000
   12       -3.953988   1.000000
   13       -2.065639   1.000000
   14       -1.812880   1.000000
   15       -1.690789   1.000000
   16       -1.155925   1.000000
   17       -0.690682   1.000000
   18       -0.504857   1.000000
   19       -0.456108   1.000000
   20        0.105245   1.000000
   21        0.173450   1.000000
   22        0.377477   1.000000
   23        0.837896   1.000000
   24        0.926332   1.000000
   25        7.518347   0.000000
   26       10.345736   0.000000
   27       10.437148   0.000000
   28       10.938535   0.000000
   29       11.056117   0.000000
 
  0.1666667E+00  0.1666667E+00  0.0000000E+00  0.1111111E-01
    1      -18.253351   1.000000
    2      -17.255530   1.000000
    3      -16.805099   1.000000
    4      -16.326813   1.000000
    5      -16.133713   1.000000
    6      -15.902069   1.000000
    7       -7.347299   1.000000
    8       -6.632684   1.000000
    9       -4.698878   1.000000
   10       -4.414835   1.000000
   11       -4.122613   1.000000
   12       -3.780119   1.000000
   13       -2.093907   1.000000
   14       -1.797447   1.000000
   15       -1.612360   1.000000
   16       -1.197618   1.000000
   17       -1.020759   1.000000
   18       -0.535710   1.000000
   19       -0.336078   1.000000
   20       -0.032035   1.000000
   21        0.139754   1.000000
   22        0.284228   1.000000
   23        0.935820   1.000000
   24        0.971693   1.000000
   25        8.223562   0.000000
   26       10.433619   0.000000
   27       10.548032   0.000000
   28       11.012697   0.000000
   29       11.278951   0.000000
 
  0.3333333E+00  0.1666667E+00  0.0000000E+00  0.1111111E-01
    1      -18.083067   1.000000
    2      -17.374779   1.000000
    3      -16.809875   1.000000
    4      -16.454583   1.000000
    5      -16.135584   1.000000
    6      -15.881792   1.000000
    7       -7.406461   1.000000
    8       -6.179807   1.000000
    9       -5.041392   1.000000
   10       -4.442664   1.000000
   11       -4.107644   1.000000
   12       -3.531385   1.000000
   13       -2.104534   1.000000
   14       -1.766237   1.000000
   15       -1.679720   1.000000
   16       -1.271096   1.000000
   17       -1.059491   1.000000
   18       -0.667215   1.000000
   19       -0.368202   1.000000
   20       -0.156428   1.000000
   21        0.022671   1.000000
   22        0.396697   1.000000
   23        0.906406   1.000000
   24        1.087698   1.000000
   25        9.230838   0.000000
   26       10.338542   0.000000
   27       10.684212   0.000000
   28       11.105259   0.000000
   29       11.572381   0.000000
 
  0.5000000E+00  0.1666667E+00  0.0000000E+00  0.1111111E-01
    1      -18.077355   1.000000
    2      -17.381746   1.000000
    3      -16.807104   1.000000
    4      -16.475971   1.000000
    5      -16.115907   1.000000
    6      -15.881287   1.000000
    7       -7.396875   1.000000
    8       -6.187872   1.000000
    9       -5.051520   1.000000
   10       -4.428064   1.000000
   11       -4.123838   1.000000
   12       -3.530379   1.000000
   13       -2.098714   1.000000
   14       -1.780344   1.000000
   15       -1.690708   1.000000
   16       -1.217982   1.000000
   17       -0.994923   1.000000
   18       -0.669117   1.000000
   19       -0.500163   1.000000
   20       -0.183871   1.000000
   21        0.056583   1.000000
   22        0.430043   1.000000
   23        0.877774   1.000000
   24        1.123117   1.000000
   25        9.240487   0.000000
   26       10.318462   0.000000
   27       10.666965   0.000000
   28       11.123010   0.000000
   29       11.451533   0.000000
 
 -0.3333333E+00  0.1666667E+00  0.0000000E+00  0.1111111E-01
    1      -18.246327   1.000000
    2      -17.262632   1.000000
    3      -16.804121   1.000000
    4      -16.382395   1.000000
    5      -16.078191   1.000000
    6      -15.902276   1.000000
    7       -7.315887   1.000000
    8       -6.663112   1.000000
    9       -4.721817   1.000000
   10       -4.392796   1.000000
   11       -4.139797   1.000000
   12       -3.778928   1.000000
   13       -2.099006   1.000000
   14       -1.839178   1.000000
   15       -1.520986   1.000000
   16       -1.161085   1.000000
   17       -0.974428   1.000000
   18       -0.605602   1.000000
   19       -0.391185   1.000000
   20       -0.152339   1.000000
   21        0.187955   1.000000
   22        0.345502   1.000000
   23        0.866947   1.000000
   24        1.069039   1.000000
   25        8.225887   0.000000
   26       10.369093   0.000000
   27       10.580373   0.000000
   28       11.022239   0.000000
   29       11.234047   0.000000
 
 -0.1666667E+00  0.1666667E+00  0.0000000E+00  0.1111111E-01
    1      -18.373739   1.000000
    2      -17.189671   1.000000
    3      -16.813685   1.000000
    4      -16.236388   1.000000
    5      -16.048195   1.000000
    6      -15.949326   1.000000
    7       -7.210598   1.000000
    8       -7.035964   1.000000
    9       -4.555227   1.000000
   10       -4.308830   1.000000
   11       -4.185717   1.000000
   12       -3.957897   1.000000
   13       -2.076740   1.000000
   14       -1.836099   1.000000
   15       -1.625280   1.000000
   16       -1.143509   1.000000
   17       -0.705131   1.000000
   18       -0.540747   1.000000
   19       -0.450984   1.000000
   20        0.053268   1.000000
   21        0.216929   1.000000
   22        0.367916   1.000000
   23        0.826296   1.000000
   24        0.966640   1.000000
   25        7.518188   0.000000
   26       10.297890   0.000000
   27       10.480555   0.000000
   28       10.896522   0.000000
   29       11.086190   0.000000
 
  0.0000000E+00  0.3333333E+00  0.0000000E+00  0.1111111E-01
    1      -18.181833   1.000000
    2      -17.332437   1.000000
    3      -16.856896   1.000000
    4      -16.203256   1.000000
    5      -16.180057   1.000000
    6      -15.941399   1.000000
    7       -7.316893   1.000000
    8       -6.602566   1.000000
    9       -4.657977   1.000000
   10       -4.403312   1.000000
   11       -4.251594   1.000000
   12       -3.663296   1.000000
   13       -2.153294   1.000000
   14       -1.797943   1.000000
   15       -1.625437   1.000000
   16       -1.162338   1.000000
   17       -1.018273   1.000000
   18       -0.618928   1.000000
   19       -0.400787   1.000000
   20       -0.070676   1.000000
   21        0.188535   1.000000
   22        0.310336   1.000000
   23        0.911849   1.000000
   24        1.024146   1.000000
   25        8.512698   0.000000
   26       10.367918   0.000000
   27       10.511864   0.000000
   28       11.147661   0.000000
   29       11.404701   0.000000
 
  0.1666667E+00  0.3333333E+00  0.0000000E+00  0.1111111E-01
    1      -18.053003   1.000000
    2      -17.429975   1.000000
    3      -16.863014   1.000000
    4      -16.322138   1.000000
    5      -16.152040   1.000000
    6      -15.917754   1.000000
    7       -7.384173   1.000000
    8       -6.239820   1.000000
    9       -5.021161   1.000000
   10       -4.400701   1.000000
   11       -4.132899   1.000000
   12       -3.521646   1.000000
   13       -2.064444   1.000000
   14       -1.940398   1.000000
   15       -1.546324   1.000000
   16       -1.359840   1.000000
   17       -1.008011   1.000000
   18       -0.612862   1.000000
   19       -0.421049   1.000000
   20       -0.141715   1.000000
   21        0.026239   1.000000
   22        0.423290   1.000000
   23        0.904379   1.000000
   24        1.079492   1.000000
   25        9.226721   0.000000
   26       10.345113   0.000000
   27       10.619269   0.000000
   28       11.166133   0.000000
   29       11.633640   0.000000
 
  0.3333333E+00  0.3333333E+00  0.0000000E+00  0.1111111E-01
    1      -17.951332   1.000000
    2      -17.517466   1.000000
    3      -16.867165   1.000000
    4      -16.396375   1.000000
    5      -16.123230   1.000000
    6      -15.902713   1.000000
    7       -7.408763   1.000000
    8       -5.836426   1.000000
    9       -5.472592   1.000000
   10       -4.376630   1.000000
   11       -4.086737   1.000000
   12       -3.425962   1.000000
   13       -2.068686   1.000000
   14       -1.889644   1.000000
   15       -1.721979   1.000000
   16       -1.130323   1.000000
   17       -0.934944   1.000000
   18       -0.765329   1.000000
   19       -0.586756   1.000000
   20       -0.142166   1.000000
   21       -0.099477   1.000000
   22        0.575374   1.000000
   23        0.835826   1.000000
   24        1.149864   1.000000
   25        9.904834   0.000000
   26       10.147906   0.000000
   27       10.499782   0.000000
   28       11.440496   0.000000
   29       11.736829   0.000000
 
  0.5000000E+00  0.3333333E+00  0.0000000E+00  0.1111111E-01
    1      -18.031185   1.000000
    2      -17.462422   1.000000
    3      -16.843581   1.000000
    4      -16.405734   1.000000
    5      -16.084515   1.000000
    6      -15.909628   1.000000
    7       -7.348980   1.000000
    8       -6.264932   1.000000
    9       -5.083616   1.000000
   10       -4.386384   1.000000
   11       -4.108799   1.000000
   12       -3.522047   1.000000
   13       -2.057803   1.000000
   14       -1.916364   1.000000
   15       -1.644010   1.000000
   16       -1.096253   1.000000
   17       -1.008259   1.000000
   18       -0.735640   1.000000
   19       -0.520325   1.000000
   20       -0.264348   1.000000
   21        0.094970   1.000000
   22        0.504800   1.000000
   23        0.839769   1.000000
   24        1.162972   1.000000
   25        9.231190   0.000000
   26       10.346296   0.000000
   27       10.631634   0.000000
   28       11.077627   0.000000
   29       11.454187   0.000000
 
 -0.3333333E+00  0.3333333E+00  0.0000000E+00  0.1111111E-01
    1      -18.167914   1.000000
    2      -17.355398   1.000000
    3      -16.841120   1.000000
    4      -16.336327   1.000000
    5      -16.059356   1.000000
    6      -15.934892   1.000000
    7       -7.262197   1.000000
    8       -6.652460   1.000000
    9       -4.757841   1.000000
   10       -4.377234   1.000000
   11       -4.193040   1.000000
   12       -3.664104   1.000000
   13       -2.156515   1.000000
   14       -1.826935   1.000000
   15       -1.496688   1.000000
   16       -1.219097   1.000000
   17       -0.921604   1.000000
   18       -0.717362   1.000000
   19       -0.463992   1.000000
   20       -0.141053   1.000000
   21        0.173640   1.000000
   22        0.394463   1.000000
   23        0.864284   1.000000
   24        1.115921   1.000000
   25        8.510494   0.000000
   26       10.392709   0.000000
   27       10.522928   0.000000
   28       11.012608   0.000000
   29       11.385807   0.000000
 
 -0.1666667E+00  0.3333333E+00  0.0000000E+00  0.1111111E-01
    1      -18.228981   1.000000
    2      -17.299912   1.000000
    3      -16.857319   1.000000
    4      -16.240471   1.000000
    5      -16.096697   1.000000
    6      -15.950826   1.000000
    7       -7.266198   1.000000
    8       -6.739490   1.000000
    9       -4.667314   1.000000
   10       -4.418582   1.000000
   11       -4.178388   1.000000
   12       -3.725552   1.000000
   13       -2.156398   1.000000
   14       -1.843814   1.000000
   15       -1.515318   1.000000
   16       -1.127385   1.000000
   17       -0.956855   1.000000
   18       -0.594188   1.000000
   19       -0.511579   1.000000
   20       -0.025929   1.000000
   21        0.167272   1.000000
   22        0.350411   1.000000
   23        0.870561   1.000000
   24        1.058985   1.000000
   25        8.223689   0.000000
   26       10.357520   0.000000
   27       10.535161   0.000000
   28       11.075260   0.000000
   29       11.254324   0.000000
 
  0.0000000E+00  0.5000000E+00  0.0000000E+00  0.5555556E-02
    1      -18.032331   1.000000
    2      -17.470062   1.000000
    3      -16.874283   1.000000
    4      -16.222843   1.000000
    5      -16.191552   1.000000
    6      -15.945876   1.000000
    7       -7.350905   1.000000
    8       -6.360905   1.000000
    9       -4.786450   1.000000
   10       -4.423427   1.000000
   11       -4.264187   1.000000
   12       -3.504256   1.000000
   13       -2.054439   1.000000
   14       -2.020138   1.000000
   15       -1.540097   1.000000
   16       -1.292870   1.000000
   17       -1.049530   1.000000
   18       -0.670840   1.000000
   19       -0.365155   1.000000
   20       -0.186374   1.000000
   21        0.238806   1.000000
   22        0.289759   1.000000
   23        0.913826   1.000000
   24        1.070652   1.000000
   25        9.337762   0.000000
   26       10.084847   0.000000
   27       10.637132   0.000000
   28       11.089239   0.000000
   29       11.566342   0.000000
 
  0.1666667E+00  0.5000000E+00  0.0000000E+00  0.1111111E-01
    1      -18.028565   1.000000
    2      -17.469656   1.000000
    3      -16.879093   1.000000
    4      -16.281663   1.000000
    5      -16.140829   1.000000
    6      -15.936968   1.000000
    7       -7.360215   1.000000
    8       -6.283676   1.000000
    9       -5.000040   1.000000
   10       -4.398630   1.000000
   11       -4.158752   1.000000
   12       -3.498988   1.000000
   13       -2.124881   1.000000
   14       -1.887498   1.000000
   15       -1.636455   1.000000
   16       -1.161328   1.000000
   17       -1.012160   1.000000
   18       -0.724520   1.000000
   19       -0.397587   1.000000
   20       -0.266324   1.000000
   21        0.126832   1.000000
   22        0.442330   1.000000
   23        0.874462   1.000000
   24        1.110881   1.000000
   25        9.237040   0.000000
   26       10.312836   0.000000
   27       10.607229   0.000000
   28       11.157397   0.000000
   29       11.581684   0.000000
 
  0.3333333E+00  0.5000000E+00  0.0000000E+00  0.1111111E-01
    1      -18.011746   1.000000
    2      -17.495363   1.000000
    3      -16.863492   1.000000
    4      -16.347299   1.000000
    5      -16.090069   1.000000
    6      -15.928255   1.000000
    7       -7.334199   1.000000
    8       -6.301461   1.000000
    9       -5.055926   1.000000
   10       -4.385800   1.000000
   11       -4.135419   1.000000
   12       -3.489539   1.000000
   13       -2.121235   1.000000
   14       -1.881249   1.000000
   15       -1.633500   1.000000
   16       -1.167152   1.000000
   17       -0.870266   1.000000
   18       -0.779531   1.000000
   19       -0.610873   1.000000
   20       -0.140690   1.000000
   21        0.043824   1.000000
   22        0.512146   1.000000
   23        0.839004   1.000000
   24        1.159710   1.000000
   25        9.234749   0.000000
   26       10.338133   0.000000
   27       10.623273   0.000000
   28       11.093892   0.000000
   29       11.433144   0.000000
 
  0.5000000E+00  0.5000000E+00  0.0000000E+00  0.5555556E-02
    1      -17.997652   1.000000
    2      -17.521776   1.000000
    3      -16.842537   1.000000
    4      -16.378556   1.000000
    5      -16.065274   1.000000
    6      -15.930054   1.000000
    7       -7.294680   1.000000
    8       -6.403002   1.000000
    9       -4.934482   1.000000
   10       -4.374526   1.000000
   11       -4.199420   1.000000
   12       -3.488637   1.000000
   13       -2.064089   1.000000
   14       -1.995807   1.000000
   15       -1.541831   1.000000
   16       -1.199551   1.000000
   17       -1.014395   1.000000
   18       -0.698174   1.000000
   19       -0.570439   1.000000
   20       -0.208197   1.000000
   21        0.152576   1.000000
   22        0.469549   1.000000
   23        0.843121   1.000000
   24        1.174261   1.000000
   25        9.334780   0.000000
   26       10.099725   0.000000
   27       10.747087   0.000000
   28       10.877533   0.000000
   29       11.578901   0.000000
 
  0.0000000E+00  0.0000000E+00  0.2000000E+00  0.1111111E-01
    1      -18.378687   1.000000
    2      -17.407239   1.000000
    3      -16.630356   1.000000
    4      -16.173311   1.000000
    5      -16.048247   1.000000
    6      -15.914280   1.000000
    7       -7.864316   1.000000
    8       -6.370788   1.000000
    9       -4.646763   1.000000
   10       -4.379009   1.000000
   11       -4.267790   1.000000
   12       -3.854109   1.000000
   13       -1.979301   1.000000
   14       -1.726659   1.000000
   15       -1.655347   1.000000
   16       -1.159993   1.000000
   17       -0.672189   1.000000
   18       -0.603048   1.000000
   19       -0.432971   1.000000
   20       -0.152995   1.000000
   21        0.156997   1.000000
   22        0.562577   1.000000
   23        0.834120   1.000000
   24        1.025180   1.000000
   25        7.492048   0.000000
   26       10.190554   0.000000
   27       10.435160   0.000000
   28       10.577137   0.000000
   29       11.185897   0.000000
 
  0.1666667E+00  0.0000000E+00  0.2000000E+00  0.1111111E-01
    1      -18.319155   1.000000
    2      -17.378271   1.000000
    3      -16.662029   1.000000
    4      -16.270285   1.000000
    5      -16.107100   1.000000
    6      -15.865993   1.000000
    7       -7.724374   1.000000
    8       -6.380066   1.000000
    9       -4.736350   1.000000
   10       -4.347074   1.000000
   11       -4.143386   1.000000
   12       -3.912962   1.000000
   13       -2.072742   1.000000
   14       -1.716044   1.000000
   15       -1.576827   1.000000
   16       -1.172245   1.000000
   17       -0.824551   1.000000
   18       -0.498303   1.000000
   19       -0.476845   1.000000
   20       -0.163990   1.000000
   21        0.195512   1.000000
   22        0.462850   1.000000
   23        0.775970   1.000000
   24        1.083540   1.000000
   25        7.868551   0.000000
   26       10.270655   0.000000
   27       10.471363   0.000000
   28       10.633383   0.000000
   29       11.301068   0.000000
 
  0.3333333E+00  0.0000000E+00  0.2000000E+00  0.1111111E-01
    1      -18.172415   1.000000
    2      -17.345169   1.000000
    3      -16.747529   1.000000
    4      -16.434413   1.000000
    5      -16.145939   1.000000
    6      -15.856247   1.000000
    7       -7.461874   1.000000
    8       -6.317316   1.000000
    9       -4.891759   1.000000
   10       -4.405464   1.000000
   11       -4.064760   1.000000
   12       -3.794664   1.000000
   13       -2.184869   1.000000
   14       -1.749297   1.000000
   15       -1.499909   1.000000
   16       -1.277665   1.000000
   17       -0.898753   1.000000
   18       -0.578117   1.000000
   19       -0.492165   1.000000
   20       -0.047687   1.000000
   21        0.178345   1.000000
   22        0.317828   1.000000
   23        0.824107   1.000000
   24        1.041471   1.000000
   25        8.783621   0.000000
   26       10.356912   0.000000
   27       10.510062   0.000000
   28       11.036561   0.000000
   29       11.373594   0.000000
 
  0.5000000E+00  0.8326673E-16  0.2000000E+00  0.1111111E-01
    1      -18.076505   1.000000
    2      -17.352218   1.000000
    3      -16.800889   1.000000
    4      -16.503640   1.000000
    5      -16.150477   1.000000
    6      -15.865947   1.000000
    7       -7.355904   1.000000
    8       -6.209707   1.000000
    9       -5.006261   1.000000
   10       -4.487386   1.000000
   11       -4.049347   1.000000
   12       -3.639339   1.000000
   13       -2.163316   1.000000
   14       -1.910850   1.000000
   15       -1.475333   1.000000
   16       -1.330342   1.000000
   17       -0.918733   1.000000
   18       -0.670492   1.000000
   19       -0.398998   1.000000
   20       -0.042093   1.000000
   21        0.151830   1.000000
   22        0.325955   1.000000
   23        0.819454   1.000000
   24        1.022605   1.000000
   25        9.537983   0.000000
   26       10.156331   0.000000
   27       10.714733   0.000000
   28       11.126786   0.000000
   29       11.591005   0.000000
 
 -0.3333333E+00  0.0000000E+00  0.2000000E+00  0.1111111E-01
    1      -18.163449   1.000000
    2      -17.386821   1.000000
    3      -16.672066   1.000000
    4      -16.482966   1.000000
    5      -16.114261   1.000000
    6      -15.882163   1.000000
    7       -7.484414   1.000000
    8       -6.268963   1.000000
    9       -4.908329   1.000000
   10       -4.488766   1.000000
   11       -4.011718   1.000000
   12       -3.745779   1.000000
   13       -2.119716   1.000000
   14       -1.775995   1.000000
   15       -1.554072   1.000000
   16       -1.407861   1.000000
   17       -0.947831   1.000000
   18       -0.518683   1.000000
   19       -0.329025   1.000000
   20       -0.033611   1.000000
   21        0.074443   1.000000
   22        0.406556   1.000000
   23        0.734735   1.000000
   24        1.077873   1.000000
   25        8.745382   0.000000
   26       10.355675   0.000000
   27       10.817259   0.000000
   28       11.174591   0.000000
   29       11.315683   0.000000
 
 -0.1666667E+00  0.0000000E+00  0.2000000E+00  0.1111111E-01
    1      -18.312688   1.000000
    2      -17.409147   1.000000
    3      -16.621085   1.000000
    4      -16.286191   1.000000
    5      -16.063597   1.000000
    6      -15.910461   1.000000
    7       -7.737844   1.000000
    8       -6.346289   1.000000
    9       -4.734890   1.000000
   10       -4.423962   1.000000
   11       -4.131762   1.000000
   12       -3.858647   1.000000
   13       -2.044358   1.000000
   14       -1.759992   1.000000
   15       -1.569752   1.000000
   16       -1.205730   1.000000
   17       -0.914365   1.000000
   18       -0.453675   1.000000
   19       -0.369668   1.000000
   20       -0.205756   1.000000
   21        0.257304   1.000000
   22        0.437523   1.000000
   23        0.770330   1.000000
   24        1.065643   1.000000
   25        7.857896   0.000000
   26       10.271079   0.000000
   27       10.575640   0.000000
   28       10.661823   0.000000
   29       11.184265   0.000000
 
  0.0000000E+00  0.1666667E+00  0.2000000E+00  0.1111111E-01
    1      -18.296712   1.000000
    2      -17.463711   1.000000
    3      -16.568832   1.000000
    4      -16.198031   1.000000
    5      -16.169724   1.000000
    6      -15.905390   1.000000
    7       -7.751261   1.000000
    8       -6.309449   1.000000
    9       -4.830719   1.000000
   10       -4.367550   1.000000
   11       -4.072064   1.000000
   12       -3.889561   1.000000
   13       -2.097129   1.000000
   14       -1.751788   1.000000
   15       -1.594910   1.000000
   16       -1.176816   1.000000
   17       -0.847420   1.000000
   18       -0.558809   1.000000
   19       -0.410015   1.000000
   20       -0.087582   1.000000
   21        0.241760   1.000000
   22        0.454378   1.000000
   23        0.776333   1.000000
   24        1.053340   1.000000
   25        7.857146   0.000000
   26       10.271925   0.000000
   27       10.561034   0.000000
   28       10.645234   0.000000
   29       11.209939   0.000000
 
  0.1666667E+00  0.1666667E+00  0.2000000E+00  0.1111111E-01
    1      -18.196002   1.000000
    2      -17.416247   1.000000
    3      -16.666530   1.000000
    4      -16.355845   1.000000
    5      -16.166138   1.000000
    6      -15.876033   1.000000
    7       -7.545038   1.000000
    8       -6.292759   1.000000
    9       -4.968913   1.000000
   10       -4.252328   1.000000
   11       -4.067603   1.000000
   12       -3.870617   1.000000
   13       -2.164200   1.000000
   14       -1.677424   1.000000
   15       -1.598334   1.000000
   16       -1.334817   1.000000
   17       -0.939471   1.000000
   18       -0.503060   1.000000
   19       -0.372247   1.000000
   20       -0.085787   1.000000
   21        0.256559   1.000000
   22        0.317540   1.000000
   23        0.755448   1.000000
   24        1.063642   1.000000
   25        8.497239   0.000000
   26       10.390661   0.000000
   27       10.673384   0.000000
   28       10.838511   0.000000
   29       11.355701   0.000000
 
  0.3333333E+00  0.1666667E+00  0.2000000E+00  0.1111111E-01
    1      -18.068180   1.000000
    2      -17.353878   1.000000
    3      -16.868565   1.000000
    4      -16.418317   1.000000
    5      -16.163896   1.000000
    6      -15.876328   1.000000
    7       -7.351608   1.000000
    8       -6.161299   1.000000
    9       -5.199525   1.000000
   10       -4.240237   1.000000
   11       -4.117457   1.000000
   12       -3.696573   1.000000
   13       -2.188579   1.000000
   14       -1.829143   1.000000
   15       -1.596484   1.000000
   16       -1.214476   1.000000
   17       -0.935105   1.000000
   18       -0.643497   1.000000
   19       -0.406101   1.000000
   20       -0.134950   1.000000
   21        0.181111   1.000000
   22        0.376431   1.000000
   23        0.824967   1.000000
   24        0.996962   1.000000
   25        9.423300   0.000000
   26       10.431277   0.000000
   27       10.633667   0.000000
   28       11.173951   0.000000
   29       11.324836   0.000000
 
  0.5000000E+00  0.1666667E+00  0.2000000E+00  0.1111111E-01
    1      -18.057436   1.000000
    2      -17.380673   1.000000
    3      -16.849406   1.000000
    4      -16.445807   1.000000