Starting job 28173600 ("jobname") on c14-21 at Fri Sep 13 11:30:04 CEST 2019
 running on    1 total cores
 distrk:  each k-point on    1 cores,    1 groups
 distr:  one band on    1 cores,    1 groups
 using from now: INCAR     
 vasp.5.4.1 05Feb16 (build Mar 02 2016 14:09:44) complex                        
  
 POSCAR found :  2 types and       9 ions
 LDA part: xc-table for Pade appr. of Perdew
 POSCAR, INCAR and KPOINTS ok, starting setup
 WARNING: small aliasing (wrap around) errors must be expected
 FFT: planning ...
 WAVECAR not read
 entering main loop
       N       E                     dE             d eps       ncg     rms          rms(c)
DAV:   1     0.378818786767E+03    0.37882E+03   -0.31267E+04  5336   0.205E+03
DAV:   2    -0.559034875785E+02   -0.43472E+03   -0.42349E+03  7091   0.384E+02
DAV:   3    -0.801289867660E+02   -0.24225E+02   -0.24151E+02  6221   0.101E+02
DAV:   4    -0.804617391400E+02   -0.33275E+00   -0.33218E+00  6296   0.127E+01
DAV:   5    -0.804680793819E+02   -0.63402E-02   -0.63377E-02  6166   0.174E+00    0.188E+01
RMM:   6    -0.707944951552E+02    0.96736E+01   -0.42231E+01  5672   0.347E+01    0.516E+00
RMM:   7    -0.707698026822E+02    0.24692E-01   -0.17209E+00  6143   0.605E+00    0.341E+00
RMM:   8    -0.707836932306E+02   -0.13891E-01   -0.28936E-01  6053   0.443E+00    0.654E-01
RMM:   9    -0.707753904254E+02    0.83028E-02   -0.52498E-02  6251   0.121E+00    0.154E-01
RMM:  10    -0.707782511169E+02   -0.28607E-02   -0.17026E-02  6190   0.683E-01    0.204E-01
RMM:  11    -0.707773253365E+02    0.92578E-03   -0.46202E-03  6186   0.397E-01    0.176E-02
RMM:  12    -0.707773685925E+02   -0.43256E-04   -0.16090E-04  5666   0.780E-02    0.130E-02
RMM:  13    -0.707773714196E+02   -0.28271E-05   -0.10340E-05  4020   0.205E-02
   1 F= -.70777371E+02 E0= -.70777371E+02  d E =0.000000E+00

Currently Loaded Modulefiles:
  1) Anaconda3/5.1.0       3) vesta/3.3.8           5) intel/2016.1
  2) gnuplot/5.0.4         4) imagemagick/6.7.9-0   6) vasp/5.4.1.Feb16

Job script resource usage:
       JobID  MaxVMSize     MaxRSS 
------------ ---------- ---------- 
28173600.ba+    667160K    302439K 

Job step resource usage:
       JobID    JobName  AllocCPUS  MaxVMSize     MaxRSS    Elapsed ExitCode 
------------ ---------- ---------- ---------- ---------- ---------- -------- 
28173600        jobname          1                         00:05:17      0:0 

Job 28173600 ("jobname") completed on c14-21 at Fri Sep 13 11:35:19 CEST 2019
