unknown system                          
   1.00000000000000     
     2.573869    0.000000    0.000000
     1.286934    2.229036    0.000000
     0.000000    0.000000   30.304665
   Cu   H 
     4     1
Direct
  0.000000  0.000000  0.398815
  0.333333  0.333333  0.467250
  0.666667  0.666667  0.536042
  0.000000  0.000000  0.605684
  0.000000  0.000000  0.655627
 
   20   20  240
 -.27492E-01 -.26207E-01 -.20727E-01 -.13303E-01 -.67252E-02 -.19821E-02 0.84922E-03 0.12115E-02 -.69635E-03 -.28243E-02
 -.32390E-02 -.21377E-02 -.69679E-03 0.56060E-03 0.91668E-03 -.12797E-02 -.67248E-02 -.13750E-01 -.20137E-01 -.24962E-01
 -.26207E-01 -.22503E-01 -.15367E-01 -.82703E-02 -.33613E-02 -.61499E-03 -.16684E-03 -.24264E-02 -.58070E-02 -.73602E-02
 -.61899E-02 -.39238E-02 -.18754E-02 -.31200E-03 -.35258E-03 -.36237E-02 -.96715E-02 -.16132E-01 -.21494E-01 -.25325E-01
 -.20727E-01 -.15367E-01 -.88132E-02 -.42593E-02 -.22948E-02 -.25368E-02 -.55575E-02 -.10845E-01 -.15209E-01 -.15854E-01
 -.13383E-01 -.98530E-02 -.60396E-02 -.26575E-02 -.18797E-02 -.50225E-02 -.10419E-01 -.15601E-01 -.19710E-01 -.22036E-01
 -.13303E-01 -.82703E-02 -.42593E-02 -.29967E-02 -.42421E-02 -.83922E-02 -.15959E-01 -.24461E-01 -.29375E-01 -.28733E-01
 -.24096E-01 -.17312E-01 -.95704E-02 -.34017E-02 -.18035E-02 -.46959E-02 -.90700E-02 -.12785E-01 -.15464E-01 -.16095E-01
 -.67252E-02 -.33613E-02 -.22948E-02 -.42421E-02 -.95199E-02 -.19150E-01 -.31900E-01 -.42620E-01 -.46325E-01 -.42409E-01
 -.33244E-01 -.21261E-01 -.95225E-02 -.21716E-02 -.11016E-02 -.38038E-02 -.67296E-02 -.88766E-02 -.10284E-01 -.97506E-02
 -.19821E-02 -.61499E-03 -.25368E-02 -.83922E-02 -.19150E-01 -.34744E-01 -.50813E-01 -.60410E-01 -.59821E-01 -.50503E-01
 -.35965E-01 -.19977E-01 -.71886E-02 -.11953E-02 -.10878E-02 -.27789E-02 -.39652E-02 -.50529E-02 -.57669E-02 -.46077E-02
 0.84922E-03 -.16684E-03 -.55575E-02 -.15959E-01 -.31900E-01 -.50813E-01 -.65796E-01 -.70489E-01 -.64043E-01 -.49906E-01
 -.32308E-01 -.15795E-01 -.49253E-02 -.10369E-02 -.97577E-03 -.12777E-02 -.16632E-02 -.26871E-02 -.28957E-02 -.10847E-02
 0.12115E-02 -.24264E-02 -.10845E-01 -.24461E-01 -.42620E-01 -.60410E-01 -.70489E-01 -.69192E-01 -.58485E-01 -.42410E-01
 -.24923E-01 -.10537E-01 -.26909E-02 -.56019E-03 -.50001E-03 -.75181E-03 -.18297E-02 -.29315E-02 -.19781E-02 0.53217E-03
 -.69635E-03 -.58070E-02 -.15209E-01 -.29375E-01 -.46325E-01 -.59821E-01 -.64043E-01 -.58485E-01 -.46326E-01 -.30790E-01
 -.15434E-01 -.47187E-02 -.69145E-03 -.94567E-03 -.22422E-02 -.39112E-02 -.57281E-02 -.56756E-02 -.28345E-02 -.18486E-05
 -.28243E-02 -.73602E-02 -.15854E-01 -.28733E-01 -.42409E-01 -.50503E-01 -.49906E-01 -.42410E-01 -.30790E-01 -.17362E-01
 -.60271E-02 -.88711E-03 -.18817E-02 -.52499E-02 -.84389E-02 -.11137E-01 -.12110E-01 -.95382E-02 -.47806E-02 -.18420E-02
 -.32390E-02 -.61899E-02 -.13383E-01 -.24096E-01 -.33244E-01 -.35965E-01 -.32308E-01 -.24923E-01 -.15434E-01 -.60271E-02
 -.96630E-03 -.26005E-02 -.81942E-02 -.13633E-01 -.17641E-01 -.19885E-01 -.18509E-01 -.13010E-01 -.67332E-02 -.33219E-02
 -.21377E-02 -.39238E-02 -.98530E-02 -.17312E-01 -.21261E-01 -.19977E-01 -.15795E-01 -.10537E-01 -.47187E-02 -.88711E-03
 -.26005E-02 -.94175E-02 -.17100E-01 -.22940E-01 -.26835E-01 -.27594E-01 -.23197E-01 -.15086E-01 -.77316E-02 -.35543E-02
 -.69679E-03 -.18754E-02 -.60396E-02 -.95704E-02 -.95225E-02 -.71886E-02 -.49253E-02 -.26909E-02 -.69145E-03 -.18817E-02
 -.81942E-02 -.17100E-01 -.24980E-01 -.30912E-01 -.34330E-01 -.32662E-01 -.24978E-01 -.15051E-01 -.73791E-02 -.28056E-02
 0.56060E-03 -.31200E-03 -.26575E-02 -.34017E-02 -.21716E-02 -.11953E-02 -.10369E-02 -.56019E-03 -.94567E-03 -.52499E-02
 -.13633E-01 -.22940E-01 -.30912E-01 -.36812E-01 -.38396E-01 -.33122E-01 -.22782E-01 -.12680E-01 -.58087E-02 -.15092E-02
 0.91668E-03 -.35258E-03 -.18797E-02 -.18035E-02 -.11016E-02 -.10878E-02 -.97577E-03 -.50001E-03 -.22422E-02 -.84389E-02
 -.17641E-01 -.26835E-01 -.34330E-01 -.38396E-01 -.36287E-01 -.27757E-01 -.17098E-01 -.88431E-02 -.35998E-02 -.22445E-03
 -.12797E-02 -.36237E-02 -.50225E-02 -.46959E-02 -.38038E-02 -.27789E-02 -.12777E-02 -.75181E-03 -.39112E-02 -.11137E-01
 -.19885E-01 -.27594E-01 -.32662E-01 -.33122E-01 -.27757E-01 -.18797E-01 -.10575E-01 -.51887E-02 -.19088E-02 -.39382E-03
 -.67248E-02 -.96715E-02 -.10419E-01 -.90700E-02 -.67296E-02 -.39652E-02 -.16632E-02 -.18297E-02 -.57281E-02 -.12110E-01
 -.18509E-01 -.23197E-01 -.24978E-01 -.22782E-01 -.17098E-01 -.10575E-01 -.57257E-02 -.30333E-02 -.21982E-02 -.35394E-02
 -.13750E-01 -.16132E-01 -.15601E-01 -.12785E-01 -.88766E-02 -.50529E-02 -.26871E-02 -.29315E-02 -.56756E-02 -.95382E-02
 -.13010E-01 -.15086E-01 -.15051E-01 -.12680E-01 -.88431E-02 -.51887E-02 -.30333E-02 -.29828E-02 -.52594E-02 -.94101E-02
 -.20137E-01 -.21494E-01 -.19710E-01 -.15464E-01 -.10284E-01 -.57669E-02 -.28957E-02 -.19781E-02 -.28345E-02 -.47806E-02
 -.67332E-02 -.77316E-02 -.73791E-02 -.58087E-02 -.35998E-02 -.19088E-02 -.21982E-02 -.52594E-02 -.10450E-01 -.16028E-01
 -.24962E-01 -.25325E-01 -.22036E-01 -.16095E-01 -.97506E-02 -.46077E-02 -.10847E-02 0.53217E-03 -.18486E-05 -.18420E-02
 -.33219E-02 -.35543E-02 -.28056E-02 -.15092E-02 -.22445E-03 -.39382E-03 -.35394E-02 -.94101E-02 -.16028E-01 -.21549E-01
 -.40574E-01 -.37695E-01 -.29223E-01 -.18435E-01 -.89428E-02 -.25358E-02 0.72333E-03 0.14010E-02 0.51019E-03 -.49468E-03
 -.65454E-03 -.13908E-03 0.51071E-03 0.10161E-02 0.63179E-03 -.22886E-02 -.89440E-02 -.18603E-01 -.28918E-01 -.37107E-01
 -.37695E-01 -.31849E-01 -.21775E-01 -.11705E-01 -.45433E-02 -.64378E-03 0.61409E-03 -.47154E-04 -.12079E-02 -.13319E-02
 -.38907E-03 0.46252E-03 0.74860E-03 0.66246E-03 -.67001E-03 -.50192E-02 -.12804E-01 -.22339E-01 -.31231E-01 -.37142E-01
 -.29223E-01 -.21775E-01 -.12753E-01 -.59076E-02 -.21094E-02 -.45330E-03 -.45178E-03 -.15222E-02 -.21430E-02 -.14860E-02
 -.60221E-03 -.49778E-03 -.57021E-03 -.48002E-03 -.18993E-02 -.65815E-02 -.13928E-01 -.21820E-01 -.28349E-01 -.31505E-01
 -.18435E-01 -.11705E-01 -.59076E-02 -.27336E-02 -.12072E-02 -.66102E-03 -.14728E-02 -.29563E-02 -.34942E-02 -.30181E-02
 -.27755E-02 -.26744E-02 -.16117E-02 -.43630E-03 -.17169E-02 -.62542E-02 -.12238E-01 -.17778E-01 -.21725E-01 -.22368E-01
 -.89428E-02 -.45433E-02 -.21094E-02 -.12072E-02 -.71887E-03 -.13257E-02 -.35716E-02 -.57749E-02 -.62703E-02 -.56992E-02
 -.49939E-02 -.33943E-02 -.72054E-03 0.70129E-03 -.11405E-02 -.51100E-02 -.89481E-02 -.11970E-01 -.13787E-01 -.12879E-01
 -.25358E-02 -.64378E-03 -.45330E-03 -.66102E-03 -.13257E-02 -.38000E-02 -.72948E-02 -.91059E-02 -.84746E-02 -.69610E-02
 -.51055E-02 -.22238E-02 0.57681E-03 0.87739E-03 -.13048E-02 -.35603E-02 -.48843E-02 -.61180E-02 -.68300E-02 -.54358E-02
 0.72333E-03 0.61409E-03 -.45178E-03 -.14728E-02 -.35716E-02 -.72948E-02 -.10231E-01 -.10173E-01 -.82385E-02 -.63273E-02
 -.41399E-02 -.12832E-02 0.48266E-03 -.58455E-04 -.11800E-02 -.11533E-02 -.10151E-02 -.18782E-02 -.22652E-02 -.85983E-03
 0.14010E-02 -.47154E-04 -.15222E-02 -.29563E-02 -.57749E-02 -.91059E-02 -.10173E-01 -.86766E-02 -.69375E-02 -.56834E-02
 -.36109E-02 -.10487E-02 0.33799E-04 -.23651E-03 0.16417E-03 0.12100E-02 0.10022E-02 -.19130E-03 -.12068E-03 0.11979E-02
 0.51019E-03 -.12079E-02 -.21430E-02 -.34942E-02 -.62703E-02 -.84746E-02 -.82385E-02 -.69375E-02 -.62711E-02 -.51632E-02
 -.25102E-02 -.53743E-04 0.51535E-03 0.48604E-03 0.12905E-02 0.16706E-02 0.54967E-03 -.28553E-03 0.63665E-03 0.15292E-02
 -.49468E-03 -.13319E-02 -.14860E-02 -.30181E-02 -.56992E-02 -.69610E-02 -.63273E-02 -.56834E-02 -.51632E-02 -.30920E-02
 -.62571E-04 0.12760E-02 0.66332E-03 0.33876E-03 0.73614E-03 0.24587E-03 -.83942E-03 -.48697E-03 0.94175E-03 0.98168E-03
 -.65454E-03 -.38907E-03 -.60221E-03 -.27755E-02 -.49939E-02 -.51055E-02 -.41399E-02 -.36109E-02 -.25102E-02 -.62571E-04
 0.16172E-02 0.82090E-03 -.67156E-03 -.79585E-03 -.54704E-03 -.12297E-02 -.14947E-02 -.18062E-03 0.93145E-03 0.26347E-03
 -.13908E-03 0.46252E-03 -.49778E-03 -.26744E-02 -.33943E-02 -.22238E-02 -.12832E-02 -.10487E-02 -.53743E-04 0.12760E-02
 0.82090E-03 -.10870E-02 -.18967E-02 -.12861E-02 -.12805E-02 -.20016E-02 -.15262E-02 0.26273E-04 0.49820E-03 -.19556E-03
 0.51071E-03 0.74860E-03 -.57021E-03 -.16117E-02 -.72054E-03 0.57681E-03 0.48266E-03 0.33799E-04 0.51535E-03 0.66332E-03
 -.67156E-03 -.18967E-02 -.15805E-02 -.11853E-02 -.20901E-02 -.27336E-02 -.15792E-02 -.10517E-03 0.49974E-06 -.19292E-03
 0.10161E-02 0.66246E-03 -.48002E-03 -.43630E-03 0.70129E-03 0.87739E-03 -.58455E-04 -.23651E-03 0.48604E-03 0.33876E-03
 -.79585E-03 -.12861E-02 -.11853E-02 -.20658E-02 -.34496E-02 -.31512E-02 -.12454E-02 -.35367E-04 -.53304E-04 0.26822E-03
 0.63179E-03 -.67001E-03 -.18993E-02 -.17169E-02 -.11405E-02 -.13048E-02 -.11800E-02 0.16417E-03 0.12905E-02 0.73614E-03
 -.54704E-03 -.12805E-02 -.20901E-02 -.34496E-02 -.38054E-02 -.21402E-02 -.16404E-03 0.35755E-03 0.23564E-03 0.63574E-03
 -.22886E-02 -.50192E-02 -.65815E-02 -.62542E-02 -.51100E-02 -.35603E-02 -.11533E-02 0.12100E-02 0.16706E-02 0.24587E-03
 -.12297E-02 -.20016E-02 -.27336E-02 -.31512E-02 -.21402E-02 -.22706E-03 0.73547E-03 0.42788E-03 0.43138E-04 -.45777E-03
 -.89440E-02 -.12804E-01 -.13928E-01 -.12238E-01 -.89481E-02 -.48843E-02 -.10151E-02 0.10022E-02 0.54967E-03 -.83942E-03
 -.14947E-02 -.15262E-02 -.15792E-02 -.12454E-02 -.16404E-03 0.73547E-03 0.55226E-03 -.36149E-03 -.17726E-02 -.45824E-02
 -.18603E-01 -.22339E-01 -.21820E-01 -.17778E-01 -.11970E-01 -.61180E-02 -.18782E-02 -.19130E-03 -.28553E-03 -.48697E-03
 -.18062E-03 0.26273E-04 -.10517E-03 -.35367E-04 0.35755E-03 0.42788E-03 -.36149E-03 -.23489E-02 -.62346E-02 -.12239E-01
 -.28918E-01 -.31231E-01 -.28349E-01 -.21725E-01 -.13787E-01 -.68300E-02 -.22652E-02 -.12068E-03 0.63665E-03 0.94175E-03
 0.93145E-03 0.49820E-03 0.49974E-06 -.53304E-04 0.23564E-03 0.43138E-04 -.17726E-02 -.62346E-02 -.13524E-01 -.22100E-01
 -.37107E-01 -.37142E-01 -.31505E-01 -.22368E-01 -.12879E-01 -.54358E-02 -.85983E-03 0.11979E-02 0.15292E-02 0.98168E-03
 0.26347E-03 -.19556E-03 -.19292E-03 0.26822E-03 0.63574E-03 -.45777E-03 -.45824E-02 -.12239E-01 -.22100E-01 -.31408E-01
 0.27906E-01 0.25860E-01 0.20355E-01 0.13392E-01 0.71507E-02 0.29266E-02 0.89130E-03 0.52447E-03 0.10656E-02 0.17646E-02
 0.20737E-02 0.17894E-02 0.10664E-02 0.40397E-03 0.63971E-03 0.27188E-02 0.71488E-02 0.13503E-01 0.20375E-01 0.25790E-01
 0.25860E-01 0.22093E-01 0.16190E-01 0.97782E-02 0.44797E-02 0.14900E-02 0.97934E-03 0.22241E-02 0.42952E-02 0.62445E-02
 0.69605E-02 0.57544E-02 0.32662E-02 0.12236E-02 0.11774E-02 0.37901E-02 0.89779E-02 0.15826E-01 0.22321E-01 0.26083E-01
 0.20355E-01 0.16190E-01 0.10798E-01 0.53549E-02 0.19225E-02 0.20696E-02 0.54035E-02 0.10232E-01 0.14804E-01 0.17297E-01
 0.16061E-01 0.11290E-01 0.56490E-02 0.21379E-02 0.19296E-02 0.47705E-02 0.10050E-01 0.16333E-01 0.21085E-01 0.22384E-01
 0.13392E-01 0.97782E-02 0.53549E-02 0.20520E-02 0.28609E-02 0.85959E-02 0.17025E-01 0.25163E-01 0.30549E-01 0.30860E-01
 0.25160E-01 0.15972E-01 0.78703E-02 0.35622E-02 0.28932E-02 0.50984E-02 0.95110E-02 0.14190E-01 0.16556E-01 0.15900E-01
 0.71507E-02 0.44797E-02 0.19225E-02 0.28609E-02 0.99194E-02 0.21520E-01 0.33614E-01 0.42883E-01 0.46693E-01 0.42824E-01
 0.32112E-01 0.19492E-01 0.99182E-02 0.46072E-02 0.26655E-02 0.37880E-02 0.71481E-02 0.10079E-01 0.10520E-01 0.91297E-02
 0.29266E-02 0.14900E-02 0.20696E-02 0.85959E-02 0.21520E-01 0.36871E-01 0.50315E-01 0.58897E-01 0.59571E-01 0.50673E-01
 0.35480E-01 0.20551E-01 0.98698E-02 0.33907E-02 0.63926E-03 0.16729E-02 0.45514E-02 0.60176E-02 0.53062E-02 0.40898E-02
 0.89130E-03 0.97934E-03 0.54035E-02 0.17025E-01 0.33614E-01 0.50315E-01 0.63487E-01 0.69831E-01 0.65721E-01 0.51344E-01
 0.32883E-01 0.17239E-01 0.66440E-02 0.50705E-03 -.10921E-02 0.10299E-02 0.34108E-02 0.34109E-02 0.21455E-02 0.14277E-02
 0.52447E-03 0.22241E-02 0.10232E-01 0.25163E-01 0.42883E-01 0.58897E-01 0.69831E-01 0.71529E-01 0.61311E-01 0.42856E-01
 0.24314E-01 0.10872E-01 0.26520E-02 -.97934E-03 -.10940E-03 0.28149E-02 0.39372E-02 0.26515E-02 0.13797E-02 0.92746E-03
 0.10656E-02 0.42952E-02 0.14804E-01 0.30549E-01 0.46693E-01 0.59571E-01 0.65721E-01 0.61311E-01 0.46694E-01 0.28625E-01
 0.14294E-01 0.55145E-02 0.10682E-02 0.77454E-03 0.37680E-02 0.64351E-02 0.61189E-02 0.42824E-02 0.30498E-02 0.19190E-02
 0.17646E-02 0.62445E-02 0.17297E-01 0.30860E-01 0.42824E-01 0.50673E-01 0.51344E-01 0.42856E-01 0.28625E-01 0.15593E-01
 0.74519E-02 0.33689E-02 0.26085E-02 0.54897E-02 0.98912E-02 0.11920E-01 0.10721E-01 0.85414E-02 0.62271E-02 0.32079E-02
 0.20737E-02 0.69605E-02 0.16061E-01 0.25160E-01 0.32112E-01 0.35480E-01 0.32883E-01 0.24314E-01 0.14294E-01 0.74519E-02
 0.43481E-02 0.40103E-02 0.70530E-02 0.13098E-01 0.18399E-01 0.19598E-01 0.17371E-01 0.13706E-01 0.87990E-02 0.36150E-02
 0.17894E-02 0.57544E-02 0.11290E-01 0.15972E-01 0.19492E-01 0.20551E-01 0.17239E-01 0.10872E-01 0.55145E-02 0.33689E-02
 0.40103E-02 0.76768E-02 0.15003E-01 0.23448E-01 0.28259E-01 0.27576E-01 0.23225E-01 0.16835E-01 0.91603E-02 0.29294E-02
 0.10664E-02 0.32662E-02 0.56490E-02 0.78703E-02 0.99182E-02 0.98698E-02 0.66440E-02 0.26520E-02 0.10682E-02 0.26085E-02
 0.70530E-02 0.15003E-01 0.25349E-01 0.33611E-01 0.35824E-01 0.32265E-01 0.25350E-01 0.16538E-01 0.75828E-02 0.18215E-02
 0.40397E-03 0.12236E-02 0.21379E-02 0.35622E-02 0.46072E-02 0.33907E-02 0.50705E-03 -.97934E-03 0.77454E-03 0.54897E-02
 0.13098E-01 0.23448E-01 0.33611E-01 0.38997E-01 0.37814E-01 0.31889E-01 0.23372E-01 0.13668E-01 0.52652E-02 0.90144E-03
 0.63971E-03 0.11774E-02 0.19296E-02 0.28932E-02 0.26655E-02 0.63926E-03 -.10921E-02 -.10940E-03 0.37680E-02 0.98912E-02
 0.18399E-01 0.28259E-01 0.35824E-01 0.37814E-01 0.34349E-01 0.27460E-01 0.18622E-01 0.95380E-02 0.30137E-02 0.55587E-03
 0.27188E-02 0.37901E-02 0.47705E-02 0.50984E-02 0.37880E-02 0.16729E-02 0.10299E-02 0.28149E-02 0.64351E-02 0.11920E-01
 0.19598E-01 0.27576E-01 0.32265E-01 0.31889E-01 0.27460E-01 0.20513E-01 0.12335E-01 0.52257E-02 0.16386E-02 0.15390E-02
 0.71488E-02 0.89779E-02 0.10050E-01 0.95110E-02 0.71481E-02 0.45514E-02 0.34108E-02 0.39372E-02 0.61189E-02 0.10721E-01
 0.17371E-01 0.23225E-01 0.25350E-01 0.23372E-01 0.18622E-01 0.12335E-01 0.61217E-02 0.24148E-02 0.24327E-02 0.47293E-02
 0.13503E-01 0.15826E-01 0.16333E-01 0.14190E-01 0.10079E-01 0.60176E-02 0.34109E-02 0.26515E-02 0.42824E-02 0.85414E-02
 0.13706E-01 0.16835E-01 0.16538E-01 0.13668E-01 0.95380E-02 0.52257E-02 0.24148E-02 0.27646E-02 0.59884E-02 0.10073E-01
 0.20375E-01 0.22321E-01 0.21085E-01 0.16556E-01 0.10520E-01 0.53062E-02 0.21455E-02 0.13797E-02 0.30498E-02 0.62271E-02
 0.87990E-02 0.91603E-02 0.75828E-02 0.52652E-02 0.30137E-02 0.16386E-02 0.24327E-02 0.59884E-02 0.11210E-01 0.16372E-01
 0.25790E-01 0.26083E-01 0.22384E-01 0.15900E-01 0.91297E-02 0.40898E-02 0.14277E-02 0.92746E-03 0.19190E-02 0.32079E-02
 0.36150E-02 0.29294E-02 0.18215E-02 0.90144E-03 0.55587E-03 0.15390E-02 0.47293E-02 0.10073E-01 0.16372E-01 0.22093E-01
 0.41582E-01 0.38562E-01 0.29591E-01 0.18558E-01 0.95372E-02 0.39932E-02 0.11805E-02 0.70768E-04 -.11456E-03 -.17833E-03
 -.44245E-03 -.48368E-03 -.11455E-03 0.21183E-03 0.76648E-03 0.33302E-02 0.95354E-02 0.18949E-01 0.29327E-01 0.37836E-01
 0.38562E-01 0.32446E-01 0.22704E-01 0.13057E-01 0.59839E-02 0.18632E-02 -.38710E-04 -.47862E-03 -.73442E-04 0.58688E-03
 0.10769E-02 0.11754E-02 0.80984E-03 0.40075E-03 0.12639E-02 0.50807E-02 0.12555E-01 0.22538E-01 0.32283E-01 0.38457E-01
 0.29591E-01 0.22704E-01 0.14408E-01 0.70058E-02 0.20744E-02 -.53483E-05 0.80219E-05 0.10580E-02 0.24151E-02 0.34318E-02
 0.33893E-02 0.21504E-02 0.61779E-03 0.15911E-03 0.18801E-02 0.65110E-02 0.14086E-01 0.23032E-01 0.30176E-01 0.32600E-01
 0.18558E-01 0.13057E-01 0.70058E-02 0.20832E-02 0.69539E-04 0.92066E-03 0.28642E-02 0.45643E-02 0.57363E-02 0.58824E-02
 0.43781E-02 0.19600E-02 0.42031E-03 0.70326E-03 0.27504E-02 0.68384E-02 0.13055E-01 0.19498E-01 0.23066E-01 0.22396E-01
 0.95372E-02 0.59839E-02 0.20744E-02 0.69539E-04 0.13755E-02 0.42591E-02 0.63145E-02 0.73363E-02 0.78673E-02 0.71413E-02
 0.47306E-02 0.22701E-02 0.13753E-02 0.16549E-02 0.25903E-02 0.51655E-02 0.95387E-02 0.13252E-01 0.13990E-01 0.12260E-01
 0.39932E-02 0.18632E-02 -.53483E-05 0.92066E-03 0.42591E-02 0.69901E-02 0.80783E-02 0.89810E-02 0.96981E-02 0.84613E-02
 0.55117E-02 0.32162E-02 0.22311E-02 0.13068E-02 0.82142E-03 0.25098E-02 0.56017E-02 0.71657E-02 0.64533E-02 0.52278E-02
 0.11805E-02 -.38710E-04 0.80219E-05 0.28642E-02 0.63145E-02 0.80783E-02 0.93129E-02 0.11238E-01 0.11792E-01 0.91693E-02
 0.54181E-02 0.31025E-02 0.15566E-02 -.30895E-03 -.88356E-03 0.99364E-03 0.29877E-02 0.27992E-02 0.17070E-02 0.14965E-02
 0.70768E-04 -.47862E-03 0.10580E-02 0.45643E-02 0.73363E-02 0.89810E-02 0.11238E-01 0.13138E-01 0.11642E-01 0.71893E-02
 0.35190E-02 0.18647E-02 0.29793E-03 -.12996E-02 -.89381E-03 0.97714E-03 0.13467E-02 -.31826E-04 -.56286E-03 0.14712E-03
 -.11456E-03 -.73442E-04 0.24151E-02 0.57363E-02 0.78673E-02 0.96981E-02 0.11792E-01 0.11642E-01 0.78701E-02 0.35579E-02
 0.17631E-02 0.12113E-02 -.11633E-03 -.92838E-03 0.15570E-03 0.10930E-02 -.63819E-05 -.12581E-02 -.62707E-03 0.31963E-03
 -.17833E-03 0.58688E-03 0.34318E-02 0.58824E-02 0.71413E-02 0.84613E-02 0.91693E-02 0.71893E-02 0.35579E-02 0.16301E-02
 0.17334E-02 0.12593E-02 -.11271E-03 -.16559E-03 0.10136E-02 0.95480E-03 -.35906E-03 -.46311E-03 0.70769E-03 0.76960E-03
 -.44245E-03 0.10769E-02 0.33893E-02 0.43781E-02 0.47306E-02 0.55117E-02 0.54181E-02 0.35190E-02 0.17631E-02 0.17334E-02
 0.18355E-02 0.60546E-03 -.28077E-03 0.72698E-03 0.19184E-02 0.15001E-02 0.81111E-03 0.13278E-02 0.16077E-02 0.37119E-03
 -.48368E-03 0.11754E-02 0.21504E-02 0.19600E-02 0.22701E-02 0.32162E-02 0.31025E-02 0.18647E-02 0.12113E-02 0.12593E-02
 0.60546E-03 -.30607E-03 0.43325E-03 0.24452E-02 0.33339E-02 0.26895E-02 0.22402E-02 0.21730E-02 0.10734E-02 -.54051E-03
 -.11455E-03 0.80984E-03 0.61779E-03 0.42031E-03 0.13753E-02 0.22311E-02 0.15566E-02 0.29793E-03 -.11633E-03 -.11271E-03
 -.28077E-03 0.43325E-03 0.25860E-02 0.44047E-02 0.43106E-02 0.32620E-02 0.25872E-02 0.17109E-02 0.10710E-03 -.82836E-03
 0.21183E-03 0.40075E-03 0.15911E-03 0.70326E-03 0.16549E-02 0.13068E-02 -.30895E-03 -.12996E-02 -.92838E-03 -.16559E-03
 0.72698E-03 0.24452E-02 0.44047E-02 0.49426E-02 0.39609E-02 0.29299E-02 0.22536E-02 0.11072E-02 -.22020E-03 -.45600E-03
 0.76648E-03 0.12639E-02 0.18801E-02 0.27504E-02 0.25903E-02 0.82142E-03 -.88356E-03 -.89381E-03 0.15570E-03 0.10136E-02
 0.19184E-02 0.33339E-02 0.43106E-02 0.39609E-02 0.30768E-02 0.25982E-02 0.19811E-02 0.68623E-03 -.29684E-03 -.35653E-04
 0.33302E-02 0.50807E-02 0.65110E-02 0.68384E-02 0.51655E-02 0.25098E-02 0.99364E-03 0.97714E-03 0.10930E-02 0.95480E-03
 0.15001E-02 0.26895E-02 0.32620E-02 0.29299E-02 0.25982E-02 0.23247E-02 0.12914E-02 -.83465E-04 -.20676E-03 0.13168E-02
 0.95354E-02 0.12555E-01 0.14086E-01 0.13055E-01 0.95387E-02 0.56017E-02 0.29877E-02 0.13467E-02 -.63819E-05 -.35906E-03
 0.81111E-03 0.22402E-02 0.25872E-02 0.22536E-02 0.19811E-02 0.12914E-02 -.46500E-05 -.33273E-03 0.17900E-02 0.56546E-02
 0.18949E-01 0.22538E-01 0.23032E-01 0.19498E-01 0.13252E-01 0.71657E-02 0.27992E-02 -.31826E-04 -.12581E-02 -.46311E-03
 0.13278E-02 0.21730E-02 0.17109E-02 0.11072E-02 0.68623E-03 -.83465E-04 -.33273E-03 0.19774E-02 0.72210E-02 0.13507E-01
 0.29327E-01 0.32283E-01 0.30176E-01 0.23066E-01 0.13990E-01 0.64533E-02 0.17070E-02 -.56286E-03 -.62707E-03 0.70769E-03
 0.16077E-02 0.10734E-02 0.10710E-03 -.22020E-03 -.29684E-03 -.20676E-03 0.17900E-02 0.72210E-02 0.15106E-01 0.23072E-01
 0.37836E-01 0.38457E-01 0.32600E-01 0.22396E-01 0.12260E-01 0.52278E-02 0.14965E-02 0.14712E-03 0.31963E-03 0.76960E-03
 0.37119E-03 -.54051E-03 -.82836E-03 -.45600E-03 -.35653E-04 0.13168E-02 0.56546E-02 0.13507E-01 0.23072E-01 0.31921E-01
 -.27518E-01 -.24914E-01 -.20170E-01 -.13873E-01 -.67429E-02 -.10944E-02 0.11554E-02 0.67984E-03 -.69702E-03 -.21679E-02
 -.32469E-02 -.28032E-02 -.69753E-03 0.10822E-02 0.57814E-03 -.22132E-02 -.67443E-02 -.13201E-01 -.20718E-01 -.26296E-01
 -.24914E-01 -.21478E-01 -.15896E-01 -.90354E-02 -.29281E-02 0.12931E-05 -.70062E-03 -.32216E-02 -.56209E-02 -.69813E-02
 -.67171E-02 -.45819E-02 -.16873E-02 -.67776E-04 -.88685E-03 -.40460E-02 -.92379E-02 -.15862E-01 -.22032E-01 -.25347E-01
 -.20170E-01 -.15896E-01 -.99654E-02 -.45137E-02 -.17462E-02 -.26666E-02 -.64572E-02 -.11122E-01 -.14652E-01 -.15732E-01
 -.13960E-01 -.99948E-02 -.54830E-02 -.24065E-02 -.21428E-02 -.49191E-02 -.98604E-02 -.15382E-01 -.19728E-01 -.21533E-01
 -.13873E-01 -.90354E-02 -.45137E-02 -.25565E-02 -.39626E-02 -.87528E-02 -.16197E-01 -.23966E-01 -.28826E-01 -.28845E-01
 -.24336E-01 -.16952E-01 -.90262E-02 -.33951E-02 -.20630E-02 -.45923E-02 -.87732E-02 -.12792E-01 -.15711E-01 -.16395E-01
 -.67429E-02 -.29281E-02 -.17462E-02 -.39626E-02 -.95392E-02 -.19113E-01 -.31581E-01 -.42289E-01 -.46335E-01 -.42620E-01
 -.33247E-01 -.21062E-01 -.95370E-02 -.25373E-02 -.14571E-02 -.38737E-02 -.67387E-02 -.91833E-02 -.10862E-01 -.10217E-01
 -.10944E-02 0.12931E-05 -.26666E-02 -.87528E-02 -.19113E-01 -.34520E-01 -.50935E-01 -.60799E-01 -.60039E-01 -.50527E-01
 -.36085E-01 -.20229E-01 -.74066E-02 -.13641E-02 -.12314E-02 -.28074E-02 -.39369E-02 -.51807E-02 -.58938E-02 -.42226E-02
 0.11554E-02 -.70062E-03 -.64572E-02 -.16197E-01 -.31581E-01 -.50935E-01 -.66447E-01 -.70760E-01 -.63723E-01 -.49781E-01
 -.32643E-01 -.15936E-01 -.46022E-02 -.76960E-03 -.98859E-03 -.11866E-02 -.13670E-02 -.24733E-02 -.26642E-02 -.58006E-03
 0.67984E-03 -.32216E-02 -.11122E-01 -.23966E-01 -.42289E-01 -.60799E-01 -.70760E-01 -.68656E-01 -.57891E-01 -.42555E-01
 -.25208E-01 -.10149E-01 -.20967E-02 -.55643E-03 -.77025E-03 -.61484E-03 -.15169E-02 -.29886E-02 -.22606E-02 0.27358E-03
 -.69702E-03 -.56209E-02 -.14652E-01 -.28826E-01 -.46335E-01 -.60039E-01 -.63723E-01 -.57891E-01 -.46330E-01 -.31259E-01
 -.15445E-01 -.42701E-02 -.70221E-03 -.15474E-02 -.25676E-02 -.37054E-02 -.57414E-02 -.62537E-02 -.34143E-02 -.19636E-03
 -.21679E-02 -.69813E-02 -.15732E-01 -.28845E-01 -.42620E-01 -.50527E-01 -.49781E-01 -.42555E-01 -.31259E-01 -.17631E-01
 -.58958E-02 -.89715E-03 -.23606E-02 -.56672E-02 -.83131E-02 -.10890E-01 -.12317E-01 -.99149E-02 -.46572E-02 -.11953E-02
 -.32469E-02 -.67171E-02 -.13960E-01 -.24336E-01 -.33247E-01 -.36085E-01 -.32643E-01 -.25208E-01 -.15445E-01 -.58958E-02
 -.96652E-03 -.27416E-02 -.82096E-02 -.13381E-01 -.17327E-01 -.19772E-01 -.18513E-01 -.12787E-01 -.61787E-02 -.28141E-02
 -.28032E-02 -.45819E-02 -.99948E-02 -.16952E-01 -.21062E-01 -.20229E-01 -.15936E-01 -.10149E-01 -.42701E-02 -.89715E-03
 -.27416E-02 -.91581E-02 -.16647E-01 -.22814E-01 -.26973E-01 -.27579E-01 -.23003E-01 -.15002E-01 -.78835E-02 -.39522E-02
 -.69753E-03 -.16873E-02 -.54830E-02 -.90262E-02 -.95370E-02 -.74066E-02 -.46022E-02 -.20967E-02 -.70221E-03 -.23606E-02
 -.82096E-02 -.16647E-01 -.24986E-01 -.31513E-01 -.34656E-01 -.32452E-01 -.24986E-01 -.15629E-01 -.79643E-02 -.30050E-02
 0.10822E-02 -.67776E-04 -.24065E-02 -.33951E-02 -.25373E-02 -.13641E-02 -.76960E-03 -.55643E-03 -.15474E-02 -.56672E-02
 -.13381E-01 -.22814E-01 -.31513E-01 -.37352E-01 -.38132E-01 -.32740E-01 -.23122E-01 -.13190E-01 -.55511E-02 -.72913E-03
 0.57814E-03 -.88685E-03 -.21428E-02 -.20630E-02 -.14571E-02 -.12314E-02 -.98859E-03 -.77025E-03 -.25676E-02 -.83131E-02
 -.17327E-01 -.26973E-01 -.34656E-01 -.38132E-01 -.35646E-01 -.27646E-01 -.17424E-01 -.86136E-02 -.27166E-02 0.28141E-03
 -.22132E-02 -.40460E-02 -.49191E-02 -.45923E-02 -.38737E-02 -.28074E-02 -.11866E-02 -.61484E-03 -.37054E-02 -.10890E-01
 -.19772E-01 -.27579E-01 -.32452E-01 -.32740E-01 -.27646E-01 -.19038E-01 -.10632E-01 -.48485E-02 -.18055E-02 -.10491E-02
 -.67443E-02 -.92379E-02 -.98604E-02 -.87732E-02 -.67387E-02 -.39369E-02 -.13670E-02 -.15169E-02 -.57414E-02 -.12317E-01
 -.18513E-01 -.23003E-01 -.24986E-01 -.23122E-01 -.17424E-01 -.10632E-01 -.57424E-02 -.33543E-02 -.27843E-02 -.40080E-02
 -.13201E-01 -.15862E-01 -.15382E-01 -.12792E-01 -.91833E-02 -.51807E-02 -.24733E-02 -.29886E-02 -.62537E-02 -.99149E-02
 -.12787E-01 -.15002E-01 -.15629E-01 -.13190E-01 -.86136E-02 -.48485E-02 -.33543E-02 -.34713E-02 -.50411E-02 -.86671E-02
 -.20718E-01 -.22032E-01 -.19728E-01 -.15711E-01 -.10862E-01 -.58938E-02 -.26642E-02 -.22606E-02 -.34143E-02 -.46572E-02
 -.61787E-02 -.78835E-02 -.79643E-02 -.55511E-02 -.27166E-02 -.18055E-02 -.27843E-02 -.50411E-02 -.93212E-02 -.15516E-01
 -.26296E-01 -.25347E-01 -.21533E-01 -.16395E-01 -.10217E-01 -.42226E-02 -.58006E-03 0.27358E-03 -.19636E-03 -.11953E-02
 -.28141E-02 -.39522E-02 -.30050E-02 -.72913E-03 0.28141E-03 -.10491E-02 -.40080E-02 -.86671E-02 -.15516E-01 -.22601E-01
 -.41883E-01 -.37599E-01 -.29635E-01 -.19673E-01 -.93303E-02 -.17903E-02 0.10086E-02 0.86563E-03 0.45575E-03 0.45561E-04
 -.80515E-03 -.92025E-03 0.45568E-03 0.15315E-02 0.26923E-03 -.33653E-02 -.93313E-02 -.18719E-01 -.30468E-01 -.39640E-01
 -.37599E-01 -.31866E-01 -.23079E-01 -.12943E-01 -.43285E-02 -.10046E-03 0.20979E-04 -.99203E-03 -.12983E-02 -.13165E-02
 -.12781E-02 -.46862E-03 0.78927E-03 0.84689E-03 -.12794E-02 -.56619E-02 -.12845E-01 -.22844E-01 -.32810E-01 -.38362E-01
 -.29635E-01 -.23079E-01 -.14418E-01 -.64305E-02 -.16882E-02 -.72929E-03 -.16721E-02 -.23753E-02 -.23849E-02 -.22503E-02
 -.19775E-02 -.12140E-02 -.33261E-03 -.37416E-03 -.22895E-02 -.67479E-02 -.13885E-01 -.22377E-01 -.29337E-01 -.32044E-01
 -.19673E-01 -.12943E-01 -.64305E-02 -.24433E-02 -.11342E-02 -.14943E-02 -.26010E-02 -.37805E-02 -.45347E-02 -.47208E-02
 -.43373E-02 -.32074E-02 -.15397E-02 -.63332E-03 -.21243E-02 -.64198E-02 -.12416E-01 -.18451E-01 -.22752E-01 -.23449E-01
 -.93303E-02 -.43285E-02 -.16882E-02 -.11342E-02 -.12717E-02 -.23803E-02 -.49958E-02 -.77129E-02 -.87518E-02 -.81812E-02
 -.67435E-02 -.42894E-02 -.12674E-02 0.13160E-03 -.16232E-02 -.53995E-02 -.93254E-02 -.12765E-01 -.14899E-01 -.13837E-01
 -.17903E-02 -.10046E-03 -.72929E-03 -.14943E-02 -.23803E-02 -.54845E-02 -.10109E-01 -.12668E-01 -.11864E-01 -.96752E-02
 -.71355E-02 -.35696E-02 -.11321E-03 0.56338E-03 -.15228E-02 -.37327E-02 -.50992E-02 -.65525E-02 -.72647E-02 -.52945E-02
 0.10086E-02 0.20979E-04 -.16721E-02 -.26010E-02 -.49958E-02 -.10109E-01 -.14324E-01 -.14169E-01 -.11356E-01 -.88920E-02
 -.62203E-02 -.23169E-02 0.48641E-03 0.15020E-03 -.12156E-02 -.11494E-02 -.87695E-03 -.18510E-02 -.21916E-02 -.44071E-03
 0.86563E-03 -.99203E-03 -.23753E-02 -.37805E-02 -.77129E-02 -.12668E-01 -.14169E-01 -.11864E-01 -.95142E-02 -.80991E-02
 -.52167E-02 -.12356E-02 0.47981E-03 -.23718E-03 -.13639E-03 0.12360E-02 0.11445E-02 -.42061E-03 -.51639E-03 0.90952E-03
 0.45575E-03 -.12983E-02 -.23849E-02 -.45347E-02 -.87518E-02 -.11864E-01 -.11356E-01 -.95142E-02 -.87475E-02 -.72233E-02
 -.33201E-02 0.11996E-03 0.44970E-03 -.17416E-03 0.80040E-03 0.16047E-02 0.21928E-03 -.11396E-02 -.10985E-03 0.12782E-02
 0.45561E-04 -.13165E-02 -.22503E-02 -.47208E-02 -.81812E-02 -.96752E-02 -.88920E-02 -.80991E-02 -.72233E-02 -.42472E-02
 -.29269E-03 0.11505E-02 0.61034E-04 -.35946E-03 0.39495E-03 -.93871E-04 -.16343E-02 -.13315E-02 0.78659E-03 0.15075E-02
 -.80515E-03 -.12781E-02 -.19775E-02 -.43373E-02 -.67435E-02 -.71355E-02 -.62203E-02 -.52167E-02 -.33201E-02 -.29269E-03
 0.14763E-02 0.50956E-03 -.10758E-02 -.12216E-02 -.11466E-02 -.21198E-02 -.24119E-02 -.63376E-03 0.10989E-02 0.60019E-03
 -.92025E-03 -.46862E-03 -.12140E-02 -.32074E-02 -.42894E-02 -.35696E-02 -.23169E-02 -.12356E-02 0.11996E-03 0.11505E-02
 0.50956E-03 -.12588E-02 -.22560E-02 -.23395E-02 -.28222E-02 -.33903E-02 -.25109E-02 -.70179E-03 -.86468E-04 -.76560E-03
 0.45568E-03 0.78927E-03 -.33261E-03 -.15397E-02 -.12674E-02 -.11321E-03 0.48641E-03 0.47981E-03 0.44970E-03 0.61034E-04
 -.10758E-02 -.22560E-02 -.28666E-02 -.34332E-02 -.42016E-02 -.41717E-02 -.28684E-02 -.14951E-02 -.97366E-03 -.51555E-03
 0.15315E-02 0.84689E-03 -.37416E-03 -.63332E-03 0.13160E-03 0.56338E-03 0.15020E-03 -.23718E-03 -.17416E-03 -.35946E-03
 -.12216E-02 -.23395E-02 -.34332E-02 -.45371E-02 -.51162E-02 -.44166E-02 -.27641E-02 -.12214E-02 -.74617E-04 0.98953E-03
 0.26923E-03 -.12794E-02 -.22895E-02 -.21243E-02 -.16232E-02 -.15228E-02 -.12156E-02 -.13639E-03 0.80040E-03 0.39495E-03
 -.11466E-02 -.28222E-02 -.42016E-02 -.51162E-02 -.49509E-02 -.34317E-02 -.14033E-02 0.12151E-03 0.95515E-03 0.11107E-02
 -.33653E-02 -.56619E-02 -.67479E-02 -.64198E-02 -.53995E-02 -.37327E-02 -.11494E-02 0.12360E-02 0.16047E-02 -.93871E-04
 -.21198E-02 -.33903E-02 -.41717E-02 -.44166E-02 -.34317E-02 -.14732E-02 0.88240E-04 0.49491E-03 0.36926E-04 -.11981E-02
 -.93313E-02 -.12845E-01 -.13885E-01 -.12416E-01 -.93254E-02 -.50992E-02 -.87695E-03 0.11445E-02 0.21928E-03 -.16343E-02
 -.24119E-02 -.25109E-02 -.28684E-02 -.27641E-02 -.14033E-02 0.88240E-04 0.21562E-03 -.85417E-03 -.25157E-02 -.52928E-02
 -.18719E-01 -.22844E-01 -.22377E-01 -.18451E-01 -.12765E-01 -.65525E-02 -.18510E-02 -.42061E-03 -.11396E-02 -.13315E-02
 -.63376E-03 -.70179E-03 -.14951E-02 -.12214E-02 0.12151E-03 0.49491E-03 -.85417E-03 -.30261E-02 -.63256E-02 -.11984E-01
 -.30468E-01 -.32810E-01 -.29337E-01 -.22752E-01 -.14899E-01 -.72647E-02 -.21916E-02 -.51639E-03 -.10985E-03 0.78659E-03
 0.10989E-02 -.86468E-04 -.97366E-03 -.74617E-04 0.95515E-03 0.36926E-04 -.25157E-02 -.63256E-02 -.12932E-01 -.22368E-01
 -.39640E-01 -.38362E-01 -.32044E-01 -.23449E-01 -.13837E-01 -.52945E-02 -.44071E-03 0.90952E-03 0.12782E-02 0.15075E-02
 0.60019E-03 -.76560E-03 -.51555E-03 0.98953E-03 0.11107E-02 -.11981E-02 -.52928E-02 -.11984E-01 -.22368E-01 -.33502E-01
 0.27866E-01 0.27143E-01 0.20907E-01 0.12818E-01 0.71341E-02 0.38186E-02 0.12010E-02 -.65712E-05 0.10660E-02 0.24260E-02
 0.20733E-02 0.11291E-02 0.10667E-02 0.92380E-03 0.29976E-03 0.17871E-02 0.71336E-02 0.14054E-01 0.19788E-01 0.24443E-01
 0.27143E-01 0.23112E-01 0.15658E-01 0.90124E-02 0.49160E-02 0.21110E-02 0.44766E-03 0.14275E-02 0.44803E-02 0.66260E-02
 0.64390E-02 0.51018E-02 0.34571E-02 0.14673E-02 0.64136E-03 0.33677E-02 0.94126E-02 0.16094E-01 0.21776E-01 0.26051E-01