unknown system                          
   1.00000000000000     
     2.573869    0.000000    0.000000
     1.286934    2.229036    0.000000
     0.000000    0.000000   30.304665
   Cu   H 
     4     1
Direct
  0.000000  0.000000  0.398815
  0.333333  0.333333  0.467250
  0.666667  0.666667  0.536042
  0.000000  0.000000  0.605684
  0.000000  0.000000  0.655627
 
   20   20  240
 -.27492141940E-01 -.26206776075E-01 -.20727160275E-01 -.13302772105E-01 -.67252102419E-02
 -.19820931750E-02 0.84922055484E-03 0.12115134576E-02 -.69635041908E-03 -.28242500027E-02
 -.32390351540E-02 -.21376595941E-02 -.69679127445E-03 0.56060145759E-03 0.91668494197E-03
 -.12797410000E-02 -.67248481534E-02 -.13749512780E-01 -.20136855573E-01 -.24961797718E-01
 -.26206776075E-01 -.22503466342E-01 -.15366862849E-01 -.82702595827E-02 -.33612752681E-02
 -.61498956674E-03 -.16683885111E-03 -.24264454862E-02 -.58069891676E-02 -.73601685036E-02
 -.61898555490E-02 -.39238126537E-02 -.18753872787E-02 -.31200462984E-03 -.35257913629E-03
 -.36237310131E-02 -.96714592796E-02 -.16132180807E-01 -.21494197288E-01 -.25325162158E-01
 -.20727160275E-01 -.15366862849E-01 -.88132103934E-02 -.42593121064E-02 -.22948413719E-02
 -.25368487823E-02 -.55575030670E-02 -.10845408284E-01 -.15209402340E-01 -.15854232270E-01
 -.13382548889E-01 -.98529685806E-02 -.60395851533E-02 -.26574604692E-02 -.18797357730E-02
 -.50225426633E-02 -.10418698584E-01 -.15601197820E-01 -.19710179555E-01 -.22036031577E-01
 -.13302772104E-01 -.82702595825E-02 -.42593121063E-02 -.29967000345E-02 -.42421470943E-02
 -.83921824060E-02 -.15959244621E-01 -.24460929314E-01 -.29374907873E-01 -.28732882021E-01
 -.24096026973E-01 -.17311892514E-01 -.95703517981E-02 -.34016633866E-02 -.18034763305E-02
 -.46958763353E-02 -.90699933550E-02 -.12784841087E-01 -.15464425864E-01 -.16095431440E-01
 -.67252102418E-02 -.33612752681E-02 -.22948413718E-02 -.42421470943E-02 -.95198854839E-02
 -.19150323324E-01 -.31900197291E-01 -.42619767391E-01 -.46324787330E-01 -.42408821614E-01
 -.33243869995E-01 -.21261397985E-01 -.95225290821E-02 -.21715689869E-02 -.11015653581E-02
 -.38037510476E-02 -.67296216456E-02 -.88766467293E-02 -.10283824361E-01 -.97506327205E-02
 -.19820931749E-02 -.61498956671E-03 -.25368487822E-02 -.83921824059E-02 -.19150323324E-01
 -.34743571559E-01 -.50812964664E-01 -.60410452593E-01 -.59820738242E-01 -.50502572192E-01
 -.35964642617E-01 -.19977451084E-01 -.71886220374E-02 -.11953425859E-02 -.10878229133E-02
 -.27789371594E-02 -.39652033567E-02 -.50529141153E-02 -.57668693895E-02 -.46077152397E-02
 0.84922055508E-03 -.16683885098E-03 -.55575030667E-02 -.15959244621E-01 -.31900197290E-01
 -.50812964664E-01 -.65796430694E-01 -.70489397064E-01 -.64042961102E-01 -.49906266734E-01
 -.32308106977E-01 -.15794762595E-01 -.49252667257E-02 -.10368537210E-02 -.97577460699E-03
 -.12777432889E-02 -.16631896324E-02 -.26870960995E-02 -.28956936551E-02 -.10847355566E-02
 0.12115134577E-02 -.24264454861E-02 -.10845408284E-01 -.24460929314E-01 -.42619767391E-01
 -.60410452593E-01 -.70489397064E-01 -.69192490866E-01 -.58484797442E-01 -.42410177018E-01
 -.24922831358E-01 -.10537488781E-01 -.26908727068E-02 -.56019167231E-03 -.50000780207E-03
 -.75181353834E-03 -.18296788816E-02 -.29314785359E-02 -.19780530370E-02 0.53216729499E-03
 -.69635041860E-03 -.58069891673E-02 -.15209402340E-01 -.29374907873E-01 -.46324787330E-01
 -.59820738242E-01 -.64042961102E-01 -.58484797442E-01 -.46326274235E-01 -.30789607497E-01
 -.15434046460E-01 -.47186633502E-02 -.69144927918E-03 -.94567159300E-03 -.22421563054E-02
 -.39111874244E-02 -.57280953346E-02 -.56756026075E-02 -.28344909538E-02 -.18485632758E-05
 -.28242500025E-02 -.73601685032E-02 -.15854232270E-01 -.28732882021E-01 -.42408821614E-01
 -.50502572192E-01 -.49906266734E-01 -.42410177017E-01 -.30789607497E-01 -.17361874055E-01
 -.60270708235E-02 -.88711169106E-03 -.18817008382E-02 -.52498985809E-02 -.84389074914E-02
 -.11137099287E-01 -.12110478493E-01 -.95382274173E-02 -.47806495177E-02 -.18419745158E-02
 -.32390351537E-02 -.61898555486E-02 -.13382548889E-01 -.24096026973E-01 -.33243869995E-01
 -.35964642617E-01 -.32308106976E-01 -.24922831358E-01 -.15434046460E-01 -.60270708236E-02
 -.96629542052E-03 -.26005199711E-02 -.81941915157E-02 -.13633449398E-01 -.17641260753E-01
 -.19885353831E-01 -.18508954304E-01 -.13009849169E-01 -.67332111845E-02 -.33219209632E-02
 -.21376595938E-02 -.39238126535E-02 -.98529685804E-02 -.17311892514E-01 -.21261397984E-01
 -.19977451084E-01 -.15794762595E-01 -.10537488781E-01 -.47186633502E-02 -.88711169102E-03
 -.26005199711E-02 -.94174624901E-02 -.17099795587E-01 -.22940305859E-01 -.26835090440E-01
 -.27594219667E-01 -.23197459930E-01 -.15085888907E-01 -.77315951339E-02 -.35542795192E-02
 -.69679127414E-03 -.18753872784E-02 -.60395851529E-02 -.95703517977E-02 -.95225290820E-02
 -.71886220373E-02 -.49252667257E-02 -.26908727068E-02 -.69144927934E-03 -.18817008383E-02
 -.81941915157E-02 -.17099795587E-01 -.24979986647E-01 -.30911714791E-01 -.34330421306E-01
 -.32662241638E-01 -.24978400254E-01 -.15051476952E-01 -.73791364932E-02 -.28055941058E-02
 0.56060145772E-03 -.31200462976E-03 -.26574604688E-02 -.34016633865E-02 -.21715689868E-02
 -.11953425858E-02 -.10368537209E-02 -.56019167236E-03 -.94567159300E-03 -.52498985811E-02
 -.13633449398E-01 -.22940305859E-01 -.30911714791E-01 -.36811736017E-01 -.38396351637E-01
 -.33122387550E-01 -.22781534021E-01 -.12680033627E-01 -.58087185663E-02 -.15091578161E-02
 0.91668494218E-03 -.35257913609E-03 -.18797357728E-02 -.18034763305E-02 -.11015653581E-02
 -.10878229130E-02 -.97577460681E-03 -.50000780195E-03 -.22421563055E-02 -.84389074915E-02
 -.17641260752E-01 -.26835090440E-01 -.34330421306E-01 -.38396351637E-01 -.36286942397E-01
 -.27757170695E-01 -.17097989048E-01 -.88431219297E-02 -.35998141575E-02 -.22444638867E-03
 -.12797410000E-02 -.36237310131E-02 -.50225426631E-02 -.46958763354E-02 -.38037510475E-02
 -.27789371593E-02 -.12777432889E-02 -.75181353833E-03 -.39111874246E-02 -.11137099287E-01
 -.19885353831E-01 -.27594219667E-01 -.32662241638E-01 -.33122387550E-01 -.27757170695E-01
 -.18797127166E-01 -.10575163338E-01 -.51887017963E-02 -.19088143792E-02 -.39381579239E-03
 -.67248481536E-02 -.96714592795E-02 -.10418698584E-01 -.90699933550E-02 -.67296216456E-02
 -.39652033566E-02 -.16631896324E-02 -.18296788816E-02 -.57280953347E-02 -.12110478493E-01
 -.18508954304E-01 -.23197459930E-01 -.24978400255E-01 -.22781534021E-01 -.17097989049E-01
 -.10575163338E-01 -.57256997623E-02 -.30333014467E-02 -.21982202893E-02 -.35394449086E-02
 -.13749512780E-01 -.16132180807E-01 -.15601197820E-01 -.12784841086E-01 -.88766467295E-02
 -.50529141154E-02 -.26870960996E-02 -.29314785359E-02 -.56756026077E-02 -.95382274175E-02
 -.13009849169E-01 -.15085888907E-01 -.15051476952E-01 -.12680033628E-01 -.88431219297E-02
 -.51887017964E-02 -.30333014467E-02 -.29828420717E-02 -.52594464107E-02 -.94101435797E-02
 -.20136855574E-01 -.21494197289E-01 -.19710179555E-01 -.15464425864E-01 -.10283824362E-01
 -.57668693896E-02 -.28956936553E-02 -.19780530372E-02 -.28344909543E-02 -.47806495178E-02
 -.67332111849E-02 -.77315951342E-02 -.73791364936E-02 -.58087185664E-02 -.35998141578E-02
 -.19088143794E-02 -.21982202896E-02 -.52594464110E-02 -.10449617955E-01 -.16028274593E-01
 -.24961797717E-01 -.25325162158E-01 -.22036031577E-01 -.16095431439E-01 -.97506327210E-02
 -.46077152399E-02 -.10847355568E-02 0.53216729481E-03 -.18485636382E-05 -.18419745162E-02
 -.33219209635E-02 -.35542795196E-02 -.28055941061E-02 -.15091578163E-02 -.22444638895E-03
 -.39381579253E-03 -.35394449087E-02 -.94101435801E-02 -.16028274593E-01 -.21549214330E-01
 -.40574430725E-01 -.37694508587E-01 -.29222953949E-01 -.18435059867E-01 -.89428400848E-02
 -.25358052978E-02 0.72332755300E-03 0.14009721066E-02 0.51018891198E-03 -.49468462369E-03
 -.65454438715E-03 -.13907901499E-03 0.51071095944E-03 0.10160996297E-02 0.63178979440E-03
 -.22886283929E-02 -.89439760409E-02 -.18603014525E-01 -.28918192520E-01 -.37107211917E-01
 -.37694508587E-01 -.31849436286E-01 -.21775307782E-01 -.11704751631E-01 -.45432620663E-02
 -.64378398051E-03 0.61409491690E-03 -.47153829048E-04 -.12079233892E-02 -.13319273390E-02
 -.38907097313E-03 0.46252161055E-03 0.74859620527E-03 0.66245838912E-03 -.67000941020E-03
 -.50192000893E-02 -.12804097196E-01 -.22338896501E-01 -.31230738554E-01 -.37142057180E-01
 -.29222953950E-01 -.21775307783E-01 -.12752855187E-01 -.59075903403E-02 -.21093946928E-02
 -.45329887981E-03 -.45177735621E-03 -.15222281359E-02 -.21430020061E-02 -.14859562976E-02
 -.60221497543E-03 -.49777593278E-03 -.57020893835E-03 -.48001915371E-03 -.18992748739E-02
 -.65814961997E-02 -.13928331437E-01 -.21820108139E-01 -.28349105289E-01 -.31505337845E-01
 -.18435059866E-01 -.11704751630E-01 -.59075903400E-02 -.27335674355E-02 -.12072374249E-02
 -.66101888424E-03 -.14728141827E-02 -.29563366144E-02 -.34941522257E-02 -.30181463077E-02
 -.27755300964E-02 -.26743779946E-02 -.16117069451E-02 -.43630059078E-03 -.17168614827E-02
 -.62542202541E-02 -.12238406030E-01 -.17777611364E-01 -.21725379184E-01 -.22368406702E-01
 -.89428400847E-02 -.45432620664E-02 -.21093946928E-02 -.12072374250E-02 -.71886819239E-03
 -.13257319474E-02 -.35716153739E-02 -.57748881143E-02 -.62702738759E-02 -.56992158822E-02
 -.49939095284E-02 -.33943019175E-02 -.72053879404E-03 0.70128848799E-03 -.11404696042E-02
 -.51100056237E-02 -.89481396711E-02 -.11970198294E-01 -.13786708374E-01 -.12879205409E-01
 -.25358052978E-02 -.64378398042E-03 -.45329887975E-03 -.66101888405E-03 -.13257319473E-02
 -.37999542782E-02 -.72947742216E-02 -.91058620359E-02 -.84746348747E-02 -.69609637985E-02
 -.51055063474E-02 -.22238334414E-02 0.57681050294E-03 0.87738796605E-03 -.13047860222E-02
 -.35602953882E-02 -.48843093347E-02 -.61179570106E-02 -.68300325691E-02 -.54357881404E-02
 0.72332755315E-03 0.61409491703E-03 -.45177735607E-03 -.14728141828E-02 -.35716153736E-02
 -.72947742219E-02 -.10230744312E-01 -.10172879541E-01 -.82384928238E-02 -.63273434432E-02
 -.41399016988E-02 -.12832382152E-02 0.48265813971E-03 -.58455316307E-04 -.11799562855E-02
 -.11532905431E-02 -.10151221391E-02 -.18782466074E-02 -.22651513900E-02 -.85982853275E-03
 0.14009721066E-02 -.47153829026E-04 -.15222281357E-02 -.29563366142E-02 -.57748881141E-02
 -.91058620358E-02 -.10172879541E-01 -.86765665316E-02 -.69374844794E-02 -.56834345426E-02
 -.36109019232E-02 -.10486974149E-02 0.33798529163E-04 -.23651094201E-03 0.16417132876E-03
 0.12099686641E-02 0.10021676336E-02 -.19129852744E-03 -.12067979318E-03 0.11979393852E-02
 0.51018891243E-03 -.12079233889E-02 -.21430020058E-02 -.34941522254E-02 -.62702738754E-02
 -.84746348743E-02 -.82384928238E-02 -.69374844794E-02 -.62710969184E-02 -.51631516795E-02
 -.25102239314E-02 -.53743141368E-04 0.51534788879E-03 0.48604037654E-03 0.12904641613E-02
 0.16706062850E-02 0.54967067850E-03 -.28553230364E-03 0.63665371194E-03 0.15292112286E-02
 -.49468462347E-03 -.13319273386E-02 -.14859562973E-02 -.30181463075E-02 -.56992158817E-02
 -.69609637982E-02 -.63273434432E-02 -.56834345424E-02 -.51631516794E-02 -.30920164081E-02
 -.62570622134E-04 0.12760146283E-02 0.66331743516E-03 0.33875679419E-03 0.73614051621E-03
 0.24586925053E-03 -.83942205867E-03 -.48696652311E-03 0.94175394860E-03 0.98168153941E-03
 -.65454438680E-03 -.38907097273E-03 -.60221497506E-03 -.27755300962E-02 -.49939095279E-02
 -.51055063471E-02 -.41399016987E-02 -.36109019231E-02 -.25102239313E-02 -.62570622227E-04
 0.16172169495E-02 0.82089935772E-03 -.67156081533E-03 -.79585066599E-03 -.54703866878E-03
 -.12297163072E-02 -.14946670575E-02 -.18061541405E-03 0.93144891352E-03 0.26346779171E-03
 -.13907901478E-03 0.46252161086E-03 -.49777593251E-03 -.26743779944E-02 -.33943019172E-02
 -.22238334411E-02 -.12832382152E-02 -.10486974147E-02 -.53743141279E-04 0.12760146284E-02
 0.82089935770E-03 -.10870494399E-02 -.18966762805E-02 -.12860701582E-02 -.12804972951E-02
 -.20016385478E-02 -.15262033685E-02 0.26272816921E-04 0.49819605795E-03 -.19556180888E-03
 0.51071095979E-03 0.74859620552E-03 -.57020893800E-03 -.16117069447E-02 -.72053879384E-03
 0.57681050318E-03 0.48265813978E-03 0.33798529159E-04 0.51534788862E-03 0.66331743512E-03
 -.67156081541E-03 -.18966762805E-02 -.15805042946E-02 -.11853251355E-02 -.20900757688E-02
 -.27335655560E-02 -.15791711534E-02 -.10516930676E-03 0.49973647620E-06 -.19292248929E-03
 0.10160996299E-02 0.66245838926E-03 -.48001915331E-03 -.43630059068E-03 0.70128848814E-03
 0.87738796618E-03 -.58455316299E-04 -.23651094205E-03 0.48604037653E-03 0.33875679410E-03
 -.79585066591E-03 -.12860701581E-02 -.11853251356E-02 -.20658457406E-02 -.34495826140E-02
 -.31512031626E-02 -.12453630867E-02 -.35366639612E-04 -.53303579204E-04 0.26822302776E-03
 0.63178979465E-03 -.67000940993E-03 -.18992748736E-02 -.17168614826E-02 -.11404696040E-02
 -.13047860221E-02 -.11799562854E-02 0.16417132885E-03 0.12904641612E-02 0.73614051622E-03
 -.54703866887E-03 -.12804972954E-02 -.20900757689E-02 -.34495826140E-02 -.38053534795E-02
 -.21401689267E-02 -.16403556865E-03 0.35754574620E-03 0.23563778428E-03 0.63573564984E-03
 -.22886283930E-02 -.50192000894E-02 -.65814961996E-02 -.62542202540E-02 -.51100056237E-02
 -.35602953883E-02 -.11532905431E-02 0.12099686640E-02 0.16706062849E-02 0.24586925039E-03
 -.12297163072E-02 -.20016385482E-02 -.27335655561E-02 -.31512031627E-02 -.21401689266E-02
 -.22705611710E-03 0.73546846340E-03 0.42788160381E-03 0.43137670836E-04 -.45776508928E-03
 -.89439760408E-02 -.12804097196E-01 -.13928331436E-01 -.12238406029E-01 -.89481396709E-02
 -.48843093347E-02 -.10151221389E-02 0.10021676336E-02 0.54967067836E-03 -.83942205870E-03
 -.14946670576E-02 -.15262033683E-02 -.15791711535E-02 -.12453630870E-02 -.16403556897E-03
 0.73546846321E-03 0.55226032402E-03 -.36148521765E-03 -.17725663473E-02 -.45824282179E-02
 -.18603014525E-01 -.22338896502E-01 -.21820108138E-01 -.17777611363E-01 -.11970198295E-01
 -.61179570109E-02 -.18782466074E-02 -.19129852741E-03 -.28553230381E-03 -.48696652327E-03
 -.18061541401E-03 0.26272816569E-04 -.10516930714E-03 -.35366639771E-04 0.35754574600E-03
 0.42788160363E-03 -.36148521772E-03 -.23489121686E-02 -.62346406847E-02 -.12238610432E-01
 -.28918192520E-01 -.31230738554E-01 -.28349105288E-01 -.21725379184E-01 -.13786708375E-01
 -.68300325694E-02 -.22651513902E-02 -.12067979332E-03 0.63665371146E-03 0.94175394851E-03
 0.93144891311E-03 0.49819605776E-03 0.49973592198E-06 -.53303579406E-04 0.23563778396E-03
 0.43137670644E-04 -.17725663476E-02 -.62346406849E-02 -.13524278458E-01 -.22100075548E-01
 -.37107211917E-01 -.37142057179E-01 -.31505337845E-01 -.22368406702E-01 -.12879205409E-01
 -.54357881405E-02 -.85982853294E-03 0.11979393851E-02 0.15292112283E-02 0.98168153906E-03
 0.26346779138E-03 -.19556180924E-03 -.19292248962E-03 0.26822302758E-03 0.63573564948E-03
 -.45776508942E-03 -.45824282182E-02 -.12238610432E-01 -.22100075547E-01 -.31408249889E-01
 0.27905900771E-01 0.25859927847E-01 0.20355441899E-01 0.13391808279E-01 0.71507468239E-02
 0.29265877499E-02 0.89130410176E-03 0.52446847129E-03 0.10656467735E-02 0.17645712839E-02
 0.20736934189E-02 0.17893865038E-02 0.10663750641E-02 0.40397431394E-03 0.63970506430E-03
 0.27188119119E-02 0.71487712210E-02 0.13503127778E-01 0.20375274413E-01 0.25790195410E-01
 0.25859927847E-01 0.22093142729E-01 0.16190270969E-01 0.97781591511E-02 0.44796673917E-02
 0.14900310343E-02 0.97934285917E-03 0.22240533883E-02 0.42952476533E-02 0.62444638184E-02
 0.69604953126E-02 0.57543578609E-02 0.32662497883E-02 0.12236245928E-02 0.11773731084E-02
 0.37901325577E-02 0.89779412164E-02 0.15825748551E-01 0.22320633744E-01 0.26083436208E-01
 0.20355441899E-01 0.16190270969E-01 0.10798041284E-01 0.53548584022E-02 0.19225284181E-02
 0.20696243710E-02 0.54035259921E-02 0.10231863126E-01 0.14804030402E-01 0.17296971384E-01
 0.16060697069E-01 0.11289683656E-01 0.56490326839E-02 0.21379456190E-02 0.19296131614E-02
 0.47704715509E-02 0.10050350647E-01 0.16332650955E-01 0.21085213589E-01 0.22384135112E-01
 0.13391808280E-01 0.97781591511E-02 0.53548584022E-02 0.20519772505E-02 0.28608610883E-02
 0.85958951845E-02 0.17024806755E-01 0.25163104130E-01 0.30549112453E-01 0.30859855642E-01
 0.25160118253E-01 0.15972194559E-01 0.78702581781E-02 0.35621542122E-02 0.28932198149E-02
 0.50983687007E-02 0.95109547406E-02 0.14190491590E-01 0.16556378546E-01 0.15900176091E-01
 0.71507468240E-02 0.44796673915E-02 0.19225284181E-02 0.28608610883E-02 0.99194206301E-02
 0.21520470465E-01 0.33614183657E-01 0.42883324801E-01 0.46693383999E-01 0.42823624584E-01
 0.32111729390E-01 0.19492369996E-01 0.99182009468E-02 0.46072441847E-02 0.26655288019E-02
 0.37879720466E-02 0.71481451259E-02 0.10078700427E-01 0.10520084246E-01 0.91297170553E-02
 0.29265877499E-02 0.14900310343E-02 0.20696243710E-02 0.85958951846E-02 0.21520470465E-01
 0.36870615163E-01 0.50315061949E-01 0.58897311038E-01 0.59571043510E-01 0.50673224526E-01
 0.35479618945E-01 0.20550899543E-01 0.98697531180E-02 0.33906746604E-02 0.63926414646E-03
 0.16729470792E-02 0.45514367116E-02 0.60175957627E-02 0.53061652503E-02 0.40898322247E-02
 0.89130410185E-03 0.97934285915E-03 0.54035259923E-02 0.17024806755E-01 0.33614183658E-01
 0.50315061949E-01 0.63487251743E-01 0.69830944443E-01 0.65721478543E-01 0.51344111582E-01
 0.32883261128E-01 0.17239392268E-01 0.66440144210E-02 0.50704749498E-03 -.10920791628E-02
 0.10299388009E-02 0.34107670963E-02 0.34108960467E-02 0.21455494350E-02 0.14277147582E-02
 0.52446847125E-03 0.22240533883E-02 0.10231863126E-01 0.25163104130E-01 0.42883324801E-01
 0.58897311038E-01 0.69830944442E-01 0.71528626155E-01 0.61310932213E-01 0.42855745262E-01
 0.24313857862E-01 0.10871602108E-01 0.26520081407E-02 -.97933615727E-03 -.10940185300E-03
 0.28148789330E-02 0.39371544446E-02 0.26514570601E-02 0.13797466836E-02 0.92745641345E-03
 0.10656467739E-02 0.42952476536E-02 0.14804030403E-01 0.30549112454E-01 0.46693383999E-01
 0.59571043510E-01 0.65721478543E-01 0.61310932213E-01 0.46693813383E-01 0.28625249727E-01
 0.14294069290E-01 0.55145163306E-02 0.10681641401E-02 0.77453646558E-03 0.37679719395E-02
 0.64351220439E-02 0.61188887292E-02 0.42824373029E-02 0.30497833145E-02 0.19190328147E-02
 0.17645712842E-02 0.62444638188E-02 0.17296971385E-01 0.30859855642E-01 0.42823624585E-01
 0.50673224527E-01 0.51344111582E-01 0.42855745262E-01 0.28625249727E-01 0.15592774739E-01
 0.74519068799E-02 0.33688910552E-02 0.26084956994E-02 0.54896568496E-02 0.98911836134E-02
 0.11920346944E-01 0.10721050127E-01 0.85414347460E-02 0.62271178041E-02 0.32078891032E-02
 0.20736934193E-02 0.69604953131E-02 0.16060697070E-01 0.25160118253E-01 0.32111729391E-01
 0.35479618945E-01 0.32883261129E-01 0.24313857862E-01 0.14294069290E-01 0.74519068798E-02
 0.43480713956E-02 0.40103435105E-02 0.70530003045E-02 0.13097949193E-01 0.18398778835E-01
 0.19598252691E-01 0.17371205636E-01 0.13705977901E-01 0.87990087699E-02 0.36149946907E-02
 0.17893865041E-02 0.57543578613E-02 0.11289683656E-01 0.15972194559E-01 0.19492369996E-01
 0.20550899543E-01 0.17239392268E-01 0.10871602108E-01 0.55145163306E-02 0.33688910552E-02
 0.40103435105E-02 0.76767729670E-02 0.15003072126E-01 0.23447664839E-01 0.28258556324E-01
 0.27575614775E-01 0.23225232660E-01 0.16835481659E-01 0.91602797188E-02 0.29293537272E-02
 0.10663750645E-02 0.32662497886E-02 0.56490326843E-02 0.78702581784E-02 0.99182009471E-02
 0.98697531182E-02 0.66440144210E-02 0.26520081407E-02 0.10681641399E-02 0.26084956992E-02
 0.70530003044E-02 0.15003072126E-01 0.25348951508E-01 0.33610851092E-01 0.35824450238E-01
 0.32264827808E-01 0.25350368411E-01 0.16538385555E-01 0.75828014657E-02 0.18214576766E-02
 0.40397431409E-03 0.12236245929E-02 0.21379456194E-02 0.35621542124E-02 0.46072441849E-02
 0.33906746605E-02 0.50704749503E-03 -.97933615730E-03 0.77453646553E-03 0.54896568495E-02
 0.13097949193E-01 0.23447664839E-01 0.33610851092E-01 0.38997492228E-01 0.37814038132E-01
 0.31889360257E-01 0.23371780863E-01 0.13667792507E-01 0.52651565507E-02 0.90143992130E-03
 0.63970506464E-03 0.11773731088E-02 0.19296131616E-02 0.28932198150E-02 0.26655288020E-02
 0.63926414660E-03 -.10920791627E-02 -.10940185296E-03 0.37679719394E-02 0.98911836134E-02
 0.18398778835E-01 0.28258556324E-01 0.35824450238E-01 0.37814038132E-01 0.34348838661E-01
 0.27460432983E-01 0.18622048675E-01 0.95380042031E-02 0.30136872025E-02 0.55587294371E-03
 0.27188119119E-02 0.37901325578E-02 0.47704715511E-02 0.50983687006E-02 0.37879720466E-02
 0.16729470790E-02 0.10299388008E-02 0.28148789330E-02 0.64351220437E-02 0.11920346944E-01
 0.19598252690E-01 0.27575614775E-01 0.32264827808E-01 0.31889360257E-01 0.27460432983E-01
 0.20513471711E-01 0.12335311852E-01 0.52256507951E-02 0.16385808346E-02 0.15389507693E-02
 0.71487712211E-02 0.89779412168E-02 0.10050350647E-01 0.95109547407E-02 0.71481451260E-02
 0.45514367118E-02 0.34107670964E-02 0.39371544447E-02 0.61188887291E-02 0.10721050127E-01
 0.17371205635E-01 0.23225232660E-01 0.25350368411E-01 0.23371780863E-01 0.18622048674E-01
 0.12335311852E-01 0.61216921017E-02 0.24148060058E-02 0.24326827960E-02 0.47292518161E-02
 0.13503127778E-01 0.15825748551E-01 0.16332650956E-01 0.14190491590E-01 0.10078700427E-01
 0.60175957624E-02 0.34108960466E-02 0.26514570602E-02 0.42824373027E-02 0.85414347459E-02
 0.13705977901E-01 0.16835481659E-01 0.16538385555E-01 0.13667792506E-01 0.95380042029E-02
 0.52256507950E-02 0.24148060057E-02 0.27646419064E-02 0.59883528471E-02 0.10073044445E-01
 0.20375274413E-01 0.22320633744E-01 0.21085213589E-01 0.16556378546E-01 0.10520084245E-01
 0.53061652502E-02 0.21455494350E-02 0.13797466834E-02 0.30497833140E-02 0.62271178040E-02
 0.87990087695E-02 0.91602797186E-02 0.75828014653E-02 0.52651565505E-02 0.30136872021E-02
 0.16385808344E-02 0.24326827957E-02 0.59883528469E-02 0.11210445740E-01 0.16372118990E-01
 0.25790195410E-01 0.26083436208E-01 0.22384135111E-01 0.15900176091E-01 0.91297170549E-02
 0.40898322245E-02 0.14277147582E-02 0.92745641341E-03 0.19190328144E-02 0.32078891028E-02
 0.36149946904E-02 0.29293537268E-02 0.18214576763E-02 0.90143992111E-03 0.55587294329E-03
 0.15389507691E-02 0.47292518159E-02 0.10073044444E-01 0.16372118990E-01 0.22092912365E-01
 0.41582035431E-01 0.38561636784E-01 0.29591108758E-01 0.18557638186E-01 0.95372496898E-02
 0.39931715711E-02 0.11804857902E-02 0.70768406502E-04 -.11456282799E-03 -.17832954925E-03
 -.44244555769E-03 -.48368140421E-03 -.11455186985E-03 0.21182775642E-03 0.76647821774E-03
 0.33301862123E-02 0.95353911978E-02 0.18949247732E-01 0.29327068824E-01 0.37835791959E-01
 0.38561636785E-01 0.32446233109E-01 0.22703617364E-01 0.13056944662E-01 0.59839427005E-02
 0.18631512614E-02 -.38709876343E-04 -.47862275857E-03 -.73442258863E-04 0.58687972254E-03
 0.10768590408E-02 0.11753939266E-02 0.80983902204E-03 0.40074914265E-03 0.12639057366E-02
 0.50806606426E-02 0.12555013474E-01 0.22537632399E-01 0.32283115232E-01 0.38456755112E-01
 0.29591108758E-01 0.22703617364E-01 0.14407501353E-01 0.70058424234E-02 0.20744169216E-02
 -.53482629454E-05 0.80218685028E-05 0.10579917789E-02 0.24150510945E-02 0.34317752935E-02
 0.33893024221E-02 0.21503849339E-02 0.61779116005E-03 0.15911022100E-03 0.18801456614E-02
 0.65110257081E-02 0.14085747526E-01 0.23031611904E-01 0.30176498012E-01 0.32599573412E-01
 0.18557638186E-01 0.13056944662E-01 0.70058424235E-02 0.20832186512E-02 0.69539425517E-04
 0.92065701295E-03 0.28642087518E-02 0.45643151996E-02 0.57362645369E-02 0.58823613312E-02
 0.43780766376E-02 0.19600118912E-02 0.42030889768E-03 0.70325817352E-03 0.27504054720E-02
 0.68383500298E-02 0.13054650438E-01 0.19497853025E-01 0.23065950437E-01 0.22395915231E-01
 0.95372496899E-02 0.59839427004E-02 0.20744169216E-02 0.69539425425E-04 0.13754786211E-02
 0.42590974855E-02 0.63144985406E-02 0.73363297563E-02 0.78672670680E-02 0.71412659129E-02
 0.47306400364E-02 0.22701018454E-02 0.13753257901E-02 0.16548967966E-02 0.25902984818E-02
 0.51654893514E-02 0.95387345364E-02 0.13252461175E-01 0.13989543177E-01 0.12260328414E-01
 0.39931715710E-02 0.18631512614E-02 -.53482629028E-05 0.92065701302E-03 0.42590974855E-02
 0.69900548810E-02 0.80782726098E-02 0.89810138659E-02 0.96981353206E-02 0.84612587890E-02
 0.55116540819E-02 0.32161898681E-02 0.22311002634E-02 0.13067673730E-02 0.82142339397E-03
 0.25098317985E-02 0.56016556319E-02 0.71657193785E-02 0.64533227626E-02 0.52278406294E-02
 0.11804857902E-02 -.38709876343E-04 0.80218685170E-05 0.28642087516E-02 0.63144985407E-02
 0.80782726097E-02 0.93129011570E-02 0.11237556114E-01 0.11791799316E-01 0.91692779648E-02
 0.54180638796E-02 0.31024722229E-02 0.15566158529E-02 -.30894500748E-03 -.88355786495E-03
 0.99364185124E-03 0.29876791512E-02 0.27992022261E-02 0.17069615392E-02 0.14964923740E-02
 0.70768406434E-04 -.47862275861E-03 0.10579917789E-02 0.45643151996E-02 0.73363297566E-02
 0.89810138660E-02 0.11237556114E-01 0.13138409199E-01 0.11642336130E-01 0.71892926757E-02
 0.35189668623E-02 0.18646997541E-02 0.29793098976E-03 -.12995978745E-02 -.89380919750E-03
 0.97713844637E-03 0.13467266901E-02 -.31825862983E-04 -.56285642490E-03 0.14711846086E-03
 -.11456282762E-03 -.73442258500E-04 0.24150510948E-02 0.57362645372E-02 0.78672670683E-02
 0.96981353209E-02 0.11791799316E-01 0.11642336130E-01 0.78700712888E-02 0.35578684204E-02
 0.17630617035E-02 0.12112663346E-02 -.11632918631E-03 -.92837563926E-03 0.15569644522E-03
 0.10929738845E-02 -.63818954921E-05 -.12580566211E-02 -.62706871985E-03 0.31963417850E-03
 -.17832954899E-03 0.58687972292E-03 0.34317752937E-02 0.58823613314E-02 0.71412659134E-02
 0.84612587895E-02 0.91692779648E-02 0.71892926759E-02 0.35578684205E-02 0.16300823036E-02
 0.17334426241E-02 0.12592867662E-02 -.11271434844E-03 -.16559111788E-03 0.10136427721E-02
 0.95480416796E-03 -.35905728474E-03 -.46310523203E-03 0.70769408050E-03 0.76959648019E-03
 -.44244555726E-03 0.10768590413E-02 0.33893024225E-02 0.43780766378E-02 0.47306400369E-02
 0.55116540823E-02 0.54180638798E-02 0.35189668622E-02 0.17630617036E-02 0.17334426241E-02
 0.18355312300E-02 0.60545559319E-03 -.28076568501E-03 0.72698421245E-03 0.19183962748E-02
 0.15001445888E-02 0.81111123482E-03 0.13278316760E-02 0.16077053424E-02 0.37118556378E-03
 -.48368140399E-03 0.11753939269E-02 0.21503849341E-02 0.19600118914E-02 0.22701018459E-02
 0.32161898684E-02 0.31024722230E-02 0.18646997542E-02 0.12112663346E-02 0.12592867662E-02
 0.60545559312E-03 -.30607329183E-03 0.43325325546E-03 0.24452157337E-02 0.33339397875E-02
 0.26894972146E-02 0.22401528154E-02 0.21729841089E-02 0.10733522079E-02 -.54050837892E-03
 -.11455186947E-03 0.80983902231E-03 0.61779116034E-03 0.42030889808E-03 0.13753257904E-02
 0.22311002635E-02 0.15566158529E-02 0.29793098967E-03 -.11632918653E-03 -.11271434854E-03
 -.28076568511E-03 0.43325325555E-03 0.25860060898E-02 0.44047175026E-02 0.43106055933E-02
 0.32620455012E-02 0.25872068298E-02 0.17108833283E-02 0.10710218248E-03 -.82835765510E-03
 0.21182775662E-03 0.40074914286E-03 0.15911022144E-03 0.70325817365E-03 0.16548967968E-02
 0.13067673730E-02 -.30894500746E-03 -.12995978746E-02 -.92837563931E-03 -.16559111801E-03
 0.72698421250E-03 0.24452157339E-02 0.44047175028E-02 0.49425595789E-02 0.39608545440E-02
 0.29298885356E-02 0.22535894270E-02 0.11072145250E-02 -.22019732565E-03 -.45600158207E-03
 0.76647821804E-03 0.12639057370E-02 0.18801456617E-02 0.27504054720E-02 0.25902984819E-02
 0.82142339407E-03 -.88355786496E-03 -.89380919751E-03 0.15569644507E-03 0.10136427721E-02
 0.19183962746E-02 0.33339397874E-02 0.43106055935E-02 0.39608545439E-02 0.30767857110E-02
 0.25981608580E-02 0.19810941811E-02 0.68623142250E-03 -.29684106197E-03 -.35653150029E-04
 0.33301862124E-02 0.50806606424E-02 0.65110257082E-02 0.68383500297E-02 0.51654893514E-02
 0.25098317983E-02 0.99364185108E-03 0.97713844626E-03 0.10929738843E-02 0.95480416781E-03
 0.15001445886E-02 0.26894972145E-02 0.32620455012E-02 0.29298885355E-02 0.25981608579E-02
 0.23247438648E-02 0.12913696116E-02 -.83465398212E-04 -.20675694934E-03 0.13168313159E-02
 0.95353911980E-02 0.12555013474E-01 0.14085747526E-01 0.13054650439E-01 0.95387345364E-02
 0.56016556321E-02 0.29876791513E-02 0.13467266902E-02 -.63818955844E-05 -.35905728474E-03
 0.81111123471E-03 0.22401528157E-02 0.25872068299E-02 0.22535894269E-02 0.19810941807E-02
 0.12913696115E-02 -.46499868027E-05 -.33273449291E-03 0.17900258845E-02 0.56545923487E-02
 0.18949247732E-01 0.22537632399E-01 0.23031611904E-01 0.19497853025E-01 0.13252461174E-01
 0.71657193785E-02 0.27992022262E-02 -.31825862891E-04 -.12580566213E-02 -.46310523205E-03
 0.13278316760E-02 0.21729841087E-02 0.17108833282E-02 0.11072145248E-02 0.68623142234E-03
 -.83465398273E-04 -.33273449287E-03 0.19773577537E-02 0.72210114194E-02 0.13507325071E-01
 0.29327068824E-01 0.32283115231E-01 0.30176498011E-01 0.23065950437E-01 0.13989543177E-01
 0.64533227625E-02 0.17069615392E-02 -.56285642499E-03 -.62706872025E-03 0.70769408032E-03
 0.16077053420E-02 0.10733522077E-02 0.10710218202E-03 -.22019732588E-03 -.29684106237E-03
 -.20675694952E-03 0.17900258842E-02 0.72210114193E-02 0.15105528515E-01 0.23071888255E-01
 0.37835791959E-01 0.38456755112E-01 0.32599573412E-01 0.22395915231E-01 0.12260328414E-01
 0.52278406294E-02 0.14964923740E-02 0.14711846085E-03 0.31963417820E-03 0.76959647983E-03
 0.37118556349E-03 -.54050837926E-03 -.82835765547E-03 -.45600158229E-03 -.35653150434E-04
 0.13168313158E-02 0.56545923484E-02 0.13507325071E-01 0.23071888255E-01 0.31920603360E-01
 -.27518300924E-01 -.24913665384E-01 -.20169567102E-01 -.13873287421E-01 -.67429129469E-02
 -.10944046384E-02 0.11553666093E-02 0.67983892546E-03 -.69702078614E-03 -.21678970780E-02
 -.32468711919E-02 -.28032411926E-02 -.69752892810E-03 0.10822102569E-02 0.57814140125E-03
 -.22131772284E-02 -.67442783595E-02 -.13200677473E-01 -.20717522918E-01 -.26296193913E-01
 -.24913665384E-01 -.21478443291E-01 -.15895822445E-01 -.90353529629E-02 -.29281166786E-02