    5    5    1    1
  0.3477306E+02  0.2573869E-09  0.2573869E-09  0.3030466E-08  0.5000000E-15
  1.000000000000000E-004
  CAR 
 unknown system                          
     45     14     28
 
  0.0000000E+00  0.0000000E+00  0.0000000E+00  0.1000000E-01
    1      -11.314181   1.000000
    2      -10.257497   1.000000
    3       -8.793959   1.000000
    4       -7.686745   1.000000
    5       -7.399865   1.000000
    6       -5.643007   1.000000
    7       -5.514338   1.000000
    8       -5.514029   1.000000
    9       -5.498894   1.000000
   10       -5.475657   1.000000
   11       -5.475389   1.000000
   12       -5.409968   1.000000
   13       -5.409636   1.000000
   14       -5.215890   1.000000
   15       -5.215590   1.000000
   16       -5.003306   1.000000
   17       -4.880927   1.000000
   18       -4.880857   1.000000
   19       -4.684962   1.000000
   20       -4.684888   1.000000
   21       -4.474922   1.000000
   22       -4.474880   1.000000
   23       -4.191371   1.000000
   24       -4.191308   1.000000
   25       -3.115756   1.000000
   26        0.995534   0.000000
   27        1.791337   0.000000
   28        2.309941   0.000000
 
  0.1000000E+00  0.6938894E-17  0.0000000E+00  0.6000000E-01
    1      -11.002269   1.000000
    2       -9.961513   1.000000
    3       -8.523419   1.000000
    4       -7.471426   1.000000
    5       -7.274860   1.000000
    6       -5.755111   1.000000
    7       -5.637632   1.000000
    8       -5.597723   1.000000
    9       -5.483732   1.000000
   10       -5.445050   1.000000
   11       -5.417081   1.000000
   12       -5.399492   1.000000
   13       -5.304643   1.000000
   14       -5.301260   1.000000
   15       -5.222613   1.000000
   16       -5.126483   1.000000
   17       -4.907753   1.000000
   18       -4.904349   1.000000
   19       -4.690359   1.000000
   20       -4.671018   1.000000
   21       -4.498639   1.000000
   22       -4.469172   1.000000
   23       -4.185516   1.000000
   24       -3.996400   1.000000
   25       -2.457361   0.046587
   26        1.233855   0.000000
   27        2.095512   0.000000
   28        2.623362   0.000000
 
  0.2000000E+00 -0.1387779E-16  0.0000000E+00  0.6000000E-01
    1      -10.105467   1.000000
    2       -9.133161   1.000000
    3       -7.818799   1.000000
    4       -7.028414   1.000000
    5       -6.883291   1.000000
    6       -6.056473   1.000000
    7       -5.873783   1.000000
    8       -5.770496   1.000000
    9       -5.680857   1.000000
   10       -5.514057   1.000000
   11       -5.424618   1.000000
   12       -5.311535   1.000000
   13       -5.239637   1.000000
   14       -5.143783   1.000000
   15       -5.040440   1.000000
   16       -5.036260   1.000000
   17       -4.993822   1.000000
   18       -4.809152   1.000000
   19       -4.806567   1.000000
   20       -4.644521   1.000000
   21       -4.463364   1.000000
   22       -4.350373   1.000000
   23       -4.177501   1.000000
   24       -3.246431   1.000000
   25       -1.230744   0.000000
   26        1.947115   0.000000
   27        3.008534   0.000000
   28        3.638809   0.000000
 
  0.3000000E+00 -0.2775558E-16  0.0000000E+00  0.6000000E-01
    1       -8.800418   1.000000
    2       -8.053826   1.000000
    3       -7.174728   1.000000
    4       -6.775054   1.000000
    5       -6.523497   1.000000
    6       -6.371827   1.000000
    7       -6.059043   1.000000
    8       -5.817592   1.000000
    9       -5.624413   1.000000
   10       -5.447272   1.000000
   11       -5.353911   1.000000
   12       -5.302267   1.000000
   13       -5.089705   1.000000
   14       -5.063974   1.000000
   15       -4.977601   1.000000
   16       -4.771626   1.000000
   17       -4.654023   1.000000
   18       -4.579978   1.000000
   19       -4.536576   1.000000
   20       -4.449430   1.000000
   21       -4.351336   1.000000
   22       -4.163420   1.000000
   23       -3.966591   1.000000
   24       -2.261517   0.000004
   25        0.212959   0.000000
   26        3.072302   0.000000
   27        4.504092   0.000000
   28        5.028323   0.000000
 
  0.4000000E+00 -0.2775558E-16  0.0000000E+00  0.6000000E-01
    1       -7.672036   1.000000
    2       -7.354204   1.000000
    3       -7.046253   1.000000
    4       -6.780005   1.000000
    5       -6.602920   1.000000
    6       -6.488700   1.000000
    7       -6.198902   1.000000
    8       -5.828897   1.000000
    9       -5.518570   1.000000
   10       -5.439641   1.000000
   11       -5.253912   1.000000
   12       -5.103453   1.000000
   13       -4.867438   1.000000
   14       -4.649234   1.000000
   15       -4.515735   1.000000
   16       -4.370932   1.000000
   17       -4.306865   1.000000
   18       -4.247635   1.000000
   19       -4.162137   1.000000
   20       -4.100322   1.000000
   21       -4.045776   1.000000
   22       -3.630165   1.000000
   23       -3.011821   1.000000
   24       -1.133478   0.000000
   25        0.955151   0.000000
   26        2.494005   0.000000
   27        3.419437   0.000000
   28        4.944659   0.000000
 
  0.5000000E+00 -0.2775558E-16  0.0000000E+00  0.3000000E-01
    1       -7.377491   1.000000
    2       -7.186570   1.000000
    3       -6.984560   1.000000
    4       -6.801710   1.000000
    5       -6.726733   1.000000
    6       -6.499168   1.000000
    7       -6.199542   1.000000
    8       -5.850014   1.000000
    9       -5.568527   1.000000
   10       -5.473974   1.000000
   11       -5.123410   1.000000
   12       -5.121951   1.000000
   13       -4.691790   1.000000
   14       -4.640176   1.000000
   15       -4.291886   1.000000
   16       -4.258354   1.000000
   17       -4.235067   1.000000
   18       -4.155556   1.000000
   19       -4.089081   1.000000
   20       -3.932214   1.000000
   21       -2.834057   0.999868
   22       -2.167434   0.000000
   23       -1.776067   0.000000
   24       -1.241681   0.000000
   25       -0.970306   0.000000
   26        1.744868   0.000000
   27        2.857544   0.000000
   28        4.401343   0.000000
 
  0.2000000E+00  0.1000000E+00  0.0000000E+00  0.6000000E-01
    1      -10.396277   1.000000
    2       -9.396248   1.000000
    3       -8.028423   1.000000
    4       -7.131534   1.000000
    5       -7.011092   1.000000
    6       -5.901650   1.000000
    7       -5.872525   1.000000
    8       -5.726979   1.000000
    9       -5.662609   1.000000
   10       -5.552193   1.000000
   11       -5.390902   1.000000
   12       -5.330264   1.000000
   13       -5.278033   1.000000
   14       -5.198723   1.000000
   15       -5.097951   1.000000
   16       -5.045864   1.000000
   17       -4.910871   1.000000
   18       -4.850953   1.000000
   19       -4.812407   1.000000
   20       -4.647275   1.000000
   21       -4.570639   1.000000
   22       -4.302044   1.000000
   23       -4.233431   1.000000
   24       -3.455975   1.000000
   25       -1.583339   0.000000
   26        1.712239   0.000000
   27        2.704633   0.000000
   28        3.299798   0.000000
 
  0.3000000E+00  0.1000000E+00  0.0000000E+00  0.1200000E+00
    1       -9.276385   1.000000
    2       -8.410892   1.000000
    3       -7.306358   1.000000
    4       -6.784860   1.000000
    5       -6.528667   1.000000
    6       -6.195803   1.000000
    7       -5.989458   1.000000
    8       -5.901802   1.000000
    9       -5.791810   1.000000
   10       -5.613880   1.000000
   11       -5.500576   1.000000
   12       -5.376593   1.000000
   13       -5.288557   1.000000
   14       -5.141503   1.000000
   15       -4.955754   1.000000
   16       -4.880646   1.000000
   17       -4.756786   1.000000
   18       -4.691199   1.000000
   19       -4.577768   1.000000
   20       -4.501785   1.000000
   21       -4.356365   1.000000
   22       -4.247982   1.000000
   23       -4.029642   1.000000
   24       -2.610095   0.684778
   25       -0.291844   0.000000
   26        2.668467   0.000000
   27        3.919827   0.000000
   28        4.514256   0.000000
 
  0.4000000E+00  0.1000000E+00  0.0000000E+00  0.1200000E+00
    1       -7.980264   1.000000
    2       -7.489939   1.000000
    3       -6.971854   1.000000
    4       -6.688449   1.000000
    5       -6.439435   1.000000
    6       -6.389690   1.000000
    7       -6.097724   1.000000
    8       -5.878464   1.000000
    9       -5.580607   1.000000
   10       -5.501988   1.000000
   11       -5.373653   1.000000
   12       -5.296146   1.000000
   13       -5.160481   1.000000
   14       -4.987405   1.000000
   15       -4.904808   1.000000
   16       -4.694246   1.000000
   17       -4.564057   1.000000
   18       -4.387949   1.000000
   19       -4.300011   1.000000
   20       -4.173506   1.000000
   21       -4.002313   1.000000
   22       -3.844994   1.000000
   23       -3.259505   1.000000
   24       -1.426782   0.000000
   25        1.117580   0.000000
   26        3.546104   0.000000
   27        4.426027   0.000000
   28        5.466897   0.000000
 
  0.5000000E+00  0.1000000E+00  0.0000000E+00  0.1200000E+00
    1       -7.307025   1.000000
    2       -7.105469   1.000000
    3       -6.917549   1.000000
    4       -6.719898   1.000000
    5       -6.582629   1.000000
    6       -6.438448   1.000000
    7       -6.158173   1.000000
    8       -5.869090   1.000000
    9       -5.587054   1.000000
   10       -5.464234   1.000000
   11       -5.343921   1.000000
   12       -5.042929   1.000000
   13       -4.918656   1.000000
   14       -4.765224   1.000000
   15       -4.584173   1.000000
   16       -4.472090   1.000000
   17       -4.319965   1.000000
   18       -4.255078   1.000000
   19       -4.206800   1.000000
   20       -4.080316   1.000000
   21       -2.811081   0.999555
   22       -2.507561   0.166286
   23       -1.898069   0.000000
   24       -0.584310   0.000000
   25        0.240596   0.000000
   26        2.044752   0.000000
   27        3.216438   0.000000
   28        4.668727   0.000000
 
  0.4000000E+00  0.2000000E+00  0.0000000E+00  0.6000000E-01
    1       -8.102591   1.000000
    2       -7.521627   1.000000
    3       -6.876148   1.000000
    4       -6.605457   1.000000
    5       -6.269704   1.000000
    6       -6.147095   1.000000
    7       -6.042509   1.000000
    8       -5.926294   1.000000
    9       -5.834580   1.000000
   10       -5.685098   1.000000
   11       -5.554532   1.000000
   12       -5.482394   1.000000
   13       -5.403635   1.000000
   14       -5.157137   1.000000
   15       -4.962387   1.000000
   16       -4.788885   1.000000
   17       -4.665989   1.000000
   18       -4.489761   1.000000
   19       -4.285581   1.000000
   20       -4.177926   1.000000
   21       -3.961219   1.000000
   22       -3.807876   1.000000
   23       -3.243724   1.000000
   24       -1.507147   0.000000
   25        1.036946   0.000000
   26        3.828299   0.000000
   27        5.401036   0.000000
   28        5.822988   0.000000
 
  0.5000000E+00  0.2000000E+00  0.0000000E+00  0.1200000E+00
    1       -7.164599   1.000000
    2       -6.961176   1.000000
    3       -6.744395   1.000000
    4       -6.572700   1.000000
    5       -6.358161   1.000000
    6       -6.223483   1.000000
    7       -6.055897   1.000000
    8       -5.884820   1.000000
    9       -5.738777   1.000000
   10       -5.574686   1.000000
   11       -5.450074   1.000000
   12       -5.351941   1.000000
   13       -5.230113   1.000000
   14       -5.106476   1.000000
   15       -4.944710   1.000000
   16       -4.768887   1.000000
   17       -4.576087   1.000000
   18       -4.419109   1.000000
   19       -4.213993   1.000000
   20       -4.086467   1.000000
   21       -2.879561   0.999991
   22       -2.633786   0.792793
   23       -1.786354   0.000000
   24       -0.031619   0.000000
   25        2.056674   0.000000
   26        3.112732   0.000000
   27        4.155894   0.000000
   28        5.423654   0.000000
 
 -0.4000000E+00  0.2000000E+00  0.0000000E+00  0.6000000E-01
    1       -6.967881   1.000000
    2       -6.832915   1.000000
    3       -6.670274   1.000000
    4       -6.498319   1.000000
    5       -6.427250   1.000000
    6       -6.275486   1.000000
    7       -6.085662   1.000000
    8       -5.902818   1.000000
    9       -5.709662   1.000000
   10       -5.612075   1.000000
   11       -5.364065   1.000000
   12       -5.217551   1.000000
   13       -5.138359   1.000000
   14       -4.989076   1.000000
   15       -4.899124   1.000000
   16       -4.711175   1.000000
   17       -4.477025   1.000000
   18       -4.295896   1.000000
   19       -4.261016   1.000000
   20       -4.154784   1.000000
   21       -1.911329   0.000000
   22       -0.970183   0.000000
   23       -0.524600   0.000000
   24        0.014722   0.000000
   25        0.590605   0.000000
   26        2.273908   0.000000
   27        3.504416   0.000000
   28        4.963360   0.000000
 
 -0.4000000E+00  0.3000000E+00  0.0000000E+00  0.6000000E-01
    1       -6.805305   1.000000
    2       -6.593851   1.000000
    3       -6.517100   1.000000
    4       -6.462508   1.000000
    5       -6.326450   1.000000
    6       -6.199404   1.000000
    7       -6.119654   1.000000
    8       -5.803352   1.000000
    9       -5.717401   1.000000
   10       -5.620545   1.000000
   11       -5.522526   1.000000
   12       -5.380698   1.000000
   13       -5.257446   1.000000
   14       -5.220528   1.000000
   15       -4.909439   1.000000
   16       -4.805226   1.000000
   17       -4.640681   1.000000
   18       -4.352107   1.000000
   19       -4.268086   1.000000
   20       -4.176555   1.000000
   21       -1.832013   0.000000
   22       -0.708421   0.000000
   23        0.236043   0.000000
   24        1.573607   0.000000
   25        2.157601   0.000000
   26        2.276807   0.000000
   27        3.129257   0.000000
   28        3.448732   0.000000
