unknown system                          
   1.00000000000000     
     2.573869    0.000000    0.000000
     1.286934    2.229036    0.000000
     0.000000    0.000000   30.304665
   Cu   H 
     4     1
Direct
  0.000000  0.000000  0.398815
  0.333333  0.333333  0.467250
  0.666667  0.666667  0.536042
  0.000000  0.000000  0.605684
  0.000000  0.000000  0.655627
 
   10   10  120
 0.83267E-16 0.97145E-16 0.53776E-15 0.19072E-12 0.55983E-13 0.12036E-12 0.79381E-14 0.27078E-12 0.87430E-15 0.48572E-16
 -.13878E-16 0.48572E-16 0.92530E-13 0.69471E-09 0.55914E-13 0.10128E-12 0.60063E-13 0.86667E-13 0.23592E-15 0.11796E-15
 0.35735E-15 0.92447E-13 0.84155E-13 0.75911E-14 0.14433E-14 0.89928E-14 0.48711E-13 0.73011E-13 0.73552E-15 0.97145E-16
 0.19074E-12 0.69471E-09 0.76328E-14 0.11380E-14 0.66613E-15 0.20858E-13 0.24716E-13 0.36347E-11 0.18603E-12 0.68578E-12
 0.55914E-13 0.55872E-13 0.14710E-14 0.55511E-15 0.20678E-14 0.27214E-13 0.39690E-14 0.58897E-13 0.58842E-13 0.14613E-13
 0.12031E-12 0.10138E-12 0.90067E-14 0.20817E-13 0.27270E-13 0.21204E-11 0.30101E-13 0.26906E-10 0.39553E-12 0.14104E-10
 0.78271E-14 0.60091E-13 0.48711E-13 0.24647E-13 0.38719E-14 0.30032E-13 0.19082E-13 0.15543E-13 0.10131E-13 0.79797E-14
 0.27073E-12 0.86708E-13 0.72956E-13 0.36347E-11 0.58911E-13 0.26905E-10 0.15377E-13 0.69250E-13 0.11343E-11 0.50176E-11
 0.86042E-15 0.35388E-15 0.60368E-15 0.18590E-12 0.58870E-13 0.39550E-12 0.10117E-13 0.11343E-11 0.66366E-12 0.49488E-13
 -.90206E-16 0.55511E-16 0.13878E-15 0.68576E-12 0.14710E-13 0.14104E-10 0.80630E-14 0.50175E-11 0.49495E-13 0.64532E-15
 -.13878E-16 0.55511E-16 0.10270E-14 0.17394E-10 0.32377E-13 0.55483E-11 0.68834E-13 0.77372E-10 0.71471E-15 -.20817E-16
 -.10408E-15 0.11796E-15 0.10698E-12 0.14013E-10 0.28547E-13 0.76369E-13 0.17376E-12 0.14270E-12 0.37470E-15 0.18388E-15
 0.74246E-15 0.10682E-12 0.13191E-12 0.47184E-14 0.88818E-15 0.61201E-14 0.83072E-13 0.79395E-13 0.74246E-15 0.10408E-15
 0.17394E-10 0.14013E-10 0.46907E-14 0.72164E-15 0.34694E-15 0.14405E-13 0.95673E-13 0.36489E-11 0.17457E-12 0.65327E-12
 0.32321E-13 0.28436E-13 0.83267E-15 0.18041E-15 0.94369E-15 0.14058E-13 0.49682E-14 0.31378E-13 0.42619E-13 0.84516E-14
 0.55482E-11 0.76453E-13 0.62172E-14 0.14516E-13 0.14169E-13 0.20501E-11 0.77674E-13 0.49375E-11 0.31360E-12 0.54555E-11
 0.68695E-13 0.17383E-12 0.83059E-13 0.95535E-13 0.49127E-14 0.77785E-13 0.35430E-13 0.17486E-13 0.15155E-13 0.26534E-13
 0.77372E-10 0.14275E-12 0.79332E-13 0.36488E-11 0.31378E-13 0.49374E-11 0.17458E-13 0.19151E-13 0.70720E-12 0.28290E-10
 0.73552E-15 0.40939E-15 0.75634E-15 0.17455E-12 0.42633E-13 0.31353E-12 0.15224E-13 0.70724E-12 0.73527E-12 0.56004E-13
 -.69389E-17 0.18735E-15 0.15959E-15 0.65316E-12 0.84516E-14 0.54556E-11 0.26590E-13 0.28290E-10 0.56025E-13 0.68695E-15
 -.45103E-16 0.97145E-16 0.97838E-15 0.92856E-12 0.65226E-14 0.38579E-12 0.32613E-12 0.11008E-11 0.34694E-15 0.27756E-16
 -.11796E-15 0.27756E-16 0.89942E-13 0.22340E-11 0.12587E-13 0.33695E-13 0.39721E-12 0.12582E-12 0.25674E-15 0.83267E-16
 0.92981E-15 0.89997E-13 0.11255E-12 0.16653E-14 0.59674E-15 0.26645E-14 0.67821E-13 0.50987E-13 0.66613E-15 0.48572E-16
 0.92860E-12 0.22340E-11 0.17208E-14 0.41633E-15 0.13878E-15 0.71609E-14 0.22310E-12 0.35785E-11 0.10977E-12 0.46960E-12
 0.64670E-14 0.12573E-13 0.55511E-15 0.11102E-15 0.49960E-15 0.63838E-14 0.37470E-14 0.13878E-13 0.23245E-13 0.32752E-14
 0.38575E-12 0.33723E-13 0.26368E-14 0.72164E-14 0.64115E-14 0.22183E-11 0.17604E-12 0.40992E-12 0.15812E-12 0.45963E-11
 0.32607E-12 0.39727E-12 0.67862E-13 0.22307E-12 0.36776E-14 0.17600E-12 0.39885E-13 0.12434E-13 0.14808E-13 0.65975E-13
 0.11008E-11 0.12590E-12 0.50987E-13 0.35784E-11 0.13892E-13 0.40987E-12 0.12518E-13 0.60368E-14 0.25835E-12 0.34830E-08
 0.31919E-15 0.33307E-15 0.62450E-15 0.10962E-12 0.23315E-13 0.15810E-12 0.14794E-13 0.25832E-12 0.47937E-12 0.42535E-13
 -.17694E-15 0.90206E-16 0.20123E-15 0.46955E-12 0.32890E-14 0.45963E-11 0.65947E-13 0.34830E-08 0.42508E-13 0.64532E-15
 0.34694E-16 0.83267E-16 0.12212E-14 0.30420E-13 0.25119E-14 0.28005E-13 0.48961E-13 0.49169E-13 0.12490E-15  0.0000    
 -.83267E-16 -.55511E-16 0.10898E-12 0.11887E-11 0.76467E-14 0.32363E-13 0.21779E-11 0.17908E-12 0.27756E-15 0.55511E-16
 0.10270E-14 0.10882E-12 0.12895E-12 0.13323E-14 0.44409E-15 0.20123E-14 0.70624E-13 0.59536E-13 0.49960E-15 0.55511E-16
 0.30448E-13 0.11887E-11 0.13045E-14 0.41633E-15 0.20817E-15 0.66752E-14 0.19527E-11 0.35663E-11 0.98768E-13 0.40405E-12
 0.24841E-14 0.76189E-14 0.41633E-15 0.13878E-15 0.22204E-15 0.40523E-14 0.40662E-14 0.92149E-14 0.15918E-13 0.24702E-14
 0.27880E-13 0.32488E-13 0.20678E-14 0.67724E-14 0.40662E-14 0.22090E-11 0.56449E-12 0.14289E-12 0.11999E-12 0.31268E-11
 0.48878E-13 0.21779E-11 0.70555E-13 0.19526E-11 0.40384E-14 0.56451E-12 0.40287E-13 0.84238E-14 0.14197E-13 0.28567E-12
 0.49086E-13 0.17904E-12 0.59494E-13 0.35662E-11 0.93120E-14 0.14269E-12 0.84099E-14 0.19151E-14 0.18185E-12 0.14769E-10
 0.11102E-15 0.34694E-15 0.59674E-15 0.98643E-13 0.16029E-13 0.11999E-12 0.14294E-13 0.18192E-12 0.28426E-12 0.43313E-13
 -.97145E-16 0.11102E-15 0.12490E-15 0.40398E-12 0.25258E-14 0.31269E-11 0.28572E-12 0.14769E-10 0.43285E-13 0.65226E-15
  0.0000     0.69389E-16 0.10686E-14 0.48572E-14 0.84655E-15 0.54817E-14 0.44409E-14 0.89512E-14 0.55511E-16 0.13878E-16
 -.27756E-16 -.69389E-16 0.91802E-13 0.51331E-12 0.43299E-14 0.22322E-13 0.11423E-10 0.17120E-12 0.27756E-15 0.55511E-16
 0.92981E-15 0.91788E-13 0.11471E-12 0.47184E-15 0.27756E-15 0.90206E-15 0.34098E-13 0.50668E-13 0.54123E-15 0.55511E-16
 0.48295E-14 0.51338E-12 0.55511E-15 0.19429E-15 0.69389E-16 0.42466E-14 0.18031E-10 0.35245E-11 0.98185E-13 0.29579E-12
 0.88818E-15 0.43437E-14 0.29143E-15 -.55511E-16 0.11102E-15 0.24425E-14 0.32752E-14 0.50515E-14 0.98532E-14 0.13600E-14
 0.54123E-14 0.22399E-13 0.92981E-15 0.42605E-14 0.24702E-14 0.24811E-11 0.10960E-11 0.26812E-13 0.69292E-13 0.39820E-11
 0.43854E-14 0.11423E-10 0.34084E-13 0.18031E-10 0.31919E-14 0.10959E-11 0.27284E-13 0.56344E-14 0.10464E-13 0.55864E-12
 0.89651E-14 0.17111E-12 0.50709E-13 0.35243E-11 0.51070E-14 0.26701E-13 0.55372E-14 0.77716E-15 0.94397E-13 0.47982E-11
 0.12490E-15 0.31919E-15 0.55511E-15 0.98060E-13 0.98671E-14 0.69236E-13 0.10505E-13 0.94452E-13 0.10210E-12 0.41481E-13
 -.69389E-16 0.11102E-15 0.16653E-15 0.29576E-12 0.13600E-14 0.39820E-11 0.55865E-12 0.47981E-11 0.41508E-13 0.61062E-15
 -.27756E-16 0.55511E-16 0.94369E-15 0.12490E-14 0.49960E-15 0.14919E-14 0.80491E-15 0.26368E-14 0.27756E-16 -.27756E-16
 -.13878E-15  0.0000     0.94619E-13 0.30642E-12 0.25258E-14 0.15703E-13 0.81091E-10 0.17902E-12 0.36082E-15 -.27756E-16
 0.88818E-15 0.94563E-13 0.10968E-12 0.34694E-15 0.20817E-15 0.65226E-15 0.18499E-13 0.50793E-13 0.41633E-15 0.27756E-16
 0.12768E-14 0.30639E-12 0.31919E-15 0.16653E-15 0.97145E-16 0.33584E-14 0.48771E-09 0.35110E-11 0.88013E-13 0.20878E-12
 0.47184E-15 0.25951E-14 0.22898E-15 0.27756E-16 0.48572E-16 0.13878E-14 0.27339E-14 0.30392E-14 0.76605E-14 0.84655E-15
 0.14502E-14 0.15703E-13 0.66613E-15 0.33723E-14 0.14433E-14 0.25891E-11 0.14422E-11 0.77438E-14 0.49641E-13 0.38500E-11
 0.80491E-15 0.81091E-10 0.18513E-13 0.48771E-09 0.26784E-14 0.14422E-11 0.21851E-13 0.38025E-14 0.84655E-14 0.64773E-12
 0.26923E-14 0.17894E-12 0.50765E-13 0.35109E-11 0.31364E-14 0.76467E-14 0.38164E-14 0.45797E-15 0.63394E-13 0.21408E-11
  0.0000     0.30531E-15 0.49960E-15 0.87930E-13 0.76605E-14 0.49599E-13 0.85210E-14 0.63449E-13 0.43382E-13 0.36970E-13
 -.11102E-15  0.0000     0.13878E-15 0.20881E-12 0.91593E-15 0.38501E-11 0.64783E-12 0.21407E-11 0.37081E-13 0.61062E-15
 0.55511E-16 0.55511E-16 0.77716E-15 0.44409E-15 0.30531E-15 0.66613E-15 0.27756E-15 0.11102E-14 -.55511E-16 0.55511E-16
 0.55511E-16 0.55511E-16 0.95535E-13 0.19428E-12 0.16792E-14 0.13309E-13 0.11983E-10 0.20237E-12 0.33307E-15 0.55511E-16
 0.83267E-15 0.95451E-13 0.99754E-13 0.22204E-15 0.17694E-15 0.40246E-15 0.92842E-14 0.48989E-13 0.49960E-15 0.27756E-16
 0.52736E-15 0.19423E-12 0.19429E-15 0.13531E-15 0.10408E-15 0.25605E-14 0.68302E-11 0.34375E-11 0.86764E-13 0.17453E-12
 0.31919E-15 0.16792E-14 0.21511E-15 -.34694E-16 0.38164E-16 0.94369E-15 0.22343E-14 0.22760E-14 0.58287E-14 0.63838E-15
 0.66613E-15 0.13337E-13 0.38858E-15 0.26021E-14 0.97145E-15 0.29256E-11 0.70707E-12 0.66613E-15 0.31433E-13 0.10544E-10
 0.30531E-15 0.11983E-10 0.92565E-14 0.68301E-11 0.21927E-14 0.70705E-12 0.11720E-13 0.21927E-14 0.40731E-14 0.28903E-12
 0.11935E-14 0.20245E-12 0.48794E-13 0.34374E-11 0.23037E-14 0.59674E-15 0.21649E-14 0.18041E-15 0.39566E-13 0.13204E-11
 0.11102E-15 0.36082E-15 0.55511E-15 0.86708E-13 0.57732E-14 0.31405E-13 0.40939E-14 0.39649E-13 0.61895E-14 0.39163E-13
  0.0000     0.16653E-15 0.55511E-16 0.17461E-12 0.63838E-15 0.10544E-10 0.28907E-12 0.13203E-11 0.39163E-13 0.83267E-15
 0.27756E-15 0.11102E-15 0.63838E-15 0.24980E-15 0.23592E-15 0.34001E-15 0.13878E-15 0.61062E-15 0.55511E-16  0.0000    
  0.0000     0.55511E-16 0.78104E-13 0.12869E-12 0.99920E-15 0.10013E-13 0.20351E-11 0.19662E-12 0.33307E-15 0.16653E-15
 0.61062E-15 0.78104E-13 0.86098E-13 0.15266E-15 0.93675E-16 0.19429E-15 0.30392E-14 0.39108E-13 0.38858E-15 0.27756E-16
 0.33307E-15 0.12866E-12 0.69389E-16 0.69389E-17 0.11796E-15 0.19498E-14 0.79631E-12 0.33749E-11 0.74524E-13 0.12063E-12
 0.20817E-15 0.10131E-14 0.11449E-15 0.27756E-16 0.27756E-16 0.56205E-15 0.16237E-14 0.14988E-14 0.43021E-14 0.40246E-15
 0.27062E-15 0.10079E-13 0.22204E-15 0.19221E-14 0.61062E-15 0.31296E-11 0.31258E-12 0.16653E-15 0.22149E-13 0.72444E-10
 0.55511E-16 0.20353E-11 0.30947E-14 0.79614E-12 0.14988E-14 0.31254E-12 0.74871E-14 0.16653E-14 0.25466E-14 0.12190E-12
 0.63838E-15 0.19670E-12 0.38997E-13 0.33750E-11 0.14988E-14 0.55511E-16 0.16376E-14 0.11102E-15 0.28352E-13 0.84466E-12
 0.55511E-16 0.38858E-15 0.49960E-15 0.74385E-13 0.43854E-14 0.22232E-13 0.26784E-14 0.28422E-13 0.15543E-14 0.35250E-13
 0.16653E-15  0.0000     0.27756E-16 0.12065E-12 0.45797E-15 0.72444E-10 0.12202E-12 0.84455E-12 0.35250E-13 0.77716E-15
  0.0000     -.27756E-16 0.74940E-15 0.11102E-15 0.13878E-15 0.26368E-15 0.97145E-16 0.38858E-15 0.11102E-15 0.55511E-16
 0.83267E-16 -.27756E-16 0.73302E-13 0.95791E-13 0.80491E-15 0.89512E-14 0.55089E-12 0.19820E-12 0.30531E-15  0.0000    
 0.61062E-15 0.73247E-13 0.10050E-12 0.12490E-15 0.17521E-15 0.11102E-15 0.16515E-14 0.38636E-13 0.38858E-15 0.19429E-15
 0.13878E-15 0.95771E-13 0.18041E-15 0.80665E-16 0.76328E-16 0.18770E-14 0.20212E-12 0.32691E-11 0.57732E-13 0.58925E-13
 0.16653E-15 0.69389E-15 0.16046E-15 0.17347E-17 0.52909E-16 0.49613E-15 0.15266E-14 0.94369E-15 0.35527E-14 0.20817E-15
 0.15959E-15 0.89720E-14 0.18041E-15 0.19360E-14 0.53083E-15 0.38693E-11 0.14025E-12 0.31919E-15 0.17444E-13 0.11909E-10
 0.83267E-16 0.55114E-12 0.16653E-14 0.20203E-12 0.13878E-14 0.14026E-12 0.48572E-14 0.12074E-14 0.14572E-14 0.56344E-13
 0.27756E-15 0.19815E-12 0.38525E-13 0.32692E-11 0.10270E-14 0.24980E-15 0.12074E-14 0.69389E-16 0.21788E-13 0.62439E-12
 0.11102E-15 0.33307E-15 0.41633E-15 0.57787E-13 0.35805E-14 0.17431E-13 0.14988E-14 0.21816E-13 0.11685E-13 0.29809E-13
 0.11102E-15 0.11102E-15 0.16653E-15 0.58953E-13 0.36082E-15 0.11909E-10 0.56385E-13 0.62436E-12 0.29809E-13 0.77716E-15
 0.16653E-15 0.16653E-15 0.74940E-15 0.83267E-16 0.19429E-15 0.18735E-15 0.15266E-15 0.30531E-15 0.11102E-15 0.13878E-15
 0.16653E-15 0.11102E-15 0.61895E-13 0.65351E-13 0.61062E-15 0.74975E-14 0.18030E-12 0.19251E-12 0.27756E-15 0.16653E-15
 0.69389E-15 0.61784E-13 0.12317E-12 0.11102E-15 0.12663E-15 0.55511E-16 0.69389E-15 0.38330E-13 0.49960E-15 0.11102E-15
 0.22204E-15 0.65357E-13  0.0000     0.53776E-16 0.65919E-16 0.17070E-14 0.60896E-13 0.32125E-11 0.61645E-13 0.51098E-13
 0.11102E-15 0.58287E-15 0.14398E-15 0.31225E-16 0.68522E-16 0.36082E-15 0.12629E-14 0.87430E-15 0.28588E-14 0.23592E-15
 0.69389E-16 0.74767E-14 0.11102E-15 0.17070E-14 0.43715E-15 0.40959E-11 0.69354E-13 0.11241E-14 0.12879E-13 0.22005E-11
 0.27756E-16 0.18030E-12 0.74940E-15 0.60771E-13 0.11796E-14 0.69354E-13 0.34972E-14 0.75634E-15 0.94369E-15 0.30274E-13
 0.24980E-15 0.19248E-12 0.38192E-13 0.32125E-11 0.88818E-15 0.10825E-14 0.77716E-15 0.69389E-16 0.16119E-13 0.45733E-12
 0.11102E-15 0.47184E-15 0.49960E-15 0.61617E-13 0.29976E-14 0.12879E-13 0.99920E-15 0.16140E-13 0.17208E-13 0.29948E-13
 0.83267E-16  0.0000     0.22204E-15 0.50987E-13 0.36082E-15 0.22005E-11 0.30344E-13 0.45725E-12 0.29948E-13 0.12212E-14
 -.11102E-15  0.0000     0.44409E-15 0.55511E-16 0.69389E-16 0.15266E-15 0.97145E-16 0.18041E-15 0.11102E-15 0.83267E-16
 -.55511E-16 0.41633E-16 0.38525E-13 0.47976E-13 0.44409E-15 0.60438E-14 0.79811E-13 0.17897E-12 0.27756E-15 0.55511E-16
 0.47184E-15 0.38594E-13 0.12303E-12 0.13878E-15 0.14919E-15 0.83267E-16 0.16653E-15 0.28200E-13 0.38858E-15 0.55511E-16
 0.55511E-16 0.48003E-13 0.11102E-15 0.90206E-16 0.86736E-16 0.20123E-14 0.29504E-13 0.30879E-11 0.47240E-13 0.20484E-13
 0.13878E-16 0.31919E-15 0.17000E-15 -.13878E-16 0.69389E-16 0.27062E-15 0.94369E-15 0.56899E-15 0.21372E-14 0.13878E-15
 0.13184E-15 0.60507E-14 0.83267E-16 0.20192E-14 0.29143E-15 0.52141E-11 0.35798E-13 0.11380E-14 0.10235E-13 0.46707E-12
 -.13878E-16 0.79853E-13 0.18041E-15 0.29407E-13 0.86736E-15 0.35756E-13 0.24980E-14 0.65226E-15 0.49960E-15 0.17590E-13
 0.11102E-15 0.17905E-12 0.28089E-13 0.30879E-11 0.61062E-15 0.10963E-14 0.68001E-15 0.55511E-16 0.12233E-13 0.36522E-12
 -.27756E-16 0.24980E-15 0.22204E-15 0.47212E-13 0.20817E-14 0.10186E-13 0.63838E-15 0.12337E-13 0.26062E-13 0.24244E-13
 -.83267E-16  0.0000     0.16653E-15 0.20539E-13 0.15959E-15 0.46696E-12 0.17646E-13 0.36517E-12 0.24161E-13 0.86042E-15
 0.13878E-15 0.19429E-15 0.70777E-15 0.97145E-16 0.13878E-15 0.12490E-15 0.11796E-15 0.22204E-15 0.16653E-15 0.55511E-16
 0.55511E-16 0.90206E-16 0.37137E-13 0.39191E-13 0.40939E-15 0.55095E-14 0.42293E-13 0.17485E-12 0.19429E-15 0.16653E-15
 0.66613E-15 0.37123E-13 0.14233E-12 0.69389E-16 0.11796E-15 0.27756E-16 0.17347E-15 0.27922E-13 0.33307E-15 0.13878E-15
 0.97145E-16 0.39233E-13 0.27756E-16 0.97145E-16 0.69389E-16 0.22066E-14 0.16154E-13 0.30233E-11 0.50862E-13 0.15210E-13
  0.0000     0.29143E-15 0.83267E-16 -.34694E-16 0.11796E-15 0.15266E-15 0.79797E-15 0.48572E-15 0.19984E-14 0.16653E-15
 0.27756E-16 0.56413E-14 0.41633E-16 0.20817E-14 0.27756E-15 0.61671E-11 0.22246E-13 0.13323E-14 0.87291E-14 0.20196E-12
 -.13878E-16 0.42397E-13 0.41633E-16 0.16154E-13 0.74940E-15 0.22288E-13 0.19984E-14 0.49960E-15 0.39552E-15 0.11255E-13
 0.12490E-15 0.17492E-12 0.27783E-13 0.30233E-11 0.56899E-15 0.12768E-14 0.56899E-15 0.97145E-16 0.10505E-13 0.28917E-12
 0.22204E-15 0.24980E-15 0.38858E-15 0.50890E-13 0.19429E-14 0.87153E-14 0.47184E-15 0.10519E-13 0.27950E-13 0.23974E-13
 0.11102E-15 0.16653E-15 -.13878E-16 0.15224E-13 0.18735E-15 0.20188E-12 0.11290E-13 0.28916E-12 0.24009E-13 0.11241E-14
  0.0000     0.83267E-16 0.68001E-15 0.55511E-16 0.55511E-16 0.34694E-16 0.55511E-16 0.15266E-15 0.34694E-16 0.69389E-17
 0.76328E-16 0.69389E-17 0.19880E-13 0.29324E-13 0.26368E-15 0.44548E-14 0.23002E-13 0.15393E-12 0.20817E-15 -.27756E-16
 0.63838E-15 0.19873E-13 0.14897E-12  0.0000     0.14572E-15 0.34694E-16 0.41633E-16 0.20470E-13 0.27756E-15 0.55511E-16
 0.41633E-16 0.29421E-13 0.55511E-16 0.13878E-16 0.62450E-16 0.22898E-14 0.86597E-14 0.29114E-11 0.40412E-13 0.50446E-14
 0.55511E-16 0.13878E-15 0.90206E-16  0.0000     0.90206E-16 0.15266E-15 0.68001E-15 0.42327E-15 0.15959E-14 0.21511E-15
 0.41633E-16 0.44964E-14 0.76328E-16 0.22343E-14 0.15266E-15 0.86835E-11 0.13919E-13 0.12490E-14 0.68834E-14 0.85057E-13
 -.69389E-17 0.23023E-13 0.13878E-16 0.86875E-14 0.63838E-15 0.13878E-13 0.14572E-14 0.38858E-15 0.31919E-15 0.74316E-14
 0.41633E-16 0.15400E-12 0.20400E-13 0.29113E-11 0.44409E-15 0.12282E-14 0.47184E-15 0.10408E-15 0.86181E-14 0.24027E-12
 0.11102E-15 0.17347E-15 0.24980E-15 0.40398E-13 0.16792E-14 0.68973E-14 0.35388E-15 0.87153E-14 0.28220E-13 0.20740E-13
 -.69389E-17 0.55511E-16 0.90206E-16 0.49544E-14 0.22204E-15 0.85036E-13 0.73760E-14 0.24020E-12 0.20706E-13 0.10339E-14
 0.15266E-15 0.27756E-16 0.57593E-15 0.13878E-16 0.69389E-16 0.69389E-16 0.34694E-16 0.97145E-16 0.11796E-15  0.0000    
 -.27756E-16 0.69389E-16 0.12920E-13 0.22433E-13 0.18735E-15 0.40801E-14 0.13815E-13 0.14658E-12 0.31225E-15 0.11102E-15
 0.65226E-15 0.12768E-13 0.17066E-12 0.27756E-16 0.13184E-15 -.34694E-16 0.41633E-16 0.15404E-13 0.21511E-15 -.34694E-16
 0.41633E-16 0.22468E-13 0.83267E-16 0.69389E-16 0.13878E-16 0.25327E-14 0.51209E-14 0.27961E-11 0.32585E-13 0.10825E-14
 0.34694E-16 0.18041E-15 0.34694E-16  0.0000     -.13878E-16 0.90206E-16 0.49960E-15 0.27062E-15 0.14919E-14 0.97145E-16
 0.69389E-17 0.40384E-14 -.41633E-16 0.25951E-14 0.16653E-15 0.12623E-10 0.92565E-14 0.14364E-14 0.59397E-14 0.36221E-13
 -.27756E-16 0.13899E-13 0.13878E-16 0.51140E-14 0.49960E-15 0.93953E-14 0.12351E-14 0.29143E-15 0.17347E-15 0.51972E-14
 0.13878E-16 0.14659E-12 0.15210E-13 0.27962E-11 0.34001E-15 0.13253E-14 0.44409E-15 0.34694E-16 0.80352E-14 0.19969E-12
 0.90206E-16 0.21511E-15 0.22898E-15 0.32571E-13 0.14364E-14 0.60021E-14 0.26368E-15 0.80075E-14 0.28491E-13 0.18326E-13
 0.55511E-16 0.18041E-15 0.62450E-16 0.92981E-15 0.20123E-15 0.36235E-13 0.53152E-14 0.19965E-12 0.18333E-13 0.12559E-14
 -.41633E-16 0.90206E-16 0.65226E-15 0.13878E-16 0.27756E-16 -.20817E-16 0.76328E-16 0.34694E-16 0.13878E-16 0.27756E-16
  0.0000      0.0000     0.92149E-14 0.18971E-13 0.13878E-15 0.37470E-14 0.92010E-14 0.15461E-12 0.11102E-15 0.27756E-16
 0.74940E-15 0.91316E-14 0.19460E-12 -.69389E-17 0.48572E-16  0.0000     0.55511E-16 0.16959E-13 0.19429E-15 0.13878E-16
 -.69389E-17 0.19068E-13 0.27756E-16 0.76328E-16 0.41633E-16 0.27478E-14 0.36152E-14 0.26817E-11 0.35770E-13 0.76328E-15
 0.97145E-16 0.12490E-15 0.69389E-16 -.41633E-16 0.27756E-16 0.15959E-15 0.39552E-15 0.23592E-15 0.14433E-14 0.48572E-16
  0.0000     0.38511E-14 0.27756E-16 0.27200E-14 0.13184E-15 0.13677E-10 0.64185E-14 0.14364E-14 0.49197E-14 0.21289E-13
 -.13878E-16 0.92357E-14 0.34694E-16 0.36499E-14 0.39552E-15 0.64393E-14 0.10443E-14 0.27756E-15 0.15613E-15 0.39205E-14
 0.27756E-16 0.15467E-12 0.16973E-13 0.26817E-11 0.32613E-15 0.13496E-14 0.27756E-15 0.14919E-15 0.81844E-14 0.17131E-12
 0.76328E-16 0.11796E-15 0.19429E-15 0.35673E-13 0.14849E-14 0.49648E-14 0.19429E-15 0.82503E-14 0.27645E-13 0.17930E-13
  0.0000     0.55511E-16 -.69389E-17 0.61062E-15 0.13184E-15 0.21261E-13 0.39760E-14 0.17121E-12 0.17868E-13 0.14710E-14
 -.13878E-16 0.97145E-16 0.52042E-15 -.27756E-16 0.83267E-16 -.27756E-16 0.55511E-16 0.13878E-16 0.13878E-16 -.55511E-16
 -.76328E-16 0.11796E-15 0.70013E-14 0.13795E-13 0.41633E-16 0.28588E-14 0.57662E-14 0.19364E-12 0.55511E-16  0.0000    
 0.57593E-15 0.69250E-14 0.20185E-12 -.20817E-16 0.48572E-16 -.76328E-16 -.69389E-17 0.17895E-13 0.41633E-16 -.34694E-16
 -.20817E-16 0.13760E-13  0.0000     0.83267E-16 0.41633E-16 0.24286E-14 0.21233E-14 0.25777E-11 0.29428E-13 0.27062E-15
  0.0000     0.27756E-16 0.13878E-16 -.13878E-16 0.13878E-16 0.55511E-16 0.34001E-15 0.18735E-15 0.12594E-14 0.65919E-16
 -.62450E-16 0.29213E-14 0.69389E-17 0.24147E-14 0.10408E-15 0.34895E-10 0.43958E-14 0.15769E-14 0.38893E-14 0.44548E-14
  0.0000     0.58009E-14 -.13878E-16 0.21025E-14 0.27062E-15 0.44270E-14 0.71644E-15 0.23419E-15 0.74593E-16 0.28519E-14
 -.10408E-15 0.19368E-12 0.17847E-13 0.25777E-11 0.22204E-15 0.15474E-14 0.22378E-15 0.41633E-16 0.70360E-14 0.14653E-12
 0.27756E-16 0.14572E-15 0.69389E-16 0.29511E-13 0.12976E-14 0.39552E-14 0.15613E-16 0.71297E-14 0.27336E-13 0.15384E-13
 -.27756E-16 0.69389E-16 0.41633E-16 0.11796E-15 0.20817E-16 0.44305E-14 0.27998E-14 0.14646E-12 0.15279E-13 0.12074E-14
 0.69389E-16 0.13184E-15 0.70777E-15 0.55511E-16 0.55511E-16 0.11102E-15  0.0000      0.0000     0.97145E-16 0.41633E-16
 0.41633E-16 0.19429E-15 0.19776E-14 0.11650E-13 0.90206E-16 0.28311E-14 0.42397E-14 0.19502E-12 0.19429E-15 0.69389E-16
 0.70777E-15 0.19984E-14 0.20401E-12 0.41633E-16 0.62450E-16 0.62450E-16 0.11102E-15 0.11061E-13 0.22204E-15 0.13878E-15
 0.41633E-16 0.11734E-13 0.20817E-16 0.76328E-16 0.10408E-15 0.31919E-14 0.14849E-14 0.24329E-11 0.29712E-13 0.41633E-15
 0.11102E-15 0.83267E-16 0.55511E-16 -.55511E-16 0.13878E-16 0.11102E-15 0.34001E-15 0.22204E-15 0.13184E-14 0.11796E-15
  0.0000     0.28241E-14 0.62450E-16 0.29698E-14 0.48572E-16 0.52097E-10 0.37748E-14 0.12624E-14 0.42848E-14 0.45380E-14
 0.48572E-16 0.40801E-14 0.83267E-16 0.15196E-14 0.27062E-15 0.37748E-14 0.66440E-15 0.23592E-15 0.11341E-15 0.23228E-14
 0.27756E-16 0.19510E-12 0.11026E-13 0.24331E-11 0.23592E-15 0.12238E-14 0.15959E-15 0.69389E-17 0.84360E-14 0.12635E-12
 0.13878E-15 0.23592E-15 0.20817E-15 0.29816E-13 0.13392E-14 0.43437E-14 0.61583E-16 0.85730E-14 0.25931E-13 0.14266E-13
 0.11102E-15 0.19429E-15 0.13878E-15 0.34694E-15 0.14225E-15 0.45432E-14 0.22343E-14 0.12625E-12 0.14246E-13 0.15682E-14
  0.0000     0.13878E-16 0.63838E-15 -.69389E-17 0.27756E-16  0.0000     0.41633E-16  0.0000     0.83267E-16 -.55511E-16
 -.20817E-16  0.0000     0.15335E-14 0.87916E-14 0.48572E-16 0.23315E-14 0.27062E-14 0.23809E-12 0.11102E-15 -.83267E-16
 0.63838E-15 0.15057E-14 0.25089E-12 -.62450E-16 0.20817E-16  0.0000     0.83267E-16 0.11185E-13 0.27756E-16 -.27756E-16
 -.34694E-16 0.88193E-14 -.20817E-16 -.13878E-16 -.55511E-16 0.29143E-14 0.10547E-14 0.23272E-11 0.25216E-13 0.11449E-14
 0.69389E-16 0.34694E-16 -.62450E-16 -.69389E-16 0.55511E-16 0.11102E-15 0.29837E-15 0.15959E-15 0.15161E-14 0.48572E-16
 -.27756E-16 0.23176E-14 -.41633E-16 0.29143E-14 0.12490E-15 0.11634E-09 0.25813E-14 0.13531E-14 0.34278E-14 0.94889E-15
 0.69389E-17 0.27547E-14 0.55511E-16 0.10478E-14 0.15266E-15 0.27200E-14 0.41286E-15 0.19429E-15 -.29490E-16 0.16341E-14
  0.0000     0.23806E-12 0.11081E-13 0.23272E-11 0.15266E-15 0.13878E-14 0.18041E-15 0.22551E-16 0.74281E-14 0.10945E-12
 0.83267E-16 0.22204E-15 0.41633E-16 0.25244E-13 0.15578E-14 0.34556E-14 0.26021E-17 0.74732E-14 0.22409E-13 0.12663E-13
 -.83267E-16 0.13878E-16 0.83267E-16 0.11102E-14 0.11796E-15 0.90726E-15 0.16376E-14 0.10950E-12 0.12608E-13 0.18041E-14
 0.12490E-15 0.19429E-15 0.80491E-15 0.11102E-15 0.69389E-16 0.27756E-16 -.13878E-16 0.41633E-16 0.20817E-15 0.11102E-15
 0.12490E-15 0.11102E-15 0.36082E-15 0.78548E-14 0.11102E-15 0.21649E-14 0.22482E-14 0.26040E-12 0.24980E-15 0.55511E-16
 0.84655E-15 0.46491E-15 0.23526E-12 -.69389E-17 0.55511E-16 0.55511E-16 0.55511E-16 0.75495E-14 0.16653E-15 0.41633E-16
 0.13184E-15 0.79103E-14 -.48572E-16 0.55511E-16 -.13878E-16 0.31919E-14 0.88124E-15 0.21807E-11 0.22843E-13 0.15682E-14
 0.55511E-16 0.27756E-16 0.55511E-16 -.83267E-16 0.55511E-16 0.83267E-16 0.19429E-15 0.41633E-16 0.17347E-14 0.27756E-16
 0.27756E-16 0.20539E-14 0.27756E-16 0.31503E-14 0.55511E-16 0.18591E-08 0.21233E-14 0.13115E-14 0.48989E-14 0.38511E-15
 0.41633E-16 0.22413E-14 0.11102E-15 0.83267E-15 0.13878E-15 0.21649E-14 0.71818E-15 0.16653E-15 -.45103E-16 0.13878E-14
 0.83267E-16 0.26049E-12 0.75426E-14 0.21808E-11 0.11102E-15 0.12004E-14 0.18041E-15 0.86736E-17 0.90206E-14 0.97526E-13
 0.15266E-15 0.34694E-15 0.19429E-15 0.22857E-13 0.18111E-14 0.48850E-14 -.69389E-17 0.90206E-14 0.21060E-13 0.14266E-13
 0.83267E-16 0.20817E-15 0.11102E-15 0.15196E-14 0.11102E-15 0.37123E-15 0.14155E-14 0.97547E-13 0.14155E-13 0.20192E-14
 0.13878E-15 -.13878E-15 0.70777E-15 -.69389E-16 0.41633E-16 -.55511E-16 -.13878E-16 -.27756E-16 -.69389E-16 -.69389E-16
 -.13878E-15  0.0000     0.51348E-15 0.72164E-14 0.90206E-16 0.19429E-14 0.17625E-14 0.31511E-12 0.69389E-16 -.13878E-16
 0.69389E-15 0.45797E-15 0.28427E-12 -.83267E-16 -.27756E-16  0.0000     0.83267E-16 0.95063E-14 0.13878E-16 -.69389E-16
 -.13878E-16 0.72164E-14  0.0000     0.27756E-16  0.0000     0.33029E-14 0.62450E-15 0.20890E-11 0.21746E-13 0.17208E-14
 -.83267E-16 0.76328E-16 0.55511E-16 -.41633E-16  0.0000     0.55511E-16 0.15266E-15 0.41633E-16 0.17764E-14  0.0000    
 -.97145E-16 0.19706E-14 -.55511E-16 0.32890E-14  0.0000     0.32955E-08 0.16515E-14 0.11519E-14 0.42188E-14 0.49960E-15
 -.13878E-16 0.16792E-14  0.0000     0.59674E-15 0.15266E-15 0.17625E-14 0.66613E-15 0.18041E-15 0.20817E-16 0.11102E-14
 -.27756E-16 0.31516E-12 0.95063E-14 0.20890E-11 0.83267E-16 0.11102E-14 0.18041E-15 -.48572E-16 0.88540E-14 0.84203E-13
 -.13878E-16 0.83267E-16 0.13878E-16 0.21774E-13 0.18041E-14 0.41633E-14 0.27756E-16 0.88540E-14 0.18680E-13 0.15599E-13
 -.41633E-16 0.97145E-16 -.27756E-16 0.16862E-14 0.16653E-15 0.43021E-15 0.11102E-14 0.84176E-13 0.15599E-13 0.22482E-14
 -.83267E-16 -.13878E-16 0.84655E-15 -.41633E-16 -.41633E-16 0.41633E-16 -.27756E-16 -.27756E-16 0.13878E-16 0.55511E-16
 -.11102E-15  0.0000     0.37470E-15 0.58564E-14 -.13878E-16 0.18319E-14 0.14433E-14 0.35219E-12 0.27756E-15 -.27756E-16
 0.84655E-15 0.37470E-15 0.27094E-12 -.83267E-16 0.41633E-16 0.27756E-16 0.97145E-16 0.92149E-14 0.27756E-16 -.83267E-16
 -.97145E-16 0.58842E-14 0.13878E-16 0.41633E-16 -.13878E-16 0.35250E-14 0.52736E-15 0.19318E-11 0.19193E-13 0.27617E-14
 -.27756E-16 -.41633E-16 0.83267E-16 -.97145E-16 0.55511E-16 0.83267E-16 0.11102E-15 0.41633E-16 0.19151E-14 0.69389E-16
 -.41633E-16 0.18041E-14 -.27756E-16 0.35111E-14 0.27756E-16 0.16441E-10 0.13045E-14 0.11796E-14 0.35250E-14 -.13878E-16
  0.0000     0.14155E-14 0.12490E-15 0.36082E-15 0.41633E-16 0.13600E-14 0.69389E-15 0.19429E-15 0.27756E-16 0.88818E-15
 -.55511E-16 0.35234E-12 0.91316E-14 0.19318E-11 0.12490E-15 0.11380E-14 0.69389E-16 0.13878E-16 0.77993E-14 0.76633E-13
 0.97145E-16 0.38858E-15 0.55511E-16 0.19179E-13 0.19151E-14 0.34417E-14 -.13878E-16 0.77993E-14 0.17333E-13 0.17958E-13
 -.27756E-16 0.55511E-16 0.13878E-16 0.26784E-14 0.97145E-16 -.13878E-16 0.86042E-15 0.76522E-13 0.18055E-13 0.22621E-14
 0.12490E-15 0.10408E-15 0.87430E-15 0.69389E-16  0.0000     -.41633E-16 0.13878E-16 -.69389E-16 0.12490E-15 0.27756E-16
 -.34694E-16 0.97145E-16 0.11102E-15 0.50793E-14 0.83267E-16 0.22482E-14 0.11380E-14 0.38006E-12 0.16653E-15 0.27756E-16
 0.88818E-15 0.83267E-16 0.32678E-12 -.83267E-16 0.27756E-16 0.55511E-16 0.11102E-15 0.68556E-14 0.19429E-15 -.27756E-16
 0.41633E-16 0.50238E-14 0.41633E-16 -.27756E-16 -.13878E-16 0.38303E-14 0.44409E-15 0.18224E-11 0.17111E-13 0.32335E-14
 -.27756E-16 0.55511E-16 -.55511E-16 -.97145E-16 0.13878E-16  0.0000     0.15266E-15 0.97145E-16 0.21511E-14 0.27756E-16
 -.69389E-16 0.22760E-14 0.13878E-16 0.37748E-14 0.41633E-16 0.29930E-10 0.10825E-14 0.10686E-14 0.47046E-14 -.27756E-16
 -.55511E-16 0.12074E-14 0.11102E-15 0.40246E-15 0.97145E-16 0.11102E-14 0.92981E-15 0.23592E-15 -.27756E-16 0.86042E-15
 0.13878E-16 0.38004E-12 0.68140E-14 0.18222E-11 0.11102E-15 0.99920E-15 0.19429E-15 -.13878E-16 0.99920E-14 0.67196E-13
 0.13878E-15 0.34694E-15 0.69389E-16 0.17125E-13 0.21372E-14 0.46352E-14 0.13878E-16 0.99365E-14 0.15113E-13 0.18735E-13
 0.27756E-16 0.13878E-15 0.27756E-16 0.32890E-14 0.27756E-16  0.0000     0.77716E-15 0.67085E-13 0.18777E-13 0.27062E-14
 -.65919E-16 -.34694E-17 0.90206E-15 0.13878E-16 -.13878E-16 -.41633E-16 0.13878E-16 -.11102E-15 -.41633E-16 0.55511E-16
 -.13878E-16 0.27756E-16 0.27756E-16 0.47740E-14 0.83267E-16 0.29698E-14 0.94369E-15 0.44888E-12 0.33307E-15 0.34694E-16
 0.90206E-15  0.0000     0.39178E-12 0.13878E-16 0.55511E-16  0.0000     0.13878E-16 0.65364E-14 0.13878E-15 -.13878E-16
 -.69389E-16 0.48156E-14  0.0000     0.27756E-16 -.97145E-16 0.48850E-14 0.36082E-15 0.16597E-11 0.14724E-13 0.32335E-14
 -.13878E-16 -.13878E-16 -.13878E-16 -.83267E-16 -.55511E-16 0.13878E-16 0.55511E-16 0.69389E-16 0.27894E-14 0.97145E-16
 -.41633E-16 0.29698E-14 -.41633E-16 0.47740E-14  0.0000     0.26103E-10 0.10547E-14 0.83267E-15 0.49544E-14  0.0000    
 -.55511E-16 0.97145E-15 -.13878E-16 0.36082E-15  0.0000     0.10547E-14 0.63838E-15 0.11102E-15 -.41633E-16 0.88818E-15
 -.55511E-16 0.44902E-12 0.65642E-14 0.16596E-11 0.69389E-16 0.84655E-15 0.27756E-16 0.55511E-16 0.10769E-13 0.59300E-13
 0.55511E-16 0.36082E-15 0.41633E-16 0.14669E-13 0.28449E-14 0.49544E-14 -.13878E-16 0.10728E-13 0.12615E-13 0.19942E-13
 -.90206E-16 0.12490E-15 -.27756E-16 0.31919E-14 0.55511E-16 -.83267E-16 0.77716E-15 0.59244E-13 0.19929E-13 0.31850E-14
 -.17347E-17 0.34694E-16 0.10894E-14 -.27756E-16 0.69389E-16 -.27756E-16  0.0000     -.41633E-16 0.14572E-15 -.90206E-16
 -.93675E-16 0.24286E-16 0.83267E-16 0.42882E-14 0.27756E-16 0.29837E-14 0.81879E-15 0.52713E-12 0.36776E-15 0.10755E-15
 0.10755E-14 0.27756E-16 0.38557E-12 -.27756E-16 -.41633E-16 -.27756E-16 0.55511E-16 0.70499E-14 0.62450E-16 0.69389E-17
 -.41633E-16 0.42050E-14 0.69389E-16 0.12490E-15  0.0000     0.47323E-14 0.27756E-15 0.15504E-11 0.17208E-13 0.26507E-14
 -.97145E-16 -.13878E-16 -.13878E-16 -.27756E-16 0.13878E-16 0.55511E-16 0.97145E-16 0.12490E-15 0.26507E-14  0.0000    
 -.83267E-16 0.30254E-14 -.55511E-16 0.47323E-14 0.27756E-16 0.25266E-10 0.11380E-14 0.80491E-15 0.52458E-14 0.97145E-16
 -.55511E-16 0.97145E-15 0.55511E-16 0.22204E-15 0.97145E-16 0.10963E-14 0.81879E-15 0.22204E-15 0.55511E-16 0.79103E-15
 -.69389E-16 0.52708E-12 0.69666E-14 0.15503E-11 0.55511E-16 0.81879E-15 0.19429E-15 0.13878E-16 0.11158E-13 0.53110E-13
 0.62450E-16 0.35735E-15 0.62450E-16 0.17070E-13 0.26229E-14 0.53013E-14 -.13878E-16 0.11172E-13 0.12088E-13 0.26923E-13
 0.74593E-16 0.17347E-16 -.34694E-17 0.27200E-14 0.41633E-16 0.97145E-16 0.79103E-15 0.53069E-13 0.26965E-13 0.37227E-14
 -.27756E-16 0.44181E-16 0.10916E-14 -.72425E-16 -.15613E-16 0.25804E-16 -.39194E-16 -.34694E-16 0.29924E-16 -.91886E-16
 -.10983E-15 -.14745E-16 0.13184E-15 0.46475E-14 0.57246E-16 0.45944E-14 0.15656E-14 0.57710E-12 0.45103E-15 0.62287E-16
 0.10560E-14 0.23852E-16 0.51576E-12 -.71124E-16 0.62450E-16 -.14745E-16 0.28189E-16 0.83145E-14 -.48139E-16 0.10842E-16
 -.82833E-16 0.46904E-14 -.31225E-16 0.12837E-15 -.54210E-18 0.65174E-14 0.30377E-15 0.14204E-11 0.22254E-13 0.24512E-14