       N       E                     dE             d eps       ncg     rms          rms(c)
DAV:   1     0.198302868399E+03    0.19830E+03   -0.13959E+04   800   0.926E+02
DAV:   2    -0.100136701338E+02   -0.20832E+03   -0.20278E+03   832   0.264E+02
DAV:   3    -0.205003099320E+02   -0.10487E+02   -0.10090E+02   852   0.772E+01
DAV:   4    -0.206686990122E+02   -0.16839E+00   -0.16718E+00   860   0.906E+00
DAV:   5    -0.206699668858E+02   -0.12679E-02   -0.12675E-02   936   0.557E-01    0.158E+01
RMM:   6    -0.194563813226E+02    0.12136E+01   -0.50439E+01   863   0.695E+01    0.922E+00
RMM:   7    -0.169571148280E+02    0.24993E+01   -0.93390E+00   850   0.303E+01    0.380E+00
RMM:   8    -0.164194458198E+02    0.53767E+00   -0.24936E-01   868   0.400E+00    0.164E+00
RMM:   9    -0.163650831734E+02    0.54363E-01   -0.65032E-02   861   0.230E+00    0.857E-01
RMM:  10    -0.163454132273E+02    0.19670E-01   -0.18732E-02   841   0.104E+00    0.577E-01
RMM:  11    -0.163405486616E+02    0.48646E-02   -0.10927E-02   864   0.926E-01    0.325E-01
RMM:  12    -0.163379251859E+02    0.26235E-02   -0.70862E-03   859   0.700E-01    0.138E-01
RMM:  13    -0.163371181162E+02    0.80707E-03   -0.73800E-04   856   0.241E-01    0.497E-02
RMM:  14    -0.163369839338E+02    0.13418E-03   -0.23517E-04   855   0.121E-01    0.486E-02
RMM:  15    -0.163369879063E+02   -0.39725E-05   -0.19453E-04   815   0.764E-02    0.213E-02
RMM:  16    -0.163372596113E+02   -0.27171E-03   -0.81483E-05   804   0.520E-02    0.142E-02
RMM:  17    -0.163373892307E+02   -0.12962E-03   -0.17516E-05   766   0.191E-02    0.127E-02
RMM:  18    -0.163375340654E+02   -0.14483E-03   -0.26401E-05   762   0.254E-02    0.764E-03
RMM:  19    -0.163375926238E+02   -0.58558E-04   -0.66738E-06   608   0.127E-02    0.631E-03
RMM:  20    -0.163376236156E+02   -0.30992E-04   -0.10965E-06   516   0.526E-03    0.607E-03
RMM:  21    -0.163376431706E+02   -0.19555E-04   -0.12641E-06   499   0.506E-03    0.554E-03
RMM:  22    -0.163376487365E+02   -0.55659E-05   -0.19253E-07   445   0.269E-03    0.549E-03
RMM:  23    -0.163376514986E+02   -0.27621E-05   -0.52484E-08   207   0.121E-03    0.545E-03
RMM:  24    -0.163376517774E+02   -0.27882E-06   -0.71961E-09   175   0.128E-03
   1 F= -.16337652E+02 E0= -.16329665E+02  d E =-.159738E-01
