PROCAR lm decomposed
# of k-points:   14         # of bands:   28         # of ions:    5

 k-point     1 :    0.00000000 0.00000000 0.00000000     weight = 0.01000000

band     1 # energy  -11.31418138 # occ.  2.00000000
 
ion      s     py     pz     px    dxy    dyz    dz2    dxz  x2-y2    tot
    1  0.054  0.000  0.006  0.000  0.000  0.000  0.000  0.000  0.000  0.060
    2  0.196  0.000  0.001  0.000  0.000  0.000  0.000  0.000  0.000  0.198
    3  0.220  0.000  0.000  0.000  0.000  0.000  0.000  0.000  0.000  0.220
    4  0.097  0.000  0.003  0.000  0.000  0.000  0.000  0.000  0.000  0.101
    5  0.008  0.000  0.000  0.000  0.000  0.000  0.000  0.000  0.000  0.009
tot    0.576  0.000  0.011  0.000  0.000  0.000  0.001  0.000  0.000  0.588
 
band     2 # energy  -10.25749666 # occ.  2.00000000
 
ion      s     py     pz     px    dxy    dyz    dz2    dxz  x2-y2    tot
    1  0.136  0.000  0.008  0.000  0.000  0.000  0.002  0.000  0.000  0.146
    2  0.121  0.000  0.011  0.000  0.000  0.000  0.004  0.000  0.000  0.136
    3  0.030  0.000  0.023  0.000  0.000  0.000  0.001  0.000  0.000  0.054
    4  0.203  0.000  0.000  0.000  0.000  0.000  0.000  0.000  0.000  0.203
    5  0.036  0.000  0.001  0.000  0.000  0.000  0.000  0.000  0.000  0.036
tot    0.526  0.000  0.042  0.000  0.000  0.000  0.007  0.000  0.000  0.575
 
band     3 # energy   -8.79395949 # occ.  2.00000000
 
ion      s     py     pz     px    dxy    dyz    dz2    dxz  x2-y2    tot
    1  0.152  0.000  0.000  0.000  0.000  0.000  0.032  0.000  0.000  0.184
    2  0.005  0.000  0.040  0.000  0.000  0.000  0.002  0.000  0.000  0.046
    3  0.121  0.000  0.009  0.000  0.000  0.000  0.035  0.000  0.000  0.165
    4  0.082  0.000  0.031  0.000  0.000  0.000  0.001  0.000  0.000  0.114
    5  0.066  0.000  0.001  0.000  0.000  0.000  0.000  0.000  0.000  0.066
tot    0.427  0.000  0.080  0.000  0.000  0.000  0.070  0.000  0.000  0.576
 
band     4 # energy   -7.68674453 # occ.  2.00000000
 
ion      s     py     pz     px    dxy    dyz    dz2    dxz  x2-y2    tot
    1  0.080  0.000  0.005  0.000  0.000  0.000  0.118  0.000  0.000  0.203
    2  0.086  0.000  0.001  0.000  0.000  0.000  0.219  0.000  0.000  0.306
    3  0.039  0.000  0.011  0.000  0.000  0.000  0.091  0.000  0.000  0.140
    4  0.000  0.000  0.027  0.000  0.000  0.000  0.014  0.000  0.000  0.041
    5  0.035  0.000  0.000  0.000  0.000  0.000  0.000  0.000  0.000  0.035
tot    0.240  0.000  0.044  0.000  0.000  0.000  0.442  0.000  0.000  0.726
 
band     5 # energy   -7.39986490 # occ.  2.00000000
 
ion      s     py     pz     px    dxy    dyz    dz2    dxz  x2-y2    tot
    1  0.001  0.000  0.000  0.000  0.000  0.000  0.003  0.000  0.000  0.004
    2  0.002  0.000  0.000  0.000  0.000  0.000  0.018  0.000  0.000  0.020
    3  0.006  0.000  0.003  0.000  0.000  0.000  0.082  0.000  0.000  0.090
    4  0.033  0.000  0.020  0.000  0.000  0.000  0.601  0.000  0.000  0.654
    5  0.072  0.000  0.001  0.000  0.000  0.000  0.000  0.000  0.000  0.073
tot    0.114  0.000  0.024  0.000  0.000  0.000  0.704  0.000  0.000  0.842
 
band     6 # energy   -5.64300701 # occ.  2.00000000
 
ion      s     py     pz     px    dxy    dyz    dz2    dxz  x2-y2    tot
    1  0.002  0.000  0.000  0.000  0.000  0.000  0.055  0.000  0.000  0.057
    2  0.000  0.000  0.011  0.000  0.000  0.000  0.070  0.000  0.000  0.082
    3  0.004  0.000  0.000  0.000  0.000  0.000  0.658  0.000  0.000  0.663
    4  0.001  0.000  0.016  0.000  0.000  0.000  0.101  0.000  0.000  0.117
    5  0.004  0.000  0.000  0.000  0.000  0.000  0.000  0.000  0.000  0.004
tot    0.010  0.000  0.028  0.000  0.000  0.000  0.884  0.000  0.000  0.922
 
band     7 # energy   -5.51433761 # occ.  2.00000000
 
ion      s     py     pz     px    dxy    dyz    dz2    dxz  x2-y2    tot
    1  0.000  0.000  0.000  0.000  0.002  0.003  0.000  0.001  0.007  0.012
    2  0.000  0.000  0.000  0.000  0.046  0.004  0.000  0.001  0.139  0.190
    3  0.000  0.000  0.000  0.000  0.069  0.026  0.000  0.009  0.208  0.312
    4  0.000  0.000  0.000  0.000  0.111  0.005  0.000  0.002  0.332  0.449
    5  0.000  0.000  0.000  0.000  0.000  0.000  0.000  0.000  0.000  0.000
tot    0.000  0.000  0.000  0.000  0.229  0.037  0.000  0.012  0.686  0.965
 
band     8 # energy   -5.51402886 # occ.  2.00000000
 
ion      s     py     pz     px    dxy    dyz    dz2    dxz  x2-y2    tot
    1  0.000  0.000  0.000  0.000  0.007  0.001  0.000  0.003  0.002  0.013
    2  0.000  0.000  0.000  0.000  0.139  0.001  0.000  0.004  0.046  0.190
    3  0.000  0.000  0.000  0.000  0.209  0.009  0.000  0.026  0.070  0.313
    4  0.000  0.000  0.000  0.000  0.332  0.002  0.000  0.005  0.111  0.449
    5  0.000  0.000  0.000  0.000  0.000  0.000  0.000  0.000  0.000  0.000
tot    0.000  0.000  0.000  0.000  0.686  0.012  0.000  0.037  0.229  0.965
 
band     9 # energy   -5.49889392 # occ.  2.00000000
 
ion      s     py     pz     px    dxy    dyz    dz2    dxz  x2-y2    tot
    1  0.000  0.000  0.006  0.000  0.000  0.000  0.365  0.000  0.000  0.372
    2  0.004  0.000  0.001  0.000  0.000  0.000  0.509  0.000  0.000  0.515
    3  0.002  0.000  0.011  0.000  0.000  0.000  0.003  0.000  0.000  0.016
    4  0.000  0.000  0.008  0.000  0.000  0.000  0.018  0.000  0.000  0.026
    5  0.003  0.000  0.000  0.000  0.000  0.000  0.000  0.000  0.000  0.003
tot    0.009  0.000  0.026  0.000  0.000  0.000  0.896  0.000  0.000  0.931
 
band    10 # energy   -5.47565667 # occ.  2.00000000
 
ion      s     py     pz     px    dxy    dyz    dz2    dxz  x2-y2    tot
    1  0.000  0.000  0.000  0.000  0.004  0.006  0.000  0.002  0.011  0.023
    2  0.000  0.000  0.000  0.000  0.014  0.054  0.000  0.018  0.041  0.127
    3  0.000  0.000  0.000  0.000  0.123  0.062  0.000  0.021  0.369  0.575
    4  0.000  0.000  0.000  0.000  0.040  0.064  0.000  0.021  0.119  0.244
    5  0.000  0.000  0.000  0.000  0.000  0.000  0.000  0.000  0.000  0.000
tot    0.000  0.000  0.000  0.000  0.180  0.186  0.000  0.062  0.540  0.969
 
band    11 # energy   -5.47538891 # occ.  2.00000000
 
ion      s     py     pz     px    dxy    dyz    dz2    dxz  x2-y2    tot
    1  0.000  0.000  0.000  0.000  0.011  0.002  0.000  0.006  0.004  0.023
    2  0.000  0.000  0.000  0.000  0.041  0.018  0.000  0.054  0.014  0.127
    3  0.000  0.000  0.000  0.000  0.369  0.021  0.000  0.062  0.123  0.574
    4  0.000  0.000  0.000  0.000  0.119  0.021  0.000  0.064  0.040  0.244
    5  0.000  0.000  0.000  0.000  0.000  0.000  0.000  0.000  0.000  0.000
tot    0.000  0.000  0.000  0.000  0.540  0.062  0.000  0.186  0.180  0.969
 
band    12 # energy   -5.40996768 # occ.  2.00000000
 
ion      s     py     pz     px    dxy    dyz    dz2    dxz  x2-y2    tot
    1  0.000  0.000  0.000  0.000  0.004  0.018  0.000  0.006  0.012  0.040
    2  0.000  0.000  0.000  0.000  0.152  0.002  0.000  0.001  0.457  0.612
    3  0.000  0.000  0.000  0.000  0.000  0.005  0.000  0.002  0.000  0.007
    4  0.000  0.000  0.000  0.000  0.077  0.000  0.000  0.000  0.232  0.309
    5  0.000  0.000  0.000  0.000  0.000  0.000  0.000  0.000  0.000  0.000
tot    0.000  0.000  0.000  0.000  0.233  0.025  0.000  0.008  0.700  0.967
 
band    13 # energy   -5.40963570 # occ.  2.00000000
 
ion      s     py     pz     px    dxy    dyz    dz2    dxz  x2-y2    tot
    1  0.000  0.000  0.000  0.000  0.012  0.006  0.000  0.018  0.004  0.040
    2  0.000  0.000  0.000  0.000  0.457  0.001  0.000  0.002  0.152  0.611
    3  0.000  0.000  0.000  0.000  0.000  0.002  0.000  0.005  0.000  0.007
    4  0.000  0.000  0.000  0.000  0.232  0.000  0.000  0.000  0.077  0.310
    5  0.000  0.000  0.000  0.000  0.000  0.000  0.000  0.000  0.000  0.000
tot    0.000  0.000  0.000  0.000  0.700  0.008  0.000  0.025  0.233  0.967
 
band    14 # energy   -5.21588993 # occ.  2.00000000
 
ion      s     py     pz     px    dxy    dyz    dz2    dxz  x2-y2    tot
    1  0.000  0.000  0.000  0.000  0.205  0.006  0.000  0.002  0.614  0.826
    2  0.000  0.000  0.000  0.000  0.001  0.056  0.000  0.019  0.002  0.077
    3  0.000  0.000  0.000  0.000  0.012  0.001  0.000  0.000  0.036  0.050
    4  0.000  0.000  0.000  0.000  0.002  0.007  0.000  0.002  0.005  0.016
    5  0.000  0.000  0.000  0.000  0.000  0.000  0.000  0.000  0.000  0.000
tot    0.000  0.000  0.000  0.000  0.219  0.069  0.000  0.023  0.657  0.969
 
band    15 # energy   -5.21558986 # occ.  2.00000000
 
ion      s     py     pz     px    dxy    dyz    dz2    dxz  x2-y2    tot
    1  0.000  0.000  0.000  0.000  0.613  0.002  0.000  0.006  0.204  0.826
    2  0.000  0.000  0.000  0.000  0.002  0.019  0.000  0.056  0.001  0.077
    3  0.000  0.000  0.000  0.000  0.036  0.000  0.000  0.001  0.012  0.050
    4  0.000  0.000  0.000  0.000  0.005  0.002  0.000  0.007  0.002  0.016
    5  0.000  0.000  0.000  0.000  0.000  0.000  0.000  0.000  0.000  0.000
tot    0.000  0.000  0.000  0.000  0.657  0.023  0.000  0.070  0.219  0.969
 
band    16 # energy   -5.00330584 # occ.  2.00000000
 
ion      s     py     pz     px    dxy    dyz    dz2    dxz  x2-y2    tot
    1  0.027  0.000  0.001  0.000  0.000  0.000  0.306  0.000  0.000  0.334
    2  0.016  0.000  0.035  0.000  0.000  0.000  0.056  0.000  0.000  0.107
    3  0.000  0.000  0.079  0.000  0.000  0.000  0.003  0.000  0.000  0.083
    4  0.006  0.000  0.052  0.000  0.000  0.000  0.116  0.000  0.000  0.175
    5  0.018  0.000  0.000  0.000  0.000  0.000  0.000  0.000  0.000  0.018
tot    0.067  0.000  0.168  0.000  0.000  0.000  0.481  0.000  0.000  0.717
 
band    17 # energy   -4.88092652 # occ.  2.00000000
 
ion      s     py     pz     px    dxy    dyz    dz2    dxz  x2-y2    tot
    1  0.000  0.000  0.000  0.000  0.000  0.004  0.000  0.001  0.000  0.005
    2  0.000  0.000  0.000  0.000  0.006  0.001  0.000  0.000  0.017  0.024
    3  0.000  0.000  0.000  0.000  0.027  0.099  0.000  0.033  0.080  0.239
    4  0.000  0.000  0.000  0.000  0.006  0.517  0.000  0.172  0.019  0.715
    5  0.000  0.000  0.000  0.000  0.000  0.000  0.000  0.000  0.000  0.000
tot    0.000  0.000  0.000  0.000  0.039  0.621  0.000  0.207  0.116  0.984
 
band    18 # energy   -4.88085735 # occ.  2.00000000
 
ion      s     py     pz     px    dxy    dyz    dz2    dxz  x2-y2    tot
    1  0.000  0.000  0.000  0.000  0.000  0.001  0.000  0.004  0.000  0.005
    2  0.000  0.000  0.000  0.000  0.017  0.000  0.000  0.001  0.006  0.024
    3  0.000  0.000  0.000  0.000  0.080  0.033  0.000  0.099  0.027  0.239
    4  0.000  0.000  0.000  0.000  0.019  0.172  0.000  0.517  0.006  0.715
    5  0.000  0.000  0.000  0.000  0.000  0.000  0.000  0.000  0.000  0.000
tot    0.000  0.000  0.000  0.000  0.116  0.207  0.000  0.621  0.039  0.984
 
band    19 # energy   -4.68496155 # occ.  2.00000000
 
ion      s     py     pz     px    dxy    dyz    dz2    dxz  x2-y2    tot
    1  0.000  0.000  0.000  0.000  0.023  0.044  0.000  0.015  0.070  0.153
    2  0.000  0.000  0.000  0.000  0.017  0.333  0.000  0.111  0.051  0.513
    3  0.000  0.000  0.000  0.000  0.006  0.155  0.000  0.052  0.018  0.232
    4  0.000  0.000  0.000  0.000  0.003  0.056  0.000  0.019  0.009  0.087
    5  0.000  0.000  0.000  0.000  0.000  0.000  0.000  0.000  0.000  0.000
tot    0.000  0.000  0.000  0.000  0.050  0.589  0.000  0.196  0.149  0.984
 
band    20 # energy   -4.68488780 # occ.  2.00000000
 
ion      s     py     pz     px    dxy    dyz    dz2    dxz  x2-y2    tot
    1  0.000  0.000  0.000  0.000  0.070  0.015  0.000  0.044  0.023  0.153
    2  0.000  0.000  0.000  0.000  0.051  0.111  0.000  0.333  0.017  0.513
    3  0.000  0.000  0.000  0.000  0.018  0.052  0.000  0.155  0.006  0.232
    4  0.000  0.000  0.000  0.000  0.009  0.019  0.000  0.056  0.003  0.087
    5  0.000  0.000  0.000  0.000  0.000  0.000  0.000  0.000  0.000  0.000
tot    0.000  0.000  0.000  0.000  0.150  0.196  0.000  0.589  0.050  0.984
 
band    21 # energy   -4.47492236 # occ.  2.00000000
 
ion      s     py     pz     px    dxy    dyz    dz2    dxz  x2-y2    tot
    1  0.000  0.000  0.000  0.000  0.002  0.258  0.000  0.086  0.007  0.354
    2  0.000  0.000  0.000  0.000  0.000  0.068  0.000  0.023  0.000  0.091
    3  0.000  0.000  0.000  0.000  0.003  0.309  0.000  0.103  0.008  0.423
    4  0.000  0.000  0.000  0.000  0.003  0.080  0.000  0.027  0.009  0.119
    5  0.000  0.000  0.000  0.000  0.000  0.000  0.000  0.000  0.000  0.000
tot    0.000  0.000  0.000  0.000  0.008  0.715  0.000  0.238  0.025  0.987
 
band    22 # energy   -4.47487956 # occ.  2.00000000
 
ion      s     py     pz     px    dxy    dyz    dz2    dxz  x2-y2    tot
    1  0.000  0.000  0.000  0.000  0.007  0.086  0.000  0.258  0.002  0.354
    2  0.000  0.000  0.000  0.000  0.000  0.023  0.000  0.068  0.000  0.091
    3  0.000  0.000  0.000  0.000  0.008  0.103  0.000  0.309  0.003  0.423
    4  0.000  0.000  0.000  0.000  0.009  0.027  0.000  0.080  0.003  0.119
    5  0.000  0.000  0.000  0.000  0.000  0.000  0.000  0.000  0.000  0.000
tot    0.000  0.000  0.000  0.000  0.025  0.238  0.000  0.715  0.008  0.987
 
band    23 # energy   -4.19137096 # occ.  2.00000000
 
ion      s     py     pz     px    dxy    dyz    dz2    dxz  x2-y2    tot
    1  0.000  0.000  0.000  0.000  0.002  0.400  0.000  0.133  0.006  0.542
    2  0.000  0.000  0.000  0.000  0.006  0.220  0.000  0.073  0.019  0.319
    3  0.000  0.000  0.000  0.000  0.002  0.081  0.000  0.027  0.006  0.115
    4  0.000  0.000  0.000  0.000  0.000  0.009  0.000  0.003  0.001  0.014
    5  0.000  0.000  0.000  0.000  0.000  0.000  0.000  0.000  0.000  0.000
tot    0.000  0.000  0.000  0.000  0.011  0.710  0.000  0.237  0.033  0.990
 
band    24 # energy   -4.19130810 # occ.  2.00000000
 
ion      s     py     pz     px    dxy    dyz    dz2    dxz  x2-y2    tot
    1  0.000  0.000  0.000  0.000  0.006  0.133  0.000  0.400  0.002  0.541
    2  0.000  0.000  0.000  0.000  0.019  0.073  0.000  0.220  0.006  0.319
    3  0.000  0.000  0.000  0.000  0.006  0.027  0.000  0.081  0.002  0.115
    4  0.000  0.000  0.000  0.000  0.001  0.003  0.000  0.009  0.000  0.014
    5  0.000  0.000  0.000  0.000  0.000  0.000  0.000  0.000  0.000  0.000
tot    0.000  0.000  0.000  0.000  0.033  0.236  0.000  0.709  0.011  0.990
 
band    25 # energy   -3.11575607 # occ.  2.00000000
 
ion      s     py     pz     px    dxy    dyz    dz2    dxz  x2-y2    tot
    1  0.019  0.000  0.153  0.000  0.000  0.000  0.029  0.000  0.000  0.201
    2  0.016  0.000  0.078  0.000  0.000  0.000  0.025  0.000  0.000  0.118
    3  0.013  0.000  0.032  0.000  0.000  0.000  0.019  0.000  0.000  0.065
    4  0.010  0.000  0.010  0.000  0.000  0.000  0.021  0.000  0.000  0.041
    5  0.005  0.000  0.000  0.000  0.000  0.000  0.000  0.000  0.000  0.005
tot    0.063  0.000  0.273  0.000  0.000  0.000  0.094  0.000  0.000  0.430
 
band    26 # energy    0.99553427 # occ.  0.00000000
 
ion      s     py     pz     px    dxy    dyz    dz2    dxz  x2-y2    tot
    1  0.010  0.000  0.007  0.000  0.000  0.000  0.011  0.000  0.000  0.029
    2  0.025  0.000  0.010  0.000  0.000  0.000  0.022  0.000  0.000  0.056
    3  0.049  0.000  0.012  0.000  0.000  0.000  0.043  0.000  0.000  0.104
    4  0.082  0.000  0.011  0.000  0.000  0.000  0.080  0.000  0.000  0.172
    5  0.015  0.000  0.006  0.000  0.000  0.000  0.000  0.000  0.000  0.021
tot    0.180  0.000  0.047  0.000  0.000  0.000  0.155  0.000  0.000  0.382
 
band    27 # energy    1.79133673 # occ.  0.00000000
 
ion      s     py     pz     px    dxy    dyz    dz2    dxz  x2-y2    tot
    1  0.011  0.000  0.005  0.000  0.000  0.000  0.011  0.000  0.000  0.026
    2  0.003  0.000  0.006  0.000  0.000  0.000  0.003  0.000  0.000  0.011
    3  0.000  0.000  0.006  0.000  0.000  0.000  0.000  0.000  0.000  0.006
    4  0.003  0.000  0.005  0.000  0.000  0.000  0.002  0.000  0.000  0.010
    5  0.000  0.000  0.001  0.000  0.000  0.000  0.000  0.000  0.000  0.001
tot    0.017  0.000  0.023  0.000  0.000  0.000  0.016  0.000  0.000  0.055
 
band    28 # energy    2.30994137 # occ.  0.00000000
 
ion      s     py     pz     px    dxy    dyz    dz2    dxz  x2-y2    tot
    1  0.003  0.000  0.003  0.000  0.000  0.000  0.003  0.000  0.000  0.008
    2  0.000  0.000  0.003  0.000  0.000  0.000  0.000  0.000  0.000  0.003
    3  0.001  0.000  0.003  0.000  0.000  0.000  0.001  0.000  0.000  0.004
    4  0.003  0.000  0.001  0.000  0.000  0.000  0.003  0.000  0.000  0.008
    5  0.001  0.000  0.000  0.000  0.000  0.000  0.000  0.000  0.000  0.001
tot    0.008  0.000  0.010  0.000  0.000  0.000  0.007  0.000  0.000  0.024
 

 k-point     2 :    0.10000000 0.00000000 0.00000000     weight = 0.06000000

band     1 # energy  -11.00226890 # occ.  2.00000000
 
ion      s     py     pz     px    dxy    dyz    dz2    dxz  x2-y2    tot
    1  0.052  0.000  0.006  0.001  0.000  0.000  0.000  0.000  0.000  0.060
    2  0.190  0.001  0.001  0.004  0.000  0.000  0.000  0.000  0.000  0.197
    3  0.214  0.002  0.000  0.005  0.000  0.000  0.000  0.000  0.000  0.220
    4  0.095  0.001  0.003  0.002  0.000  0.000  0.001  0.000  0.000  0.102
    5  0.009  0.000  0.000  0.000  0.000  0.000  0.000  0.000  0.000  0.009
tot    0.559  0.004  0.011  0.012  0.000  0.000  0.001  0.001  0.000  0.588
 
band     2 # energy   -9.96151299 # occ.  2.00000000
 
ion      s     py     pz     px    dxy    dyz    dz2    dxz  x2-y2    tot
    1  0.131  0.001  0.008  0.003  0.000  0.000  0.002  0.001  0.000  0.145
    2  0.118  0.001  0.011  0.003  0.000  0.000  0.003  0.001  0.000  0.137
    3  0.028  0.000  0.023  0.001  0.000  0.001  0.001  0.002  0.000  0.055
    4  0.196  0.001  0.000  0.004  0.000  0.000  0.000  0.000  0.000  0.201
    5  0.037  0.000  0.001  0.000  0.000  0.000  0.000  0.000  0.000  0.038
tot    0.510  0.003  0.042  0.010  0.000  0.001  0.006  0.003  0.000  0.577
 
band     3 # energy   -8.52341881 # occ.  2.00000000
 
ion      s     py     pz     px    dxy    dyz    dz2    dxz  x2-y2    tot
    1  0.144  0.001  0.000  0.004  0.000  0.000  0.030  0.000  0.000  0.179
    2  0.004  0.000  0.040  0.000  0.000  0.002  0.001  0.005  0.000  0.052
    3  0.116  0.001  0.008  0.003  0.000  0.000  0.033  0.001  0.000  0.164
    4  0.076  0.000  0.032  0.001  0.000  0.001  0.000  0.003  0.000  0.113
    5  0.070  0.000  0.001  0.000  0.000  0.000  0.000  0.000  0.000  0.070
tot    0.410  0.003  0.081  0.008  0.001  0.003  0.064  0.009  0.000  0.578
 
band     4 # energy   -7.47142562 # occ.  2.00000000
 
ion      s     py     pz     px    dxy    dyz    dz2    dxz  x2-y2    tot
    1  0.074  0.001  0.004  0.003  0.001  0.000  0.116  0.000  0.000  0.199
    2  0.074  0.001  0.001  0.003  0.001  0.000  0.211  0.000  0.000  0.292
    3  0.030  0.000  0.012  0.001  0.001  0.001  0.072  0.002  0.000  0.119
    4  0.000  0.000  0.030  0.000  0.000  0.002  0.042  0.005  0.000  0.078
    5  0.043  0.000  0.000  0.000  0.000  0.000  0.000  0.000  0.000  0.044
tot    0.221  0.002  0.048  0.007  0.002  0.002  0.441  0.007  0.001  0.731
 
band     5 # energy   -7.27486047 # occ.  2.00000000
 
ion      s     py     pz     px    dxy    dyz    dz2    dxz  x2-y2    tot
    1  0.003  0.000  0.000  0.000  0.000  0.000  0.008  0.000  0.000  0.012
    2  0.004  0.000  0.000  0.000  0.000  0.000  0.034  0.000  0.000  0.040
    3  0.009  0.000  0.002  0.001  0.001  0.000  0.109  0.000  0.000  0.121
    4  0.033  0.001  0.013  0.003  0.001  0.001  0.575  0.003  0.000  0.630
    5  0.055  0.000  0.001  0.000  0.000  0.000  0.000  0.000  0.000  0.056
tot    0.104  0.001  0.017  0.004  0.002  0.001  0.726  0.003  0.001  0.859
 
band     6 # energy   -5.75511118 # occ.  2.00000000
 
ion      s     py     pz     px    dxy    dyz    dz2    dxz  x2-y2    tot
    1  0.000  0.000  0.002  0.000  0.004  0.001  0.104  0.002  0.001  0.113
    2  0.001  0.000  0.007  0.000  0.077  0.015  0.012  0.046  0.026  0.184
    3  0.002  0.000  0.001  0.000  0.005  0.005  0.411  0.015  0.002  0.441
    4  0.001  0.000  0.012  0.000  0.030  0.011  0.087  0.034  0.010  0.186
    5  0.002  0.000  0.000  0.000  0.000  0.000  0.000  0.000  0.000  0.002
tot    0.007  0.000  0.022  0.001  0.115  0.032  0.613  0.097  0.038  0.926
 
band     7 # energy   -5.63763162 # occ.  2.00000000
 
ion      s     py     pz     px    dxy    dyz    dz2    dxz  x2-y2    tot
    1  0.001  0.000  0.001  0.000  0.019  0.000  0.028  0.001  0.006  0.057
    2  0.001  0.000  0.003  0.000  0.082  0.000  0.237  0.001  0.028  0.354
    3  0.000  0.000  0.011  0.000  0.001  0.040  0.048  0.121  0.000  0.222
    4  0.000  0.000  0.007  0.000  0.205  0.000  0.013  0.000  0.069  0.295
    5  0.003  0.000  0.000  0.000  0.000  0.000  0.000  0.000  0.000  0.003
tot    0.006  0.000  0.022  0.001  0.307  0.041  0.326  0.123  0.103  0.930
 
band     8 # energy   -5.59772294 # occ.  2.00000000
 
ion      s     py     pz     px    dxy    dyz    dz2    dxz  x2-y2    tot
    1  0.000  0.000  0.001  0.000  0.008  0.002  0.048  0.005  0.003  0.066
    2  0.001  0.000  0.000  0.000  0.035  0.012  0.058  0.037  0.012  0.156
    3  0.000  0.000  0.000  0.001  0.444  0.000  0.015  0.001  0.148  0.610
    4  0.000  0.000  0.000  0.000  0.047  0.014  0.005  0.042  0.016  0.124
    5  0.000  0.000  0.000  0.000  0.000  0.000  0.000  0.000  0.000  0.000
tot    0.002  0.000  0.002  0.001  0.534  0.028  0.126  0.085  0.178  0.956
 
band     9 # energy   -5.48373238 # occ.  2.00000000
 
ion      s     py     pz     px    dxy    dyz    dz2    dxz  x2-y2    tot
    1  0.003  0.000  0.001  0.000  0.062  0.009  0.004  0.026  0.021  0.126
    2  0.004  0.000  0.002  0.000  0.052  0.019  0.158  0.057  0.018  0.310
    3  0.000  0.000  0.019  0.000  0.038  0.000  0.004  0.000  0.013  0.075
    4  0.001  0.000  0.009  0.000  0.201  0.026  0.031  0.077  0.068  0.413
    5  0.002  0.000  0.000  0.000  0.000  0.000  0.000  0.000  0.000  0.002
tot    0.010  0.000  0.032  0.001  0.354  0.053  0.198  0.159  0.119  0.925
 
band    10 # energy   -5.44504959 # occ.  2.00000000
 
ion      s     py     pz     px    dxy    dyz    dz2    dxz  x2-y2    tot
    1  0.001  0.000  0.000  0.000  0.032  0.007  0.012  0.020  0.011  0.082
    2  0.000  0.000  0.000  0.000  0.360  0.001  0.010  0.002  0.120  0.493
    3  0.000  0.000  0.002  0.000  0.003  0.000  0.079  0.000  0.001  0.085
    4  0.000  0.000  0.004  0.000  0.169  0.010  0.023  0.029  0.057  0.291
    5  0.001  0.000  0.000  0.000  0.000  0.000  0.000  0.000  0.000  0.001
tot    0.002  0.000  0.007  0.001  0.564  0.017  0.123  0.050  0.189  0.953
 
band    11 # energy   -5.41708110 # occ.  2.00000000
 
ion      s     py     pz     px    dxy    dyz    dz2    dxz  x2-y2    tot
    1  0.000  0.000  0.000  0.000  0.001  0.010  0.000  0.003  0.002  0.015
    2  0.000  0.000  0.000  0.000  0.052  0.015  0.000  0.005  0.156  0.229
    3  0.000  0.000  0.000  0.000  0.027  0.090  0.000  0.030  0.080  0.227
    4  0.000  0.000  0.000  0.000  0.113  0.036  0.000  0.012  0.335  0.497
    5  0.000  0.000  0.000  0.000  0.000  0.000  0.000  0.000  0.000  0.000
tot    0.000  0.001  0.000  0.000  0.192  0.152  0.000  0.051  0.572  0.968
 
band    12 # energy   -5.39949245 # occ.  2.00000000
 
ion      s     py     pz     px    dxy    dyz    dz2    dxz  x2-y2    tot
    1  0.000  0.000  0.000  0.000  0.006  0.002  0.000  0.001  0.017  0.026
    2  0.000  0.000  0.000  0.000  0.010  0.062  0.000  0.021  0.029  0.122
    3  0.000  0.000  0.000  0.000  0.150  0.030  0.000  0.010  0.450  0.640
    4  0.000  0.000  0.000  0.000  0.025  0.059  0.000  0.020  0.076  0.180
    5  0.000  0.000  0.000  0.000  0.000  0.000  0.000  0.000  0.000  0.000
tot    0.000  0.001  0.000  0.000  0.191  0.153  0.000  0.051  0.572  0.968
 
band    13 # energy   -5.30464308 # occ.  2.00000000
 
ion      s     py     pz     px    dxy    dyz    dz2    dxz  x2-y2    tot
    1  0.000  0.000  0.000  0.000  0.003  0.021  0.000  0.007  0.009  0.040
    2  0.000  0.000  0.000  0.000  0.144  0.002  0.000  0.001  0.431  0.578
    3  0.000  0.000  0.000  0.000  0.001  0.004  0.000  0.001  0.003  0.010
    4  0.000  0.000  0.000  0.000  0.085  0.000  0.000  0.000  0.255  0.341
    5  0.000  0.000  0.000  0.000  0.000  0.000  0.000  0.000  0.000  0.000
tot    0.000  0.001  0.000  0.000  0.234  0.027  0.000  0.009  0.699  0.969
 
band    14 # energy   -5.30126029 # occ.  2.00000000
 
ion      s     py     pz     px    dxy    dyz    dz2    dxz  x2-y2    tot
    1  0.004  0.000  0.002  0.000  0.052  0.001  0.342  0.002  0.017  0.421
    2  0.001  0.000  0.016  0.000  0.009  0.014  0.083  0.041  0.003  0.168
    3  0.000  0.000  0.013  0.000  0.132  0.013  0.023  0.041  0.044  0.267
    4  0.001  0.000  0.012  0.000  0.001  0.003  0.027  0.009  0.000  0.053
    5  0.004  0.000  0.000  0.000  0.000  0.000  0.000  0.000  0.000  0.004
tot    0.010  0.000  0.043  0.000  0.195  0.031  0.476  0.093  0.065  0.912
 
band    15 # energy   -5.22261338 # occ.  2.00000000
 
ion      s     py     pz     px    dxy    dyz    dz2    dxz  x2-y2    tot
    1  0.003  0.000  0.000  0.001  0.470  0.001  0.067  0.003  0.158  0.702
    2  0.000  0.000  0.011  0.000  0.007  0.001  0.017  0.002  0.002  0.042
    3  0.001  0.000  0.009  0.000  0.007  0.019  0.025  0.057  0.002  0.121
    4  0.000  0.000  0.003  0.000  0.038  0.005  0.004  0.014  0.013  0.076
    5  0.001  0.000  0.000  0.000  0.000  0.000  0.000  0.000  0.000  0.001
tot    0.005  0.000  0.023  0.001  0.523  0.025  0.113  0.076  0.175  0.941
 
band    16 # energy   -5.12648320 # occ.  2.00000000
 
ion      s     py     pz     px    dxy    dyz    dz2    dxz  x2-y2    tot
    1  0.000  0.001  0.000  0.000  0.185  0.010  0.000  0.003  0.553  0.752
    2  0.000  0.000  0.000  0.000  0.000  0.082  0.000  0.028  0.000  0.110
    3  0.000  0.000  0.000  0.000  0.015  0.005  0.000  0.002  0.043  0.065
    4  0.000  0.000  0.000  0.000  0.003  0.024  0.000  0.008  0.008  0.043
    5  0.000  0.000  0.000  0.000  0.000  0.000  0.000  0.000  0.000  0.000
tot    0.000  0.001  0.000  0.000  0.203  0.121  0.000  0.040  0.605  0.970
 
band    17 # energy   -4.90775319 # occ.  2.00000000
 
ion      s     py     pz     px    dxy    dyz    dz2    dxz  x2-y2    tot
    1  0.000  0.000  0.000  0.000  0.012  0.010  0.000  0.003  0.035  0.060
    2  0.000  0.000  0.000  0.000  0.008  0.019  0.000  0.007  0.026  0.060
    3  0.000  0.000  0.000  0.000  0.031  0.101  0.000  0.033  0.094  0.258
    4  0.000  0.000  0.000  0.000  0.010  0.424  0.000  0.138  0.031  0.604
    5  0.000  0.000  0.000  0.000  0.000  0.000  0.000  0.000  0.000  0.000
tot    0.000  0.000  0.000  0.000  0.061  0.554  0.000  0.181  0.185  0.982
 
band    18 # energy   -4.90434934 # occ.  2.00000000
 
ion      s     py     pz     px    dxy    dyz    dz2    dxz  x2-y2    tot
    1  0.000  0.000  0.000  0.000  0.027  0.007  0.002  0.023  0.009  0.069
    2  0.000  0.000  0.001  0.000  0.036  0.012  0.006  0.036  0.012  0.102
    3  0.002  0.000  0.000  0.000  0.069  0.060  0.024  0.182  0.022  0.360
    4  0.000  0.000  0.003  0.000  0.021  0.098  0.003  0.305  0.007  0.437
    5  0.003  0.000  0.000  0.000  0.000  0.000  0.000  0.000  0.000  0.003
tot    0.005  0.000  0.004  0.000  0.153  0.178  0.035  0.546  0.050  0.972
 
band    19 # energy   -4.69035851 # occ.  2.00000000
 
ion      s     py     pz     px    dxy    dyz    dz2    dxz  x2-y2    tot
    1  0.000  0.000  0.000  0.000  0.031  0.059  0.000  0.019  0.095  0.204
    2  0.000  0.000  0.000  0.000  0.017  0.265  0.000  0.088  0.052  0.423
    3  0.000  0.000  0.000  0.000  0.015  0.106  0.000  0.035  0.046  0.203
    4  0.000  0.000  0.000  0.000  0.003  0.107  0.000  0.036  0.009  0.154
    5  0.000  0.000  0.000  0.000  0.000  0.000  0.000  0.000  0.000  0.000
tot    0.000  0.000  0.000  0.000  0.067  0.537  0.000  0.178  0.201  0.984
 
band    20 # energy   -4.67101824 # occ.  2.00000000
 
ion      s     py     pz     px    dxy    dyz    dz2    dxz  x2-y2    tot
    1  0.000  0.000  0.004  0.000  0.031  0.099  0.003  0.296  0.010  0.443
    2  0.000  0.000  0.005  0.000  0.049  0.051  0.000  0.153  0.016  0.274
    3  0.002  0.000  0.002  0.000  0.010  0.018  0.024  0.053  0.003  0.112
    4  0.000  0.000  0.002  0.000  0.004  0.030  0.004  0.088  0.001  0.129
    5  0.002  0.000  0.000  0.000  0.000  0.000  0.000  0.000  0.000  0.002
tot    0.005  0.000  0.012  0.000  0.094  0.197  0.031  0.591  0.031  0.961
 
band    21 # energy   -4.49863880 # occ.  2.00000000
 
ion      s     py     pz     px    dxy    dyz    dz2    dxz  x2-y2    tot
    1  0.011  0.000  0.014  0.000  0.014  0.080  0.080  0.241  0.005  0.445
    2  0.001  0.000  0.001  0.000  0.011  0.082  0.003  0.247  0.004  0.348
    3  0.001  0.000  0.004  0.000  0.005  0.003  0.010  0.009  0.002  0.033
    4  0.000  0.000  0.005  0.000  0.001  0.015  0.008  0.046  0.000  0.075
    5  0.003  0.000  0.000  0.000  0.000  0.000  0.000  0.000  0.000  0.003
tot    0.016  0.000  0.023  0.001  0.030  0.181  0.101  0.542  0.010  0.904
 
band    22 # energy   -4.46917161 # occ.  2.00000000
 
ion      s     py     pz     px    dxy    dyz    dz2    dxz  x2-y2    tot
    1  0.000  0.000  0.000  0.000  0.003  0.248  0.000  0.083  0.008  0.342
    2  0.000  0.000  0.000  0.000  0.005  0.054  0.000  0.018  0.015  0.093
    3  0.000  0.000  0.000  0.000  0.002  0.319  0.000  0.106  0.005  0.431
    4  0.000  0.000  0.000  0.000  0.004  0.080  0.000  0.027  0.011  0.122
    5  0.000  0.000  0.000  0.000  0.000  0.000  0.000  0.000  0.000  0.000
tot    0.000  0.000  0.000  0.000  0.013  0.701  0.000  0.234  0.039  0.987
 
band    23 # energy   -4.18551574 # occ.  2.00000000
 
ion      s     py     pz     px    dxy    dyz    dz2    dxz  x2-y2    tot
    1  0.000  0.000  0.000  0.000  0.003  0.378  0.000  0.126  0.008  0.514
    2  0.000  0.000  0.000  0.000  0.006  0.237  0.000  0.079  0.018  0.340
    3  0.000  0.000  0.000  0.000  0.002  0.084  0.000  0.028  0.007  0.121