<?xml version="1.0" encoding="ISO-8859-1"?>
<modeling>
 <generator>
  <i name="program" type="string">vasp </i>
  <i name="version" type="string">5.4.4.18Apr17-6-g9f103f2a35  </i>
  <i name="subversion" type="string">(build Jun 30 2017 11:15:00) complex            parallel </i>
  <i name="platform" type="string">STALLO_VASP_5.4.4 </i>
  <i name="date" type="string">2019 10 11 </i>
  <i name="time" type="string">09:55:43 </i>
 </generator>
 <incar>
  <i type="string" name="PREC">normal    ! low/normal/accurate</i>
  <i type="string" name="ALGO"> Fast      ! Algorithm for electronic re</i>
  <i type="int" name="ISPIN">     1</i>
  <i type="int" name="NELMIN">     4</i>
  <i name="EDIFF">      0.00000100</i>
  <i type="int" name="NSW">     0</i>
  <i name="ENCUT">    250.00000000</i>
  <i type="int" name="NEDOS">  2401</i>
  <i type="string" name="LREAL"> Auto      ! Projection in reciprocal sp</i>
  <i name="EMIN">    -17.00000000</i>
  <i name="EMAX">      7.00000000</i>
  <i type="int" name="ISMEAR">     0</i>
  <i name="SIGMA">      0.10000000</i>
  <i type="logical" name="LWAVE"> F  </i>
  <i type="int" name="LORBIT">    11</i>
  <i type="logical" name="LELF"> T  </i>
  <v type="int" name="KPOINT_BSE">    -1     0     0     0</v>
 </incar>
 <structure name="primitive_cell" >
  <crystal>
   <varray name="basis" >
    <v>       2.57386868       0.00000000       0.00000000 </v>
    <v>       1.28693434       2.22903567       0.00000000 </v>
    <v>       0.00000000       0.00000000      30.30466494 </v>
   </varray>
   <i name="volume">    173.86529028 </i>
   <varray name="rec_basis" >
    <v>       0.38852021      -0.22431225       0.00000000 </v>
    <v>       0.00000000       0.44862450       0.00000000 </v>
    <v>       0.00000000       0.00000000       0.03299822 </v>
   </varray>
  </crystal>
  <varray name="positions" >
   <v>       0.00000000       0.00000000       0.39881502 </v>
   <v>       0.33333333       0.33333333       0.46725011 </v>
   <v>      -0.33333333      -0.33333333      -0.46395797 </v>
   <v>       0.00000000       0.00000000      -0.39431582 </v>
   <v>       0.00000000       0.00000000      -0.34437318 </v>
  </varray>
 </structure>
 <varray name="primitive_index" >
  <v type="int" >        1 </v>
  <v type="int" >        2 </v>
  <v type="int" >        3 </v>
  <v type="int" >        4 </v>
  <v type="int" >        5 </v>
 </varray>
 <kpoints>
  <generation param="Gamma">
   <v type="int" name="divisions">      10       10        1 </v>
   <v name="usershift">      0.00000000       0.00000000       0.00000000 </v>
   <v name="genvec1">      0.10000000       0.00000000       0.00000000 </v>
   <v name="genvec2">      0.00000000       0.10000000       0.00000000 </v>
   <v name="genvec3">      0.00000000       0.00000000       1.00000000 </v>
   <v name="shift">      0.00000000       0.00000000       0.00000000 </v>
  </generation>
  <varray name="kpointlist" >
   <v>       0.00000000       0.00000000       0.00000000 </v>
   <v>       0.10000000       0.00000000       0.00000000 </v>
   <v>       0.20000000      -0.00000000       0.00000000 </v>
   <v>       0.30000000      -0.00000000       0.00000000 </v>
   <v>       0.40000000      -0.00000000       0.00000000 </v>
   <v>       0.50000000      -0.00000000       0.00000000 </v>
   <v>       0.20000000       0.10000000       0.00000000 </v>
   <v>       0.30000000       0.10000000       0.00000000 </v>
   <v>       0.40000000       0.10000000       0.00000000 </v>
   <v>       0.50000000       0.10000000       0.00000000 </v>
   <v>       0.40000000       0.20000000       0.00000000 </v>
   <v>       0.50000000       0.20000000       0.00000000 </v>
   <v>      -0.40000000       0.20000000       0.00000000 </v>
   <v>      -0.40000000       0.30000000       0.00000000 </v>
  </varray>
  <varray name="weights" >
   <v>       0.01000000 </v>
   <v>       0.06000000 </v>
   <v>       0.06000000 </v>
   <v>       0.06000000 </v>
   <v>       0.06000000 </v>
   <v>       0.03000000 </v>
   <v>       0.06000000 </v>
   <v>       0.12000000 </v>
   <v>       0.12000000 </v>
   <v>       0.12000000 </v>
   <v>       0.06000000 </v>
   <v>       0.12000000 </v>
   <v>       0.06000000 </v>
   <v>       0.06000000 </v>
  </varray>
 </kpoints>
 <parameters>
  <separator name="general" >
   <i type="string" name="SYSTEM">unknown system</i>
   <i type="logical" name="LCOMPAT"> F  </i>
  </separator>
  <separator name="electronic" >
   <i type="string" name="PREC">normal</i>
   <i name="ENMAX">    250.00000000</i>
   <i name="ENAUG">    516.45600000</i>
   <i name="EDIFF">      0.00000100</i>
   <i type="int" name="IALGO">    68</i>
   <i type="int" name="IWAVPR">    10</i>
   <i type="int" name="NBANDS">    28</i>
   <i name="NELECT">     45.00000000</i>
   <i type="int" name="TURBO">     0</i>
   <i type="int" name="IRESTART">     0</i>
   <i type="int" name="NREBOOT">     0</i>
   <i type="int" name="NMIN">     0</i>
   <i name="EREF">      0.00000000</i>
   <separator name="electronic smearing" >
    <i type="int" name="ISMEAR">     0</i>
    <i name="SIGMA">      0.10000000</i>
    <i name="KSPACING">      0.50000000</i>
    <i type="logical" name="KGAMMA"> T  </i>
   </separator>
   <separator name="electronic projectors" >
    <i type="logical" name="LREAL"> T  </i>
    <v name="ROPT">     -0.00050000     -0.00050000</v>
    <i type="int" name="LMAXPAW">  -100</i>
    <i type="int" name="LMAXMIX">     2</i>
    <i type="logical" name="NLSPLINE"> F  </i>
   </separator>
   <separator name="electronic startup" >
    <i type="int" name="ISTART">     0</i>
    <i type="int" name="ICHARG">     2</i>
    <i type="int" name="INIWAV">     1</i>
   </separator>
   <separator name="electronic spin" >
    <i type="int" name="ISPIN">     1</i>
    <i type="logical" name="LNONCOLLINEAR"> F  </i>
    <v name="MAGMOM">      1.00000000      1.00000000      1.00000000      1.00000000      1.00000000</v>
    <i name="NUPDOWN">     -1.00000000</i>
    <i type="logical" name="LSORBIT"> F  </i>
    <v name="SAXIS">      0.00000000      0.00000000      1.00000000</v>
    <i type="logical" name="LSPIRAL"> F  </i>
    <v name="QSPIRAL">      0.00000000      0.00000000      0.00000000</v>
    <i type="logical" name="LZEROZ"> F  </i>
   </separator>
   <separator name="electronic exchange-correlation" >
    <i type="logical" name="LASPH"> F  </i>
    <i type="logical" name="LMETAGGA"> F  </i>
   </separator>
   <separator name="electronic convergence" >
    <i type="int" name="NELM">    60</i>
    <i type="int" name="NELMDL">    -5</i>
    <i type="int" name="NELMIN">     4</i>
    <i name="ENINI">    250.00000000</i>
    <separator name="electronic convergence detail" >
     <i type="logical" name="LDIAG"> T  </i>
     <i type="logical" name="LSUBROT"> F  </i>
     <i name="WEIMIN">      0.00000000</i>
     <i name="EBREAK">      0.00000001</i>
     <i name="DEPER">      0.30000000</i>
     <i type="int" name="NRMM">     4</i>
     <i name="TIME">      0.40000000</i>
    </separator>
   </separator>
   <separator name="electronic mixer" >
    <i name="AMIX">      0.40000000</i>
    <i name="BMIX">      1.00000000</i>
    <i name="AMIN">      0.10000000</i>
    <i name="AMIX_MAG">      1.60000000</i>
    <i name="BMIX_MAG">      1.00000000</i>
    <separator name="electronic mixer details" >
     <i type="int" name="IMIX">     4</i>
     <i type="logical" name="MIXFIRST"> F  </i>
     <i type="int" name="MAXMIX">   -45</i>
     <i name="WC">    100.00000000</i>
     <i type="int" name="INIMIX">     1</i>
     <i type="int" name="MIXPRE">     1</i>
     <i type="int" name="MREMOVE">     5</i>
    </separator>
   </separator>
   <separator name="electronic dipolcorrection" >
    <i type="logical" name="LDIPOL"> F  </i>
    <i type="logical" name="LMONO"> F  </i>
    <i type="int" name="IDIPOL">     0</i>
    <i name="EPSILON">      1.00000000</i>
    <v name="DIPOL">   -100.00000000   -100.00000000   -100.00000000</v>
    <i name="EFIELD">      0.00000000</i>
   </separator>
  </separator>
  <separator name="grids" >
   <i type="int" name="NGX">    10</i>
   <i type="int" name="NGY">    10</i>
   <i type="int" name="NGZ">   120</i>
   <i type="int" name="NGXF">    20</i>
   <i type="int" name="NGYF">    20</i>
   <i type="int" name="NGZF">   240</i>
   <i type="logical" name="ADDGRID"> F  </i>
  </separator>
  <separator name="ionic" >
   <i type="int" name="NSW">     0</i>
   <i type="int" name="IBRION">    -1</i>
   <i type="int" name="MDALGO">     0</i>
   <i type="int" name="ISIF">     2</i>
   <i name="PSTRESS">      0.00000000</i>
   <i name="EDIFFG">      0.00001000</i>
   <i type="int" name="NFREE">     0</i>
   <i name="POTIM">      0.50000000</i>
   <i name="SMASS">     -3.00000000</i>
   <i name="SCALEE">      1.00000000</i>
  </separator>
  <separator name="ionic md" >
   <i name="TEBEG">      0.00010000</i>
   <i name="TEEND">      0.00010000</i>
   <i type="int" name="NBLOCK">     1</i>
   <i type="int" name="KBLOCK">     1</i>
   <i type="int" name="NPACO">   256</i>
   <i name="APACO">     16.00000000</i>
  </separator>
  <separator name="symmetry" >
   <i type="int" name="ISYM">     2</i>
   <i name="SYMPREC">      0.00001000</i>
  </separator>
  <separator name="dos" >
   <i type="int" name="LORBIT">    11</i>
   <v name="RWIGS">     -1.00000000     -1.00000000</v>
   <i type="int" name="NEDOS">  2401</i>
   <i name="EMIN">    -17.00000000</i>
   <i name="EMAX">      7.00000000</i>
   <i name="EFERMI">      0.00000000</i>
  </separator>
  <separator name="writing" >
   <i type="int" name="NWRITE">     2</i>
   <i type="logical" name="LWAVE"> F  </i>
   <i type="logical" name="LDOWNSAMPLE"> F  </i>
   <i type="logical" name="LCHARG"> T  </i>
   <i type="logical" name="LPARD"> F  </i>
   <i type="logical" name="LVTOT"> F  </i>
   <i type="logical" name="LVHAR"> F  </i>
   <i type="logical" name="LELF"> T  </i>
   <i type="logical" name="LOPTICS"> F  </i>
   <v name="STM">      0.00000000      0.00000000      0.00000000      0.00000000      0.00000000      0.00000000      0.00000000</v>
  </separator>
  <separator name="performance" >
   <i type="int" name="NPAR">     2</i>
   <i type="int" name="NSIM">     4</i>
   <i type="int" name="NBLK">    -1</i>
   <i type="logical" name="LPLANE"> T  </i>
   <i type="logical" name="LSCALAPACK"> T  </i>
   <i type="logical" name="LSCAAWARE"> F  </i>
   <i type="logical" name="LSCALU"> F  </i>
   <i type="logical" name="LASYNC"> F  </i>
   <i type="logical" name="LORBITALREAL"> F  </i>
  </separator>
  <separator name="miscellaneous" >
   <i type="int" name="IDIOT">     3</i>
   <i type="int" name="ISPECIAL">     0</i>
   <i type="logical" name="LMUSIC"> F  </i>
   <v name="POMASS">     63.54600000      1.00000000</v>
   <v name="DARWINR">      0.00000000      0.00000000</v>
   <v name="DARWINV">      1.00000000      1.00000000</v>
   <i type="logical" name="LCORR"> T  </i>
  </separator>
  <i type="logical" name="GGA_COMPAT"> T  </i>
  <i type="logical" name="LBERRY"> F  </i>
  <i type="int" name="ICORELEVEL">     0</i>
  <i type="logical" name="LDAU"> F  </i>
  <i type="int" name="I_CONSTRAINED_M">     0</i>
  <separator name="electronic exchange-correlation" >
   <i type="string" name="GGA">--</i>
   <i type="int" name="VOSKOWN">     0</i>
   <i type="logical" name="LHFCALC"> F  </i>
   <i type="string" name="PRECFOCK"></i>
   <i type="logical" name="LSYMGRAD"> F  </i>
   <i type="logical" name="LHFONE"> F  </i>
   <i type="logical" name="LRHFCALC"> F  </i>
   <i type="logical" name="LTHOMAS"> F  </i>
   <i type="logical" name="LMODELHF"> F  </i>
   <i name="ENCUT4O">     -1.00000000</i>
   <i type="int" name="EXXOEP">     0</i>
   <i type="int" name="FOURORBIT">     0</i>
   <i name="AEXX">      0.00000000</i>
   <i name="HFALPHA">      0.00000000</i>
   <i name="MCALPHA">      0.00000000</i>
   <i name="ALDAX">      1.00000000</i>
   <i name="AGGAX">      1.00000000</i>
   <i name="ALDAC">      1.00000000</i>
   <i name="AGGAC">      1.00000000</i>
   <i type="int" name="NKREDX">     1</i>
   <i type="int" name="NKREDY">     1</i>
   <i type="int" name="NKREDZ">     1</i>
   <i type="logical" name="SHIFTRED"> F  </i>
   <i type="logical" name="ODDONLY"> F  </i>
   <i type="logical" name="EVENONLY"> F  </i>
   <i type="int" name="LMAXFOCK">     0</i>
   <i type="int" name="NMAXFOCKAE">     0</i>
   <i type="logical" name="LFOCKAEDFT"> F  </i>
   <i name="HFSCREEN">      0.00000000</i>
   <i name="HFSCREENC">      0.00000000</i>
   <i type="int" name="NBANDSGWLOW">     0</i>
  </separator>
  <separator name="vdW DFT" >
   <i type="logical" name="LUSE_VDW"> F  </i>
   <i name="Zab_VDW">     -0.84910000</i>
   <i name="PARAM1">      0.12340000</i>
   <i name="PARAM2">      1.00000000</i>
   <i name="PARAM3">      0.00000000</i>
  </separator>
  <separator name="model GW" >
   <i type="int" name="MODEL_GW">     0</i>
   <i name="MODEL_EPS0">     20.86383483</i>
   <i name="MODEL_ALPHA">      1.00000000</i>
  </separator>
  <separator name="linear response parameters" >
   <i type="logical" name="LEPSILON"> F  </i>
   <i type="logical" name="LRPA"> F  </i>
   <i type="logical" name="LNABLA"> F  </i>
   <i type="logical" name="LVEL"> F  </i>
   <i type="int" name="KINTER">     0</i>
   <i name="CSHIFT">      0.10000000</i>
   <i name="OMEGAMAX">     -1.00000000</i>
   <i name="DEG_THRESHOLD">      0.00200000</i>
   <i name="RTIME">     -0.10000000</i>
   <i name="WPLASMAI">      0.00000000</i>
   <v name="DFIELD">      0.00000000      0.00000000      0.00000000</v>
   <v name="WPLASMA">      0.00000000      0.00000000      0.00000000      0.00000000      0.00000000      0.00000000      0.00000000      0.00000000      0.00000000</v>
  </separator>
  <separator name="orbital magnetization" >
   <i type="logical" name="NUCIND"> F  </i>
   <v name="MAGPOS">      0.00000000      0.00000000      0.00000000</v>
   <i type="logical" name="LNICSALL"> T  </i>
   <i type="logical" name="ORBITALMAG"> F  </i>
   <i type="logical" name="LMAGBLOCH"> F  </i>
   <i type="logical" name="LCHIMAG"> F  </i>
   <i type="logical" name="LGAUGE"> T  </i>
   <i type="int" name="MAGATOM">     0</i>
   <v name="MAGDIPOL">      0.00000000      0.00000000      0.00000000</v>
   <v name="AVECCONST">      0.00000000      0.00000000      0.00000000</v>
  </separator>
  <separator name="response functions" >
   <i type="logical" name="LADDER"> F  </i>
   <i type="logical" name="LRPAFORCE"> F  </i>
   <i type="logical" name="LFXC"> F  </i>
   <i type="logical" name="LHARTREE"> T  </i>
   <i type="int" name="IBSE">     0</i>
   <v type="int" name="KPOINT">    -1     0     0     0</v>
   <i type="logical" name="LTCTE"> F  </i>
   <i type="logical" name="LTETE"> F  </i>
   <i type="logical" name="LTRIPLET"> F  </i>
   <i type="logical" name="LFXCEPS"> F  </i>
   <i type="logical" name="LFXHEG"> F  </i>
   <i type="int" name="NATURALO">     2</i>
   <i type="logical" name="L2ORDER"> F  </i>
   <i type="logical" name="LMP2LT"> F  </i>
   <i type="logical" name="LUSEW"> F  </i>
   <i name="ENCUTGW">     -2.00000000</i>
   <i name="ENCUTGWSOFT">     -2.00000000</i>
   <i name="ENCUTLF">     -1.00000000</i>
   <i type="int" name="LMAXMP2">    -1</i>
   <i name="SCISSOR">      0.00000000</i>
   <i type="int" name="NOMEGA">     0</i>
   <i type="int" name="NOMEGAR">     0</i>
   <i type="int" name="NBANDSGW">    -1</i>
   <i type="int" name="NBANDSO">    -1</i>
   <i type="int" name="NBANDSV">    -1</i>
   <i type="int" name="NELM">     1</i>
   <i type="int" name="NELMHF">     1</i>
   <i type="int" name="DIM">     3</i>
   <i type="int" name="ANTIRES">     0</i>
   <i name="OMEGAMAX">    -30.00000000</i>
   <i name="OMEGAMIN">    -30.00000000</i>
   <i name="OMEGATL">   -200.00000000</i>
   <i type="int" name="OMEGAGRID">   140</i>
   <i name="CSHIFT">     -0.10000000</i>
   <i type="logical" name="SELFENERGY"> F  </i>
   <i type="logical" name="LSPECTRAL"> F  </i>
   <i type="logical" name="LSPECTRALGW"> F  </i>
   <i type="logical" name="LSINGLES"> F  </i>
   <i type="logical" name="LFERMIGW"> F  </i>
   <i type="logical" name="ODDONLYGW"> F  </i>
   <i type="logical" name="EVENONLYGW"> F  </i>
   <i type="int" name="NKREDLFX">     1</i>
   <i type="int" name="NKREDLFY">     1</i>
   <i type="int" name="NKREDLFZ">     1</i>
   <i type="int" name="MAXMEM">  2800</i>
   <i type="int" name="TELESCOPE">     0</i>
   <i type="int" name="TAUPAR">     1</i>
   <i type="int" name="OMEGAPAR">    -1</i>
   <i name="LAMBDA">      1.00000000</i>
  </separator>
  <separator name="External order field" >
   <i name="OFIELD_KAPPA">      0.00000000</i>
   <v name="OFIELD_K">      0.00000000      0.00000000      0.00000000</v>
   <i name="OFIELD_Q6_NEAR">      0.00000000</i>
   <i name="OFIELD_Q6_FAR">      0.00000000</i>
   <i name="OFIELD_A">      0.00000000</i>
  </separator>
 </parameters>
 <atominfo>
  <atoms>       5 </atoms>
  <types>       2 </types>
  <array name="atoms" >
   <dimension dim="1">ion</dimension>
   <field type="string">element</field>
   <field type="int">atomtype</field>
   <set>
    <rc><c>Cu</c><c>   1</c></rc>
    <rc><c>Cu</c><c>   1</c></rc>
    <rc><c>Cu</c><c>   1</c></rc>
    <rc><c>Cu</c><c>   1</c></rc>
    <rc><c>H </c><c>   2</c></rc>
   </set>
  </array>
  <array name="atomtypes" >
   <dimension dim="1">type</dimension>
   <field type="int">atomspertype</field>
   <field type="string">element</field>
   <field>mass</field>
   <field>valence</field>
   <field type="string">pseudopotential</field>
   <set>
    <rc><c>   4</c><c>Cu</c><c>     63.54600000</c><c>     11.00000000</c><c> PAW_PBE Cu 05Jan2001                   </c></rc>
    <rc><c>   1</c><c>H </c><c>      1.00000000</c><c>      1.00000000</c><c> PAW_PBE H 15Jun2001                    </c></rc>
   </set>
  </array>
 </atominfo>
 <structure name="initialpos" >
  <crystal>
   <varray name="basis" >
    <v>       2.57386868       0.00000000       0.00000000 </v>
    <v>       1.28693434       2.22903567       0.00000000 </v>
    <v>       0.00000000       0.00000000      30.30466494 </v>
   </varray>
   <i name="volume">    173.86529028 </i>
   <varray name="rec_basis" >
    <v>       0.38852021      -0.22431225       0.00000000 </v>
    <v>       0.00000000       0.44862450       0.00000000 </v>
    <v>       0.00000000       0.00000000       0.03299822 </v>
   </varray>
  </crystal>
  <varray name="positions" >
   <v>       0.00000000       0.00000000       0.39881502 </v>
   <v>       0.33333333       0.33333333       0.46725011 </v>
   <v>       0.66666667       0.66666667       0.53604203 </v>
   <v>       0.00000000       0.00000000       0.60568418 </v>
   <v>       0.00000000       0.00000000       0.65562682 </v>
  </varray>
 </structure>
 <calculation>
  <scstep>
   <time name="dav">    0.28    0.28</time>
   <time name="total">    0.30    0.33</time>
   <energy>
    <i name="alphaZ">    120.87645803 </i>
    <i name="ewald">  37940.08031608 </i>
    <i name="hartreedc"> -43062.92224016 </i>
    <i name="XCdc">    177.16006088 </i>
    <i name="pawpsdc">   4328.99049516 </i>
    <i name="pawaedc">  -4905.09836044 </i>
    <i name="eentropy">     -0.01320513 </i>
    <i name="bandstr">     23.27972571 </i>
    <i name="atom">   5575.94961827 </i>
    <i name="e_fr_energy">    198.30286840 </i>
    <i name="e_wo_entrp">    198.31607353 </i>
    <i name="e_0_energy">    198.30947097 </i>
   </energy>
  </scstep>
  <scstep>
   <time name="dav">    0.28    0.28</time>
   <time name="total">    0.28    0.29</time>
   <energy>
    <i name="e_fr_energy">    -10.01367013 </i>
    <i name="e_wo_entrp">     -9.99316042 </i>
    <i name="e_0_energy">    -10.00341528 </i>
   </energy>
  </scstep>
  <scstep>
   <time name="dav">    0.29    0.29</time>
   <time name="total">    0.29    0.29</time>
   <energy>
    <i name="e_fr_energy">    -20.50030993 </i>
    <i name="e_wo_entrp">    -20.48005448 </i>
    <i name="e_0_energy">    -20.49018221 </i>
   </energy>
  </scstep>
  <scstep>
   <time name="dav">    0.29    0.29</time>
   <time name="total">    0.29    0.29</time>
   <energy>
    <i name="e_fr_energy">    -20.66869901 </i>
    <i name="e_wo_entrp">    -20.64895797 </i>
    <i name="e_0_energy">    -20.65882849 </i>
   </energy>
  </scstep>
  <scstep>
   <time name="dav">    0.31    0.31</time>
   <time name="total">    0.33    0.33</time>
   <energy>
    <i name="e_fr_energy">    -20.66996689 </i>
    <i name="e_wo_entrp">    -20.65023100 </i>
    <i name="e_0_energy">    -20.66009894 </i>
   </energy>
  </scstep>
  <scstep>
   <time name="diag">    0.05    0.05</time>
   <time name="diis">    0.17    0.17</time>
   <time name="orth">    0.01    0.01</time>
   <time name="total">    0.27    0.27</time>
   <energy>
    <i name="e_fr_energy">    -19.45638132 </i>
    <i name="e_wo_entrp">    -19.44758271 </i>
    <i name="e_0_energy">    -19.45198202 </i>
   </energy>
  </scstep>
  <scstep>
   <time name="diag">    0.05    0.05</time>
   <time name="diis">    0.17    0.17</time>
   <time name="orth">    0.01    0.01</time>
   <time name="total">    0.26    0.26</time>
   <energy>
    <i name="e_fr_energy">    -16.95711483 </i>
    <i name="e_wo_entrp">    -16.94683184 </i>
    <i name="e_0_energy">    -16.95197333 </i>
   </energy>
  </scstep>
  <scstep>
   <time name="diag">    0.05    0.05</time>
   <time name="diis">    0.17    0.17</time>
   <time name="orth">    0.01    0.01</time>
   <time name="total">    0.27    0.27</time>
   <energy>
    <i name="e_fr_energy">    -16.41944582 </i>
    <i name="e_wo_entrp">    -16.40861728 </i>
    <i name="e_0_energy">    -16.41403155 </i>
   </energy>
  </scstep>
  <scstep>
   <time name="diag">    0.05    0.05</time>
   <time name="diis">    0.17    0.17</time>
   <time name="orth">    0.01    0.01</time>
   <time name="total">    0.27    0.27</time>
   <energy>
    <i name="e_fr_energy">    -16.36508317 </i>
    <i name="e_wo_entrp">    -16.35002762 </i>
    <i name="e_0_energy">    -16.35755540 </i>
   </energy>
  </scstep>
  <scstep>
   <time name="diag">    0.05    0.05</time>
   <time name="diis">    0.17    0.17</time>
   <time name="orth">    0.01    0.01</time>
   <time name="total">    0.26    0.26</time>
   <energy>
    <i name="e_fr_energy">    -16.34541323 </i>
    <i name="e_wo_entrp">    -16.32892969 </i>
    <i name="e_0_energy">    -16.33717146 </i>
   </energy>
  </scstep>
  <scstep>
   <time name="diag">    0.05    0.05</time>
   <time name="diis">    0.17    0.17</time>
   <time name="orth">    0.01    0.01</time>
   <time name="total">    0.26    0.27</time>
   <energy>
    <i name="e_fr_energy">    -16.34054866 </i>
    <i name="e_wo_entrp">    -16.32401268 </i>
    <i name="e_0_energy">    -16.33228067 </i>
   </energy>
  </scstep>
  <scstep>
   <time name="diag">    0.05    0.05</time>
   <time name="diis">    0.17    0.17</time>
   <time name="orth">    0.01    0.01</time>
   <time name="total">    0.26    0.26</time>
   <energy>
    <i name="e_fr_energy">    -16.33792519 </i>
    <i name="e_wo_entrp">    -16.32298925 </i>
    <i name="e_0_energy">    -16.33045722 </i>
   </energy>
  </scstep>
  <scstep>
   <time name="diag">    0.05    0.05</time>
   <time name="diis">    0.17    0.17</time>
   <time name="orth">    0.01    0.01</time>
   <time name="total">    0.26    0.26</time>
   <energy>
    <i name="e_fr_energy">    -16.33711812 </i>
    <i name="e_wo_entrp">    -16.32123108 </i>
    <i name="e_0_energy">    -16.32917460 </i>
   </energy>
  </scstep>
  <scstep>
   <time name="diag">    0.05    0.05</time>
   <time name="diis">    0.17    0.17</time>
   <time name="orth">    0.01    0.01</time>
   <time name="total">    0.26    0.26</time>
   <energy>
    <i name="e_fr_energy">    -16.33698393 </i>
    <i name="e_wo_entrp">    -16.32085459 </i>
    <i name="e_0_energy">    -16.32891926 </i>
   </energy>
  </scstep>
  <scstep>
   <time name="diag">    0.05    0.05</time>
   <time name="diis">    0.16    0.16</time>
   <time name="orth">    0.01    0.01</time>
   <time name="total">    0.26    0.26</time>
   <energy>
    <i name="e_fr_energy">    -16.33698791 </i>
    <i name="e_wo_entrp">    -16.32101842 </i>
    <i name="e_0_energy">    -16.32900316 </i>
   </energy>
  </scstep>
  <scstep>
   <time name="diag">    0.05    0.05</time>
   <time name="diis">    0.16    0.16</time>
   <time name="orth">    0.01    0.01</time>
   <time name="total">    0.25    0.25</time>
   <energy>
    <i name="e_fr_energy">    -16.33725961 </i>
    <i name="e_wo_entrp">    -16.32124379 </i>
    <i name="e_0_energy">    -16.32925170 </i>
   </energy>
  </scstep>
  <scstep>
   <time name="diag">    0.05    0.05</time>
   <time name="diis">    0.15    0.15</time>
   <time name="orth">    0.01    0.01</time>
   <time name="total">    0.25    0.25</time>
   <energy>
    <i name="e_fr_energy">    -16.33738923 </i>
    <i name="e_wo_entrp">    -16.32146978 </i>
    <i name="e_0_energy">    -16.32942951 </i>
   </energy>
  </scstep>
  <scstep>
   <time name="diag">    0.05    0.05</time>
   <time name="diis">    0.15    0.15</time>
   <time name="orth">    0.01    0.01</time>
   <time name="total">    0.24    0.25</time>
   <energy>
    <i name="e_fr_energy">    -16.33753407 </i>
    <i name="e_wo_entrp">    -16.32153499 </i>
    <i name="e_0_energy">    -16.32953453 </i>
   </energy>
  </scstep>
  <scstep>
   <time name="diag">    0.05    0.05</time>
   <time name="diis">    0.12    0.12</time>
   <time name="orth">    0.01    0.01</time>
   <time name="total">    0.22    0.22</time>
   <energy>
    <i name="e_fr_energy">    -16.33759262 </i>
    <i name="e_wo_entrp">    -16.32164306 </i>
    <i name="e_0_energy">    -16.32961784 </i>
   </energy>
  </scstep>
  <scstep>
   <time name="diag">    0.05    0.05</time>
   <time name="diis">    0.11    0.11</time>
   <time name="orth">    0.01    0.01</time>
   <time name="total">    0.21    0.21</time>
   <energy>
    <i name="e_fr_energy">    -16.33762362 </i>
    <i name="e_wo_entrp">    -16.32163484 </i>
    <i name="e_0_energy">    -16.32962923 </i>
   </energy>
  </scstep>
  <scstep>
   <time name="diag">    0.05    0.05</time>
   <time name="diis">    0.11    0.11</time>
   <time name="orth">    0.01    0.01</time>
   <time name="total">    0.20    0.20</time>
   <energy>
    <i name="e_fr_energy">    -16.33764317 </i>
    <i name="e_wo_entrp">    -16.32167158 </i>
    <i name="e_0_energy">    -16.32965737 </i>
   </energy>
  </scstep>
  <scstep>
   <time name="diag">    0.05    0.05</time>
   <time name="diis">    0.10    0.10</time>
   <time name="orth">    0.01    0.01</time>
   <time name="total">    0.20    0.20</time>
   <energy>
    <i name="e_fr_energy">    -16.33764874 </i>
    <i name="e_wo_entrp">    -16.32167972 </i>
    <i name="e_0_energy">    -16.32966423 </i>
   </energy>
  </scstep>
  <scstep>
   <time name="diag">    0.05    0.05</time>
   <time name="diis">    0.08    0.08</time>
   <time name="orth">    0.01    0.01</time>
   <time name="total">    0.18    0.18</time>
   <energy>
    <i name="e_fr_energy">    -16.33765150 </i>
    <i name="e_wo_entrp">    -16.32167753 </i>
    <i name="e_0_energy">    -16.32966452 </i>
   </energy>
  </scstep>
  <scstep>
   <time name="diag">    0.05    0.05</time>
   <time name="diis">    0.08    0.08</time>
   <time name="orth">    0.01    0.01</time>
   <time name="total">    0.16    0.16</time>
   <energy>
    <i name="alphaZ">    120.87645803 </i>
    <i name="ewald">  37940.08031608 </i>
    <i name="hartreedc"> -43003.27918400 </i>
    <i name="XCdc">    173.03561970 </i>
    <i name="pawpsdc">   4390.73193539 </i>
    <i name="pawaedc">  -4966.35653401 </i>
    <i name="eentropy">     -0.01597383 </i>
    <i name="bandstr">   -247.35990741 </i>
    <i name="atom">   5575.94961827 </i>
    <i name="e_fr_energy">    -16.33765178 </i>
    <i name="e_wo_entrp">    -16.32167795 </i>
    <i name="e_0_energy">    -16.32966486 </i>
   </energy>
  </scstep>
  <structure>
   <crystal>
    <varray name="basis" >
     <v>       2.57386868       0.00000000       0.00000000 </v>
     <v>       1.28693434       2.22903567       0.00000000 </v>
     <v>       0.00000000       0.00000000      30.30466494 </v>
    </varray>
    <i name="volume">    173.86529028 </i>
    <varray name="rec_basis" >
     <v>       0.38852021      -0.22431225       0.00000000 </v>
     <v>       0.00000000       0.44862450       0.00000000 </v>
     <v>       0.00000000       0.00000000       0.03299822 </v>
    </varray>
   </crystal>
   <varray name="positions" >
    <v>       0.00000000       0.00000000       0.39881502 </v>
    <v>       0.33333333       0.33333333       0.46725011 </v>
    <v>       0.66666667       0.66666667       0.53604203 </v>
    <v>       0.00000000       0.00000000       0.60568418 </v>
    <v>       0.00000000       0.00000000       0.65562682 </v>
   </varray>
  </structure>
  <varray name="forces" >
   <v>      -0.00000000      -0.00000000       0.03946119 </v>
   <v>      -0.00000000      -0.00000000      -0.00180808 </v>
   <v>       0.00000000       0.00000000      -0.02779981 </v>
   <v>       0.00000000       0.00000000      -0.01007543 </v>
   <v>       0.00000000       0.00000000       0.00022213 </v>
  </varray>
  <varray name="stress" >
   <v>     -49.40932082       0.00000000       0.00000000 </v>
   <v>       0.00000000     -49.40932082      -0.00000000 </v>
   <v>       0.00000000       0.00000000     -45.32976867 </v>
  </varray>
  <energy>
   <i name="e_fr_energy">    -16.33765178 </i>
   <i name="e_wo_entrp">    -16.32966486 </i>
   <i name="e_0_energy">     -0.01597383 </i>
  </energy>
  <time name="totalsc">    6.54    6.64</time>
  <eigenvalues>
   <array>
    <dimension dim="1">band</dimension>
    <dimension dim="2">kpoint</dimension>
    <dimension dim="3">spin</dimension>
    <field>eigene</field>
    <field>occ</field>
    <set>
     <set comment="spin 1">
      <set comment="kpoint 1">
       <r>  -11.3142    1.0000 </r>
       <r>  -10.2575    1.0000 </r>
       <r>   -8.7940    1.0000 </r>
       <r>   -7.6867    1.0000 </r>
       <r>   -7.3999    1.0000 </r>
       <r>   -5.6430    1.0000 </r>
       <r>   -5.5143    1.0000 </r>
       <r>   -5.5140    1.0000 </r>
       <r>   -5.4989    1.0000 </r>
       <r>   -5.4757    1.0000 </r>
       <r>   -5.4754    1.0000 </r>
       <r>   -5.4100    1.0000 </r>
       <r>   -5.4096    1.0000 </r>
       <r>   -5.2159    1.0000 </r>
       <r>   -5.2156    1.0000 </r>
       <r>   -5.0033    1.0000 </r>
       <r>   -4.8809    1.0000 </r>
       <r>   -4.8809    1.0000 </r>
       <r>   -4.6850    1.0000 </r>
       <r>   -4.6849    1.0000 </r>
       <r>   -4.4749    1.0000 </r>
       <r>   -4.4749    1.0000 </r>
       <r>   -4.1914    1.0000 </r>
       <r>   -4.1913    1.0000 </r>
       <r>   -3.1158    1.0000 </r>
       <r>    0.9955    0.0000 </r>
       <r>    1.7913    0.0000 </r>
       <r>    2.3099    0.0000 </r>
      </set>
      <set comment="kpoint 2">
       <r>  -11.0023    1.0000 </r>
       <r>   -9.9615    1.0000 </r>
       <r>   -8.5234    1.0000 </r>
       <r>   -7.4714    1.0000 </r>
       <r>   -7.2749    1.0000 </r>
       <r>   -5.7551    1.0000 </r>
       <r>   -5.6376    1.0000 </r>
       <r>   -5.5977    1.0000 </r>
       <r>   -5.4837    1.0000 </r>
       <r>   -5.4450    1.0000 </r>
       <r>   -5.4171    1.0000 </r>
       <r>   -5.3995    1.0000 </r>
       <r>   -5.3046    1.0000 </r>
       <r>   -5.3013    1.0000 </r>
       <r>   -5.2226    1.0000 </r>
       <r>   -5.1265    1.0000 </r>
       <r>   -4.9078    1.0000 </r>
       <r>   -4.9043    1.0000 </r>
       <r>   -4.6904    1.0000 </r>
       <r>   -4.6710    1.0000 </r>
       <r>   -4.4986    1.0000 </r>
       <r>   -4.4692    1.0000 </r>
       <r>   -4.1855    1.0000 </r>
       <r>   -3.9964    1.0000 </r>
       <r>   -2.4574    0.0466 </r>
       <r>    1.2339    0.0000 </r>
       <r>    2.0955    0.0000 </r>
       <r>    2.6234    0.0000 </r>
      </set>
      <set comment="kpoint 3">
       <r>  -10.1055    1.0000 </r>
       <r>   -9.1332    1.0000 </r>
       <r>   -7.8188    1.0000 </r>
       <r>   -7.0284    1.0000 </r>
       <r>   -6.8833    1.0000 </r>
       <r>   -6.0565    1.0000 </r>
       <r>   -5.8738    1.0000 </r>
       <r>   -5.7705    1.0000 </r>
       <r>   -5.6809    1.0000 </r>
       <r>   -5.5141    1.0000 </r>
       <r>   -5.4246    1.0000 </r>
       <r>   -5.3115    1.0000 </r>
       <r>   -5.2396    1.0000 </r>
       <r>   -5.1438    1.0000 </r>
       <r>   -5.0404    1.0000 </r>
       <r>   -5.0363    1.0000 </r>
       <r>   -4.9938    1.0000 </r>
       <r>   -4.8092    1.0000 </r>
       <r>   -4.8066    1.0000 </r>
       <r>   -4.6445    1.0000 </r>
       <r>   -4.4634    1.0000 </r>
       <r>   -4.3504    1.0000 </r>
       <r>   -4.1775    1.0000 </r>
       <r>   -3.2464    1.0000 </r>
       <r>   -1.2307    0.0000 </r>
       <r>    1.9471    0.0000 </r>
       <r>    3.0085    0.0000 </r>
       <r>    3.6388    0.0000 </r>
      </set>
      <set comment="kpoint 4">
       <r>   -8.8004    1.0000 </r>
       <r>   -8.0538    1.0000 </r>
       <r>   -7.1747    1.0000 </r>
       <r>   -6.7751    1.0000 </r>
       <r>   -6.5235    1.0000 </r>
       <r>   -6.3718    1.0000 </r>
       <r>   -6.0590    1.0000 </r>
       <r>   -5.8176    1.0000 </r>
       <r>   -5.6244    1.0000 </r>
       <r>   -5.4473    1.0000 </r>
       <r>   -5.3539    1.0000 </r>
       <r>   -5.3023    1.0000 </r>
       <r>   -5.0897    1.0000 </r>
       <r>   -5.0640    1.0000 </r>
       <r>   -4.9776    1.0000 </r>
       <r>   -4.7716    1.0000 </r>
       <r>   -4.6540    1.0000 </r>
       <r>   -4.5800    1.0000 </r>
       <r>   -4.5366    1.0000 </r>
       <r>   -4.4494    1.0000 </r>
       <r>   -4.3513    1.0000 </r>
       <r>   -4.1634    1.0000 </r>
       <r>   -3.9666    1.0000 </r>
       <r>   -2.2615    0.0000 </r>
       <r>    0.2130    0.0000 </r>
       <r>    3.0723    0.0000 </r>
       <r>    4.5041    0.0000 </r>
       <r>    5.0283    0.0000 </r>
      </set>
      <set comment="kpoint 5">
       <r>   -7.6720    1.0000 </r>
       <r>   -7.3542    1.0000 </r>
       <r>   -7.0463    1.0000 </r>
       <r>   -6.7800    1.0000 </r>
       <r>   -6.6029    1.0000 </r>
       <r>   -6.4887    1.0000 </r>
       <r>   -6.1989    1.0000 </r>
       <r>   -5.8289    1.0000 </r>
       <r>   -5.5186    1.0000 </r>
       <r>   -5.4396    1.0000 </r>
       <r>   -5.2539    1.0000 </r>
       <r>   -5.1035    1.0000 </r>
       <r>   -4.8674    1.0000 </r>
       <r>   -4.6492    1.0000 </r>
       <r>   -4.5157    1.0000 </r>
       <r>   -4.3709    1.0000 </r>
       <r>   -4.3069    1.0000 </r>
       <r>   -4.2476    1.0000 </r>
       <r>   -4.1621    1.0000 </r>
       <r>   -4.1003    1.0000 </r>
       <r>   -4.0458    1.0000 </r>
       <r>   -3.6302    1.0000 </r>
       <r>   -3.0118    1.0000 </r>
       <r>   -1.1335    0.0000 </r>
       <r>    0.9552    0.0000 </r>
       <r>    2.4940    0.0000 </r>
       <r>    3.4194    0.0000 </r>
       <r>    4.9447    0.0000 </r>
      </set>
      <set comment="kpoint 6">
       <r>   -7.3775    1.0000 </r>
       <r>   -7.1866    1.0000 </r>
       <r>   -6.9846    1.0000 </r>
       <r>   -6.8017    1.0000 </r>
       <r>   -6.7267    1.0000 </r>
       <r>   -6.4992    1.0000 </r>
       <r>   -6.1995    1.0000 </r>
       <r>   -5.8500    1.0000 </r>
       <r>   -5.5685    1.0000 </r>
       <r>   -5.4740    1.0000 </r>
       <r>   -5.1234    1.0000 </r>
       <r>   -5.1220    1.0000 </r>
       <r>   -4.6918    1.0000 </r>
       <r>   -4.6402    1.0000 </r>
       <r>   -4.2919    1.0000 </r>
       <r>   -4.2584    1.0000 </r>
       <r>   -4.2351    1.0000 </r>
       <r>   -4.1556    1.0000 </r>
       <r>   -4.0891    1.0000 </r>
       <r>   -3.9322    1.0000 </r>
       <r>   -2.8341    0.9999 </r>
       <r>   -2.1674    0.0000 </r>
       <r>   -1.7761    0.0000 </r>
       <r>   -1.2417    0.0000 </r>
       <r>   -0.9703    0.0000 </r>
       <r>    1.7449    0.0000 </r>
       <r>    2.8575    0.0000 </r>
       <r>    4.4013    0.0000 </r>
      </set>
      <set comment="kpoint 7">
       <r>  -10.3963    1.0000 </r>
       <r>   -9.3962    1.0000 </r>
       <r>   -8.0284    1.0000 </r>
       <r>   -7.1315    1.0000 </r>
       <r>   -7.0111    1.0000 </r>
       <r>   -5.9017    1.0000 </r>
       <r>   -5.8725    1.0000 </r>
       <r>   -5.7270    1.0000 </r>
       <r>   -5.6626    1.0000 </r>
       <r>   -5.5522    1.0000 </r>
       <r>   -5.3909    1.0000 </r>
       <r>   -5.3303    1.0000 </r>
       <r>   -5.2780    1.0000 </r>
       <r>   -5.1987    1.0000 </r>
       <r>   -5.0980    1.0000 </r>
       <r>   -5.0459    1.0000 </r>
       <r>   -4.9109    1.0000 </r>
       <r>   -4.8510    1.0000 </r>
       <r>   -4.8124    1.0000 </r>
       <r>   -4.6473    1.0000 </r>
       <r>   -4.5706    1.0000 </r>
       <r>   -4.3020    1.0000 </r>
       <r>   -4.2334    1.0000 </r>
       <r>   -3.4560    1.0000 </r>
       <r>   -1.5833    0.0000 </r>
       <r>    1.7122    0.0000 </r>
       <r>    2.7046    0.0000 </r>
       <r>    3.2998    0.0000 </r>
      </set>
      <set comment="kpoint 8">
       <r>   -9.2764    1.0000 </r>
       <r>   -8.4109    1.0000 </r>
       <r>   -7.3064    1.0000 </r>
       <r>   -6.7849    1.0000 </r>
       <r>   -6.5287    1.0000 </r>
       <r>   -6.1958    1.0000 </r>
       <r>   -5.9895    1.0000 </r>
       <r>   -5.9018    1.0000 </r>
       <r>   -5.7918    1.0000 </r>
       <r>   -5.6139    1.0000 </r>
       <r>   -5.5006    1.0000 </r>
       <r>   -5.3766    1.0000 </r>
       <r>   -5.2886    1.0000 </r>
       <r>   -5.1415    1.0000 </r>
       <r>   -4.9558    1.0000 </r>
       <r>   -4.8806    1.0000 </r>
       <r>   -4.7568    1.0000 </r>
       <r>   -4.6912    1.0000 </r>
       <r>   -4.5778    1.0000 </r>
       <r>   -4.5018    1.0000 </r>
       <r>   -4.3564    1.0000 </r>
       <r>   -4.2480    1.0000 </r>
       <r>   -4.0296    1.0000 </r>
       <r>   -2.6101    0.6848 </r>
       <r>   -0.2918    0.0000 </r>
       <r>    2.6685    0.0000 </r>
       <r>    3.9198    0.0000 </r>
       <r>    4.5143    0.0000 </r>
      </set>
      <set comment="kpoint 9">
       <r>   -7.9803    1.0000 </r>
       <r>   -7.4899    1.0000 </r>
       <r>   -6.9719    1.0000 </r>
       <r>   -6.6884    1.0000 </r>
       <r>   -6.4394    1.0000 </r>
       <r>   -6.3897    1.0000 </r>
       <r>   -6.0977    1.0000 </r>
       <r>   -5.8785    1.0000 </r>
       <r>   -5.5806    1.0000 </r>
       <r>   -5.5020    1.0000 </r>
       <r>   -5.3737    1.0000 </r>
       <r>   -5.2961    1.0000 </r>
       <r>   -5.1605    1.0000 </r>
       <r>   -4.9874    1.0000 </r>
       <r>   -4.9048    1.0000 </r>
       <r>   -4.6942    1.0000 </r>
       <r>   -4.5641    1.0000 </r>
       <r>   -4.3879    1.0000 </r>
       <r>   -4.3000    1.0000 </r>
       <r>   -4.1735    1.0000 </r>
       <r>   -4.0023    1.0000 </r>
       <r>   -3.8450    1.0000 </r>
       <r>   -3.2595    1.0000 </r>
       <r>   -1.4268    0.0000 </r>
       <r>    1.1176    0.0000 </r>
       <r>    3.5461    0.0000 </r>
       <r>    4.4260    0.0000 </r>
       <r>    5.4669    0.0000 </r>
      </set>
      <set comment="kpoint 10">
       <r>   -7.3070    1.0000 </r>
       <r>   -7.1055    1.0000 </r>
       <r>   -6.9175    1.0000 </r>
       <r>   -6.7199    1.0000 </r>
       <r>   -6.5826    1.0000 </r>
       <r>   -6.4384    1.0000 </r>
       <r>   -6.1582    1.0000 </r>
       <r>   -5.8691    1.0000 </r>
       <r>   -5.5871    1.0000 </r>
       <r>   -5.4642    1.0000 </r>
       <r>   -5.3439    1.0000 </r>
       <r>   -5.0429    1.0000 </r>
       <r>   -4.9187    1.0000 </r>
       <r>   -4.7652    1.0000 </r>
       <r>   -4.5842    1.0000 </r>
       <r>   -4.4721    1.0000 </r>
       <r>   -4.3200    1.0000 </r>
       <r>   -4.2551    1.0000 </r>
       <r>   -4.2068    1.0000 </r>
       <r>   -4.0803    1.0000 </r>
       <r>   -2.8111    0.9996 </r>
       <r>   -2.5076    0.1663 </r>
       <r>   -1.8981    0.0000 </r>
       <r>   -0.5843    0.0000 </r>
       <r>    0.2406    0.0000 </r>
       <r>    2.0448    0.0000 </r>
       <r>    3.2164    0.0000 </r>
       <r>    4.6687    0.0000 </r>
      </set>
      <set comment="kpoint 11">
       <r>   -8.1026    1.0000 </r>
       <r>   -7.5216    1.0000 </r>
       <r>   -6.8761    1.0000 </r>
       <r>   -6.6055    1.0000 </r>
       <r>   -6.2697    1.0000 </r>
       <r>   -6.1471    1.0000 </r>
       <r>   -6.0425    1.0000 </r>
       <r>   -5.9263    1.0000 </r>
       <r>   -5.8346    1.0000 </r>
       <r>   -5.6851    1.0000 </r>
       <r>   -5.5545    1.0000 </r>
       <r>   -5.4824    1.0000 </r>
       <r>   -5.4036    1.0000 </r>
       <r>   -5.1571    1.0000 </r>
       <r>   -4.9624    1.0000 </r>
       <r>   -4.7889    1.0000 </r>
       <r>   -4.6660    1.0000 </r>
       <r>   -4.4898    1.0000 </r>
       <r>   -4.2856    1.0000 </r>
       <r>   -4.1779    1.0000 </r>
       <r>   -3.9612    1.0000 </r>
       <r>   -3.8079    1.0000 </r>
       <r>   -3.2437    1.0000 </r>
       <r>   -1.5071    0.0000 </r>
       <r>    1.0369    0.0000 </r>
       <r>    3.8283    0.0000 </r>
       <r>    5.4010    0.0000 </r>
       <r>    5.8230    0.0000 </r>
      </set>
      <set comment="kpoint 12">
       <r>   -7.1646    1.0000 </r>
       <r>   -6.9612    1.0000 </r>
       <r>   -6.7444    1.0000 </r>
       <r>   -6.5727    1.0000 </r>
       <r>   -6.3582    1.0000 </r>
       <r>   -6.2235    1.0000 </r>
       <r>   -6.0559    1.0000 </r>
       <r>   -5.8848    1.0000 </r>
       <r>   -5.7388    1.0000 </r>
       <r>   -5.5747    1.0000 </r>
       <r>   -5.4501    1.0000 </r>
       <r>   -5.3519    1.0000 </r>
       <r>   -5.2301    1.0000 </r>
       <r>   -5.1065    1.0000 </r>
       <r>   -4.9447    1.0000 </r>
       <r>   -4.7689    1.0000 </r>
       <r>   -4.5761    1.0000 </r>
       <r>   -4.4191    1.0000 </r>
       <r>   -4.2140    1.0000 </r>
       <r>   -4.0865    1.0000 </r>
       <r>   -2.8796    1.0000 </r>
       <r>   -2.6338    0.7928 </r>
       <r>   -1.7864    0.0000 </r>
       <r>   -0.0316    0.0000 </r>
       <r>    2.0567    0.0000 </r>
       <r>    3.1127    0.0000 </r>
       <r>    4.1559    0.0000 </r>
       <r>    5.4237    0.0000 </r>
      </set>
      <set comment="kpoint 13">
       <r>   -6.9679    1.0000 </r>
       <r>   -6.8329    1.0000 </r>
       <r>   -6.6703    1.0000 </r>
       <r>   -6.4983    1.0000 </r>
       <r>   -6.4272    1.0000 </r>
       <r>   -6.2755    1.0000 </r>
       <r>   -6.0857    1.0000 </r>
       <r>   -5.9028    1.0000 </r>
       <r>   -5.7097    1.0000 </r>
       <r>   -5.6121    1.0000 </r>
       <r>   -5.3641    1.0000 </r>
       <r>   -5.2176    1.0000 </r>
       <r>   -5.1384    1.0000 </r>
       <r>   -4.9891    1.0000 </r>
       <r>   -4.8991    1.0000 </r>
       <r>   -4.7112    1.0000 </r>
       <r>   -4.4770    1.0000 </r>
       <r>   -4.2959    1.0000 </r>
       <r>   -4.2610    1.0000 </r>
       <r>   -4.1548    1.0000 </r>
       <r>   -1.9113    0.0000 </r>
       <r>   -0.9702    0.0000 </r>
       <r>   -0.5246    0.0000 </r>
       <r>    0.0147    0.0000 </r>
       <r>    0.5906    0.0000 </r>
       <r>    2.2739    0.0000 </r>
       <r>    3.5044    0.0000 </r>
       <r>    4.9634    0.0000 </r>
      </set>
      <set comment="kpoint 14">
       <r>   -6.8053    1.0000 </r>
       <r>   -6.5939    1.0000 </r>
       <r>   -6.5171    1.0000 </r>
       <r>   -6.4625    1.0000 </r>
       <r>   -6.3265    1.0000 </r>
       <r>   -6.1994    1.0000 </r>
       <r>   -6.1197    1.0000 </r>
       <r>   -5.8034    1.0000 </r>
       <r>   -5.7174    1.0000 </r>
       <r>   -5.6205    1.0000 </r>
       <r>   -5.5225    1.0000 </r>
       <r>   -5.3807    1.0000 </r>
       <r>   -5.2574    1.0000 </r>
       <r>   -5.2205    1.0000 </r>
       <r>   -4.9094    1.0000 </r>
       <r>   -4.8052    1.0000 </r>
       <r>   -4.6407    1.0000 </r>
       <r>   -4.3521    1.0000 </r>
       <r>   -4.2681    1.0000 </r>
       <r>   -4.1766    1.0000 </r>
       <r>   -1.8320    0.0000 </r>
       <r>   -0.7084    0.0000 </r>
       <r>    0.2360    0.0000 </r>
       <r>    1.5736    0.0000 </r>
       <r>    2.1576    0.0000 </r>
       <r>    2.2768    0.0000 </r>
       <r>    3.1293    0.0000 </r>
       <r>    3.4487    0.0000 </r>
      </set>
     </set>
    </set>
   </array>
  </eigenvalues>
  <separator name="orbital magnetization" >
   <v name="MAGDIPOLOUT">      0.00000000      0.00000000      0.00000000</v>
  </separator>
  <dos>
   <i name="efermi">     -2.57607562 </i>
   <total>
    <array>
     <dimension dim="1">gridpoints</dimension>
     <dimension dim="2">spin</dimension>
     <field>energy</field>
     <field>total</field>
     <field>integrated</field>
     <set>
      <set comment="spin 1">
       <r>   -17.0000     0.0000     0.0000 </r>
       <r>   -16.9900     0.0000     0.0000 </r>
       <r>   -16.9800     0.0000     0.0000 </r>
       <r>   -16.9700     0.0000     0.0000 </r>
       <r>   -16.9600     0.0000     0.0000 </r>
       <r>   -16.9500     0.0000     0.0000 </r>
       <r>   -16.9400     0.0000     0.0000 </r>
       <r>   -16.9300     0.0000     0.0000 </r>
       <r>   -16.9200     0.0000     0.0000 </r>
       <r>   -16.9100     0.0000     0.0000 </r>
       <r>   -16.9000     0.0000     0.0000 </r>
       <r>   -16.8900     0.0000     0.0000 </r>
       <r>   -16.8800     0.0000     0.0000 </r>
       <r>   -16.8700     0.0000     0.0000 </r>
       <r>   -16.8600     0.0000     0.0000 </r>
       <r>   -16.8500     0.0000     0.0000 </r>
       <r>   -16.8400     0.0000     0.0000 </r>
       <r>   -16.8300     0.0000     0.0000 </r>
       <r>   -16.8200     0.0000     0.0000 </r>
       <r>   -16.8100     0.0000     0.0000 </r>
       <r>   -16.8000     0.0000     0.0000 </r>
       <r>   -16.7900     0.0000     0.0000 </r>
       <r>   -16.7800     0.0000     0.0000 </r>
       <r>   -16.7700     0.0000     0.0000 </r>
       <r>   -16.7600     0.0000     0.0000 </r>
       <r>   -16.7500     0.0000     0.0000 </r>
       <r>   -16.7400     0.0000     0.0000 </r>
       <r>   -16.7300     0.0000     0.0000 </r>
       <r>   -16.7200     0.0000     0.0000 </r>
       <r>   -16.7100     0.0000     0.0000 </r>
       <r>   -16.7000     0.0000     0.0000 </r>
       <r>   -16.6900     0.0000     0.0000 </r>
       <r>   -16.6800     0.0000     0.0000 </r>
       <r>   -16.6700     0.0000     0.0000 </r>
       <r>   -16.6600     0.0000     0.0000 </r>
       <r>   -16.6500     0.0000     0.0000 </r>
       <r>   -16.6400     0.0000     0.0000 </r>
       <r>   -16.6300     0.0000     0.0000 </r>
       <r>   -16.6200     0.0000     0.0000 </r>
       <r>   -16.6100     0.0000     0.0000 </r>
       <r>   -16.6000     0.0000     0.0000 </r>
       <r>   -16.5900     0.0000     0.0000 </r>
       <r>   -16.5800     0.0000     0.0000 </r>
       <r>   -16.5700     0.0000     0.0000 </r>
       <r>   -16.5600     0.0000     0.0000 </r>
       <r>   -16.5500     0.0000     0.0000 </r>
       <r>   -16.5400     0.0000     0.0000 </r>
       <r>   -16.5300     0.0000     0.0000 </r>
       <r>   -16.5200     0.0000     0.0000 </r>
       <r>   -16.5100     0.0000     0.0000 </r>
       <r>   -16.5000     0.0000     0.0000 </r>
       <r>   -16.4900     0.0000     0.0000 </r>
       <r>   -16.4800     0.0000     0.0000 </r>
       <r>   -16.4700     0.0000     0.0000 </r>
       <r>   -16.4600     0.0000     0.0000 </r>
       <r>   -16.4500     0.0000     0.0000 </r>
       <r>   -16.4400     0.0000     0.0000 </r>
       <r>   -16.4300     0.0000     0.0000 </r>
       <r>   -16.4200     0.0000     0.0000 </r>
       <r>   -16.4100     0.0000     0.0000 </r>
       <r>   -16.4000     0.0000     0.0000 </r>
       <r>   -16.3900     0.0000     0.0000 </r>
       <r>   -16.3800     0.0000     0.0000 </r>
       <r>   -16.3700     0.0000     0.0000 </r>
       <r>   -16.3600     0.0000     0.0000 </r>
       <r>   -16.3500     0.0000     0.0000 </r>
       <r>   -16.3400     0.0000     0.0000 </r>
       <r>   -16.3300     0.0000     0.0000 </r>
       <r>   -16.3200     0.0000     0.0000 </r>
       <r>   -16.3100     0.0000     0.0000 </r>
       <r>   -16.3000     0.0000     0.0000 </r>
       <r>   -16.2900     0.0000     0.0000 </r>
       <r>   -16.2800     0.0000     0.0000 </r>
       <r>   -16.2700     0.0000     0.0000 </r>
       <r>   -16.2600     0.0000     0.0000 </r>
       <r>   -16.2500     0.0000     0.0000 </r>
       <r>   -16.2400     0.0000     0.0000 </r>
       <r>   -16.2300     0.0000     0.0000 </r>
       <r>   -16.2200     0.0000     0.0000 </r>
       <r>   -16.2100     0.0000     0.0000 </r>
       <r>   -16.2000     0.0000     0.0000 </r>
       <r>   -16.1900     0.0000     0.0000 </r>
       <r>   -16.1800     0.0000     0.0000 </r>
       <r>   -16.1700     0.0000     0.0000 </r>
       <r>   -16.1600     0.0000     0.0000 </r>
       <r>   -16.1500     0.0000     0.0000 </r>
       <r>   -16.1400     0.0000     0.0000 </r>
       <r>   -16.1300     0.0000     0.0000 </r>
       <r>   -16.1200     0.0000     0.0000 </r>
       <r>   -16.1100     0.0000     0.0000 </r>
       <r>   -16.1000     0.0000     0.0000 </r>
       <r>   -16.0900     0.0000     0.0000 </r>
       <r>   -16.0800     0.0000     0.0000 </r>
       <r>   -16.0700     0.0000     0.0000 </r>
       <r>   -16.0600     0.0000     0.0000 </r>
       <r>   -16.0500     0.0000     0.0000 </r>
       <r>   -16.0400     0.0000     0.0000 </r>
       <r>   -16.0300     0.0000     0.0000 </r>
       <r>   -16.0200     0.0000     0.0000 </r>
       <r>   -16.0100     0.0000     0.0000 </r>
       <r>   -16.0000     0.0000     0.0000 </r>
       <r>   -15.9900     0.0000     0.0000 </r>
       <r>   -15.9800     0.0000     0.0000 </r>
       <r>   -15.9700     0.0000     0.0000 </r>
       <r>   -15.9600     0.0000     0.0000 </r>
       <r>   -15.9500     0.0000     0.0000 </r>
       <r>   -15.9400     0.0000     0.0000 </r>
       <r>   -15.9300     0.0000     0.0000 </r>
       <r>   -15.9200     0.0000     0.0000 </r>
       <r>   -15.9100     0.0000     0.0000 </r>
       <r>   -15.9000     0.0000     0.0000 </r>
       <r>   -15.8900     0.0000     0.0000 </r>
       <r>   -15.8800     0.0000     0.0000 </r>
       <r>   -15.8700     0.0000     0.0000 </r>
       <r>   -15.8600     0.0000     0.0000 </r>
       <r>   -15.8500     0.0000     0.0000 </r>
       <r>   -15.8400     0.0000     0.0000 </r>
       <r>   -15.8300     0.0000     0.0000 </r>
       <r>   -15.8200     0.0000     0.0000 </r>
       <r>   -15.8100     0.0000     0.0000 </r>
       <r>   -15.8000     0.0000     0.0000 </r>
       <r>   -15.7900     0.0000     0.0000 </r>
       <r>   -15.7800     0.0000     0.0000 </r>
       <r>   -15.7700     0.0000     0.0000 </r>
       <r>   -15.7600     0.0000     0.0000 </r>
       <r>   -15.7500     0.0000     0.0000 </r>
       <r>   -15.7400     0.0000     0.0000 </r>
       <r>   -15.7300     0.0000     0.0000 </r>
       <r>   -15.7200     0.0000     0.0000 </r>
       <r>   -15.7100     0.0000     0.0000 </r>
       <r>   -15.7000     0.0000     0.0000 </r>
       <r>   -15.6900     0.0000     0.0000 </r>
       <r>   -15.6800     0.0000     0.0000 </r>
       <r>   -15.6700     0.0000     0.0000 </r>
       <r>   -15.6600     0.0000     0.0000 </r>
       <r>   -15.6500     0.0000     0.0000 </r>
       <r>   -15.6400     0.0000     0.0000 </r>
       <r>   -15.6300     0.0000     0.0000 </r>
       <r>   -15.6200     0.0000     0.0000 </r>
       <r>   -15.6100     0.0000     0.0000 </r>
       <r>   -15.6000     0.0000     0.0000 </r>
       <r>   -15.5900     0.0000     0.0000 </r>
       <r>   -15.5800     0.0000     0.0000 </r>
       <r>   -15.5700     0.0000     0.0000 </r>
       <r>   -15.5600     0.0000     0.0000 </r>
       <r>   -15.5500     0.0000     0.0000 </r>
       <r>   -15.5400     0.0000     0.0000 </r>
       <r>   -15.5300     0.0000     0.0000 </r>
       <r>   -15.5200     0.0000     0.0000 </r>
       <r>   -15.5100     0.0000     0.0000 </r>
       <r>   -15.5000     0.0000     0.0000 </r>
       <r>   -15.4900     0.0000     0.0000 </r>
       <r>   -15.4800     0.0000     0.0000 </r>
       <r>   -15.4700     0.0000     0.0000 </r>
       <r>   -15.4600     0.0000     0.0000 </r>
       <r>   -15.4500     0.0000     0.0000 </r>
       <r>   -15.4400     0.0000     0.0000 </r>
       <r>   -15.4300     0.0000     0.0000 </r>
       <r>   -15.4200     0.0000     0.0000 </r>
       <r>   -15.4100     0.0000     0.0000 </r>
       <r>   -15.4000     0.0000     0.0000 </r>
       <r>   -15.3900     0.0000     0.0000 </r>
       <r>   -15.3800     0.0000     0.0000 </r>
       <r>   -15.3700     0.0000     0.0000 </r>
       <r>   -15.3600     0.0000     0.0000 </r>
       <r>   -15.3500     0.0000     0.0000 </r>
       <r>   -15.3400     0.0000     0.0000 </r>
       <r>   -15.3300     0.0000     0.0000 </r>
       <r>   -15.3200     0.0000     0.0000 </r>
       <r>   -15.3100     0.0000     0.0000 </r>
       <r>   -15.3000     0.0000     0.0000 </r>
       <r>   -15.2900     0.0000     0.0000 </r>
       <r>   -15.2800     0.0000     0.0000 </r>
       <r>   -15.2700     0.0000     0.0000 </r>
       <r>   -15.2600     0.0000     0.0000 </r>
       <r>   -15.2500     0.0000     0.0000 </r>
       <r>   -15.2400     0.0000     0.0000 </r>
       <r>   -15.2300     0.0000     0.0000 </r>
       <r>   -15.2200     0.0000     0.0000 </r>
       <r>   -15.2100     0.0000     0.0000 </r>
       <r>   -15.2000     0.0000     0.0000 </r>
       <r>   -15.1900     0.0000     0.0000 </r>
       <r>   -15.1800     0.0000     0.0000 </r>
       <r>   -15.1700     0.0000     0.0000 </r>
       <r>   -15.1600     0.0000     0.0000 </r>
       <r>   -15.1500     0.0000     0.0000 </r>
       <r>   -15.1400     0.0000     0.0000 </r>
       <r>   -15.1300     0.0000     0.0000 </r>
       <r>   -15.1200     0.0000     0.0000 </r>
       <r>   -15.1100     0.0000     0.0000 </r>
       <r>   -15.1000     0.0000     0.0000 </r>
       <r>   -15.0900     0.0000     0.0000 </r>
       <r>   -15.0800     0.0000     0.0000 </r>
       <r>   -15.0700     0.0000     0.0000 </r>
       <r>   -15.0600     0.0000     0.0000 </r>
       <r>   -15.0500     0.0000     0.0000 </r>
       <r>   -15.0400     0.0000     0.0000 </r>
       <r>   -15.0300     0.0000     0.0000 </r>
       <r>   -15.0200     0.0000     0.0000 </r>
       <r>   -15.0100     0.0000     0.0000 </r>
       <r>   -15.0000     0.0000     0.0000 </r>
       <r>   -14.9900     0.0000     0.0000 </r>
       <r>   -14.9800     0.0000     0.0000 </r>
       <r>   -14.9700     0.0000     0.0000 </r>
       <r>   -14.9600     0.0000     0.0000 </r>
       <r>   -14.9500     0.0000     0.0000 </r>
       <r>   -14.9400     0.0000     0.0000 </r>
       <r>   -14.9300     0.0000     0.0000 </r>
       <r>   -14.9200     0.0000     0.0000 </r>
       <r>   -14.9100     0.0000     0.0000 </r>
       <r>   -14.9000     0.0000     0.0000 </r>
       <r>   -14.8900     0.0000     0.0000 </r>
       <r>   -14.8800     0.0000     0.0000 </r>
       <r>   -14.8700     0.0000     0.0000 </r>
       <r>   -14.8600     0.0000     0.0000 </r>
       <r>   -14.8500     0.0000     0.0000 </r>
       <r>   -14.8400     0.0000     0.0000 </r>
       <r>   -14.8300     0.0000     0.0000 </r>
       <r>   -14.8200     0.0000     0.0000 </r>
       <r>   -14.8100     0.0000     0.0000 </r>
       <r>   -14.8000     0.0000     0.0000 </r>
       <r>   -14.7900     0.0000     0.0000 </r>
       <r>   -14.7800     0.0000     0.0000 </r>
       <r>   -14.7700     0.0000     0.0000 </r>
       <r>   -14.7600     0.0000     0.0000 </r>
       <r>   -14.7500     0.0000     0.0000 </r>
       <r>   -14.7400     0.0000     0.0000 </r>
       <r>   -14.7300     0.0000     0.0000 </r>
       <r>   -14.7200     0.0000     0.0000 </r>
       <r>   -14.7100     0.0000     0.0000 </r>
       <r>   -14.7000     0.0000     0.0000 </r>
       <r>   -14.6900     0.0000     0.0000 </r>
       <r>   -14.6800     0.0000     0.0000 </r>
       <r>   -14.6700     0.0000     0.0000 </r>
       <r>   -14.6600     0.0000     0.0000 </r>
       <r>   -14.6500     0.0000     0.0000 </r>
       <r>   -14.6400     0.0000     0.0000 </r>
       <r>   -14.6300     0.0000     0.0000 </r>
       <r>   -14.6200     0.0000     0.0000 </r>
       <r>   -14.6100     0.0000     0.0000 </r>
       <r>   -14.6000     0.0000     0.0000 </r>
       <r>   -14.5900     0.0000     0.0000 </r>
       <r>   -14.5800     0.0000     0.0000 </r>
       <r>   -14.5700     0.0000     0.0000 </r>
       <r>   -14.5600     0.0000     0.0000 </r>
       <r>   -14.5500     0.0000     0.0000 </r>
       <r>   -14.5400     0.0000     0.0000 </r>
       <r>   -14.5300     0.0000     0.0000 </r>
       <r>   -14.5200     0.0000     0.0000 </r>
       <r>   -14.5100     0.0000     0.0000 </r>
       <r>   -14.5000     0.0000     0.0000 </r>
       <r>   -14.4900     0.0000     0.0000 </r>
       <r>   -14.4800     0.0000     0.0000 </r>
       <r>   -14.4700     0.0000     0.0000 </r>
       <r>   -14.4600     0.0000     0.0000 </r>
       <r>   -14.4500     0.0000     0.0000 </r>
       <r>   -14.4400     0.0000     0.0000 </r>
       <r>   -14.4300     0.0000     0.0000 </r>
       <r>   -14.4200     0.0000     0.0000 </r>
       <r>   -14.4100     0.0000     0.0000 </r>
       <r>   -14.4000     0.0000     0.0000 </r>
       <r>   -14.3900     0.0000     0.0000 </r>
       <r>   -14.3800     0.0000     0.0000 </r>
       <r>   -14.3700     0.0000     0.0000 </r>
       <r>   -14.3600     0.0000     0.0000 </r>
       <r>   -14.3500     0.0000     0.0000 </r>
       <r>   -14.3400     0.0000     0.0000 </r>
       <r>   -14.3300     0.0000     0.0000 </r>
       <r>   -14.3200     0.0000     0.0000 </r>
       <r>   -14.3100     0.0000     0.0000 </r>
       <r>   -14.3000     0.0000     0.0000 </r>
       <r>   -14.2900     0.0000     0.0000 </r>
       <r>   -14.2800     0.0000     0.0000 </r>
       <r>   -14.2700     0.0000     0.0000 </r>
       <r>   -14.2600     0.0000     0.0000 </r>
       <r>   -14.2500     0.0000     0.0000 </r>
       <r>   -14.2400     0.0000     0.0000 </r>
       <r>   -14.2300     0.0000     0.0000 </r>
       <r>   -14.2200     0.0000     0.0000 </r>
       <r>   -14.2100     0.0000     0.0000 </r>
       <r>   -14.2000     0.0000     0.0000 </r>
       <r>   -14.1900     0.0000     0.0000 </r>
       <r>   -14.1800     0.0000     0.0000 </r>
       <r>   -14.1700     0.0000     0.0000 </r>
       <r>   -14.1600     0.0000     0.0000 </r>
       <r>   -14.1500     0.0000     0.0000 </r>
       <r>   -14.1400     0.0000     0.0000 </r>
       <r>   -14.1300     0.0000     0.0000 </r>
       <r>   -14.1200     0.0000     0.0000 </r>
       <r>   -14.1100     0.0000     0.0000 </r>
       <r>   -14.1000     0.0000     0.0000 </r>
       <r>   -14.0900     0.0000     0.0000 </r>
       <r>   -14.0800     0.0000     0.0000 </r>
       <r>   -14.0700     0.0000     0.0000 </r>
       <r>   -14.0600     0.0000     0.0000 </r>
       <r>   -14.0500     0.0000     0.0000 </r>
       <r>   -14.0400     0.0000     0.0000 </r>
       <r>   -14.0300     0.0000     0.0000 </r>
       <r>   -14.0200     0.0000     0.0000 </r>
       <r>   -14.0100     0.0000     0.0000 </r>
       <r>   -14.0000     0.0000     0.0000 </r>
       <r>   -13.9900     0.0000     0.0000 </r>
       <r>   -13.9800     0.0000     0.0000 </r>
       <r>   -13.9700     0.0000     0.0000 </r>
       <r>   -13.9600     0.0000     0.0000 </r>
       <r>   -13.9500     0.0000     0.0000 </r>
       <r>   -13.9400     0.0000     0.0000 </r>
       <r>   -13.9300     0.0000     0.0000 </r>
       <r>   -13.9200     0.0000     0.0000 </r>
       <r>   -13.9100     0.0000     0.0000 </r>
       <r>   -13.9000     0.0000     0.0000 </r>
       <r>   -13.8900     0.0000     0.0000 </r>
       <r>   -13.8800     0.0000     0.0000 </r>
       <r>   -13.8700     0.0000     0.0000 </r>
       <r>   -13.8600     0.0000     0.0000 </r>
       <r>   -13.8500     0.0000     0.0000 </r>
       <r>   -13.8400     0.0000     0.0000 </r>
       <r>   -13.8300     0.0000     0.0000 </r>
       <r>   -13.8200     0.0000     0.0000 </r>
       <r>   -13.8100     0.0000     0.0000 </r>
       <r>   -13.8000     0.0000     0.0000 </r>
       <r>   -13.7900     0.0000     0.0000 </r>
       <r>   -13.7800     0.0000     0.0000 </r>
       <r>   -13.7700     0.0000     0.0000 </r>
       <r>   -13.7600     0.0000     0.0000 </r>
       <r>   -13.7500     0.0000     0.0000 </r>
       <r>   -13.7400     0.0000     0.0000 </r>
       <r>   -13.7300     0.0000     0.0000 </r>
       <r>   -13.7200     0.0000     0.0000 </r>
       <r>   -13.7100     0.0000     0.0000 </r>
       <r>   -13.7000     0.0000     0.0000 </r>
       <r>   -13.6900     0.0000     0.0000 </r>
       <r>   -13.6800     0.0000     0.0000 </r>
       <r>   -13.6700     0.0000     0.0000 </r>
       <r>   -13.6600     0.0000     0.0000 </r>
       <r>   -13.6500     0.0000     0.0000 </r>
       <r>   -13.6400     0.0000     0.0000 </r>
       <r>   -13.6300     0.0000     0.0000 </r>
       <r>   -13.6200     0.0000     0.0000 </r>
       <r>   -13.6100     0.0000     0.0000 </r>
       <r>   -13.6000     0.0000     0.0000 </r>
       <r>   -13.5900     0.0000     0.0000 </r>
       <r>   -13.5800     0.0000     0.0000 </r>
       <r>   -13.5700     0.0000     0.0000 </r>
       <r>   -13.5600     0.0000     0.0000 </r>
       <r>   -13.5500     0.0000     0.0000 </r>
       <r>   -13.5400     0.0000     0.0000 </r>
       <r>   -13.5300     0.0000     0.0000 </r>
       <r>   -13.5200     0.0000     0.0000 </r>
       <r>   -13.5100     0.0000     0.0000 </r>
       <r>   -13.5000     0.0000     0.0000 </r>
       <r>   -13.4900     0.0000     0.0000 </r>
       <r>   -13.4800     0.0000     0.0000 </r>
       <r>   -13.4700     0.0000     0.0000 </r>
       <r>   -13.4600     0.0000     0.0000 </r>
       <r>   -13.4500     0.0000     0.0000 </r>
       <r>   -13.4400     0.0000     0.0000 </r>
       <r>   -13.4300     0.0000     0.0000 </r>
       <r>   -13.4200     0.0000     0.0000 </r>
       <r>   -13.4100     0.0000     0.0000 </r>
       <r>   -13.4000     0.0000     0.0000 </r>
       <r>   -13.3900     0.0000     0.0000 </r>
       <r>   -13.3800     0.0000     0.0000 </r>
       <r>   -13.3700     0.0000     0.0000 </r>
       <r>   -13.3600     0.0000     0.0000 </r>
       <r>   -13.3500     0.0000     0.0000 </r>
       <r>   -13.3400     0.0000     0.0000 </r>
       <r>   -13.3300     0.0000     0.0000 </r>
       <r>   -13.3200     0.0000     0.0000 </r>
       <r>   -13.3100     0.0000     0.0000 </r>
       <r>   -13.3000     0.0000     0.0000 </r>
       <r>   -13.2900     0.0000     0.0000 </r>
       <r>   -13.2800     0.0000     0.0000 </r>
       <r>   -13.2700     0.0000     0.0000 </r>
       <r>   -13.2600     0.0000     0.0000 </r>
       <r>   -13.2500     0.0000     0.0000 </r>
       <r>   -13.2400     0.0000     0.0000 </r>
       <r>   -13.2300     0.0000     0.0000 </r>
       <r>   -13.2200     0.0000     0.0000 </r>
       <r>   -13.2100     0.0000     0.0000 </r>
       <r>   -13.2000     0.0000     0.0000 </r>
       <r>   -13.1900     0.0000     0.0000 </r>
       <r>   -13.1800     0.0000     0.0000 </r>
       <r>   -13.1700     0.0000     0.0000 </r>
       <r>   -13.1600     0.0000     0.0000 </r>
       <r>   -13.1500     0.0000     0.0000 </r>
       <r>   -13.1400     0.0000     0.0000 </r>
       <r>   -13.1300     0.0000     0.0000 </r>
       <r>   -13.1200     0.0000     0.0000 </r>
       <r>   -13.1100     0.0000     0.0000 </r>
       <r>   -13.1000     0.0000     0.0000 </r>
       <r>   -13.0900     0.0000     0.0000 </r>
       <r>   -13.0800     0.0000     0.0000 </r>
       <r>   -13.0700     0.0000     0.0000 </r>
       <r>   -13.0600     0.0000     0.0000 </r>
       <r>   -13.0500     0.0000     0.0000 </r>
       <r>   -13.0400     0.0000     0.0000 </r>
       <r>   -13.0300     0.0000     0.0000 </r>
       <r>   -13.0200     0.0000     0.0000 </r>
       <r>   -13.0100     0.0000     0.0000 </r>
       <r>   -13.0000     0.0000     0.0000 </r>
       <r>   -12.9900     0.0000     0.0000 </r>
       <r>   -12.9800     0.0000     0.0000 </r>
       <r>   -12.9700     0.0000     0.0000 </r>
       <r>   -12.9600     0.0000     0.0000 </r>
       <r>   -12.9500     0.0000     0.0000 </r>
       <r>   -12.9400     0.0000     0.0000 </r>
       <r>   -12.9300     0.0000     0.0000 </r>
       <r>   -12.9200     0.0000     0.0000 </r>
       <r>   -12.9100     0.0000     0.0000 </r>
       <r>   -12.9000     0.0000     0.0000 </r>
       <r>   -12.8900     0.0000     0.0000 </r>
       <r>   -12.8800     0.0000     0.0000 </r>
       <r>   -12.8700     0.0000     0.0000 </r>
       <r>   -12.8600     0.0000     0.0000 </r>
       <r>   -12.8500     0.0000     0.0000 </r>
       <r>   -12.8400     0.0000     0.0000 </r>
       <r>   -12.8300     0.0000     0.0000 </r>
       <r>   -12.8200     0.0000     0.0000 </r>
       <r>   -12.8100     0.0000     0.0000 </r>
       <r>   -12.8000     0.0000     0.0000 </r>
       <r>   -12.7900     0.0000     0.0000 </r>
       <r>   -12.7800     0.0000     0.0000 </r>
       <r>   -12.7700     0.0000     0.0000 </r>
       <r>   -12.7600     0.0000     0.0000 </r>
       <r>   -12.7500     0.0000     0.0000 </r>
       <r>   -12.7400     0.0000     0.0000 </r>
       <r>   -12.7300     0.0000     0.0000 </r>
       <r>   -12.7200     0.0000     0.0000 </r>
       <r>   -12.7100     0.0000     0.0000 </r>
       <r>   -12.7000     0.0000     0.0000 </r>
       <r>   -12.6900     0.0000     0.0000 </r>
       <r>   -12.6800     0.0000     0.0000 </r>
       <r>   -12.6700     0.0000     0.0000 </r>
       <r>   -12.6600     0.0000     0.0000 </r>
       <r>   -12.6500     0.0000     0.0000 </r>
       <r>   -12.6400     0.0000     0.0000 </r>
       <r>   -12.6300     0.0000     0.0000 </r>
       <r>   -12.6200     0.0000     0.0000 </r>
       <r>   -12.6100     0.0000     0.0000 </r>
       <r>   -12.6000     0.0000     0.0000 </r>
       <r>   -12.5900     0.0000     0.0000 </r>
       <r>   -12.5800     0.0000     0.0000 </r>
       <r>   -12.5700     0.0000     0.0000 </r>
       <r>   -12.5600     0.0000     0.0000 </r>
       <r>   -12.5500     0.0000     0.0000 </r>
       <r>   -12.5400     0.0000     0.0000 </r>
       <r>   -12.5300     0.0000     0.0000 </r>
       <r>   -12.5200     0.0000     0.0000 </r>
       <r>   -12.5100     0.0000     0.0000 </r>
       <r>   -12.5000     0.0000     0.0000 </r>
       <r>   -12.4900     0.0000     0.0000 </r>
       <r>   -12.4800     0.0000     0.0000 </r>
       <r>   -12.4700     0.0000     0.0000 </r>
       <r>   -12.4600     0.0000     0.0000 </r>
       <r>   -12.4500     0.0000     0.0000 </r>
       <r>   -12.4400     0.0000     0.0000 </r>
       <r>   -12.4300     0.0000     0.0000 </r>
       <r>   -12.4200     0.0000     0.0000 </r>
       <r>   -12.4100     0.0000     0.0000 </r>
       <r>   -12.4000     0.0000     0.0000 </r>
       <r>   -12.3900     0.0000     0.0000 </r>
       <r>   -12.3800     0.0000     0.0000 </r>
       <r>   -12.3700     0.0000     0.0000 </r>
       <r>   -12.3600     0.0000     0.0000 </r>
       <r>   -12.3500     0.0000     0.0000 </r>
       <r>   -12.3400     0.0000     0.0000 </r>
       <r>   -12.3300     0.0000     0.0000 </r>
       <r>   -12.3200     0.0000     0.0000 </r>
       <r>   -12.3100     0.0000     0.0000 </r>
       <r>   -12.3000     0.0000     0.0000 </r>
       <r>   -12.2900     0.0000     0.0000 </r>
       <r>   -12.2800     0.0000     0.0000 </r>
       <r>   -12.2700     0.0000     0.0000 </r>
       <r>   -12.2600     0.0000     0.0000 </r>
       <r>   -12.2500     0.0000     0.0000 </r>
       <r>   -12.2400     0.0000     0.0000 </r>
       <r>   -12.2300     0.0000     0.0000 </r>
       <r>   -12.2200     0.0000     0.0000 </r>
       <r>   -12.2100     0.0000     0.0000 </r>
       <r>   -12.2000     0.0000     0.0000 </r>
       <r>   -12.1900     0.0000     0.0000 </r>
       <r>   -12.1800     0.0000     0.0000 </r>
       <r>   -12.1700     0.0000     0.0000 </r>
       <r>   -12.1600     0.0000     0.0000 </r>
       <r>   -12.1500     0.0000     0.0000 </r>
       <r>   -12.1400     0.0000     0.0000 </r>
       <r>   -12.1300     0.0000     0.0000 </r>
       <r>   -12.1200     0.0000     0.0000 </r>
       <r>   -12.1100     0.0000     0.0000 </r>
       <r>   -12.1000     0.0000     0.0000 </r>
       <r>   -12.0900     0.0000     0.0000 </r>
       <r>   -12.0800     0.0000     0.0000 </r>
       <r>   -12.0700     0.0000     0.0000 </r>
       <r>   -12.0600     0.0000     0.0000 </r>
       <r>   -12.0500     0.0000     0.0000 </r>
       <r>   -12.0400     0.0000     0.0000 </r>
       <r>   -12.0300     0.0000     0.0000 </r>
       <r>   -12.0200     0.0000     0.0000 </r>
       <r>   -12.0100     0.0000     0.0000 </r>
       <r>   -12.0000     0.0000     0.0000 </r>
       <r>   -11.9900     0.0000     0.0000 </r>
       <r>   -11.9800     0.0000     0.0000 </r>
       <r>   -11.9700     0.0000     0.0000 </r>
       <r>   -11.9600     0.0000     0.0000 </r>
       <r>   -11.9500     0.0000     0.0000 </r>
       <r>   -11.9400     0.0000     0.0000 </r>
       <r>   -11.9300     0.0000     0.0000 </r>
       <r>   -11.9200     0.0000     0.0000 </r>
       <r>   -11.9100     0.0000     0.0000 </r>
       <r>   -11.9000     0.0000     0.0000 </r>
       <r>   -11.8900     0.0000     0.0000 </r>
       <r>   -11.8800     0.0000     0.0000 </r>
       <r>   -11.8700     0.0000     0.0000 </r>
       <r>   -11.8600     0.0000     0.0000 </r>
       <r>   -11.8500     0.0000     0.0000 </r>
       <r>   -11.8400     0.0000     0.0000 </r>
       <r>   -11.8300     0.0000     0.0000 </r>
       <r>   -11.8200     0.0000     0.0000 </r>
       <r>   -11.8100     0.0000     0.0000 </r>
       <r>   -11.8000     0.0000     0.0000 </r>
       <r>   -11.7900     0.0000     0.0000 </r>
       <r>   -11.7800     0.0000     0.0000 </r>
       <r>   -11.7700     0.0000     0.0000 </r>
       <r>   -11.7600     0.0000     0.0000 </r>
       <r>   -11.7500     0.0000     0.0000 </r>
       <r>   -11.7400     0.0000     0.0000 </r>
       <r>   -11.7300     0.0000     0.0000 </r>
       <r>   -11.7200     0.0000     0.0000 </r>
       <r>   -11.7100     0.0000     0.0000 </r>
       <r>   -11.7000     0.0000     0.0000 </r>
       <r>   -11.6900     0.0000     0.0000 </r>
       <r>   -11.6800     0.0000     0.0000 </r>
       <r>   -11.6700     0.0000     0.0000 </r>
       <r>   -11.6600     0.0000     0.0000 </r>
       <r>   -11.6500     0.0000     0.0000 </r>
       <r>   -11.6400     0.0000     0.0000 </r>
       <r>   -11.6300     0.0000     0.0000 </r>
       <r>   -11.6200     0.0000     0.0000 </r>
       <r>   -11.6100     0.0000     0.0000 </r>
       <r>   -11.6000     0.0000     0.0000 </r>
       <r>   -11.5900     0.0000     0.0000 </r>
       <r>   -11.5800     0.0001     0.0000 </r>
       <r>   -11.5700     0.0001     0.0000 </r>
       <r>   -11.5600     0.0002     0.0000 </r>
       <r>   -11.5500     0.0003     0.0000 </r>
       <r>   -11.5400     0.0006     0.0000 </r>
       <r>   -11.5300     0.0009     0.0000 </r>
       <r>   -11.5200     0.0013     0.0000 </r>
       <r>   -11.5100     0.0020     0.0001 </r>
       <r>   -11.5000     0.0030     0.0001 </r>
       <r>   -11.4900     0.0043     0.0001 </r>
       <r>   -11.4800     0.0061     0.0002 </r>
       <r>   -11.4700     0.0085     0.0003 </r>
       <r>   -11.4600     0.0116     0.0004 </r>
       <r>   -11.4500     0.0156     0.0005 </r>
       <r>   -11.4400     0.0204     0.0008 </r>
       <r>   -11.4300     0.0263     0.0010 </r>
       <r>   -11.4200     0.0331     0.0013 </r>
       <r>   -11.4100     0.0409     0.0018 </r>
       <r>   -11.4000     0.0495     0.0022 </r>
       <r>   -11.3900     0.0587     0.0028 </r>
       <r>   -11.3800     0.0683     0.0035 </r>
       <r>   -11.3700     0.0779     0.0043 </r>
       <r>   -11.3600     0.0871     0.0052 </r>
       <r>   -11.3500     0.0955     0.0061 </r>
       <r>   -11.3400     0.1026     0.0072 </r>
       <r>   -11.3300     0.1080     0.0082 </r>
       <r>   -11.3200     0.1115     0.0093 </r>
       <r>   -11.3100     0.1128     0.0105 </r>
       <r>   -11.3000     0.1119     0.0116 </r>
       <r>   -11.2900     0.1088     0.0127 </r>
       <r>   -11.2800     0.1038     0.0137 </r>
       <r>   -11.2700     0.0971     0.0147 </r>
       <r>   -11.2600     0.0892     0.0156 </r>
       <r>   -11.2500     0.0806     0.0164 </r>
       <r>   -11.2400     0.0718     0.0171 </r>
       <r>   -11.2300     0.0633     0.0177 </r>
       <r>   -11.2200     0.0557     0.0183 </r>
       <r>   -11.2100     0.0496     0.0188 </r>
       <r>   -11.2000     0.0455     0.0192 </r>
       <r>   -11.1900     0.0439     0.0197 </r>
       <r>   -11.1800     0.0454     0.0201 </r>
       <r>   -11.1700     0.0507     0.0206 </r>
       <r>   -11.1600     0.0603     0.0213 </r>
       <r>   -11.1500     0.0749     0.0220 </r>
       <r>   -11.1400     0.0950     0.0229 </r>
       <r>   -11.1300     0.1211     0.0242 </r>
       <r>   -11.1200     0.1535     0.0257 </r>
       <r>   -11.1100     0.1924     0.0276 </r>
       <r>   -11.1000     0.2373     0.0300 </r>
       <r>   -11.0900     0.2876     0.0329 </r>
       <r>   -11.0800     0.3422     0.0363 </r>
       <r>   -11.0700     0.3993     0.0403 </r>
       <r>   -11.0600     0.4569     0.0449 </r>
       <r>   -11.0500     0.5126     0.0500 </r>
       <r>   -11.0400     0.5638     0.0556 </r>
       <r>   -11.0300     0.6079     0.0617 </r>
       <r>   -11.0200     0.6425     0.0681 </r>
       <r>   -11.0100     0.6656     0.0748 </r>
       <r>   -11.0000     0.6760     0.0815 </r>
       <r>   -10.9900     0.6729     0.0883 </r>
       <r>   -10.9800     0.6566     0.0948 </r>
       <r>   -10.9700     0.6281     0.1011 </r>
       <r>   -10.9600     0.5889     0.1070 </r>
       <r>   -10.9500     0.5412     0.1124 </r>
       <r>   -10.9400     0.4876     0.1173 </r>
       <r>   -10.9300     0.4306     0.1216 </r>
       <r>   -10.9200     0.3727     0.1253 </r>
       <r>   -10.9100     0.3163     0.1285 </r>
       <r>   -10.9000     0.2630     0.1311 </r>
       <r>   -10.8900     0.2145     0.1333 </r>
       <r>   -10.8800     0.1714     0.1350 </r>
       <r>   -10.8700     0.1343     0.1363 </r>
       <r>   -10.8600     0.1031     0.1373 </r>
       <r>   -10.8500     0.0776     0.1381 </r>
       <r>   -10.8400     0.0573     0.1387 </r>
       <r>   -10.8300     0.0414     0.1391 </r>
       <r>   -10.8200     0.0294     0.1394 </r>
       <r>   -10.8100     0.0204     0.1396 </r>
       <r>   -10.8000     0.0139     0.1397 </r>
       <r>   -10.7900     0.0093     0.1398 </r>
       <r>   -10.7800     0.0061     0.1399 </r>
       <r>   -10.7700     0.0039     0.1399 </r>
       <r>   -10.7600     0.0025     0.1400 </r>
       <r>   -10.7500     0.0015     0.1400 </r>
       <r>   -10.7400     0.0009     0.1400 </r>
       <r>   -10.7300     0.0005     0.1400 </r>
       <r>   -10.7200     0.0003     0.1400 </r>
       <r>   -10.7100     0.0002     0.1400 </r>
       <r>   -10.7000     0.0001     0.1400 </r>
       <r>   -10.6900     0.0001     0.1400 </r>
       <r>   -10.6800     0.0002     0.1400 </r>
       <r>   -10.6700     0.0003     0.1400 </r>
       <r>   -10.6600     0.0005     0.1400 </r>
       <r>   -10.6500     0.0009     0.1400 </r>
       <r>   -10.6400     0.0014     0.1400 </r>
       <r>   -10.6300     0.0023     0.1401 </r>
       <r>   -10.6200     0.0036     0.1401 </r>
       <r>   -10.6100     0.0057     0.1402 </r>
       <r>   -10.6000     0.0087     0.1402 </r>
       <r>   -10.5900     0.0131     0.1404 </r>
       <r>   -10.5800     0.0193     0.1406 </r>
       <r>   -10.5700     0.0279     0.1408 </r>
       <r>   -10.5600     0.0395     0.1412 </r>
       <r>   -10.5500     0.0547     0.1418 </r>
       <r>   -10.5400     0.0744     0.1425 </r>
       <r>   -10.5300     0.0991     0.1435 </r>
       <r>   -10.5200     0.1295     0.1448 </r>
       <r>   -10.5100     0.1658     0.1465 </r>
       <r>   -10.5000     0.2081     0.1486 </r>
       <r>   -10.4900     0.2561     0.1511 </r>
       <r>   -10.4800     0.3089     0.1542 </r>
       <r>   -10.4700     0.3654     0.1579 </r>
       <r>   -10.4600     0.4237     0.1621 </r>
       <r>   -10.4500     0.4817     0.1669 </r>
       <r>   -10.4400     0.5371     0.1723 </r>
       <r>   -10.4300     0.5873     0.1782 </r>
       <r>   -10.4200     0.6299     0.1845 </r>
       <r>   -10.4100     0.6627     0.1911 </r>
       <r>   -10.4000     0.6843     0.1979 </r>
       <r>   -10.3900     0.6936     0.2049 </r>
       <r>   -10.3800     0.6905     0.2118 </r>
       <r>   -10.3700     0.6755     0.2185 </r>
       <r>   -10.3600     0.6499     0.2250 </r>
       <r>   -10.3500     0.6156     0.2312 </r>
       <r>   -10.3400     0.5750     0.2369 </r>
       <r>   -10.3300     0.5304     0.2422 </r>
       <r>   -10.3200     0.4844     0.2471 </r>
       <r>   -10.3100     0.4393     0.2515 </r>
       <r>   -10.3000     0.3972     0.2554 </r>
       <r>   -10.2900     0.3597     0.2590 </r>
       <r>   -10.2800     0.3282     0.2623 </r>
       <r>   -10.2700     0.3036     0.2653 </r>
       <r>   -10.2600     0.2866     0.2682 </r>
       <r>   -10.2500     0.2776     0.2710 </r>
       <r>   -10.2400     0.2769     0.2738 </r>
       <r>   -10.2300     0.2847     0.2766 </r>
       <r>   -10.2200     0.3008     0.2796 </r>
       <r>   -10.2100     0.3249     0.2829 </r>
       <r>   -10.2000     0.3566     0.2864 </r>
       <r>   -10.1900     0.3950     0.2904 </r>
       <r>   -10.1800     0.4389     0.2948 </r>
       <r>   -10.1700     0.4869     0.2996 </r>
       <r>   -10.1600     0.5369     0.3050 </r>
       <r>   -10.1500     0.5871     0.3109 </r>
       <r>   -10.1400     0.6353     0.3172 </r>
       <r>   -10.1300     0.6795     0.3240 </r>
       <r>   -10.1200     0.7181     0.3312 </r>
       <r>   -10.1100     0.7498     0.3387 </r>
       <r>   -10.1000     0.7743     0.3464 </r>
       <r>   -10.0900     0.7915     0.3544 </r>
       <r>   -10.0800     0.8022     0.3624 </r>
       <r>   -10.0700     0.8077     0.3705 </r>
       <r>   -10.0600     0.8095     0.3786 </r>
       <r>   -10.0500     0.8092     0.3866 </r>
       <r>   -10.0400     0.8082     0.3947 </r>
       <r>   -10.0300     0.8074     0.4028 </r>
       <r>   -10.0200     0.8073     0.4109 </r>
       <r>   -10.0100     0.8075     0.4190 </r>
       <r>   -10.0000     0.8072     0.4270 </r>
       <r>    -9.9900     0.8050     0.4351 </r>
       <r>    -9.9800     0.7992     0.4431 </r>
       <r>    -9.9700     0.7880     0.4509 </r>
       <r>    -9.9600     0.7700     0.4586 </r>
       <r>    -9.9500     0.7442     0.4661 </r>
       <r>    -9.9400     0.7100     0.4732 </r>
       <r>    -9.9300     0.6678     0.4799 </r>
[...]
        <r>  0.0000  0.0003  0.0002  0.0001  0.0152  0.0099  0.3766  0.0078  0.0063 </r>
        <r>  0.0000  0.0000  0.0004  0.0000  0.0295  0.0117  0.0002  0.0262  0.0729 </r>
        <r>  0.0004  0.0000  0.0000  0.0000  0.0000  0.0000  0.0000  0.0000  0.0000 </r>
       </set>
       <set comment="band 19">
        <r>  0.0009  0.0003  0.0011  0.0006  0.0343  0.0085  0.4180  0.0259  0.0795 </r>
        <r>  0.0000  0.0000  0.0000  0.0001  0.0196  0.0391  0.0895  0.0942  0.0587 </r>
        <r>  0.0000  0.0000  0.0000  0.0000  0.0104  0.0079  0.0312  0.0205  0.0289 </r>
        <r>  0.0000  0.0000  0.0001  0.0000  0.0022  0.0010  0.0002  0.0029  0.0062 </r>
        <r>  0.0001  0.0000  0.0000  0.0000  0.0000  0.0000  0.0000  0.0000  0.0000 </r>
       </set>
       <set comment="band 20">
        <r>  0.0003  0.0001  0.0006  0.0003  0.0468  0.0293  0.1278  0.0285  0.0783 </r>
        <r>  0.0000  0.0002  0.0001  0.0001  0.0462  0.0053  0.3705  0.0127  0.0160 </r>
        <r>  0.0000  0.0000  0.0001  0.0000  0.0336  0.0287  0.0655  0.0234  0.0507 </r>
        <r>  0.0000  0.0000  0.0001  0.0000  0.0042  0.0097  0.0001  0.0038  0.0062 </r>
        <r>  0.0001  0.0000  0.0000  0.0000  0.0000  0.0000  0.0000  0.0000  0.0000 </r>
       </set>
       <set comment="band 21">
        <r>  0.0001  0.0000  0.0000  0.0000  0.0001  0.0000  0.0002  0.0000  0.0001 </r>
        <r>  0.0002  0.0002  0.0001  0.0004  0.0004  0.0002  0.0004  0.0002  0.0005 </r>
        <r>  0.0001  0.0009  0.0000  0.0025  0.0031  0.0009  0.0000  0.0008  0.0053 </r>
        <r>  0.0814  0.0006  0.0691  0.0003  0.0326  0.0023  0.2576  0.0008  0.0109 </r>
        <r>  0.2583  0.0000  0.0001  0.0000  0.0000  0.0000  0.0000  0.0000  0.0000 </r>
       </set>
       <set comment="band 22">
        <r>  0.0158  0.0052  0.0065  0.0137  0.0123  0.0027  0.0172  0.0037  0.0141 </r>
        <r>  0.0088  0.0296  0.0073  0.0872  0.0264  0.0014  0.0076  0.0014  0.0653 </r>
        <r>  0.0050  0.0348  0.0066  0.1036  0.0277  0.0009  0.0041  0.0006  0.0750 </r>
        <r>  0.0201  0.0079  0.0072  0.0214  0.0140  0.0024  0.0145  0.0034  0.0173 </r>
        <r>  0.0000  0.0001  0.0000  0.0002  0.0000  0.0000  0.0000  0.0000  0.0000 </r>
       </set>
       <set comment="band 23">
        <r>  0.0052  0.0159  0.0017  0.0468  0.0124  0.0024  0.0038  0.0056  0.0297 </r>
        <r>  0.0474  0.0197  0.0008  0.0513  0.0331  0.0009  0.0279  0.0015  0.0369 </r>
        <r>  0.0660  0.0148  0.0006  0.0330  0.0385  0.0012  0.0383  0.0027  0.0288 </r>
        <r>  0.0015  0.0207  0.0008  0.0617  0.0115  0.0014  0.0007  0.0038  0.0324 </r>
        <r>  0.0000  0.0002  0.0000  0.0006  0.0000  0.0000  0.0000  0.0000  0.0000 </r>
       </set>
       <set comment="band 24">
        <r>  0.0072  0.0307  0.0016  0.0904  0.0192  0.0015  0.0028  0.0029  0.0463 </r>
        <r>  0.0535  0.0052  0.0072  0.0022  0.0263  0.0021  0.0194  0.0038  0.0089 </r>
        <r>  0.0367  0.0069  0.0157  0.0111  0.0197  0.0036  0.0131  0.0032  0.0104 </r>
        <r>  0.0106  0.0331  0.0064  0.0958  0.0200  0.0016  0.0023  0.0013  0.0432 </r>
        <r>  0.0008  0.0003  0.0000  0.0010  0.0000  0.0000  0.0000  0.0000  0.0000 </r>
       </set>
       <set comment="band 25">
        <r>  0.0532  0.0253  0.0079  0.0606  0.0333  0.0031  0.0137  0.0010  0.0325 </r>
        <r>  0.0043  0.0174  0.0403  0.0518  0.0079  0.0101  0.0011  0.0045  0.0205 </r>
        <r>  0.0007  0.0172  0.0316  0.0516  0.0068  0.0087  0.0002  0.0046  0.0200 </r>
        <r>  0.0248  0.0161  0.0150  0.0381  0.0174  0.0026  0.0034  0.0010  0.0175 </r>
        <r>  0.0023  0.0002  0.0000  0.0004  0.0000  0.0000  0.0000  0.0000  0.0000 </r>
       </set>
       <set comment="band 26">
        <r>  0.0820  0.0179  0.0005  0.0372  0.0233  0.0014  0.0062  0.0041  0.0155 </r>
        <r>  0.0841  0.0102  0.0096  0.0035  0.0275  0.0139  0.0038  0.0393  0.0092 </r>
        <r>  0.1036  0.0134  0.0099  0.0046  0.0345  0.0099  0.0047  0.0275  0.0115 </r>
        <r>  0.0228  0.0109  0.0108  0.0270  0.0082  0.0018  0.0009  0.0049  0.0079 </r>
        <r>  0.0022  0.0002  0.0000  0.0006  0.0000  0.0000  0.0000  0.0000  0.0000 </r>
       </set>
       <set comment="band 27">
        <r>  0.1773  0.0258  0.0320  0.0107  0.0488  0.0017  0.0023  0.0013  0.0167 </r>
        <r>  0.0093  0.0131  0.0116  0.0341  0.0052  0.0025  0.0001  0.0073  0.0075 </r>
        <r>  0.0118  0.0029  0.0101  0.0024  0.0046  0.0112  0.0000  0.0322  0.0018 </r>
        <r>  0.0443  0.0135  0.0155  0.0113  0.0177  0.0019  0.0000  0.0046  0.0070 </r>
        <r>  0.0062  0.0002  0.0001  0.0004  0.0000  0.0000  0.0000  0.0000  0.0000 </r>
       </set>
       <set comment="band 28">
        <r>  0.0001  0.0197  0.0389  0.0191  0.0079  0.0051  0.0016  0.0157  0.0045 </r>
        <r>  0.0122  0.0912  0.0078  0.0317  0.0609  0.0010  0.0085  0.0030  0.0205 </r>
        <r>  0.0005  0.0569  0.0227  0.0379  0.0299  0.0000  0.0055  0.0000  0.0129 </r>
        <r>  0.0168  0.0033  0.0046  0.0091  0.0005  0.0076  0.0003  0.0211  0.0013 </r>
        <r>  0.0008  0.0005  0.0001  0.0015  0.0000  0.0000  0.0000  0.0000  0.0000 </r>
       </set>
      </set>
      <set comment="kpoint 14">
       <set comment="band 1">
        <r>  0.0000  0.0000  0.0000  0.0001  0.0003  0.0000  0.0000  0.0012  0.0003 </r>
        <r>  0.0008  0.0003  0.0001  0.0000  0.0011  0.0063  0.0047  0.0002  0.0003 </r>
        <r>  0.0038  0.0052  0.0004  0.0096  0.0460  0.0152  0.0044  0.1499  0.0325 </r>
        <r>  0.0488  0.0000  0.0004  0.0027  0.0000  0.0009  0.4590  0.0113  0.0092 </r>
        <r>  0.0729  0.0000  0.0020  0.0000  0.0000  0.0000  0.0000  0.0000  0.0000 </r>
       </set>
       <set comment="band 2">
        <r>  0.0002  0.0015  0.0002  0.0005  0.0085  0.0111  0.0023  0.0026  0.0025 </r>
        <r>  0.0101  0.0018  0.0005  0.0100  0.0205  0.0031  0.0306  0.1727  0.0369 </r>
        <r>  0.0367  0.0007  0.0000  0.0106  0.0079  0.0104  0.1690  0.0354  0.0394 </r>
        <r>  0.0001  0.0033  0.0002  0.0091  0.0317  0.0213  0.0048  0.1432  0.0365 </r>
        <r>  0.0004  0.0000  0.0000  0.0001  0.0000  0.0000  0.0000  0.0000  0.0000 </r>
       </set>
       <set comment="band 3">
        <r>  0.0008  0.0012  0.0002  0.0022  0.0109  0.0045  0.0015  0.0179  0.0071 </r>
        <r>  0.0129  0.0037  0.0001  0.0041  0.0320  0.0188  0.0507  0.0054  0.0168 </r>
        <r>  0.0001  0.0076  0.0007  0.0024  0.0553  0.0558  0.0068  0.2366  0.0119 </r>
        <r>  0.0010  0.0026  0.0012  0.0058  0.0174  0.0415  0.0571  0.1582  0.0193 </r>
        <r>  0.0088  0.0000  0.0002  0.0001  0.0000  0.0000  0.0000  0.0000  0.0000 </r>
       </set>
       <set comment="band 4">
        <r>  0.0070  0.0000  0.0019  0.0166  0.0002  0.0020  0.0075  0.1400  0.0551 </r>
        <r>  0.0191  0.0037  0.0004  0.0034  0.0245  0.0000  0.1080  0.2351  0.0148 </r>
        <r>  0.0000  0.0140  0.0002  0.0028  0.1238  0.0455  0.0009  0.0037  0.0134 </r>
        <r>  0.0005  0.0007  0.0000  0.0007  0.0087  0.0034  0.0011  0.0084  0.0037 </r>
        <r>  0.0003  0.0000  0.0000  0.0000  0.0000  0.0000  0.0000  0.0000  0.0000 </r>
       </set>
       <set comment="band 5">
        <r>  0.0000  0.0063  0.0000  0.0002  0.0580  0.0294  0.0009  0.0035  0.0006 </r>
        <r>  0.0024  0.0167  0.0000  0.0016  0.1680  0.0028  0.0425  0.0316  0.0077 </r>
        <r>  0.0012  0.0025  0.0000  0.0202  0.0262  0.0459  0.0741  0.0007  0.0822 </r>
        <r>  0.0001  0.0114  0.0000  0.0001  0.1347  0.0877  0.0017  0.0126  0.0001 </r>
        <r>  0.0002  0.0000  0.0000  0.0000  0.0000  0.0000  0.0000  0.0000  0.0000 </r>
       </set>
       <set comment="band 6">
        <r>  0.0014  0.0096  0.0005  0.0017  0.0867  0.0579  0.0079  0.0376  0.0039 </r>
        <r>  0.0001  0.0011  0.0002  0.0264  0.0145  0.1660  0.0434  0.0154  0.1082 </r>
        <r>  0.0000  0.0058  0.0002  0.0034  0.0748  0.1494  0.0012  0.0048  0.0105 </r>
        <r>  0.0001  0.0005  0.0001  0.0002  0.0043  0.0107  0.0007  0.0295  0.0002 </r>
        <r>  0.0003  0.0000  0.0000  0.0000  0.0000  0.0000  0.0000  0.0000  0.0000 </r>
       </set>
       <set comment="band 7">
        <r>  0.0146  0.0004  0.0064  0.0007  0.0031  0.0031  0.1372  0.0223  0.0018 </r>
        <r>  0.0001  0.0197  0.0001  0.0058  0.2672  0.1574  0.0057  0.0864  0.0391 </r>
        <r>  0.0007  0.0000  0.0020  0.0006  0.0031  0.0042  0.0097  0.0022  0.0010 </r>
        <r>  0.0000  0.0031  0.0005  0.0006  0.0469  0.0177  0.0094  0.0261  0.0046 </r>
        <r>  0.0017  0.0000  0.0000  0.0000  0.0000  0.0000  0.0000  0.0000  0.0000 </r>
       </set>
       <set comment="band 8">
        <r>  0.0019  0.0013  0.0006  0.0001  0.0335  0.0019  0.0223  0.0156  0.0000 </r>
        <r>  0.0010  0.0015  0.0007  0.0193  0.0336  0.1417  0.0111  0.0249  0.1668 </r>
        <r>  0.0011  0.0001  0.0133  0.0001  0.0012  0.0016  0.0109  0.0002  0.0031 </r>
        <r>  0.0001  0.0114  0.0000  0.0001  0.2634  0.0026  0.0021  0.1228  0.0004 </r>
        <r>  0.0002  0.0000  0.0000  0.0001  0.0000  0.0000  0.0000  0.0000  0.0000 </r>
       </set>
       <set comment="band 9">
        <r>  0.0012  0.0126  0.0002  0.0058  0.2088  0.0286  0.0001  0.0786  0.0456 </r>
        <r>  0.0011  0.0006  0.0152  0.0017  0.0120  0.0161  0.0041  0.0038  0.0161 </r>
        <r>  0.0003  0.0062  0.0018  0.0032  0.1589  0.0278  0.0022  0.0812  0.0355 </r>
        <r>  0.0008  0.0001  0.0014  0.0009  0.0071  0.0925  0.0160  0.0080  0.0130 </r>
        <r>  0.0049  0.0001  0.0001  0.0000  0.0000  0.0000  0.0000  0.0000  0.0000 </r>
       </set>
       <set comment="band 10">
        <r>  0.0000  0.0016  0.0000  0.0002  0.0333  0.0000  0.0014  0.0087  0.0013 </r>
        <r>  0.0001  0.0000  0.0014  0.0010  0.0000  0.0020  0.0001  0.0038  0.0098 </r>
        <r>  0.0000  0.0029  0.0011  0.0012  0.0632  0.0053  0.0002  0.0021  0.0061 </r>
        <r>  0.0003  0.0088  0.0011  0.0014  0.2648  0.3890  0.0028  0.0952  0.0156 </r>
        <r>  0.0023  0.0005  0.0000  0.0002  0.0000  0.0000  0.0000  0.0000  0.0000 </r>
       </set>
       <set comment="band 11">
        <r>  0.0001  0.0005  0.0000  0.0000  0.0144  0.0034  0.0012  0.0069  0.0002 </r>
        <r>  0.0002  0.0002  0.0004  0.0006  0.0091  0.0193  0.0001  0.0015  0.0076 </r>
        <r>  0.0001  0.0007  0.0018  0.0003  0.0079  0.0002  0.0022  0.0173  0.0044 </r>
        <r>  0.0039  0.0002  0.0004  0.0374  0.0052  0.0267  0.0391  0.1549  0.5425 </r>
        <r>  0.0007  0.0000  0.0001  0.0005  0.0000  0.0000  0.0000  0.0000  0.0000 </r>
       </set>
       <set comment="band 12">
        <r>  0.0002  0.0030  0.0001  0.0001  0.0850  0.0162  0.0068  0.0038  0.0012 </r>
        <r>  0.0001  0.0002  0.0009  0.0015  0.0016  0.0020  0.0123  0.0001  0.0088 </r>
        <r>  0.0009  0.0032  0.0000  0.0142  0.1325  0.1525  0.0207  0.0287  0.2236 </r>
        <r>  0.0006  0.0002  0.0194  0.0005  0.0053  0.0109  0.1184  0.0052  0.0030 </r>
        <r>  0.0385  0.0000  0.0007  0.0000  0.0000  0.0000  0.0000  0.0000  0.0000 </r>
       </set>
       <set comment="band 13">
        <r>  0.0002  0.0072  0.0000  0.0027  0.2532  0.3880  0.0021  0.0457  0.0410 </r>
        <r>  0.0002  0.0012  0.0038  0.0015  0.0247  0.0023  0.0122  0.0057  0.0155 </r>
        <r>  0.0005  0.0000  0.0003  0.0037  0.0000  0.0245  0.0003  0.0020  0.0696 </r>
        <r>  0.0001  0.0000  0.0013  0.0005  0.0005  0.0067  0.0054  0.0000  0.0079 </r>
        <r>  0.0025  0.0000  0.0000  0.0000  0.0000  0.0000  0.0000  0.0000  0.0000 </r>
       </set>
       <set comment="band 14">
        <r>  0.0035  0.0000  0.0001  0.0335  0.0006  0.0074  0.0164  0.3313  0.4940 </r>
        <r>  0.0001  0.0001  0.0000  0.0000  0.0004  0.0011  0.0012  0.0044  0.0002 </r>
        <r>  0.0001  0.0000  0.0001  0.0000  0.0010  0.0075  0.0008  0.0021  0.0005 </r>
        <r>  0.0000  0.0000  0.0002  0.0002  0.0000  0.0007  0.0005  0.0001  0.0037 </r>
        <r>  0.0003  0.0000  0.0000  0.0000  0.0000  0.0000  0.0000  0.0000  0.0000 </r>
       </set>
       <set comment="band 15">
        <r>  0.0000  0.0000  0.0000  0.0005  0.0003  0.0000  0.0037  0.0071  0.0131 </r>
        <r>  0.0001  0.0001  0.0008  0.0006  0.0146  0.0059  0.0104  0.0231  0.0188 </r>
        <r>  0.0004  0.0005  0.0000  0.0012  0.1109  0.0449  0.0070  0.2155  0.0839 </r>
        <r>  0.0003  0.0001  0.0010  0.0012  0.0486  0.1723  0.0025  0.0809  0.0975 </r>
        <r>  0.0020  0.0002  0.0000  0.0000  0.0000  0.0000  0.0000  0.0000  0.0000 </r>
       </set>
       <set comment="band 16">
        <r>  0.0007  0.0000  0.0001  0.0006  0.0017  0.0331  0.0426  0.0053  0.0141 </r>
        <r>  0.0003  0.0005  0.0002  0.0004  0.1606  0.0585  0.0019  0.0927  0.0477 </r>
        <r>  0.0001  0.0001  0.0001  0.0009  0.0195  0.2631  0.0314  0.0399  0.1092 </r>
        <r>  0.0002  0.0000  0.0012  0.0001  0.0097  0.0271  0.0024  0.0047  0.0002 </r>
        <r>  0.0010  0.0000  0.0000  0.0000  0.0000  0.0000  0.0000  0.0000  0.0000 </r>
       </set>
       <set comment="band 17">
        <r>  0.0003  0.0002  0.0001  0.0003  0.0374  0.2763  0.0007  0.0845  0.0348 </r>
        <r>  0.0006  0.0000  0.0000  0.0004  0.0438  0.1603  0.0236  0.0188  0.1792 </r>
        <r>  0.0007  0.0000  0.0006  0.0000  0.0057  0.0256  0.0495  0.0026  0.0052 </r>
        <r>  0.0001  0.0000  0.0001  0.0000  0.0025  0.0021  0.0002  0.0085  0.0091 </r>
        <r>  0.0000  0.0000  0.0000  0.0000  0.0000  0.0000  0.0000  0.0000  0.0000 </r>
       </set>
       <set comment="band 18">
        <r>  0.0002  0.0001  0.0005  0.0000  0.0026  0.0015  0.1974  0.0599  0.0154 </r>
        <r>  0.0001  0.0000  0.0000  0.0000  0.0003  0.1479  0.1441  0.0034  0.0291 </r>
        <r>  0.0001  0.0001  0.0001  0.0003  0.0017  0.0027  0.2636  0.0354  0.0008 </r>
        <r>  0.0000  0.0000  0.0006  0.0000  0.0068  0.0026  0.0008  0.0267  0.0387 </r>
        <r>  0.0006  0.0000  0.0000  0.0000  0.0000  0.0000  0.0000  0.0000  0.0000 </r>
       </set>
       <set comment="band 19">
        <r>  0.0004  0.0000  0.0009  0.0001  0.0077  0.0387  0.3414  0.0008  0.0085 </r>
        <r>  0.0000  0.0000  0.0000  0.0000  0.0277  0.0002  0.0311  0.1589  0.0001 </r>
        <r>  0.0001  0.0001  0.0002  0.0000  0.0000  0.0052  0.2499  0.0115  0.0446 </r>
        <r>  0.0001  0.0000  0.0000  0.0000  0.0095  0.0110  0.0000  0.0141  0.0225 </r>
        <r>  0.0000  0.0000  0.0000  0.0000  0.0000  0.0000  0.0000  0.0000  0.0000 </r>
       </set>
       <set comment="band 20">
        <r>  0.0004  0.0000  0.0005  0.0004  0.0161  0.0313  0.1473  0.0350  0.0854 </r>
        <r>  0.0002  0.0000  0.0001  0.0002  0.0013  0.0144  0.3959  0.0061  0.0977 </r>
        <r>  0.0000  0.0000  0.0000  0.0000  0.0156  0.0374  0.0280  0.0225  0.0403 </r>
        <r>  0.0000  0.0001  0.0000  0.0000  0.0027  0.0088  0.0000  0.0000  0.0008 </r>
        <r>  0.0000  0.0000  0.0000  0.0000  0.0000  0.0000  0.0000  0.0000  0.0000 </r>
       </set>
       <set comment="band 21">
        <r>  0.0000  0.0000  0.0000  0.0000  0.0000  0.0000  0.0000  0.0000  0.0000 </r>
        <r>  0.0000  0.0000  0.0000  0.0001  0.0000  0.0000  0.0000  0.0001  0.0001 </r>
        <r>  0.0003  0.0004  0.0003  0.0001  0.0028  0.0015  0.0011  0.0000  0.0004 </r>
        <r>  0.0957  0.0000  0.0623  0.0080  0.0000  0.0000  0.2594  0.0017  0.0376 </r>
        <r>  0.2593  0.0000  0.0002  0.0002  0.0000  0.0000  0.0000  0.0000  0.0000 </r>
       </set>
       <set comment="band 22">
        <r>  0.0228  0.0002  0.0045  0.0232  0.0003  0.0005  0.0118  0.0074  0.0351 </r>
        <r>  0.0561  0.0002  0.0010  0.0843  0.0003  0.0000  0.0196  0.0014  0.1115 </r>
        <r>  0.0559  0.0003  0.0010  0.0869  0.0005  0.0000  0.0187  0.0010  0.1131 </r>
        <r>  0.0101  0.0002  0.0121  0.0202  0.0003  0.0003  0.0012  0.0068  0.0235 </r>
        <r>  0.0050  0.0000  0.0000  0.0002  0.0000  0.0000  0.0000  0.0000  0.0000 </r>
       </set>
       <set comment="band 23">
        <r>  0.0406  0.0000  0.0015  0.0918  0.0001  0.0000  0.0048  0.0063  0.0838 </r>
        <r>  0.0112  0.0020  0.0203  0.0393  0.0024  0.0005  0.0005  0.0160  0.0326 </r>
        <r>  0.0144  0.0014  0.0169  0.0527  0.0015  0.0007  0.0005  0.0127  0.0434 </r>
        <r>  0.0105  0.0000  0.0153  0.0765  0.0000  0.0000  0.0003  0.0075  0.0555 </r>
        <r>  0.0122  0.0000  0.0000  0.0006  0.0000  0.0000  0.0000  0.0000  0.0000 </r>
       </set>
       <set comment="band 24">
        <r>  0.0017  0.0043  0.0077  0.1006  0.0042  0.0013  0.0030  0.0000  0.0490 </r>
        <r>  0.0030  0.0146  0.0166  0.0427  0.0120  0.0001  0.0056  0.0107  0.0174 </r>
        <r>  0.0044  0.0191  0.0227  0.0304  0.0155  0.0002  0.0052  0.0110  0.0115 </r>
        <r>  0.0031  0.0044  0.0001  0.1250  0.0039  0.0010  0.0129  0.0003  0.0498 </r>
        <r>  0.0067  0.0000  0.0000  0.0015  0.0000  0.0000  0.0000  0.0000  0.0000 </r>
       </set>
       <set comment="band 25">
        <r>  0.0025  0.0444  0.0006  0.0116  0.0350  0.0083  0.0000  0.0004  0.0057 </r>
        <r>  0.0733  0.0303  0.0000  0.0594  0.0234  0.0017  0.0272  0.0010  0.0143 </r>
        <r>  0.0970  0.0171  0.0002  0.0579  0.0130  0.0012  0.0328  0.0002  0.0124 </r>
        <r>  0.0005  0.0491  0.0001  0.0117  0.0357  0.0063  0.0012  0.0001  0.0041 </r>
        <r>  0.0005  0.0005  0.0000  0.0002  0.0000  0.0000  0.0000  0.0000  0.0000 </r>
       </set>
       <set comment="band 26">
        <r>  0.0528  0.0119  0.0029  0.0015  0.0093  0.0018  0.0073  0.0030  0.0030 </r>
        <r>  0.0271  0.0971  0.0279  0.0008  0.0743  0.0009  0.0034  0.0034  0.0015 </r>
        <r>  0.0104  0.1123  0.0340  0.0007  0.0856  0.0008  0.0012  0.0048  0.0009 </r>
        <r>  0.0290  0.0245  0.0145  0.0038  0.0177  0.0025  0.0020  0.0010  0.0035 </r>
        <r>  0.0026  0.0003  0.0000  0.0000  0.0000  0.0000  0.0000  0.0000  0.0000 </r>
       </set>
       <set comment="band 27">
        <r>  0.0617  0.0009  0.0222  0.0509  0.0006  0.0001  0.0172  0.0002  0.0105 </r>
        <r>  0.0010  0.0575  0.0008  0.0375  0.0389  0.0146  0.0011  0.0119  0.0133 </r>
        <r>  0.0093  0.0439  0.0001  0.0281  0.0298  0.0202  0.0000  0.0102  0.0115 </r>
        <r>  0.0549  0.0087  0.0222  0.0504  0.0054  0.0002  0.0138  0.0017  0.0099 </r>
        <r>  0.0000  0.0001  0.0000  0.0012  0.0000  0.0000  0.0000  0.0000  0.0000 </r>
       </set>
       <set comment="band 28">
        <r>  0.0167  0.1122  0.0026  0.0108  0.0720  0.0028  0.0003  0.0056  0.0049 </r>
        <r>  0.1006  0.0007  0.0012  0.0005  0.0004  0.0082  0.0089  0.0122  0.0004 </r>
        <r>  0.0526  0.0020  0.0009  0.0037  0.0014  0.0054  0.0062  0.0222  0.0001 </r>
        <r>  0.0076  0.0997  0.0032  0.0075  0.0595  0.0008  0.0000  0.0020  0.0030 </r>
        <r>  0.0016  0.0014  0.0000  0.0002  0.0000  0.0000  0.0000  0.0000  0.0000 </r>
       </set>
      </set>
     </set>
    </set>
   </array>
  </projected>
 </calculation>
 <structure name="finalpos" >
  <crystal>
   <varray name="basis" >
    <v>       2.57386868       0.00000000       0.00000000 </v>
    <v>       1.28693434       2.22903567       0.00000000 </v>
    <v>       0.00000000       0.00000000      30.30466494 </v>
   </varray>
   <i name="volume">    173.86529028 </i>
   <varray name="rec_basis" >
    <v>       0.38852021      -0.22431225       0.00000000 </v>
    <v>       0.00000000       0.44862450       0.00000000 </v>
    <v>       0.00000000       0.00000000       0.03299822 </v>
   </varray>
  </crystal>
  <varray name="positions" >
   <v>       0.00000000       0.00000000       0.39881502 </v>
   <v>       0.33333333       0.33333333       0.46725011 </v>
   <v>       0.66666667       0.66666667       0.53604203 </v>
   <v>       0.00000000       0.00000000       0.60568418 </v>
   <v>       0.00000000       0.00000000       0.65562682 </v>
  </varray>
 </structure>
</modeling>
