  20  20   0   0
  0.1957362E+02  0.3905268E-09  0.3905268E-09  0.2566844E-08  0.5000000E-15
  1.000000000000000E-004
  CAR 
 unknown system                          
      9.81633954    -35.85873954  301      0.60519859      1.00000000
    -35.859  0.0000E+00  0.0000E+00
    -35.706  0.0000E+00  0.0000E+00
    -35.554  0.0000E+00  0.0000E+00
    -35.402  0.0000E+00  0.0000E+00
    -35.250  0.0000E+00  0.0000E+00
    -35.097  0.0000E+00  0.0000E+00
    -34.945  0.0000E+00  0.0000E+00
    -34.793  0.0000E+00  0.0000E+00
    -34.641  0.0000E+00  0.0000E+00
    -34.488  0.0000E+00  0.0000E+00
    -34.336  0.0000E+00  0.0000E+00
    -34.184  0.0000E+00  0.0000E+00
    -34.032  0.0000E+00  0.0000E+00
    -33.879  0.0000E+00  0.0000E+00
    -33.727  0.0000E+00  0.2000E+01
    -33.575  0.0000E+00  0.2000E+01
    -33.423  0.0000E+00  0.2000E+01
    -33.270  0.0000E+00  0.2000E+01
    -33.118  0.0000E+00  0.2000E+01
    -32.966  0.0000E+00  0.2000E+01
    -32.814  0.0000E+00  0.2000E+01
    -32.661  0.1119E+01  0.6000E+01
    -32.509  0.0000E+00  0.8000E+01
    -32.357  0.0000E+00  0.8000E+01
    -32.205  0.0000E+00  0.8000E+01
    -32.052  0.0000E+00  0.8000E+01
    -31.900  0.0000E+00  0.8000E+01
    -31.748  0.0000E+00  0.8000E+01
    -31.596  0.0000E+00  0.8000E+01
    -31.443  0.0000E+00  0.8000E+01
    -31.291  0.0000E+00  0.8000E+01
    -31.139  0.0000E+00  0.8000E+01
    -30.987  0.0000E+00  0.8000E+01
    -30.834  0.0000E+00  0.8000E+01
    -30.682  0.0000E+00  0.8000E+01
    -30.530  0.0000E+00  0.8000E+01
    -30.378  0.0000E+00  0.8000E+01
    -30.225  0.0000E+00  0.8000E+01
    -30.073  0.0000E+00  0.8000E+01
    -29.921  0.0000E+00  0.8000E+01
    -29.769  0.0000E+00  0.8000E+01
    -29.616  0.0000E+00  0.8000E+01
    -29.464  0.0000E+00  0.8000E+01
    -29.312  0.0000E+00  0.8000E+01
    -29.160  0.0000E+00  0.8000E+01
    -29.007  0.0000E+00  0.8000E+01
    -28.855  0.0000E+00  0.8000E+01
    -28.703  0.0000E+00  0.8000E+01
    -28.551  0.0000E+00  0.8000E+01
    -28.398  0.0000E+00  0.8000E+01
    -28.246  0.0000E+00  0.8000E+01
    -28.094  0.0000E+00  0.8000E+01
    -27.942  0.0000E+00  0.8000E+01
    -27.789  0.0000E+00  0.8000E+01
    -27.637  0.0000E+00  0.8000E+01
    -27.485  0.0000E+00  0.8000E+01
    -27.333  0.0000E+00  0.8000E+01
    -27.180  0.0000E+00  0.8000E+01
    -27.028  0.0000E+00  0.8000E+01
    -26.876  0.0000E+00  0.8000E+01
    -26.724  0.0000E+00  0.8000E+01
    -26.571  0.0000E+00  0.8000E+01
    -26.419  0.0000E+00  0.8000E+01
    -26.267  0.0000E+00  0.8000E+01
    -26.115  0.0000E+00  0.8000E+01
    -25.962  0.0000E+00  0.8000E+01
    -25.810  0.0000E+00  0.8000E+01
    -25.658  0.0000E+00  0.8000E+01
    -25.506  0.0000E+00  0.8000E+01
    -25.353  0.0000E+00  0.8000E+01
    -25.201  0.0000E+00  0.8000E+01
    -25.049  0.0000E+00  0.8000E+01
    -24.897  0.0000E+00  0.8000E+01
    -24.744  0.0000E+00  0.8000E+01
    -24.592  0.0000E+00  0.8000E+01
    -24.440  0.0000E+00  0.8000E+01
    -24.288  0.0000E+00  0.8000E+01
    -24.135  0.0000E+00  0.8000E+01
    -23.983  0.0000E+00  0.8000E+01
    -23.831  0.0000E+00  0.8000E+01
    -23.679  0.0000E+00  0.8000E+01
    -23.526  0.0000E+00  0.8000E+01
    -23.374  0.0000E+00  0.8000E+01
    -23.222  0.0000E+00  0.8000E+01
    -23.070  0.0000E+00  0.8000E+01
    -22.917  0.0000E+00  0.8000E+01
    -22.765  0.0000E+00  0.8000E+01
    -22.613  0.0000E+00  0.8000E+01
    -22.461  0.0000E+00  0.8000E+01
    -22.308  0.0000E+00  0.8000E+01
    -22.156  0.0000E+00  0.8000E+01
    -22.004  0.0000E+00  0.8000E+01
    -21.852  0.0000E+00  0.8000E+01
    -21.699  0.0000E+00  0.8000E+01
    -21.547  0.0000E+00  0.8000E+01
    -21.395  0.0000E+00  0.8000E+01
    -21.243  0.0000E+00  0.8000E+01
    -21.090  0.0000E+00  0.8000E+01
    -20.938  0.0000E+00  0.8000E+01
    -20.786  0.0000E+00  0.8000E+01
    -20.634  0.0000E+00  0.8000E+01
    -20.481  0.0000E+00  0.8000E+01
    -20.329  0.0000E+00  0.8000E+01
    -20.177  0.0000E+00  0.8000E+01
    -20.025  0.0000E+00  0.8000E+01
    -19.872  0.0000E+00  0.8000E+01
    -19.720  0.0000E+00  0.8000E+01
    -19.568  0.0000E+00  0.8000E+01
    -19.416  0.0000E+00  0.8000E+01
    -19.263  0.0000E+00  0.8000E+01
    -19.111  0.0000E+00  0.8000E+01
    -18.959  0.0000E+00  0.8000E+01
    -18.807  0.0000E+00  0.8000E+01
    -18.654  0.0000E+00  0.8000E+01
    -18.502  0.0000E+00  0.8000E+01
    -18.350  0.0000E+00  0.8000E+01
    -18.198  0.0000E+00  0.8000E+01
    -18.045  0.0000E+00  0.8000E+01
    -17.893  0.0000E+00  0.8000E+01
    -17.741  0.0000E+00  0.8000E+01
    -17.589  0.1271E+02  0.8682E+01
    -17.436  0.1341E+02  0.1028E+02
    -17.284  0.6932E+01  0.1173E+02
    -17.132  0.6407E+01  0.1281E+02
    -16.980  0.7279E+01  0.1409E+02
    -16.827  0.4206E+01  0.1521E+02
    -16.675  0.1610E+02  0.1633E+02
    -16.523  0.2085E+02  0.2111E+02
    -16.371  0.4161E+01  0.2634E+02
    -16.218  0.2187E+02  0.2742E+02
    -16.066  0.7322E+01  0.2934E+02
    -15.914  0.5564E+02  0.3085E+02
    -15.762  0.9226E+01  0.3293E+02
    -15.609  0.1627E+02  0.3584E+02
    -15.457  0.2422E+00  0.3602E+02
    -15.305  0.1232E+01  0.3617E+02
    -15.153  0.2280E+01  0.3644E+02
    -15.000  0.5349E+01  0.3702E+02
    -14.848  0.3379E+02  0.3919E+02
    -14.696  0.4476E+02  0.4463E+02
    -14.544  0.3087E+02  0.4932E+02
    -14.391  0.1768E+02  0.5442E+02
    -14.239  0.0000E+00  0.5600E+02
    -14.087  0.0000E+00  0.5600E+02
    -13.935  0.0000E+00  0.5600E+02
    -13.782  0.0000E+00  0.5600E+02
    -13.630  0.0000E+00  0.5600E+02
    -13.478  0.0000E+00  0.5600E+02
    -13.326  0.0000E+00  0.5600E+02
    -13.173  0.0000E+00  0.5600E+02
    -13.021  0.0000E+00  0.5600E+02
    -12.869  0.0000E+00  0.5600E+02
    -12.717  0.0000E+00  0.5600E+02
    -12.564  0.0000E+00  0.5600E+02
    -12.412  0.0000E+00  0.5600E+02
    -12.260  0.0000E+00  0.5600E+02
    -12.108  0.0000E+00  0.5600E+02
    -11.955  0.0000E+00  0.5600E+02
    -11.803  0.0000E+00  0.5600E+02
    -11.651  0.0000E+00  0.5600E+02
    -11.499  0.0000E+00  0.5600E+02
    -11.346  0.0000E+00  0.5600E+02
    -11.194  0.0000E+00  0.5600E+02
    -11.042  0.0000E+00  0.5600E+02
    -10.890  0.0000E+00  0.5600E+02
    -10.737  0.0000E+00  0.5600E+02
    -10.585  0.0000E+00  0.5600E+02
    -10.433  0.0000E+00  0.5600E+02
    -10.281  0.0000E+00  0.5600E+02
    -10.128  0.0000E+00  0.5600E+02
     -9.976  0.0000E+00  0.5600E+02
     -9.824  0.0000E+00  0.5600E+02
     -9.672  0.0000E+00  0.5600E+02
     -9.519  0.0000E+00  0.5600E+02
     -9.367  0.0000E+00  0.5600E+02
     -9.215  0.0000E+00  0.5600E+02
     -9.063  0.0000E+00  0.5600E+02
     -8.910  0.0000E+00  0.5600E+02
     -8.758  0.0000E+00  0.5600E+02
     -8.606  0.0000E+00  0.5600E+02
     -8.454  0.0000E+00  0.5600E+02
     -8.301  0.0000E+00  0.5600E+02
     -8.149  0.0000E+00  0.5600E+02
     -7.997  0.0000E+00  0.5600E+02
     -7.845  0.0000E+00  0.5600E+02
     -7.692  0.0000E+00  0.5600E+02
     -7.540  0.0000E+00  0.5600E+02
     -7.388  0.0000E+00  0.5600E+02
     -7.236  0.0000E+00  0.5600E+02
     -7.083  0.0000E+00  0.5600E+02
     -6.931  0.0000E+00  0.5600E+02
     -6.779  0.0000E+00  0.5600E+02
     -6.627  0.0000E+00  0.5600E+02
     -6.474  0.0000E+00  0.5600E+02
     -6.322  0.0000E+00  0.5600E+02
     -6.170  0.0000E+00  0.5600E+02
     -6.018  0.0000E+00  0.5600E+02
     -5.865  0.0000E+00  0.5600E+02
     -5.713  0.0000E+00  0.5600E+02
     -5.561  0.0000E+00  0.5600E+02
     -5.409  0.0000E+00  0.5600E+02
     -5.256  0.0000E+00  0.5600E+02
     -5.104  0.0000E+00  0.5600E+02
     -4.952  0.0000E+00  0.5600E+02
     -4.800  0.0000E+00  0.5600E+02
     -4.647  0.0000E+00  0.5600E+02
     -4.495  0.8101E+01  0.5673E+02
     -4.343  0.1263E+02  0.5861E+02
     -4.191  0.1264E+02  0.6109E+02
     -4.038  0.1822E+02  0.6367E+02
     -3.886  0.1244E+02  0.6604E+02
     -3.734  0.1555E+02  0.6825E+02
     -3.582  0.1519E+02  0.7077E+02
     -3.429  0.1799E+02  0.7362E+02
     -3.277  0.2079E+02  0.7663E+02
     -3.125  0.2645E+02  0.8019E+02
     -2.973  0.2347E+02  0.8418E+02
     -2.820  0.1414E+02  0.8698E+02
     -2.668  0.1266E+02  0.8906E+02
     -2.516  0.1218E+02  0.9116E+02
     -2.364  0.1250E+02  0.9301E+02
     -2.211  0.1276E+02  0.9502E+02
     -2.059  0.1081E+02  0.9674E+02
     -1.907  0.1520E+02  0.9822E+02
     -1.755  0.7757E+01  0.9977E+02
     -1.602  0.1168E+02  0.1018E+03
     -1.450  0.1566E+02  0.1038E+03
     -1.298  0.2456E+02  0.1072E+03
     -1.146  0.1457E+02  0.1101E+03
     -0.993  0.2764E+02  0.1138E+03
     -0.841  0.1745E+02  0.1170E+03
     -0.689  0.1649E+02  0.1195E+03
     -0.537  0.1511E+02  0.1226E+03
     -0.384  0.1161E+02  0.1248E+03
     -0.232  0.5665E+01  0.1266E+03
     -0.080  0.1437E+01  0.1274E+03
      0.072  0.1137E+01  0.1275E+03
      0.225  0.1011E+01  0.1277E+03
      0.377  0.7633E+00  0.1278E+03
      0.529  0.5152E+00  0.1279E+03
      0.681  0.0000E+00  0.1280E+03
      0.834  0.0000E+00  0.1280E+03
      0.986  0.0000E+00  0.1280E+03
      1.138  0.0000E+00  0.1280E+03
      1.290  0.0000E+00  0.1280E+03
      1.443  0.0000E+00  0.1280E+03
      1.595  0.0000E+00  0.1280E+03
      1.747  0.1071E+01  0.1281E+03
      1.899  0.3529E+01  0.1285E+03
      2.052  0.4435E+01  0.1291E+03
      2.204  0.3971E+01  0.1297E+03
      2.356  0.6116E+01  0.1304E+03
      2.508  0.7414E+01  0.1315E+03
      2.661  0.6787E+01  0.1326E+03
      2.813  0.7300E+01  0.1336E+03
      2.965  0.1071E+02  0.1351E+03
      3.117  0.1056E+02  0.1367E+03
      3.270  0.1199E+02  0.1384E+03
      3.422  0.2494E+02  0.1407E+03
      3.574  0.1441E+02  0.1434E+03
      3.726  0.1623E+02  0.1459E+03
      3.879  0.8075E+01  0.1476E+03
      4.031  0.2986E+01  0.1485E+03
      4.183  0.6828E+00  0.1488E+03
      4.335  0.6814E+00  0.1489E+03
      4.488  0.6800E+00  0.1491E+03
      4.640  0.6786E+00  0.1492E+03
      4.792  0.6772E+00  0.1493E+03
      4.944  0.6758E+00  0.1494E+03
      5.097  0.6744E+00  0.1495E+03
      5.249  0.7163E+00  0.1496E+03
      5.401  0.7670E+00  0.1497E+03
      5.553  0.8178E+00  0.1498E+03
      5.706  0.9279E+00  0.1499E+03
      5.858  0.9823E+00  0.1501E+03
      6.010  0.1097E+01  0.1503E+03
      6.162  0.9933E+00  0.1504E+03
      6.315  0.1441E+01  0.1506E+03
      6.467  0.7810E+00  0.1507E+03
      6.619  0.5680E+00  0.1508E+03
      6.771  0.3636E+00  0.1509E+03
      6.924  0.3031E+00  0.1509E+03
      7.076  0.3229E+00  0.1510E+03
      7.228  0.3428E+00  0.1510E+03
      7.380  0.3642E+00  0.1511E+03
      7.533  0.9789E+00  0.1512E+03
      7.685  0.4159E+01  0.1518E+03
      7.837  0.0000E+00  0.1520E+03
      7.989  0.0000E+00  0.1520E+03
      8.142  0.0000E+00  0.1520E+03
      8.294  0.0000E+00  0.1520E+03
      8.446  0.0000E+00  0.1520E+03
      8.598  0.0000E+00  0.1520E+03
      8.751  0.0000E+00  0.1520E+03
      8.903  0.0000E+00  0.1520E+03
      9.055  0.0000E+00  0.1520E+03
      9.207  0.0000E+00  0.1520E+03
      9.360  0.0000E+00  0.1520E+03
      9.512  0.0000E+00  0.1520E+03
      9.664  0.0000E+00  0.1520E+03
      9.816  0.0000E+00  0.1520E+03
