       N       E                     dE             d eps       ncg     rms          rms(c)
DAV:   1     0.182280130049E+04    0.18228E+04   -0.63800E+04  1528   0.185E+03
DAV:   2     0.258741848613E+03   -0.15641E+04   -0.14788E+04  1700   0.440E+02
DAV:   3    -0.163334839795E+03   -0.42208E+03   -0.40834E+03  1976   0.214E+02
DAV:   4    -0.199961200956E+03   -0.36626E+02   -0.36482E+02  2016   0.677E+01
DAV:   5    -0.201725286003E+03   -0.17641E+01   -0.17629E+01  2424   0.161E+01    0.372E+01
RMM:   6    -0.161250474064E+03    0.40475E+02   -0.28341E+02  1687   0.509E+01    0.137E+01
RMM:   7    -0.157729440705E+03    0.35210E+01   -0.12742E+01  1861   0.136E+01    0.702E+00
RMM:   8    -0.157010760115E+03    0.71868E+00   -0.31984E+00  2038   0.613E+00    0.319E+00
RMM:   9    -0.156802422242E+03    0.20834E+00   -0.13279E+00  2133   0.410E+00    0.978E-01
RMM:  10    -0.156762990377E+03    0.39432E-01   -0.24271E-01  2462   0.136E+00    0.599E-01
RMM:  11    -0.156741147236E+03    0.21843E-01   -0.15988E-01  2337   0.102E+00    0.411E-01
RMM:  12    -0.156728550784E+03    0.12596E-01   -0.53594E-02  2472   0.566E-01    0.315E-01
RMM:  13    -0.156723216358E+03    0.53344E-02   -0.21393E-02  2600   0.376E-01    0.171E-01
RMM:  14    -0.156718803790E+03    0.44126E-02   -0.22058E-02  2241   0.404E-01    0.140E-01
RMM:  15    -0.156718182111E+03    0.62168E-03   -0.58049E-03  2588   0.174E-01    0.843E-02
RMM:  16    -0.156719391719E+03   -0.12096E-02   -0.74337E-03  2297   0.208E-01    0.115E-01
RMM:  17    -0.156719822796E+03   -0.43108E-03   -0.29143E-03  2196   0.151E-01    0.313E-02
RMM:  18    -0.156720624662E+03   -0.80187E-03   -0.74189E-04  2237   0.671E-02    0.191E-02
RMM:  19    -0.156722116274E+03   -0.14916E-02   -0.53664E-04  2056   0.444E-02    0.988E-03
RMM:  20    -0.156722666722E+03   -0.55045E-03   -0.23987E-04  1736   0.286E-02    0.770E-03
RMM:  21    -0.156722953133E+03   -0.28641E-03   -0.14386E-04  1692   0.226E-02    0.500E-03
RMM:  22    -0.156723009246E+03   -0.56113E-04   -0.43191E-05  1379   0.146E-02    0.287E-03
RMM:  23    -0.156723030539E+03   -0.21293E-04   -0.26940E-05  1295   0.132E-02    0.185E-03
RMM:  24    -0.156723037332E+03   -0.67935E-05   -0.11435E-05  1141   0.106E-02
   1 F= -.15672304E+03 E0= -.15672304E+03  d E =0.000000E+00
