 vasp.5.4.4.18Apr17-6-g9f103f2a35 (build Jun 30 2017 11:15:00) complex          
  
 executed on    STALLO_VASP_5.4.4 date 2019.11.06  13:22:58
 running on    4 total cores
 distrk:  each k-point on    4 cores,    1 groups
 distr:  one band on NCORES_PER_BAND=   2 cores,    2 groups


--------------------------------------------------------------------------------------------------------


 INCAR:
 POTCAR:   PAW_PBE O 08Apr2002                    
 POTCAR:   PAW_PBE Sr_sv 07Sep2000                
 POTCAR:   PAW_PBE Ti 08Apr2002                   
 POTCAR:   PAW_PBE O 08Apr2002                    
   VRHFIN =O: s2p4                                                              
   LEXCH  = PE                                                                  
   EATOM  =   432.3788 eV,   31.7789 Ry                                         
                                                                                
   TITEL  = PAW_PBE O 08Apr2002                                                 
   LULTRA =        F    use ultrasoft PP ?                                      
   IUNSCR =        0    unscreen: 0-lin 1-nonlin 2-no                           
   RPACOR =     .000    partial core radius                                     
   POMASS =   16.000; ZVAL   =    6.000    mass and valenz                      
   RCORE  =    1.520    outmost cutoff radius                                   
   RWIGS  =    1.550; RWIGS  =     .820    wigner-seitz radius (au A)           
   ENMAX  =  400.000; ENMIN  =  300.000 eV                                      
   ICORE  =        2    local potential                                         
   LCOR   =        T    correct aug charges                                     
   LPAW   =        T    paw PP                                                  
   EAUG   =  605.392                                                            
   DEXC   =     .000                                                            
   RMAX   =    2.264    core radius for proj-oper                               
   RAUG   =    1.300    factor for augmentation sphere                          
   RDEP   =    1.550    radius for radial grids                                 
   QCUT   =   -5.520; QGAM   =   11.041    optimization parameters              
                                                                                
   Description                                                                  
     l     E      TYP  RCUT    TYP  RCUT                                        
     0   .000     23  1.200                                                     
     0  -.700     23  1.200                                                     
     1   .000     23  1.520                                                     
     1   .600     23  1.520                                                     
     2   .000      7  1.500                                                     
  local pseudopotential read in
  atomic valenz-charges read in
  non local Contribution for L=           0  read in
    real space projection operators read in
  non local Contribution for L=           0  read in
    real space projection operators read in
  non local Contribution for L=           1  read in
    real space projection operators read in
  non local Contribution for L=           1  read in
    real space projection operators read in
    PAW grid and wavefunctions read in
 
   number of l-projection  operators is LMAX  =           4
   number of lm-projection operators is LMMAX =           8
 
 POTCAR:   PAW_PBE Sr_sv 07Sep2000                
   VRHFIN =Sr: 4s4p5s                                                           
   LEXCH  = PE                                                                  
   EATOM  =   842.4562 eV,   61.9188 Ry                                         
                                                                                
   TITEL  = PAW_PBE Sr_sv 07Sep2000                                             
   LULTRA =        F    use ultrasoft PP ?                                      
   IUNSCR =        1    unscreen: 0-lin 1-nonlin 2-no                           
   RPACOR =    2.200    partial core radius                                     
   POMASS =   87.620; ZVAL   =   10.000    mass and valenz                      
   RCORE  =    2.500    outmost cutoff radius                                   
   RWIGS  =    4.040; RWIGS  =    2.138    wigner-seitz radius (au A)           
   ENMAX  =  229.282; ENMIN  =  171.961 eV                                      
   RCLOC  =    2.201    cutoff for local pot                                    
   LCOR   =        T    correct aug charges                                     
   LPAW   =        T    paw PP                                                  
   EAUG   =  366.804                                                            
   DEXC   =     .000                                                            
   RMAX   =    3.045    core radius for proj-oper                               
   RAUG   =    1.300    factor for augmentation sphere                          
   RDEP   =    2.562    radius for radial grids                                 
   QCUT   =   -4.105; QGAM   =    8.210    optimization parameters              
                                                                                
   Description                                                                  
     l     E      TYP  RCUT    TYP  RCUT                                        
     0   .000     23  2.480                                                     
     0   .000     23  2.480                                                     
     1   .000     23  2.500                                                     
     1   .000     23  2.500                                                     
     2   .000     23  2.500                                                     
     2   .000     23  2.500                                                     
  local pseudopotential read in
  partial core-charges read in
  atomic valenz-charges read in
  non local Contribution for L=           0  read in
    real space projection operators read in
  non local Contribution for L=           0  read in
    real space projection operators read in
  non local Contribution for L=           1  read in
    real space projection operators read in
  non local Contribution for L=           1  read in
    real space projection operators read in
  non local Contribution for L=           2  read in
    real space projection operators read in
  non local Contribution for L=           2  read in
    real space projection operators read in
    PAW grid and wavefunctions read in
 
   number of l-projection  operators is LMAX  =           6
   number of lm-projection operators is LMMAX =          18
 
 POTCAR:   PAW_PBE Ti 08Apr2002                   
   VRHFIN =Ti: d3 s1                                                            
   LEXCH  = PE                                                                  
   EATOM  =    94.7929 eV,    6.9671 Ry                                         
                                                                                
   TITEL  = PAW_PBE Ti 08Apr2002                                                
   LULTRA =        F    use ultrasoft PP ?                                      
   IUNSCR =        1    unscreen: 0-lin 1-nonlin 2-no                           
   RPACOR =    2.200    partial core radius                                     
   POMASS =   47.880; ZVAL   =    4.000    mass and valenz                      
   RCORE  =    2.800    outmost cutoff radius                                   
   RWIGS  =    2.500; RWIGS  =    1.323    wigner-seitz radius (au A)           
   ENMAX  =  178.330; ENMIN  =  133.747 eV                                      
   RCLOC  =    2.215    cutoff for local pot                                    
   LCOR   =        T    correct aug charges                                     
   LPAW   =        T    paw PP                                                  
   EAUG   =  328.883                                                            
   DEXC   =    -.043                                                            
   RMAX   =    3.453    core radius for proj-oper                               
   RAUG   =    1.300    factor for augmentation sphere                          
   RDEP   =    2.885    radius for radial grids                                 
   QCUT   =   -3.620; QGAM   =    7.241    optimization parameters              
                                                                                
   Description                                                                  
     l     E      TYP  RCUT    TYP  RCUT                                        
     2   .000     23  2.800                                                     
     2   .000     23  2.800                                                     
     0   .000     23  2.800                                                     
     0  1.500     23  2.800                                                     
     1  -.400     23  2.800                                                     
     3   .000      7   .000                                                     
  local pseudopotential read in
  partial core-charges read in
  atomic valenz-charges read in
  non local Contribution for L=           2  read in
    real space projection operators read in
  non local Contribution for L=           2  read in
    real space projection operators read in
  non local Contribution for L=           0  read in
    real space projection operators read in
  non local Contribution for L=           0  read in
    real space projection operators read in
  non local Contribution for L=           1  read in
    real space projection operators read in
    PAW grid and wavefunctions read in
 
   number of l-projection  operators is LMAX  =           5
   number of lm-projection operators is LMMAX =          15
 

 ----------------------------------------------------------------------------- 
|                                                                             |
|  ADVICE TO THIS USER RUNNING 'VASP/VAMP'   (HEAR YOUR MASTER'S VOICE ...):  |
|                                                                             |
|      You have a (more or less) 'large supercell' and for larger cells       |
|      it might be more efficient to use real space projection operators      |
|      So try LREAL= Auto  in the INCAR   file.                               |
|      Mind: If you want to do a very accurate calculations keep the          |
|      reciprocal projection scheme          (i.e. LREAL=.FALSE.)             |
|                                                                             |
 ----------------------------------------------------------------------------- 

 PAW_PBE O 08Apr2002                    :
 energy of atom  1       EATOM= -432.3788
 kinetic energy error for atom=    0.0129 (will be added to EATOM!!)
 PAW_PBE Sr_sv 07Sep2000                :
 energy of atom  2       EATOM= -842.4562
 kinetic energy error for atom=    0.0005 (will be added to EATOM!!)
 PAW_PBE Ti 08Apr2002                   :
 energy of atom  3       EATOM=  -94.7929
 kinetic energy error for atom=    0.0001 (will be added to EATOM!!)
 
 
 POSCAR:  O Sr Ti                                
  positions in direct lattice
  No initial velocities read in
 exchange correlation table for  LEXCH =        8
   RHO(1)=    0.500       N(1)  =     2000
   RHO(2)=  100.500       N(2)  =     4000
 


--------------------------------------------------------------------------------------------------------


 ion  position               nearest neighbor table
   1  0.500  0.500  0.234-  17 1.95  13 2.76  13 2.76  13 2.76  13 2.76
   2  0.500  0.000  0.310-  17 1.95  17 1.95  13 2.76  14 2.76  13 2.76  14 2.76
   3  0.000  0.500  0.310-  17 1.95  17 1.95  13 2.76  13 2.76  14 2.76  14 2.76
   4  0.500  0.500  0.386-  17 1.95  18 1.95  14 2.76  14 2.76  14 2.76  14 2.76
   5  0.500  0.000  0.462-  18 1.95  18 1.95  15 2.76  15 2.76  14 2.76  14 2.76
   6  0.000  0.500  0.462-  18 1.95  18 1.95  15 2.76  15 2.76  14 2.76  14 2.76
   7  0.500  0.500  0.538-  18 1.95  19 1.95  15 2.76  15 2.76  15 2.76  15 2.76
   8  0.500  0.000  0.614-  19 1.95  19 1.95  16 2.76  16 2.76  15 2.76  15 2.76
   9  0.000  0.500  0.614-  19 1.95  19 1.95  16 2.76  16 2.76  15 2.76  15 2.76
  10  0.500  0.500  0.690-  19 1.95  20 1.95  16 2.76  16 2.76  16 2.76  16 2.76
  11  0.500  0.000  0.766-  20 1.95  20 1.95  16 2.76  16 2.76
  12  0.000  0.500  0.766-  20 1.95  20 1.95  16 2.76  16 2.76
  13  0.000  0.000  0.234-   2 2.76   3 2.76   3 2.76   2 2.76   1 2.76   1 2.76   1 2.76   1 2.76
                            17 3.38  17 3.38  17 3.38  17 3.38  14 3.91
  14  0.000  0.000  0.386-   2 2.76   3 2.76   3 2.76   2 2.76   4 2.76   4 2.76   4 2.76   4 2.76
                             5 2.76   6 2.76   5 2.76   6 2.76  17 3.38  17 3.38  17 3.38  17 3.38
  15  0.000  0.000  0.538-   5 2.76   6 2.76   6 2.76   5 2.76   7 2.76   7 2.76   7 2.76   7 2.76
                             8 2.76   9 2.76   8 2.76   9 2.76  18 3.38  18 3.38  18 3.38  18 3.38
  16  0.000  0.000  0.690-   8 2.76   9 2.76  11 2.76  12 2.76   9 2.76  12 2.76   8 2.76  11 2.76
                            10 2.76  10 2.76  10 2.76  10 2.76  20 3.38  19 3.38  19 3.38  19 3.38
  17  0.500  0.500  0.310-   1 1.95   4 1.95   3 1.95   2 1.95   2 1.95   3 1.95  13 3.38  13 3.38
                            14 3.38  14 3.38  13 3.38  14 3.38  13 3.38  14 3.38
  18  0.500  0.500  0.462-   7 1.95   6 1.95   5 1.95   5 1.95   6 1.95   4 1.95  15 3.38  15 3.38
                            15 3.38  15 3.38  14 3.38  14 3.38  14 3.38  14 3.38
  19  0.500  0.500  0.614-  10 1.95   9 1.95   8 1.95   8 1.95   9 1.95   7 1.95  16 3.38  16 3.38
                            16 3.38  16 3.38  15 3.38  15 3.38  15 3.38  15 3.38
  20  0.500  0.500  0.766-  10 1.95  11 1.95  12 1.95  11 1.95  12 1.95  16 3.38  16 3.38  16 3.38
                            16 3.38
 
  LATTYP: Found a simple tetragonal cell.
 ALAT       =     3.9052680000
 C/A-ratio  =     6.5727724704
  
  Lattice vectors:
  
 A1 = (   3.9052680000,   0.0000000000,   0.0000000000)
 A2 = (   0.0000000000,   3.9052680000,   0.0000000000)
 A3 = (   0.0000000000,   0.0000000000,  25.6684380000)


Analysis of symmetry for initial positions (statically):
=====================================================================
 Subroutine PRICEL returns:
 Original cell was already a primitive cell.
 

 Routine SETGRP: Setting up the symmetry group for a 
 simple tetragonal supercell.


 Subroutine GETGRP returns: Found  8 space group operations
 (whereof  8 operations were pure point group operations)
 out of a pool of 16 trial point group operations.


The static configuration has the point symmetry C_4v.


Analysis of symmetry for dynamics (positions and initial velocities):
=====================================================================
 Subroutine PRICEL returns:
 Original cell was already a primitive cell.
 

 Routine SETGRP: Setting up the symmetry group for a 
 simple tetragonal supercell.


 Subroutine GETGRP returns: Found  8 space group operations
 (whereof  8 operations were pure point group operations)
 out of a pool of 16 trial point group operations.


The dynamic configuration has the point symmetry C_4v.


 Subroutine INISYM returns: Found  8 space group operations
 (whereof  8 operations are pure point group operations),
 and found     1 'primitive' translations

 
 
 KPOINTS: k-density: 4.0                          

Automatic generation of k-mesh.
Space group operators:
 irot       det(A)        alpha          n_x          n_y          n_z        tau_x        tau_y        tau_z
    1     1.000000     0.000000     1.000000     0.000000     0.000000     0.000000     0.000000     0.000000
    2     1.000000    90.000000     0.000000     0.000000    -1.000000     0.000000     0.000000     0.000000
    3     1.000000   180.000000     0.000000     0.000000     1.000000     0.000000     0.000000     0.000000
    4     1.000000    90.000000     0.000000     0.000000     1.000000     0.000000     0.000000     0.000000
    5    -1.000000   180.000000     0.000000     1.000000     0.000000     0.000000     0.000000     0.000000
    6    -1.000000   180.000000     0.707107     0.707107     0.000000     0.000000     0.000000     0.000000
    7    -1.000000   180.000000     1.000000     0.000000     0.000000     0.000000     0.000000     0.000000
    8    -1.000000   180.000000     0.707107    -0.707107     0.000000     0.000000     0.000000     0.000000
 
 Subroutine IBZKPT returns following result:
 ===========================================
 
 Found     10 irreducible k-points:
 
 Following reciprocal coordinates:
            Coordinates               Weight
  0.000000  0.000000  0.000000      1.000000
  0.142857  0.000000  0.000000      4.000000
  0.285714  0.000000  0.000000      4.000000
  0.428571  0.000000  0.000000      4.000000
  0.142857  0.142857  0.000000      4.000000
  0.285714  0.142857  0.000000      8.000000
  0.428571  0.142857  0.000000      8.000000
  0.285714  0.285714  0.000000      4.000000
  0.428571  0.285714  0.000000      8.000000
  0.428571  0.428571  0.000000      4.000000
 
 Following cartesian coordinates:
            Coordinates               Weight
  0.000000  0.000000  0.000000      1.000000
  0.036581  0.000000  0.000000      4.000000
  0.073161  0.000000  0.000000      4.000000
  0.109742  0.000000  0.000000      4.000000
  0.036581  0.036581  0.000000      4.000000
  0.073161  0.036581  0.000000      8.000000
  0.109742  0.036581  0.000000      8.000000
  0.073161  0.073161  0.000000      4.000000
  0.109742  0.073161  0.000000      8.000000
  0.109742  0.109742  0.000000      4.000000
 
 TETIRR: Found     65 inequivalent tetrahedra from      294


--------------------------------------------------------------------------------------------------------




 Dimension of arrays:
   k-points           NKPTS =     10   k-points in BZ     NKDIM =     10   number of bands    NBANDS=     76
   number of dos      NEDOS =    301   number of ions     NIONS =     20
   non local maximal  LDIM  =      6   non local SUM 2l+1 LMDIM =     18
   total plane-waves  NPLWV =  92160
   max r-space proj   IRMAX =      1   max aug-charges    IRDMAX=  16457
   dimension x,y,z NGX =    24 NGY =   24 NGZ =  160
   dimension x,y,z NGXF=    48 NGYF=   48 NGZF=  320
   support grid    NGXF=    48 NGYF=   48 NGZF=  320
   ions per type =              12   4   4
   NGX,Y,Z   is equivalent  to a cutoff of  10.22, 10.22, 10.36 a.u.
   NGXF,Y,Z  is equivalent  to a cutoff of  20.43, 20.43, 20.73 a.u.

 SYSTEM =  unknown system                          
 POSCAR =   O Sr Ti                                

 Startparameter for this run:
   NWRITE =      2    write-flag & timer
   PREC   = normal    normal or accurate (medium, high low for compatibility)
   ISTART =      0    job   : 0-new  1-cont  2-samecut
   ICHARG =      2    charge: 1-file 2-atom 10-const
   ISPIN  =      1    spin polarized calculation?
   LNONCOLLINEAR =      F non collinear calculations
   LSORBIT =      F    spin-orbit coupling
   INIWAV =      1    electr: 0-lowe 1-rand  2-diag
   LASPH  =      F    aspherical Exc in radial PAW
   METAGGA=      F    non-selfconsistent MetaGGA calc.

 Electronic Relaxation 1
   ENCUT  =  650.0 eV  47.77 Ry    6.91 a.u.   8.12  8.12 53.36*2*pi/ulx,y,z
   ENINI  =  650.0     initial cutoff
   ENAUG  =  605.4 eV  augmentation charge cutoff
   NELM   =     60;   NELMIN=  4; NELMDL= -5     # of ELM steps 
   EDIFF  = 0.1E-04   stopping-criterion for ELM
   LREAL  =      F    real-space projection
   NLSPLINE    = F    spline interpolate recip. space projectors
   LCOMPAT=      F    compatible to vasp.4.4
   GGA_COMPAT  = T    GGA compatible to vasp.4.4-vasp.4.6
   LMAXPAW     = -100 max onsite density
   LMAXMIX     =    2 max onsite mixed and CHGCAR
   VOSKOWN=      0    Vosko Wilk Nusair interpolation
   ROPT   =    0.00000   0.00000   0.00000
 Ionic relaxation
   EDIFFG = 0.1E-03   stopping-criterion for IOM
   NSW    =      0    number of steps for IOM
   NBLOCK =      1;   KBLOCK =      1    inner block; outer block 
   IBRION =     -1    ionic relax: 0-MD 1-quasi-New 2-CG
   NFREE  =      0    steps in history (QN), initial steepest desc. (CG)
   ISIF   =      2    stress and relaxation
   IWAVPR =     10    prediction:  0-non 1-charg 2-wave 3-comb
   ISYM   =      2    0-nonsym 1-usesym 2-fastsym
   LCORR  =      T    Harris-Foulkes like correction to forces

   POTIM  = 0.5000    time-step for ionic-motion
   TEIN   =    0.0    initial temperature
   TEBEG  =    0.0;   TEEND  =   0.0 temperature during run
   SMASS  =  -3.00    Nose mass-parameter (am)
   estimated Nose-frequenzy (Omega)   =  0.10E-29 period in steps =****** mass=  -0.349E-27a.u.
   SCALEE = 1.0000    scale energy and forces
   NPACO  =    256;   APACO  = 16.0  distance and # of slots for P.C.
   PSTRESS=    0.0 pullay stress

  Mass of Ions in am
   POMASS =  16.00 87.62 47.88
  Ionic Valenz
   ZVAL   =   6.00 10.00  4.00
  Atomic Wigner-Seitz radii
   RWIGS  =  -1.00 -1.00 -1.00
  virtual crystal weights 
   VCA    =   1.00  1.00  1.00
   NELECT =     128.0000    total number of electrons
   NUPDOWN=      -1.0000    fix difference up-down

 DOS related values:
   EMIN   =  10.00;   EMAX   =-10.00  energy-range for DOS
   EFERMI =   0.00
   ISMEAR =    -5;   SIGMA  =   0.20  broadening in eV -4-tet -1-fermi 0-gaus

 Electronic relaxation 2 (details)
   IALGO  =     68    algorithm
   LDIAG  =      T    sub-space diagonalisation (order eigenvalues)
   LSUBROT=      F    optimize rotation matrix (better conditioning)
   TURBO    =      0    0=normal 1=particle mesh
   IRESTART =      0    0=no restart 2=restart with 2 vectors
   NREBOOT  =      0    no. of reboots
   NMIN     =      0    reboot dimension
   EREF     =   0.00    reference energy to select bands
   IMIX   =      4    mixing-type and parameters
     AMIX     =   0.40;   BMIX     =  1.00
     AMIX_MAG =   1.60;   BMIX_MAG =  1.00
     AMIN     =   0.10
     WC   =   100.;   INIMIX=   1;  MIXPRE=   1;  MAXMIX= -45

 Intra band minimization:
   WEIMIN = 0.0000     energy-eigenvalue tresh-hold
   EBREAK =  0.33E-07  absolut break condition
   DEPER  =   0.30     relativ break condition  

   TIME   =   0.40     timestep for ELM

  volume/ion in A,a.u.               =      19.57       132.09
  Fermi-wavevector in a.u.,A,eV,Ry     =   1.127832  2.131294 17.306682  1.272005
  Thomas-Fermi vector in A             =   2.264520
 
 Write flags
   LWAVE        =      F    write WAVECAR
   LDOWNSAMPLE  =      F    k-point downsampling of WAVECAR
   LCHARG       =      T    write CHGCAR
   LVTOT        =      F    write LOCPOT, total local potential
   LVHAR        =      F    write LOCPOT, Hartree potential only
   LELF         =      F    write electronic localiz. function (ELF)
   LORBIT       =      0    0 simple, 1 ext, 2 COOP (PROOUT), +10 PAW based schemes


 Dipole corrections
   LMONO  =      F    monopole corrections only (constant potential shift)
   LDIPOL =      F    correct potential (dipole corrections)
   IDIPOL =      0    1-x, 2-y, 3-z, 4-all directions 
   EPSILON=  1.0000000 bulk dielectric constant

 Exchange correlation treatment:
   GGA     =    --    GGA type
   LEXCH   =     8    internal setting for exchange type
   VOSKOWN=      0    Vosko Wilk Nusair interpolation
   LHFCALC =     F    Hartree Fock is set to
   LHFONE  =     F    Hartree Fock one center treatment
   AEXX    =    0.0000 exact exchange contribution

 Linear response parameters
   LEPSILON=     F    determine dielectric tensor
   LRPA    =     F    only Hartree local field effects (RPA)
   LNABLA  =     F    use nabla operator in PAW spheres
   LVEL    =     F    velocity operator in full k-point grid
   LINTERFAST=   F  fast interpolation
   KINTER  =     0    interpolate to denser k-point grid
   CSHIFT  =0.1000    complex shift for real part using Kramers Kronig
   OMEGAMAX=  -1.0    maximum frequency
   DEG_THRESHOLD= 0.2000000E-02 threshold for treating states as degnerate
   RTIME   =   -0.100 relaxation time in fs
  (WPLASMAI=    0.000 imaginary part of plasma frequency in eV, 0.658/RTIME)
   DFIELD  = 0.0000000 0.0000000 0.0000000 field for delta impulse in time
 
 Orbital magnetization related:
   ORBITALMAG=     F  switch on orbital magnetization
   LCHIMAG   =     F  perturbation theory with respect to B field
   DQ        =  0.001000  dq finite difference perturbation B field
   LLRAUG    =     F  two centre corrections for induced B field



--------------------------------------------------------------------------------------------------------


 Static calculation
 charge density and potential will be updated during run
 non-spin polarized calculation
 RMM-DIIS sequential band-by-band and
  variant of blocked Davidson during initial phase
 perform sub-space diagonalisation
    before iterative eigenvector-optimisation
 modified Broyden-mixing scheme, WC =      100.0
 initial mixing is a Kerker type mixing with AMIX =  0.4000 and BMIX =      1.0000
 Hartree-type preconditioning will be used
 using additional bands           12
 reciprocal scheme for non local part
 use partial core corrections
 calculate Harris-corrections to forces 
   (improved forces if not selfconsistent)
 use gradient corrections 
 use of overlap-Matrix (Vanderbilt PP)
 Fermi weights with tetrahedron method with Bloechl corrections


--------------------------------------------------------------------------------------------------------


  energy-cutoff  :      650.00
  volume of cell :      391.47
      direct lattice vectors                 reciprocal lattice vectors
     3.905268000  0.000000000  0.000000000     0.256064373  0.000000000  0.000000000
     0.000000000  3.905268000  0.000000000     0.000000000  0.256064373  0.000000000
     0.000000000  0.000000000 25.668438000     0.000000000  0.000000000  0.038958350

  length of vectors
     3.905268000  3.905268000 25.668438000     0.256064373  0.256064373  0.038958350


 
 k-points in units of 2pi/SCALE and weight: k-density: 4.0                          
   0.00000000  0.00000000  0.00000000       0.020
   0.03658062  0.00000000  0.00000000       0.082
   0.07316125  0.00000000  0.00000000       0.082
   0.10974187  0.00000000  0.00000000       0.082
   0.03658062  0.03658062  0.00000000       0.082
   0.07316125  0.03658062  0.00000000       0.163
   0.10974187  0.03658062  0.00000000       0.163
   0.07316125  0.07316125  0.00000000       0.082
   0.10974187  0.07316125  0.00000000       0.163
   0.10974187  0.10974187  0.00000000       0.082
 
 k-points in reciprocal lattice and weights: k-density: 4.0                          
   0.00000000  0.00000000  0.00000000       0.020
   0.14285714  0.00000000  0.00000000       0.082
   0.28571429  0.00000000  0.00000000       0.082
   0.42857143  0.00000000  0.00000000       0.082
   0.14285714  0.14285714  0.00000000       0.082
   0.28571429  0.14285714  0.00000000       0.163
   0.42857143  0.14285714  0.00000000       0.163
   0.28571429  0.28571429  0.00000000       0.082
   0.42857143  0.28571429  0.00000000       0.163
   0.42857143  0.42857143  0.00000000       0.082
 
 position of ions in fractional coordinates (direct lattice) 
   0.50000000  0.50000000  0.23375010
   0.50000000  0.00000000  0.30982150
   0.00000000  0.50000000  0.30982150
   0.50000000  0.50000000  0.38589290
   0.50000000  0.00000000  0.46196430
   0.00000000  0.50000000  0.46196430
   0.50000000  0.50000000  0.53803570
   0.50000000  0.00000000  0.61410710
   0.00000000  0.50000000  0.61410710
   0.50000000  0.50000000  0.69017850
   0.50000000  0.00000000  0.76624990
   0.00000000  0.50000000  0.76624990
   0.00000000  0.00000000  0.23375010
   0.00000000  0.00000000  0.38589290
   0.00000000  0.00000000  0.53803570
   0.00000000  0.00000000  0.69017850
   0.50000000  0.50000000  0.30982150
   0.50000000  0.50000000  0.46196430
   0.50000000  0.50000000  0.61410710
   0.50000000  0.50000000  0.76624990
 
 position of ions in cartesian coordinates  (Angst):
   1.95263400  1.95263400  6.00000000
   1.95263400  0.00000000  7.95263400
   0.00000000  1.95263400  7.95263400
   1.95263400  1.95263400  9.90526800
   1.95263400  0.00000000 11.85790200
   0.00000000  1.95263400 11.85790200
   1.95263400  1.95263400 13.81053600
   1.95263400  0.00000000 15.76317000
   0.00000000  1.95263400 15.76317000
   1.95263400  1.95263400 17.71580400
   1.95263400  0.00000000 19.66843800
   0.00000000  1.95263400 19.66843800
   0.00000000  0.00000000  6.00000000
   0.00000000  0.00000000  9.90526800
   0.00000000  0.00000000 13.81053600
   0.00000000  0.00000000 17.71580400
   1.95263400  1.95263400  7.95263400
   1.95263400  1.95263400 11.85790200
   1.95263400  1.95263400 15.76317000
   1.95263400  1.95263400 19.66843800
 


--------------------------------------------------------------------------------------------------------


 k-point  1 :   0.0000 0.0000 0.0000  plane waves:   14767
 k-point  2 :   0.1429 0.0000 0.0000  plane waves:   14708
 k-point  3 :   0.2857 0.0000 0.0000  plane waves:   14724
 k-point  4 :   0.4286 0.0000 0.0000  plane waves:   14678
 k-point  5 :   0.1429 0.1429 0.0000  plane waves:   14683
 k-point  6 :   0.2857 0.1429 0.0000  plane waves:   14714
 k-point  7 :   0.4286 0.1429 0.0000  plane waves:   14712
 k-point  8 :   0.2857 0.2857 0.0000  plane waves:   14740
 k-point  9 :   0.4286 0.2857 0.0000  plane waves:   14782
 k-point 10 :   0.4286 0.4286 0.0000  plane waves:   14792

 maximum and minimum number of plane-waves per node :      7412     7330

 maximum number of plane-waves:     14792
 maximum index in each direction: 
   IXMAX=    8   IYMAX=    8   IZMAX=   53
   IXMIN=   -8   IYMIN=   -8   IZMIN=  -53


 parallel 3D FFT for wavefunctions:
    minimum data exchange during FFTs selected (reduces bandwidth)
 parallel 3D FFT for charge:
    minimum data exchange during FFTs selected (reduces bandwidth)


 total amount of memory used by VASP MPI-rank0   131492. kBytes
=======================================================================

   base      :      30000. kBytes
   nonl-proj :      34326. kBytes
   fftplans  :       7640. kBytes
   grid      :      13699. kBytes
   one-center:        155. kBytes
   wavefun   :      45672. kBytes
 
     INWAV:  cpu time    0.0010: real time    0.0002
 Broyden mixing: mesh for mixing (old mesh)
   NGX = 17   NGY = 17   NGZ =107
  (NGX  = 48   NGY  = 48   NGZ  =320)
  gives a total of  30923 points

 initial charge density was supplied:
 charge density of overlapping atoms calculated
 number of electron     128.0000000 magnetization 
 keeping initial charge density in first step


--------------------------------------------------------------------------------------------------------


 Maximum index for augmentation-charges         3921 (set IRDMAX)


--------------------------------------------------------------------------------------------------------


 First call to EWALD:  gamma=   0.242
 Maximum number of real-space cells 5x 5x 1
 Maximum number of reciprocal cells 2x 2x 8

    FEWALD:  cpu time    0.0020: real time    0.0020


--------------------------------------- Iteration      1(   1)  ---------------------------------------


    POTLOK:  cpu time    0.1380: real time    0.1834
    SETDIJ:  cpu time    0.0140: real time    0.0139
     EDDAV:  cpu time    8.0608: real time    8.0648
 BZINTS: Fermi energy: 17.025405;128.031085 electrons
         Band energy: 363.336289;  BLOECHL correction: -0.083133
       DOS:  cpu time    0.0090: real time    0.0092
    --------------------------------------------
      LOOP:  cpu time    8.2218: real time    8.2714

 eigenvalue-minimisations  :  1528
 total energy-change (2. order) : 0.1822801E+04  (-0.6379985E+04)
 number of electron     128.0000000 magnetization 
 augmentation part      128.0000000 magnetization 

 Free energy of the ion-electron system (eV)
  ---------------------------------------------------
  alpha Z        PSCENC =       451.31605171
  Ewald energy   TEWEN  =     24913.70541863
  -Hartree energ DENC   =    -33364.93616085
  -exchange      EXHF   =         0.00000000
  -V(xc)+E(xc)   XCENC  =       326.68052327
  PAW double counting   =      5334.45189010    -5139.13784255
  entropy T*S    EENTRO =         0.00000000
  eigenvalues    EBANDS =       363.33628887
  atomic energy  EATOM  =      8937.38513130
  Solvation  Ediel_sol  =         0.00000000
  ---------------------------------------------------
  free energy    TOTEN  =      1822.80130049 eV

  energy without entropy =     1822.80130049  energy(sigma->0) =     1822.80130049


--------------------------------------------------------------------------------------------------------




--------------------------------------- Iteration      1(   2)  ---------------------------------------


     EDDAV:  cpu time    8.7507: real time    8.7536
 BZINTS: Fermi energy:  5.342906;128.000000 electrons
         Band energy:***********;  BLOECHL correction: -0.084147
       DOS:  cpu time    0.0070: real time    0.0070
    --------------------------------------------
      LOOP:  cpu time    8.7577: real time    8.7607

 eigenvalue-minimisations  :  1700
 total energy-change (2. order) :-0.1564059E+04  (-0.1478837E+04)
 number of electron     128.0000000 magnetization 
 augmentation part      128.0000000 magnetization 

 Free energy of the ion-electron system (eV)
  ---------------------------------------------------
  alpha Z        PSCENC =       451.31605171
  Ewald energy   TEWEN  =     24913.70541863
  -Hartree energ DENC   =    -33364.93616085
  -exchange      EXHF   =         0.00000000
  -V(xc)+E(xc)   XCENC  =       326.68052327
  PAW double counting   =      5334.45189010    -5139.13784255
  entropy T*S    EENTRO =         0.00000000
  eigenvalues    EBANDS =     -1200.72316300
  atomic energy  EATOM  =      8937.38513130
  Solvation  Ediel_sol  =         0.00000000
  ---------------------------------------------------
  free energy    TOTEN  =       258.74184861 eV

  energy without entropy =      258.74184861  energy(sigma->0) =      258.74184861


--------------------------------------------------------------------------------------------------------




--------------------------------------- Iteration      1(   3)  ---------------------------------------


     EDDAV:  cpu time    9.8605: real time    9.8610
 BZINTS: Fermi energy: -1.809316;128.000000 electrons
         Band energy:***********;  BLOECHL correction:  0.000000
       DOS:  cpu time    0.0020: real time    0.0014
    --------------------------------------------
      LOOP:  cpu time    9.8625: real time    9.8624

 eigenvalue-minimisations  :  1976
 total energy-change (2. order) :-0.4220767E+03  (-0.4083405E+03)
 number of electron     128.0000000 magnetization 
 augmentation part      128.0000000 magnetization 

 Free energy of the ion-electron system (eV)
  ---------------------------------------------------
  alpha Z        PSCENC =       451.31605171
  Ewald energy   TEWEN  =     24913.70541863
  -Hartree energ DENC   =    -33364.93616085
  -exchange      EXHF   =         0.00000000
  -V(xc)+E(xc)   XCENC  =       326.68052327
  PAW double counting   =      5334.45189010    -5139.13784255
  entropy T*S    EENTRO =         0.00000000
  eigenvalues    EBANDS =     -1622.79985141
  atomic energy  EATOM  =      8937.38513130
  Solvation  Ediel_sol  =         0.00000000
  ---------------------------------------------------
  free energy    TOTEN  =      -163.33483979 eV

  energy without entropy =     -163.33483979  energy(sigma->0) =     -163.33483979


--------------------------------------------------------------------------------------------------------




--------------------------------------- Iteration      1(   4)  ---------------------------------------


     EDDAV:  cpu time   10.0405: real time   10.0431
 BZINTS: Fermi energy: -4.183574;128.000000 electrons
         Band energy:***********;  BLOECHL correction:  0.000000
       DOS:  cpu time    0.0000: real time    0.0013
    --------------------------------------------
      LOOP:  cpu time   10.0405: real time   10.0444

 eigenvalue-minimisations  :  2016
 total energy-change (2. order) :-0.3662636E+02  (-0.3648192E+02)
 number of electron     128.0000000 magnetization 
 augmentation part      128.0000000 magnetization 

 Free energy of the ion-electron system (eV)
  ---------------------------------------------------
  alpha Z        PSCENC =       451.31605171
  Ewald energy   TEWEN  =     24913.70541863
  -Hartree energ DENC   =    -33364.93616085
  -exchange      EXHF   =         0.00000000
  -V(xc)+E(xc)   XCENC  =       326.68052327
  PAW double counting   =      5334.45189010    -5139.13784255
  entropy T*S    EENTRO =         0.00000000
  eigenvalues    EBANDS =     -1659.42621257
  atomic energy  EATOM  =      8937.38513130
  Solvation  Ediel_sol  =         0.00000000
  ---------------------------------------------------
  free energy    TOTEN  =      -199.96120096 eV

  energy without entropy =     -199.96120096  energy(sigma->0) =     -199.96120096


--------------------------------------------------------------------------------------------------------




--------------------------------------- Iteration      1(   5)  ---------------------------------------


     EDDAV:  cpu time   11.6562: real time   11.6555
 BZINTS: Fermi energy: -4.257676;128.000000 electrons
         Band energy:***********;  BLOECHL correction:  0.000000
       DOS:  cpu time    0.0010: real time    0.0012
    CHARGE:  cpu time    0.2640: real time    0.2642
    MIXING:  cpu time    0.0040: real time    0.0041
    --------------------------------------------
      LOOP:  cpu time   11.9252: real time   11.9251

 eigenvalue-minimisations  :  2424
 total energy-change (2. order) :-0.1764085E+01  (-0.1762861E+01)
 number of electron     127.9999735 magnetization 
 augmentation part       13.8984867 magnetization 

 Broyden mixing:
  rms(total) = 0.37205E+01    rms(broyden)= 0.37204E+01
  rms(prec ) = 0.39710E+01
  weight for this iteration     100.00

 Free energy of the ion-electron system (eV)
  ---------------------------------------------------
  alpha Z        PSCENC =       451.31605171
  Ewald energy   TEWEN  =     24913.70541863
  -Hartree energ DENC   =    -33364.93616085
  -exchange      EXHF   =         0.00000000
  -V(xc)+E(xc)   XCENC  =       326.68052327
  PAW double counting   =      5334.45189010    -5139.13784255
  entropy T*S    EENTRO =         0.00000000
  eigenvalues    EBANDS =     -1661.19029762
  atomic energy  EATOM  =      8937.38513130
  Solvation  Ediel_sol  =         0.00000000
  ---------------------------------------------------
  free energy    TOTEN  =      -201.72528600 eV

  energy without entropy =     -201.72528600  energy(sigma->0) =     -201.72528600


--------------------------------------------------------------------------------------------------------




--------------------------------------- Iteration      1(   6)  ---------------------------------------


    POTLOK:  cpu time    0.1380: real time    0.1412
    SETDIJ:  cpu time    0.0130: real time    0.0130
    EDDIAG:  cpu time    0.8719: real time    0.8714
  RMM-DIIS:  cpu time    6.3200: real time    6.3186
    ORTHCH:  cpu time    0.1770: real time    0.1771
 BZINTS: Fermi energy: -0.047837;128.000000 electrons
         Band energy:***********;  BLOECHL correction: -0.041952
       DOS:  cpu time    0.0060: real time    0.0066
    CHARGE:  cpu time    0.2800: real time    0.2794
    MIXING:  cpu time    0.0060: real time    0.0054
    --------------------------------------------
      LOOP:  cpu time    7.8118: real time    7.8127

 eigenvalue-minimisations  :  1687
 total energy-change (2. order) : 0.4047481E+02  (-0.2834104E+02)
 number of electron     127.9999811 magnetization 
 augmentation part       14.3904786 magnetization 

 Broyden mixing:
  rms(total) = 0.13685E+01    rms(broyden)= 0.13683E+01
  rms(prec ) = 0.14387E+01
  weight for this iteration     100.00

 eigenvalues of (default mixing * dielectric matrix)
  average eigenvalue GAMMA=   0.7745
  0.7745

 Free energy of the ion-electron system (eV)
  ---------------------------------------------------
  alpha Z        PSCENC =       451.31605171
  Ewald energy   TEWEN  =     24913.70541863
  -Hartree energ DENC   =    -33646.12042780
  -exchange      EXHF   =         0.00000000
  -V(xc)+E(xc)   XCENC  =       346.40061196
  PAW double counting   =      5950.34579258    -5768.84581546
  entropy T*S    EENTRO =         0.00000000
  eigenvalues    EBANDS =     -1345.43723699
  atomic energy  EATOM  =      8937.38513130
  Solvation  Ediel_sol  =         0.00000000
  ---------------------------------------------------
  free energy    TOTEN  =      -161.25047406 eV

  energy without entropy =     -161.25047406  energy(sigma->0) =     -161.25047406


--------------------------------------------------------------------------------------------------------




--------------------------------------- Iteration      1(   7)  ---------------------------------------


    POTLOK:  cpu time    0.1470: real time    0.1508
    SETDIJ:  cpu time    0.0170: real time    0.0167
    EDDIAG:  cpu time    0.8779: real time    0.8774
  RMM-DIIS:  cpu time    6.9889: real time    6.9874
    ORTHCH:  cpu time    0.1760: real time    0.1762
 BZINTS: Fermi energy: -0.947914;128.000000 electrons
         Band energy:***********;  BLOECHL correction:  0.000000
       DOS:  cpu time    0.0010: real time    0.0015
    CHARGE:  cpu time    0.2690: real time    0.2690
    MIXING:  cpu time    0.0050: real time    0.0043
    --------------------------------------------
      LOOP:  cpu time    8.4817: real time    8.4832

 eigenvalue-minimisations  :  1861
 total energy-change (2. order) : 0.3521033E+01  (-0.1274207E+01)
 number of electron     127.9999800 magnetization 
 augmentation part       13.5544732 magnetization 

 Broyden mixing:
  rms(total) = 0.70214E+00    rms(broyden)= 0.70213E+00
  rms(prec ) = 0.73146E+00
  weight for this iteration     100.00

 eigenvalues of (default mixing * dielectric matrix)
  average eigenvalue GAMMA=   1.0515
  0.9157  1.1872

 Free energy of the ion-electron system (eV)
  ---------------------------------------------------
  alpha Z        PSCENC =       451.31605171
  Ewald energy   TEWEN  =     24913.70541863
  -Hartree energ DENC   =    -33655.75066762
  -exchange      EXHF   =         0.00000000
  -V(xc)+E(xc)   XCENC  =       342.75838658
  PAW double counting   =      5975.81503340    -5799.36637385
  entropy T*S    EENTRO =         0.00000000
  eigenvalues    EBANDS =     -1323.59242086
  atomic energy  EATOM  =      8937.38513130
  Solvation  Ediel_sol  =         0.00000000
  ---------------------------------------------------
  free energy    TOTEN  =      -157.72944070 eV

  energy without entropy =     -157.72944070  energy(sigma->0) =     -157.72944070


--------------------------------------------------------------------------------------------------------




--------------------------------------- Iteration      1(   8)  ---------------------------------------


    POTLOK:  cpu time    0.1390: real time    0.1412
    SETDIJ:  cpu time    0.0130: real time    0.0131
    EDDIAG:  cpu time    0.8909: real time    0.8910
  RMM-DIIS:  cpu time    7.6738: real time    7.6713
    ORTHCH:  cpu time    0.1770: real time    0.1773
 BZINTS: Fermi energy: -0.620698;128.000000 electrons
         Band energy:***********;  BLOECHL correction:  0.000000
       DOS:  cpu time    0.0010: real time    0.0013
    CHARGE:  cpu time    0.2690: real time    0.2690
    MIXING:  cpu time    0.0050: real time    0.0046
    --------------------------------------------
      LOOP:  cpu time    9.1686: real time    9.1689

 eigenvalue-minimisations  :  2038
 total energy-change (2. order) : 0.7186806E+00  (-0.3198431E+00)
 number of electron     127.9999800 magnetization 
 augmentation part       13.7742347 magnetization 

 Broyden mixing:
  rms(total) = 0.31879E+00    rms(broyden)= 0.31879E+00
  rms(prec ) = 0.33945E+00
  weight for this iteration     100.00

 eigenvalues of (default mixing * dielectric matrix)
  average eigenvalue GAMMA=   1.2661
  2.1736  0.9160  0.7088

 Free energy of the ion-electron system (eV)
  ---------------------------------------------------
  alpha Z        PSCENC =       451.31605171
  Ewald energy   TEWEN  =     24913.70541863
  -Hartree energ DENC   =    -33673.25542858
  -exchange      EXHF   =         0.00000000
  -V(xc)+E(xc)   XCENC  =       342.46815218
  PAW double counting   =      6070.71645893    -5897.85492200
  entropy T*S    EENTRO =         0.00000000
  eigenvalues    EBANDS =     -1301.49162229
  atomic energy  EATOM  =      8937.38513130
  Solvation  Ediel_sol  =         0.00000000
  ---------------------------------------------------
  free energy    TOTEN  =      -157.01076012 eV

  energy without entropy =     -157.01076012  energy(sigma->0) =     -157.01076012


--------------------------------------------------------------------------------------------------------




--------------------------------------- Iteration      1(   9)  ---------------------------------------


    POTLOK:  cpu time    0.1380: real time    0.1421
    SETDIJ:  cpu time    0.0140: real time    0.0132
    EDDIAG:  cpu time    0.8969: real time    0.8965
  RMM-DIIS:  cpu time    7.9658: real time    7.9639
    ORTHCH:  cpu time    0.1760: real time    0.1767
 BZINTS: Fermi energy: -0.145426;128.000000 electrons
         Band energy:***********;  BLOECHL correction:  0.000000
       DOS:  cpu time    0.0010: real time    0.0015
    CHARGE:  cpu time    0.2690: real time    0.2692
    MIXING:  cpu time    0.0060: real time    0.0053
    --------------------------------------------
      LOOP:  cpu time    9.4666: real time    9.4685

 eigenvalue-minimisations  :  2133
 total energy-change (2. order) : 0.2083379E+00  (-0.1327897E+00)
 number of electron     127.9999798 magnetization 
 augmentation part       13.7735727 magnetization 

 Broyden mixing:
  rms(total) = 0.97755E-01    rms(broyden)= 0.97736E-01
  rms(prec ) = 0.11635E+00
  weight for this iteration     100.00

 eigenvalues of (default mixing * dielectric matrix)
  average eigenvalue GAMMA=   1.1771
  2.1964  0.8953  0.8953  0.7213

 Free energy of the ion-electron system (eV)
  ---------------------------------------------------
  alpha Z        PSCENC =       451.31605171
  Ewald energy   TEWEN  =     24913.70541863
  -Hartree energ DENC   =    -33700.05430088
  -exchange      EXHF   =         0.00000000
  -V(xc)+E(xc)   XCENC  =       342.15581317
  PAW double counting   =      6167.56958409    -5998.06806940
  entropy T*S    EENTRO =         0.00000000
  eigenvalues    EBANDS =     -1270.81205086
  atomic energy  EATOM  =      8937.38513130
  Solvation  Ediel_sol  =         0.00000000
  ---------------------------------------------------
  free energy    TOTEN  =      -156.80242224 eV

  energy without entropy =     -156.80242224  energy(sigma->0) =     -156.80242224


--------------------------------------------------------------------------------------------------------




--------------------------------------- Iteration      1(  10)  ---------------------------------------


    POTLOK:  cpu time    0.1390: real time    0.1441
    SETDIJ:  cpu time    0.0130: real time    0.0129
    EDDIAG:  cpu time    0.8899: real time    0.8894
  RMM-DIIS:  cpu time    9.1616: real time    9.1598
    ORTHCH:  cpu time    0.1760: real time    0.1764
 BZINTS: Fermi energy: -0.002408;128.000000 electrons
         Band energy:***********;  BLOECHL correction:  0.000000
       DOS:  cpu time    0.0020: real time    0.0015
    CHARGE:  cpu time    0.2690: real time    0.2695
    MIXING:  cpu time    0.0060: real time    0.0048
    --------------------------------------------
      LOOP:  cpu time   10.6564: real time   10.6585

 eigenvalue-minimisations  :  2462
 total energy-change (2. order) : 0.3943186E-01  (-0.2427131E-01)
 number of electron     127.9999798 magnetization 
 augmentation part       13.7256434 magnetization 

 Broyden mixing:
  rms(total) = 0.59852E-01    rms(broyden)= 0.59851E-01
  rms(prec ) = 0.75585E-01
  weight for this iteration     100.00

 eigenvalues of (default mixing * dielectric matrix)
  average eigenvalue GAMMA=   1.2062
  2.0561  1.5474  1.0058  0.7607  0.6608

 Free energy of the ion-electron system (eV)
  ---------------------------------------------------
  alpha Z        PSCENC =       451.31605171
  Ewald energy   TEWEN  =     24913.70541863
  -Hartree energ DENC   =    -33717.89834833
  -exchange      EXHF   =         0.00000000
  -V(xc)+E(xc)   XCENC  =       342.52527335
  PAW double counting   =      6188.05887289    -6018.93138942
  entropy T*S    EENTRO =         0.00000000
  eigenvalues    EBANDS =     -1252.92400051
  atomic energy  EATOM  =      8937.38513130
  Solvation  Ediel_sol  =         0.00000000
  ---------------------------------------------------
  free energy    TOTEN  =      -156.76299038 eV

  energy without entropy =     -156.76299038  energy(sigma->0) =     -156.76299038


--------------------------------------------------------------------------------------------------------




--------------------------------------- Iteration      1(  11)  ---------------------------------------


    POTLOK:  cpu time    0.1380: real time    0.1420
    SETDIJ:  cpu time    0.0140: real time    0.0136
    EDDIAG:  cpu time    0.8969: real time    0.8967
  RMM-DIIS:  cpu time    8.6907: real time    8.6891
    ORTHCH:  cpu time    0.1760: real time    0.1763
 BZINTS: Fermi energy:  0.132187;128.000000 electrons
         Band energy:***********;  BLOECHL correction:  0.000000
       DOS:  cpu time    0.0010: real time    0.0014
    CHARGE:  cpu time    0.2680: real time    0.2671
    MIXING:  cpu time    0.0050: real time    0.0053
    --------------------------------------------
      LOOP:  cpu time   10.1895: real time   10.1915

 eigenvalue-minimisations  :  2337
 total energy-change (2. order) : 0.2184314E-01  (-0.1598753E-01)
 number of electron     127.9999799 magnetization 
 augmentation part       13.6622334 magnetization 

 Broyden mixing:
  rms(total) = 0.41134E-01    rms(broyden)= 0.41132E-01
  rms(prec ) = 0.52907E-01
  weight for this iteration     100.00

 eigenvalues of (default mixing * dielectric matrix)
  average eigenvalue GAMMA=   1.3006
  2.3145  2.3145  0.8960  0.8960  0.6238  0.7589

 Free energy of the ion-electron system (eV)
  ---------------------------------------------------
  alpha Z        PSCENC =       451.31605171
  Ewald energy   TEWEN  =     24913.70541863
  -Hartree energ DENC   =    -33738.19071445
  -exchange      EXHF   =         0.00000000
  -V(xc)+E(xc)   XCENC  =       342.90580080
  PAW double counting   =      6203.62491687    -6034.50203818
  entropy T*S    EENTRO =         0.00000000
  eigenvalues    EBANDS =     -1232.98571392
  atomic energy  EATOM  =      8937.38513130
  Solvation  Ediel_sol  =         0.00000000
  ---------------------------------------------------
  free energy    TOTEN  =      -156.74114724 eV

  energy without entropy =     -156.74114724  energy(sigma->0) =     -156.74114724


--------------------------------------------------------------------------------------------------------




--------------------------------------- Iteration      1(  12)  ---------------------------------------


    POTLOK:  cpu time    0.1390: real time    0.1426
    SETDIJ:  cpu time    0.0130: real time    0.0130
    EDDIAG:  cpu time    0.8949: real time    0.8943
  RMM-DIIS:  cpu time    9.1836: real time    9.1811
    ORTHCH:  cpu time    0.1700: real time    0.1703
 BZINTS: Fermi energy:  0.285232;128.000000 electrons
         Band energy:***********;  BLOECHL correction:  0.000000
       DOS:  cpu time    0.0010: real time    0.0012
    CHARGE:  cpu time    0.2610: real time    0.2608
    MIXING:  cpu time    0.0060: real time    0.0059
    --------------------------------------------
      LOOP:  cpu time   10.6684: real time   10.6691

 eigenvalue-minimisations  :  2472
 total energy-change (2. order) : 0.1259645E-01  (-0.5359392E-02)
 number of electron     127.9999799 magnetization 
 augmentation part       13.6293364 magnetization 

 Broyden mixing:
  rms(total) = 0.31498E-01    rms(broyden)= 0.31497E-01
  rms(prec ) = 0.39640E-01
  weight for this iteration     100.00

 eigenvalues of (default mixing * dielectric matrix)
  average eigenvalue GAMMA=   1.2423
  2.3895  2.2878  0.9765  0.9765  0.7857  0.6536  0.6263

 Free energy of the ion-electron system (eV)
  ---------------------------------------------------
  alpha Z        PSCENC =       451.31605171
  Ewald energy   TEWEN  =     24913.70541863
  -Hartree energ DENC   =    -33752.12589816
  -exchange      EXHF   =         0.00000000
  -V(xc)+E(xc)   XCENC  =       342.99560120
  PAW double counting   =      6208.90167052    -6039.60221673
  entropy T*S    EENTRO =         0.00000000
  eigenvalues    EBANDS =     -1219.30430926
  atomic energy  EATOM  =      8937.38513130
  Solvation  Ediel_sol  =         0.00000000
  ---------------------------------------------------
  free energy    TOTEN  =      -156.72855078 eV

  energy without entropy =     -156.72855078  energy(sigma->0) =     -156.72855078


--------------------------------------------------------------------------------------------------------




--------------------------------------- Iteration      1(  13)  ---------------------------------------


    POTLOK:  cpu time    0.1330: real time    0.1338
    SETDIJ:  cpu time    0.0120: real time    0.0127
    EDDIAG:  cpu time    0.8639: real time    0.8624
  RMM-DIIS:  cpu time    9.7165: real time    9.7150
    ORTHCH:  cpu time    0.1770: real time    0.1768
 BZINTS: Fermi energy:  0.351417;128.000000 electrons
         Band energy:***********;  BLOECHL correction:  0.000000
       DOS:  cpu time    0.0010: real time    0.0013
    CHARGE:  cpu time    0.2700: real time    0.2704
    MIXING:  cpu time    0.0060: real time    0.0057
    --------------------------------------------
      LOOP:  cpu time   11.1793: real time   11.1780

 eigenvalue-minimisations  :  2600
 total energy-change (2. order) : 0.5334426E-02  (-0.2139340E-02)
 number of electron     127.9999799 magnetization 
 augmentation part       13.6384995 magnetization 

 Broyden mixing:
  rms(total) = 0.17064E-01    rms(broyden)= 0.17064E-01
  rms(prec ) = 0.25342E-01
  weight for this iteration     100.00

 eigenvalues of (default mixing * dielectric matrix)
  average eigenvalue GAMMA=   1.3948
  2.8077  2.8077  1.4313  0.9726  0.9726  0.8526  0.6792  0.6346

 Free energy of the ion-electron system (eV)
  ---------------------------------------------------
  alpha Z        PSCENC =       451.31605171
  Ewald energy   TEWEN  =     24913.70541863
  -Hartree energ DENC   =    -33756.74437111
  -exchange      EXHF   =         0.00000000
  -V(xc)+E(xc)   XCENC  =       342.96665004
  PAW double counting   =      6208.14484085    -6038.73585756
  entropy T*S    EENTRO =         0.00000000
  eigenvalues    EBANDS =     -1214.76108022
  atomic energy  EATOM  =      8937.38513130
  Solvation  Ediel_sol  =         0.00000000
  ---------------------------------------------------
  free energy    TOTEN  =      -156.72321636 eV

  energy without entropy =     -156.72321636  energy(sigma->0) =     -156.72321636


--------------------------------------------------------------------------------------------------------




--------------------------------------- Iteration      1(  14)  ---------------------------------------


    POTLOK:  cpu time    0.1380: real time    0.1392
    SETDIJ:  cpu time    0.0140: real time    0.0135
    EDDIAG:  cpu time    0.8269: real time    0.8273
  RMM-DIIS:  cpu time    8.3987: real time    8.3974
    ORTHCH:  cpu time    0.1780: real time    0.1778
 BZINTS: Fermi energy:  0.480110;128.000000 electrons
         Band energy:***********;  BLOECHL correction:  0.000000
       DOS:  cpu time    0.0010: real time    0.0013
    CHARGE:  cpu time    0.2690: real time    0.2688
    MIXING:  cpu time    0.0070: real time    0.0064
    --------------------------------------------
      LOOP:  cpu time    9.8325: real time    9.8317

 eigenvalue-minimisations  :  2241
 total energy-change (2. order) : 0.4412568E-02  (-0.2205845E-02)
 number of electron     127.9999798 magnetization 
 augmentation part       13.6501786 magnetization 

 Broyden mixing:
  rms(total) = 0.13974E-01    rms(broyden)= 0.13972E-01
  rms(prec ) = 0.17945E-01
  weight for this iteration     100.00

 eigenvalues of (default mixing * dielectric matrix)
  average eigenvalue GAMMA=   1.3965
  3.3617  2.6524  1.4568  1.0381  1.0381  0.9386  0.8258  0.6574  0.5993

 Free energy of the ion-electron system (eV)
  ---------------------------------------------------
  alpha Z        PSCENC =       451.31605171
  Ewald energy   TEWEN  =     24913.70541863
  -Hartree energ DENC   =    -33768.19880564
  -exchange      EXHF   =         0.00000000
  -V(xc)+E(xc)   XCENC  =       342.90074849
  PAW double counting   =      6201.10899732    -6031.28181542
  entropy T*S    EENTRO =         0.00000000
  eigenvalues    EBANDS =     -1203.65453018
  atomic energy  EATOM  =      8937.38513130
  Solvation  Ediel_sol  =         0.00000000
  ---------------------------------------------------
  free energy    TOTEN  =      -156.71880379 eV

  energy without entropy =     -156.71880379  energy(sigma->0) =     -156.71880379


--------------------------------------------------------------------------------------------------------




--------------------------------------- Iteration      1(  15)  ---------------------------------------


    POTLOK:  cpu time    0.1390: real time    0.1420
    SETDIJ:  cpu time    0.0130: real time    0.0131
    EDDIAG:  cpu time    0.8949: real time    0.8941
  RMM-DIIS:  cpu time    9.6975: real time    9.6954
    ORTHCH:  cpu time    0.1760: real time    0.1764
 BZINTS: Fermi energy:  0.538914;128.000000 electrons
         Band energy:***********;  BLOECHL correction:  0.000000
       DOS:  cpu time    0.0010: real time    0.0013
    CHARGE:  cpu time    0.2690: real time    0.2688
    MIXING:  cpu time    0.0060: real time    0.0062
    --------------------------------------------
      LOOP:  cpu time   11.1963: real time   11.1973

 eigenvalue-minimisations  :  2588
 total energy-change (2. order) : 0.6216796E-03  (-0.5804881E-03)
 number of electron     127.9999799 magnetization 
 augmentation part       13.6443572 magnetization 

 Broyden mixing:
  rms(total) = 0.84255E-02    rms(broyden)= 0.84251E-02
  rms(prec ) = 0.11865E-01
  weight for this iteration     100.00

 eigenvalues of (default mixing * dielectric matrix)
  average eigenvalue GAMMA=   1.4582
  4.0330  2.3687  1.6191  1.6191  1.1313  0.9134  0.9134  0.7545  0.6392  0.5897

 Free energy of the ion-electron system (eV)
  ---------------------------------------------------
  alpha Z        PSCENC =       451.31605171
  Ewald energy   TEWEN  =     24913.70541863
  -Hartree energ DENC   =    -33773.09865982
  -exchange      EXHF   =         0.00000000
  -V(xc)+E(xc)   XCENC  =       342.94158950
  PAW double counting   =      6201.72545113    -6031.89533714
  entropy T*S    EENTRO =         0.00000000
  eigenvalues    EBANDS =     -1198.79782742
  atomic energy  EATOM  =      8937.38513130
  Solvation  Ediel_sol  =         0.00000000
  ---------------------------------------------------
  free energy    TOTEN  =      -156.71818211 eV

  energy without entropy =     -156.71818211  energy(sigma->0) =     -156.71818211


--------------------------------------------------------------------------------------------------------




--------------------------------------- Iteration      1(  16)  ---------------------------------------


    POTLOK:  cpu time    0.1380: real time    0.1406
    SETDIJ:  cpu time    0.0140: real time    0.0134
    EDDIAG:  cpu time    0.8909: real time    0.8912
  RMM-DIIS:  cpu time    8.6037: real time    8.6016
    ORTHCH:  cpu time    0.1770: real time    0.1767
 BZINTS: Fermi energy:  0.577062;128.000000 electrons
         Band energy:***********;  BLOECHL correction:  0.000000
       DOS:  cpu time    0.0010: real time    0.0015
    CHARGE:  cpu time    0.2660: real time    0.2665
    MIXING:  cpu time    0.0080: real time    0.0067
    --------------------------------------------
      LOOP:  cpu time   10.0985: real time   10.0983

 eigenvalue-minimisations  :  2297
 total energy-change (2. order) :-0.1209609E-02  (-0.7433663E-03)
 number of electron     127.9999799 magnetization 
 augmentation part       13.6386839 magnetization 

 Broyden mixing:
  rms(total) = 0.11462E-01    rms(broyden)= 0.11461E-01
  rms(prec ) = 0.12860E-01
  weight for this iteration     100.00

 eigenvalues of (default mixing * dielectric matrix)
  average eigenvalue GAMMA=   1.6193
  5.4199  2.8154  2.3405  1.3021  1.1543  1.1543  0.8578  0.8578  0.6822  0.6292
  0.5985

 Free energy of the ion-electron system (eV)
  ---------------------------------------------------
  alpha Z        PSCENC =       451.31605171
  Ewald energy   TEWEN  =     24913.70541863
  -Hartree energ DENC   =    -33780.86584883
  -exchange      EXHF   =         0.00000000
  -V(xc)+E(xc)   XCENC  =       343.00778329
  PAW double counting   =      6203.47585445    -6033.73177498
  entropy T*S    EENTRO =         0.00000000
  eigenvalues    EBANDS =     -1191.01200730
  atomic energy  EATOM  =      8937.38513130
  Solvation  Ediel_sol  =         0.00000000
  ---------------------------------------------------
  free energy    TOTEN  =      -156.71939172 eV

  energy without entropy =     -156.71939172  energy(sigma->0) =     -156.71939172


--------------------------------------------------------------------------------------------------------




--------------------------------------- Iteration      1(  17)  ---------------------------------------


    POTLOK:  cpu time    0.1350: real time    0.1385
    SETDIJ:  cpu time    0.0130: real time    0.0132
    EDDIAG:  cpu time    0.8919: real time    0.8909
  RMM-DIIS:  cpu time    8.2178: real time    8.2165
    ORTHCH:  cpu time    0.1780: real time    0.1772
 BZINTS: Fermi energy:  0.621659;128.000000 electrons
         Band energy:***********;  BLOECHL correction:  0.000000
       DOS:  cpu time    0.0010: real time    0.0015
    CHARGE:  cpu time    0.2580: real time    0.2580
    MIXING:  cpu time    0.0080: real time    0.0072
    --------------------------------------------
      LOOP:  cpu time    9.7025: real time    9.7031

 eigenvalue-minimisations  :  2196
 total energy-change (2. order) :-0.4310773E-03  (-0.2914300E-03)
 number of electron     127.9999799 magnetization 
 augmentation part       13.6333205 magnetization 

 Broyden mixing:
  rms(total) = 0.31310E-02    rms(broyden)= 0.31303E-02
  rms(prec ) = 0.40981E-02
  weight for this iteration     100.00

 eigenvalues of (default mixing * dielectric matrix)
  average eigenvalue GAMMA=   1.5896
  5.7151  2.8553  2.3216  1.1820  1.1820  1.1967  1.0258  0.8652  0.8652  0.6559
  0.6245  0.5863

 Free energy of the ion-electron system (eV)
  ---------------------------------------------------
  alpha Z        PSCENC =       451.31605171
  Ewald energy   TEWEN  =     24913.70541863
  -Hartree energ DENC   =    -33783.16294829
  -exchange      EXHF   =         0.00000000
  -V(xc)+E(xc)   XCENC  =       342.95296564
  PAW double counting   =      6201.12104829    -6031.34651262
  entropy T*S    EENTRO =         0.00000000
  eigenvalues    EBANDS =     -1188.69097746
  atomic energy  EATOM  =      8937.38513130
  Solvation  Ediel_sol  =         0.00000000
  ---------------------------------------------------
  free energy    TOTEN  =      -156.71982280 eV

  energy without entropy =     -156.71982280  energy(sigma->0) =     -156.71982280


--------------------------------------------------------------------------------------------------------




--------------------------------------- Iteration      1(  18)  ---------------------------------------


    POTLOK:  cpu time    0.1260: real time    0.1272
    SETDIJ:  cpu time    0.0130: real time    0.0131
    EDDIAG:  cpu time    0.8709: real time    0.8699
  RMM-DIIS:  cpu time    8.4627: real time    8.4618
    ORTHCH:  cpu time    0.1770: real time    0.1765
 BZINTS: Fermi energy:  0.646914;128.000000 electrons
         Band energy:***********;  BLOECHL correction:  0.000000
       DOS:  cpu time    0.0010: real time    0.0015
    CHARGE:  cpu time    0.2660: real time    0.2653
    MIXING:  cpu time    0.0080: real time    0.0075
    --------------------------------------------
      LOOP:  cpu time    9.9245: real time    9.9228

 eigenvalue-minimisations  :  2237
 total energy-change (2. order) :-0.8018660E-03  (-0.7418931E-04)
 number of electron     127.9999799 magnetization 
 augmentation part       13.6354763 magnetization 

 Broyden mixing:
  rms(total) = 0.19146E-02    rms(broyden)= 0.19143E-02
  rms(prec ) = 0.26099E-02
  weight for this iteration     100.00

 eigenvalues of (default mixing * dielectric matrix)
  average eigenvalue GAMMA=   1.7082
  6.7609  3.0944  2.2279  2.2279  1.2403  1.2403  1.0471  0.8418  0.8418  0.8220
  0.6425  0.6425  0.5776

 Free energy of the ion-electron system (eV)
  ---------------------------------------------------
  alpha Z        PSCENC =       451.31605171
  Ewald energy   TEWEN  =     24913.70541863
  -Hartree energ DENC   =    -33783.87236464
  -exchange      EXHF   =         0.00000000
  -V(xc)+E(xc)   XCENC  =       342.95632486
  PAW double counting   =      6201.17400438    -6031.38086991
  entropy T*S    EENTRO =         0.00000000
  eigenvalues    EBANDS =     -1188.00432099
  atomic energy  EATOM  =      8937.38513130
  Solvation  Ediel_sol  =         0.00000000
  ---------------------------------------------------
  free energy    TOTEN  =      -156.72062466 eV

  energy without entropy =     -156.72062466  energy(sigma->0) =     -156.72062466


--------------------------------------------------------------------------------------------------------




--------------------------------------- Iteration      1(  19)  ---------------------------------------


    POTLOK:  cpu time    0.1350: real time    0.1399
    SETDIJ:  cpu time    0.0130: real time    0.0132
    EDDIAG:  cpu time    0.8959: real time    0.8945
  RMM-DIIS:  cpu time    7.7498: real time    7.7485
    ORTHCH:  cpu time    0.1780: real time    0.1780
 BZINTS: Fermi energy:  0.667252;128.000000 electrons
         Band energy:***********;  BLOECHL correction:  0.000000
       DOS:  cpu time    0.0020: real time    0.0014
    CHARGE:  cpu time    0.2680: real time    0.2679
    MIXING:  cpu time    0.0080: real time    0.0080
    --------------------------------------------
      LOOP:  cpu time    9.2496: real time    9.2513

 eigenvalue-minimisations  :  2056
 total energy-change (2. order) :-0.1491611E-02  (-0.5366426E-04)
 number of electron     127.9999799 magnetization 
 augmentation part       13.6348200 magnetization 

 Broyden mixing:
  rms(total) = 0.98779E-03    rms(broyden)= 0.98765E-03
  rms(prec ) = 0.12636E-02
  weight for this iteration     100.00

 eigenvalues of (default mixing * dielectric matrix)
  average eigenvalue GAMMA=   1.7717
  7.3300  3.7425  2.3038  2.3038  1.3618  1.1789  1.1789  0.9514  0.9514  0.8147
  0.8147  0.6463  0.6463  0.5787

 Free energy of the ion-electron system (eV)
  ---------------------------------------------------
  alpha Z        PSCENC =       451.31605171
  Ewald energy   TEWEN  =     24913.70541863
  -Hartree energ DENC   =    -33784.40895494
  -exchange      EXHF   =         0.00000000
  -V(xc)+E(xc)   XCENC  =       342.95763236
  PAW double counting   =      6201.29652996    -6031.47789532
  entropy T*S    EENTRO =         0.00000000
  eigenvalues    EBANDS =     -1187.49602998
  atomic energy  EATOM  =      8937.38513130
  Solvation  Ediel_sol  =         0.00000000
  ---------------------------------------------------
  free energy    TOTEN  =      -156.72211627 eV

  energy without entropy =     -156.72211627  energy(sigma->0) =     -156.72211627


--------------------------------------------------------------------------------------------------------




--------------------------------------- Iteration      1(  20)  ---------------------------------------


    POTLOK:  cpu time    0.1370: real time    0.1400
    SETDIJ:  cpu time    0.0130: real time    0.0133
    EDDIAG:  cpu time    0.8929: real time    0.8934
  RMM-DIIS:  cpu time    6.5870: real time    6.5846
    ORTHCH:  cpu time    0.1760: real time    0.1758
 BZINTS: Fermi energy:  0.567092;128.000000 electrons
         Band energy:***********;  BLOECHL correction:  0.000000
       DOS:  cpu time    0.0010: real time    0.0013
    CHARGE:  cpu time    0.2690: real time    0.2690
    MIXING:  cpu time    0.0080: real time    0.0083
    --------------------------------------------
      LOOP:  cpu time    8.0838: real time    8.0858

 eigenvalue-minimisations  :  1736
 total energy-change (2. order) :-0.5504487E-03  (-0.2398697E-04)
 number of electron     127.9999799 magnetization 
 augmentation part       13.6342634 magnetization 

 Broyden mixing:
  rms(total) = 0.76963E-03    rms(broyden)= 0.76958E-03
  rms(prec ) = 0.88052E-03
  weight for this iteration     100.00

 eigenvalues of (default mixing * dielectric matrix)
  average eigenvalue GAMMA=   1.8788
  8.1812  4.2078  2.6373  2.1731  2.1731  1.1753  1.1753  1.2145  0.8609  0.8609
  0.8817  0.7631  0.6493  0.6493  0.5789

 Free energy of the ion-electron system (eV)
  ---------------------------------------------------
  alpha Z        PSCENC =       451.31605171
  Ewald energy   TEWEN  =     24913.70541863
  -Hartree energ DENC   =    -33784.39357291
  -exchange      EXHF   =         0.00000000
  -V(xc)+E(xc)   XCENC  =       342.95462152
  PAW double counting   =      6201.55823549    -6031.74727621
  entropy T*S    EENTRO =         0.00000000
  eigenvalues    EBANDS =     -1187.50127626
  atomic energy  EATOM  =      8937.38513130
  Solvation  Ediel_sol  =         0.00000000
  ---------------------------------------------------
  free energy    TOTEN  =      -156.72266672 eV

  energy without entropy =     -156.72266672  energy(sigma->0) =     -156.72266672


--------------------------------------------------------------------------------------------------------




--------------------------------------- Iteration      1(  21)  ---------------------------------------


    POTLOK:  cpu time    0.1360: real time    0.1391
    SETDIJ:  cpu time    0.0140: real time    0.0132
    EDDIAG:  cpu time    0.8919: real time    0.8915
  RMM-DIIS:  cpu time    6.4300: real time    6.4292
    ORTHCH:  cpu time    0.1790: real time    0.1784
 BZINTS: Fermi energy:  0.578296;128.000000 electrons
         Band energy:***********;  BLOECHL correction:  0.000000
       DOS:  cpu time    0.0010: real time    0.0013
    CHARGE:  cpu time    0.2690: real time    0.2693
    MIXING:  cpu time    0.0090: real time    0.0089
    --------------------------------------------
      LOOP:  cpu time    7.9298: real time    7.9309

 eigenvalue-minimisations  :  1692
 total energy-change (2. order) :-0.2864107E-03  (-0.1438616E-04)
 number of electron     127.9999799 magnetization 
 augmentation part       13.6333729 magnetization 

 Broyden mixing:
  rms(total) = 0.49982E-03    rms(broyden)= 0.49979E-03
  rms(prec ) = 0.55193E-03
  weight for this iteration     100.00

 eigenvalues of (default mixing * dielectric matrix)
  average eigenvalue GAMMA=   1.8964
  8.3562  4.7585  2.6334  2.6334  2.1485  1.3326  1.1842  1.1842  0.9355  0.9355
  0.7961  0.7961  0.7802  0.6446  0.6446  0.5782

 Free energy of the ion-electron system (eV)
  ---------------------------------------------------
  alpha Z        PSCENC =       451.31605171
  Ewald energy   TEWEN  =     24913.70541863
  -Hartree energ DENC   =    -33784.35978698
  -exchange      EXHF   =         0.00000000
  -V(xc)+E(xc)   XCENC  =       342.95795529
  PAW double counting   =      6201.78260466    -6031.96989880
  entropy T*S    EENTRO =         0.00000000
  eigenvalues    EBANDS =     -1187.54042894
  atomic energy  EATOM  =      8937.38513130
  Solvation  Ediel_sol  =         0.00000000
  ---------------------------------------------------
  free energy    TOTEN  =      -156.72295313 eV

  energy without entropy =     -156.72295313  energy(sigma->0) =     -156.72295313


--------------------------------------------------------------------------------------------------------




--------------------------------------- Iteration      1(  22)  ---------------------------------------


    POTLOK:  cpu time    0.1370: real time    0.1396
    SETDIJ:  cpu time    0.0130: real time    0.0131
    EDDIAG:  cpu time    0.8919: real time    0.8919
WARNING in EDDRMM: call to ZHEGV failed, returncode =   6  3     16
WARNING in EDDRMM: call to ZHEGV failed, returncode =   6  3     16
  RMM-DIIS:  cpu time    5.2862: real time    5.2853
    ORTHCH:  cpu time    0.1780: real time    0.1777
 BZINTS: Fermi energy:  0.588504;128.000000 electrons
         Band energy:***********;  BLOECHL correction:  0.000000
       DOS:  cpu time    0.0010: real time    0.0013
    CHARGE:  cpu time    0.2700: real time    0.2702
    MIXING:  cpu time    0.0110: real time    0.0096
    --------------------------------------------
      LOOP:  cpu time    6.7880: real time    6.7887

 eigenvalue-minimisations  :  1379
 total energy-change (2. order) :-0.5611316E-04  (-0.4319074E-05)
 number of electron     127.9999799 magnetization 
 augmentation part       13.6331892 magnetization 

 Broyden mixing:
  rms(total) = 0.28725E-03    rms(broyden)= 0.28725E-03
  rms(prec ) = 0.32939E-03
  weight for this iteration     100.00

 eigenvalues of (default mixing * dielectric matrix)
  average eigenvalue GAMMA=   1.9035
  8.3575  5.1798  2.9561  2.5712  2.0925  1.4956  1.2351  1.2351  1.1858  0.9483
  0.9483  0.7880  0.7880  0.5787  0.6436  0.6436  0.7117

 Free energy of the ion-electron system (eV)
  ---------------------------------------------------
  alpha Z        PSCENC =       451.31605171
  Ewald energy   TEWEN  =     24913.70541863
  -Hartree energ DENC   =    -33784.29209814
  -exchange      EXHF   =         0.00000000
  -V(xc)+E(xc)   XCENC  =       342.95643232
  PAW double counting   =      6201.68114798    -6031.85982713
  entropy T*S    EENTRO =         0.00000000
  eigenvalues    EBANDS =     -1187.61526592
  atomic energy  EATOM  =      8937.38513130
  Solvation  Ediel_sol  =         0.00000000
  ---------------------------------------------------
  free energy    TOTEN  =      -156.72300925 eV

  energy without entropy =     -156.72300925  energy(sigma->0) =     -156.72300925


--------------------------------------------------------------------------------------------------------




--------------------------------------- Iteration      1(  23)  ---------------------------------------


    POTLOK:  cpu time    0.1360: real time    0.1399
    SETDIJ:  cpu time    0.0130: real time    0.0130
    EDDIAG:  cpu time    0.8919: real time    0.8925
  RMM-DIIS:  cpu time    5.0542: real time    5.0528
    ORTHCH:  cpu time    0.1770: real time    0.1773
 BZINTS: Fermi energy:  0.597534;128.000000 electrons
         Band energy:***********;  BLOECHL correction:  0.000000
       DOS:  cpu time    0.0020: real time    0.0012
    CHARGE:  cpu time    0.2700: real time    0.2700
    MIXING:  cpu time    0.0100: real time    0.0096
    --------------------------------------------
      LOOP:  cpu time    6.5540: real time    6.5563

 eigenvalue-minimisations  :  1295
 total energy-change (2. order) :-0.2129251E-04  (-0.2694000E-05)
 number of electron     127.9999799 magnetization 
 augmentation part       13.6335796 magnetization 

 Broyden mixing:
  rms(total) = 0.18540E-03    rms(broyden)= 0.18540E-03
  rms(prec ) = 0.21127E-03
  weight for this iteration     100.00

 eigenvalues of (default mixing * dielectric matrix)
  average eigenvalue GAMMA=   1.8561
  8.3304  5.3805  2.8836  2.8836  2.0678  1.5267  1.2218  1.2218  1.1956  0.9549
  0.9549  0.7960  0.7960  0.7475  0.6422  0.6422  0.5819  0.5819

 Free energy of the ion-electron system (eV)
  ---------------------------------------------------
  alpha Z        PSCENC =       451.31605171
  Ewald energy   TEWEN  =     24913.70541863
  -Hartree energ DENC   =    -33784.25627922
  -exchange      EXHF   =         0.00000000
  -V(xc)+E(xc)   XCENC  =       342.95630329
  PAW double counting   =      6201.65546598    -6031.82967006
  entropy T*S    EENTRO =         0.00000000
  eigenvalues    EBANDS =     -1187.65545218
  atomic energy  EATOM  =      8937.38513130
  Solvation  Ediel_sol  =         0.00000000
  ---------------------------------------------------
  free energy    TOTEN  =      -156.72303054 eV

  energy without entropy =     -156.72303054  energy(sigma->0) =     -156.72303054


--------------------------------------------------------------------------------------------------------




--------------------------------------- Iteration      1(  24)  ---------------------------------------


    POTLOK:  cpu time    0.1340: real time    0.1382
    SETDIJ:  cpu time    0.0140: real time    0.0131
    EDDIAG:  cpu time    0.8049: real time    0.8042
  RMM-DIIS:  cpu time    4.5083: real time    4.5079
    ORTHCH:  cpu time    0.1770: real time    0.1765
 BZINTS: Fermi energy:  0.605199;128.000000 electrons
         Band energy:***********;  BLOECHL correction:  0.000000
       DOS:  cpu time    0.0000: real time    0.0012
    --------------------------------------------
      LOOP:  cpu time    5.6381: real time    5.6411

 eigenvalue-minimisations  :  1141
 total energy-change (2. order) :-0.6793478E-05  (-0.1143531E-05)
 number of electron     127.9999799 magnetization 
 augmentation part       13.6335796 magnetization 

 Free energy of the ion-electron system (eV)
  ---------------------------------------------------
  alpha Z        PSCENC =       451.31605171
  Ewald energy   TEWEN  =     24913.70541863
  -Hartree energ DENC   =    -33784.22522417
  -exchange      EXHF   =         0.00000000
  -V(xc)+E(xc)   XCENC  =       342.95575382
  PAW double counting   =      6201.63052773    -6031.80361159
  entropy T*S    EENTRO =         0.00000000
  eigenvalues    EBANDS =     -1187.68708476
  atomic energy  EATOM  =      8937.38513130
  Solvation  Ediel_sol  =         0.00000000
  ---------------------------------------------------
  free energy    TOTEN  =      -156.72303733 eV

  energy without entropy =     -156.72303733  energy(sigma->0) =     -156.72303733


--------------------------------------------------------------------------------------------------------




 average (electrostatic) potential at core
  the test charge radii are     0.7215  1.1929  1.2598
  (the norm of the test charge is              1.0000)
       1 -73.1647       2 -73.6894       3 -73.6894       4 -73.6508       5 -73.7351
       6 -73.7351       7 -73.8143       8 -73.8367       9 -73.8367      10 -74.0707
      11 -73.4482      12 -73.4482      13 -39.8950      14 -38.7724      15 -38.8618
[...]
     43      -3.0634      2.00000
     44      -2.9777      2.00000
     45      -2.6457      2.00000
     46      -2.6053      2.00000
     47      -2.4704      2.00000
     48      -2.3450      2.00000
     49      -2.2082      2.00000
     50      -1.9100      2.00000
     51      -1.7144      2.00000
     52      -1.7017      2.00000
     53      -1.4040      2.00000
     54      -1.3398      2.00000
     55      -1.2749      2.00000
     56      -1.2535      2.00000
     57      -1.2206      2.00000
     58      -1.1099      2.00000
     59      -1.0790      2.00000
     60      -0.9734      2.00000
     61      -0.7382      2.00000
     62      -0.5751      2.00000
     63      -0.4241      2.00000
     64      -0.2345      2.00000
     65       2.1608      0.00000
     66       2.6040      0.00000
     67       3.0772      0.00000
     68       3.4292      0.00000
     69       3.4373      0.00000
     70       3.5135      0.00000
     71       3.5600      0.00000
     72       3.5832      0.00000
     73       3.6470      0.00000
     74       3.7380      0.00000
     75       3.8103      0.00000
     76       7.6619      0.00000

 k-point     8 :       0.2857    0.2857    0.0000
  band No.  band energies     occupation 
      1     -33.7609      2.00000
      2     -32.7715      2.00000
      3     -32.6813      2.00000
      4     -32.6359      2.00000
      5     -17.3947      2.00000
      6     -17.2211      2.00000
      7     -17.0742      2.00000
      8     -16.8454      2.00000
      9     -16.6595      2.00000
     10     -16.5776      2.00000
     11     -16.5297      2.00000
     12     -16.4410      2.00000
     13     -16.4317      2.00000
     14     -16.2545      2.00000
     15     -16.1580      2.00000
     16     -15.9175      2.00000
     17     -15.7596      2.00000
     18     -15.6597      2.00000
     19     -15.0129      2.00000
     20     -14.8932      2.00000
     21     -14.8012      2.00000
     22     -14.7259      2.00000
     23     -14.6793      2.00000
     24     -14.5949      2.00000
     25     -14.5905      2.00000
     26     -14.4889      2.00000
     27     -14.4441      2.00000
     28     -14.4359      2.00000
     29      -4.3325      2.00000
     30      -4.1789      2.00000
     31      -4.0483      2.00000
     32      -4.0335      2.00000
     33      -3.7627      2.00000
     34      -3.6873      2.00000
     35      -3.5840      2.00000
     36      -3.5615      2.00000
     37      -3.5365      2.00000
     38      -3.4766      2.00000
     39      -3.4695      2.00000
     40      -3.4420      2.00000
     41      -3.3101      2.00000
     42      -3.2668      2.00000
     43      -3.2062      2.00000
     44      -3.1502      2.00000
     45      -3.1272      2.00000
     46      -3.0943      2.00000
     47      -2.7893      2.00000
     48      -2.7620      2.00000
     49      -2.5792      2.00000
     50      -2.2689      2.00000
     51      -2.1000      2.00000
     52      -1.5929      2.00000
     53      -1.4713      2.00000
     54      -1.2350      2.00000
     55      -0.9913      2.00000
     56      -0.9495      2.00000
     57      -0.8361      2.00000
     58      -0.8186      2.00000
     59      -0.7155      2.00000
     60      -0.7046      2.00000
     61      -0.5838      2.00000
     62      -0.5557      2.00000
     63      -0.3976      2.00000
     64       0.0466      2.00000
     65       2.7176      0.00000
     66       2.9732      0.00000
     67       3.0657      0.00000
     68       3.1818      0.00000
     69       3.2630      0.00000
     70       3.3550      0.00000
     71       3.4012      0.00000
     72       3.4534      0.00000
     73       3.5148      0.00000
     74       3.6781      0.00000
     75       3.7198      0.00000
     76       7.3675      0.00000

 k-point     9 :       0.4286    0.2857    0.0000
  band No.  band energies     occupation 
      1     -33.7551      2.00000
      2     -32.7646      2.00000
      3     -32.6744      2.00000
      4     -32.6290      2.00000
      5     -17.3253      2.00000
      6     -17.1202      2.00000
      7     -16.9052      2.00000
      8     -16.6777      2.00000
      9     -16.6391      2.00000
     10     -16.6212      2.00000
     11     -16.4939      2.00000
     12     -16.4824      2.00000
     13     -16.3884      2.00000
     14     -16.0993      2.00000
     15     -16.0303      2.00000
     16     -15.9126      2.00000
     17     -15.8767      2.00000
     18     -15.6188      2.00000
     19     -15.0856      2.00000
     20     -14.9280      2.00000
     21     -14.8716      2.00000
     22     -14.7541      2.00000
     23     -14.6794      2.00000
     24     -14.6233      2.00000
     25     -14.5740      2.00000
     26     -14.5437      2.00000
     27     -14.4925      2.00000
     28     -14.4239      2.00000
     29      -4.4970      2.00000
     30      -4.3959      2.00000
     31      -4.2924      2.00000
     32      -4.1800      2.00000
     33      -4.1071      2.00000
     34      -4.0689      2.00000
     35      -4.0041      2.00000
     36      -3.9065      2.00000
     37      -3.7595      2.00000
     38      -3.7281      2.00000
     39      -3.6443      2.00000
     40      -3.6047      2.00000
     41      -3.5476      2.00000
     42      -3.4785      2.00000
     43      -3.4360      2.00000
     44      -3.2845      2.00000
     45      -3.1693      2.00000
     46      -3.1214      2.00000
     47      -3.0600      2.00000
     48      -2.9726      2.00000
     49      -2.6738      2.00000
     50      -2.5472      2.00000
     51      -2.1430      2.00000
     52      -1.5546      2.00000
     53      -1.4335      2.00000
     54      -1.3225      2.00000
     55      -1.0052      2.00000
     56      -0.9477      2.00000
     57      -0.7465      2.00000
     58      -0.6690      2.00000
     59      -0.6042      2.00000
     60      -0.5738      2.00000
     61      -0.5532      2.00000
     62      -0.4552      2.00000
     63      -0.2149      2.00000
     64       0.2100      2.00000
     65       2.8476      0.00000
     66       3.1609      0.00000
     67       3.4375      0.00000
     68       3.4659      0.00000
     69       3.6216      0.00000
     70       3.6361      0.00000
     71       3.7690      0.00000
     72       3.7853      0.00000
     73       3.7982      0.00000
     74       3.8801      0.00000
     75       3.9951      0.00000
     76       7.7402      0.00000

 k-point    10 :       0.4286    0.4286    0.0000
  band No.  band energies     occupation 
      1     -33.7494      2.00000
      2     -32.7580      2.00000
      3     -32.6679      2.00000
      4     -32.6224      2.00000
      5     -17.0475      2.00000
      6     -16.8494      2.00000
      7     -16.7222      2.00000
      8     -16.6862      2.00000
      9     -16.6292      2.00000
     10     -16.5874      2.00000
     11     -16.4504      2.00000
     12     -16.4211      2.00000
     13     -16.3847      2.00000
     14     -16.0097      2.00000
     15     -15.9230      2.00000
     16     -15.8918      2.00000
     17     -15.8154      2.00000
     18     -15.6531      2.00000
     19     -15.3846      2.00000
     20     -14.9789      2.00000
     21     -14.9280      2.00000
     22     -14.9200      2.00000
     23     -14.7738      2.00000
     24     -14.7028      2.00000
     25     -14.6283      2.00000
     26     -14.5742      2.00000
     27     -14.4902      2.00000
     28     -14.4693      2.00000
     29      -4.6051      2.00000
     30      -4.5272      2.00000
     31      -4.4663      2.00000
     32      -4.3957      2.00000
     33      -4.2736      2.00000
     34      -4.2390      2.00000
     35      -4.1701      2.00000
     36      -4.1596      2.00000
     37      -4.0754      2.00000
     38      -4.0314      2.00000
     39      -3.9163      2.00000
     40      -3.8527      2.00000
     41      -3.7918      2.00000
     42      -3.7331      2.00000
     43      -3.5267      2.00000
     44      -3.4734      2.00000
     45      -3.4574      2.00000
     46      -3.3932      2.00000
     47      -3.1486      2.00000
     48      -3.1156      2.00000
     49      -2.7578      2.00000
     50      -2.6618      2.00000
     51      -2.4051      2.00000
     52      -1.4252      2.00000
     53      -1.3530      2.00000
     54      -1.3443      2.00000
     55      -0.9471      2.00000
     56      -0.9020      2.00000
     57      -0.5469      2.00000
     58      -0.5038      2.00000
     59      -0.2921      2.00000
     60      -0.2535      2.00000
     61      -0.2279      2.00000
     62      -0.1811      2.00000
     63      -0.1534      2.00000
     64       0.5535      2.00000
     65       3.3911      0.00000
     66       3.4798      0.00000
     67       3.6183      0.00000
     68       3.7005      0.00000
     69       3.8278      0.00000
     70       3.8788      0.00000
     71       3.9736      0.00000
     72       4.0373      0.00000
     73       4.0722      0.00000
     74       4.1153      0.00000
     75       7.3757      0.00000
     76       7.5847      0.00000


--------------------------------------------------------------------------------------------------------


 soft charge-density along one line, spin component           1
         0         1         2         3         4         5         6         7         8         9
 total charge-density along one line
 
 pseudopotential strength for first ion, spin component:           1
 12.656  -0.342  -0.000  -0.022   0.000   0.000   0.001  -0.000
 -0.342   0.083   0.000   0.002  -0.000  -0.000  -0.000   0.000
 -0.000   0.000  -8.949  -0.000   0.000  -0.091   0.000  -0.000
 -0.022   0.002  -0.000  -8.970   0.000   0.000  -0.088  -0.000
  0.000  -0.000   0.000   0.000  -8.949  -0.000  -0.000  -0.091
  0.000  -0.000  -0.091   0.000  -0.000   0.247  -0.000   0.000
  0.001  -0.000   0.000  -0.088  -0.000  -0.000   0.246   0.000
 -0.000   0.000  -0.000  -0.000  -0.091   0.000   0.000   0.247
 total augmentation occupancy for first ion, spin component:           1
  1.862   0.116   0.000  -0.006   0.000  -0.000   0.013   0.000
  0.116   0.011   0.000   0.026   0.000   0.000   0.005   0.000
  0.000   0.000   1.520   0.000   0.000   0.126   0.000   0.000
 -0.006   0.026  -0.000   1.520   0.000   0.000   0.136   0.000
  0.000   0.000   0.000   0.000   1.520   0.000   0.000   0.126
 -0.000   0.000   0.126   0.000   0.000   0.012   0.000   0.000
  0.013   0.005  -0.000   0.136   0.000   0.000   0.013   0.000
  0.000   0.000   0.000   0.000   0.126   0.000   0.000   0.012


------------------------ aborting loop because EDIFF is reached ----------------------------------------


    CHARGE:  cpu time    0.2720: real time    0.2720
    FORLOC:  cpu time    0.0270: real time    0.0264
    FORNL :  cpu time    3.0575: real time    3.0573
    STRESS:  cpu time    7.3619: real time    7.3605
    FORCOR:  cpu time    0.1440: real time    0.1430
    FORHAR:  cpu time    0.0490: real time    0.0491
    MIXING:  cpu time    0.0090: real time    0.0098
    OFIELD:  cpu time    0.0000: real time    0.0000

  FORCE on cell =-STRESS in cart. coord.  units (eV):
  Direction    XX          YY          ZZ          XY          YZ          ZX
  --------------------------------------------------------------------------------------
  Alpha Z   451.31605   451.31605   451.31605
  Ewald   30025.31756 30025.31756-35136.94585     0.00000     0.00000     0.00000
  Hartree 32581.98752 32581.98752-31379.73490    -0.00000    -0.00000    -0.00000
  E(xc)    -579.83062  -579.83062  -579.32823    -0.00000    -0.00000    -0.00000
  Local  -64349.73830-64349.73830 64782.31516    -0.00000    -0.00000    -0.00000
  n-local  -488.22555  -465.15123  -478.95439    -1.75429    -0.00001     0.00003
  augment   115.83349   115.83349   114.83853    -0.00000     0.00000    -0.00000
  Kinetic  2211.73391  2257.47039  2230.45609    -9.55559     0.00002    -0.00001
  Fock        0.00000     0.00000     0.00000     0.00000     0.00000     0.00000
  -------------------------------------------------------------------------------------
  Total       2.79947     2.79947     3.96245     0.00000     0.00000     0.00000
  in kB      11.45739    11.45739    16.21712     0.00000     0.00000     0.00000
  external pressure =       13.04 kB  Pullay stress =        0.00 kB


 VOLUME and BASIS-vectors are now :
 -----------------------------------------------------------------------------
  energy-cutoff  :      650.00
  volume of cell :      391.47
      direct lattice vectors                 reciprocal lattice vectors
     3.905268000  0.000000000  0.000000000     0.256064373  0.000000000  0.000000000
     0.000000000  3.905268000  0.000000000     0.000000000  0.256064373  0.000000000
     0.000000000  0.000000000 25.668438000     0.000000000  0.000000000  0.038958350

  length of vectors
     3.905268000  3.905268000 25.668438000     0.256064373  0.256064373  0.038958350


 FORCES acting on ions
    electron-ion (+dipol)            ewald-force                    non-local-force                 convergence-correction
 -----------------------------------------------------------------------------------------------
   0.157E-12 -.127E-12 0.157E+04   -.276E-14 0.267E-14 -.158E+04   0.000E+00 0.127E-20 0.789E+01   -.125E-13 0.272E-13 0.315E-02
   0.145E-12 -.136E-12 0.112E+04   -.723E-14 -.374E-14 -.111E+04   0.000E+00 0.212E-21 -.243E+00   -.159E-13 0.215E-13 0.121E-02
   -.479E-14 0.364E-12 0.112E+04   0.548E-14 -.847E-14 -.111E+04   0.000E+00 0.424E-21 -.243E+00   -.483E-14 0.217E-13 0.121E-02
   0.162E-12 0.201E-12 0.669E+03   -.956E-14 -.300E-14 -.669E+03   0.000E+00 0.000E+00 0.674E+00   -.128E-13 0.181E-13 0.278E-03
   0.157E-12 0.182E-14 0.223E+03   -.458E-14 -.321E-14 -.223E+03   0.000E+00 0.106E-21 0.207E+00   0.489E-14 0.123E-13 -.208E-03
   0.614E-15 -.100E-12 0.223E+03   0.843E-14 -.119E-13 -.223E+03   0.000E+00 -.529E-22 0.207E+00   0.175E-14 0.225E-13 -.208E-03
   0.159E-12 -.469E-12 -.223E+03   0.148E-14 0.548E-14 0.223E+03   -.424E-21 0.000E+00 0.551E+00   0.310E-14 -.188E-15 -.101E-02
   0.158E-12 -.102E-12 -.669E+03   -.364E-14 -.423E-14 0.669E+03   0.000E+00 -.106E-21 0.409E-01   0.620E-14 -.113E-13 -.732E-03
   -.317E-14 -.309E-12 -.669E+03   0.918E-14 -.129E-13 0.669E+03   0.000E+00 0.212E-21 0.409E-01   0.471E-14 -.775E-14 -.732E-03
   0.158E-12 -.138E-12 -.112E+04   -.275E-14 -.659E-17 0.111E+04   0.000E+00 0.000E+00 0.272E+01   0.904E-14 -.717E-14 0.504E-03
   0.176E-12 0.488E-12 -.154E+04   -.662E-14 -.619E-14 0.154E+04   -.212E-21 -.635E-21 -.219E+01   -.253E-15 -.241E-13 0.193E-02
   -.968E-14 -.240E-12 -.154E+04   0.656E-14 -.517E-14 0.154E+04   0.000E+00 0.000E+00 -.219E+01   -.422E-14 -.813E-14 0.193E-02
   -.154E-14 0.263E-12 0.255E+04   0.718E-14 0.728E-15 -.255E+04   0.000E+00 0.000E+00 -.499E+01   -.231E-14 0.265E-13 0.401E-02
   -.506E-15 -.564E-13 0.111E+04   0.107E-13 0.217E-14 -.111E+04   0.000E+00 0.000E+00 0.177E-01   -.551E-14 0.302E-13 0.587E-03
   -.573E-14 -.654E-13 -.372E+03   0.231E-14 0.116E-13 0.372E+03   0.000E+00 0.000E+00 0.105E+00   -.750E-14 0.475E-14 -.979E-03
   0.451E-14 0.182E-12 -.186E+04   0.115E-13 0.210E-14 0.186E+04   0.000E+00 0.000E+00 -.810E+00   -.140E-15 0.425E-14 0.156E-04
   -.406E-14 -.156E-12 0.743E+03   -.881E-14 0.112E-13 -.744E+03   0.000E+00 0.424E-21 -.381E+00   -.189E-14 -.607E-14 0.984E-03
   -.173E-14 -.733E-13 0.148E+03   -.903E-14 0.795E-14 -.149E+03   0.000E+00 0.529E-22 -.866E-01   0.352E-15 -.104E-14 -.929E-04
   0.183E-14 -.135E-12 -.446E+03   -.935E-14 0.112E-13 0.446E+03   0.000E+00 0.000E+00 -.128E-01   0.300E-14 0.330E-14 -.454E-03
   0.153E-14 -.253E-12 -.105E+04   -.597E-14 0.907E-14 0.104E+04   0.000E+00 0.212E-21 0.144E+01   0.327E-14 0.988E-14 0.148E-02
 -----------------------------------------------------------------------------------------------
   0.125E-11 -.861E-12 -.275E+01   -.747E-14 0.527E-14 0.909E-12   -.635E-21 0.212E-20 0.274E+01   -.315E-13 0.136E-12 0.129E-01
 
 
 POSITION                                       TOTAL-FORCE (eV/Angst)
 -----------------------------------------------------------------------------------
      1.95263      1.95263      6.00000        -0.000000      0.000000     -1.072794
      1.95263      0.00000      7.95263        -0.000000     -0.000000     -0.000892
      0.00000      1.95263      7.95263        -0.000000     -0.000000     -0.000892
      1.95263      1.95263      9.90527        -0.000000      0.000000      0.378587
      1.95263      0.00000     11.85790         0.000000      0.000000      0.066617
      0.00000      1.95263     11.85790        -0.000000      0.000000      0.066617
      1.95263      1.95263     13.81054        -0.000000      0.000000      0.306954
      1.95263      0.00000     15.76317         0.000000      0.000000      0.021549
      0.00000      1.95263     15.76317        -0.000000      0.000000      0.021549
      1.95263      1.95263     17.71580         0.000000      0.000000      1.061563
      1.95263      0.00000     19.66844        -0.000000      0.000000      0.454935
      0.00000      1.95263     19.66844        -0.000000      0.000000      0.454935
      0.00000      0.00000      6.00000        -0.000000     -0.000000      1.190272
      0.00000      0.00000      9.90527        -0.000000      0.000000     -0.006627
      0.00000      0.00000     13.81054        -0.000000     -0.000000     -0.058468
      0.00000      0.00000     17.71580        -0.000000     -0.000000      0.662020
      1.95263      1.95263      7.95263        -0.000000     -0.000000     -1.025541
      1.95263      1.95263     11.85790        -0.000000     -0.000000     -0.310900
      1.95263      1.95263     15.76317        -0.000000     -0.000000     -0.368391
      1.95263      1.95263     19.66844        -0.000000     -0.000000     -1.841091
 -----------------------------------------------------------------------------------
    total drift:                                0.000000     -0.000000      0.003367


--------------------------------------------------------------------------------------------------------



  FREE ENERGIE OF THE ION-ELECTRON SYSTEM (eV)
  ---------------------------------------------------
  free  energy   TOTEN  =      -156.72303733 eV

  energy  without entropy=     -156.72303733  energy(sigma->0) =     -156.72303733
 


--------------------------------------------------------------------------------------------------------


    POTLOK:  cpu time    0.1460: real time    0.1458


--------------------------------------------------------------------------------------------------------


     LOOP+:  cpu time  233.2985: real time  233.4762
    4ORBIT:  cpu time    0.0000: real time    0.0000
 BZINTS: Fermi energy:  0.605199;128.000000 electrons
         Band energy:***********;  BLOECHL correction:  0.000000

 total amount of memory used by VASP MPI-rank0   131492. kBytes
=======================================================================

   base      :      30000. kBytes
   nonl-proj :      34326. kBytes
   fftplans  :       7640. kBytes
   grid      :      13699. kBytes
   one-center:        155. kBytes
   wavefun   :      45672. kBytes
 
  
  
 General timing and accounting informations for this job:
 ========================================================
  
                  Total CPU time used (sec):      236.352
                            User time (sec):      232.512
                          System time (sec):        3.840
                         Elapsed time (sec):      237.175
  
                   Maximum memory used (kb):      141128.
                   Average memory used (kb):           0.
  
                          Minor page faults:        41248
                          Major page faults:          140
                 Voluntary context switches:         3330
