unknown system                          
   1.00000000000000     
     5.431010    0.000000    0.000000
     0.000000    5.431010    0.000000
     0.000000    0.000000   12.791010
   Si
    10
Direct
  0.000000  0.000000  0.000000
  0.499999  0.499999  0.000000
  0.250000  0.250000  0.106149
  0.750000  0.750000  0.106149
  0.000000  0.499999  0.212298
  0.499999  0.000000  0.212298
  0.250000  0.750000  0.318447
  0.750000  0.250000  0.318447
  0.000000  0.000000  0.424596
  0.499999  0.499999  0.424596
 
   48   48  100
 -67.165     -52.776     -14.086      37.296      87.167      123.75      141.10      139.78      125.36      105.46    
  85.717      67.977      53.008      40.972      31.630      24.549      19.253      15.314      12.390      10.228    
  8.6506      7.5339      6.7934      6.3721      6.2357      6.3721      6.7934      7.5339      8.6506      10.228    
  12.390      15.314      19.253      24.549      31.630      40.972      53.008      67.977      85.717      105.46    
  125.36      139.78      141.10      123.75      87.167      37.296     -14.086     -52.776     -52.776     -38.801    
 -1.3160      48.714      97.400      132.94      149.22      146.77      131.26      110.51      90.056      71.672    
  56.124      43.571      33.777      26.309      20.687      16.477      13.330      10.984      9.2519      8.0025    
  7.1440      6.6137      6.3721      6.4034      6.7148      7.3355      8.3158      9.7318      11.696      14.375    
  18.003      22.905      29.489      38.216      49.508      63.608      80.379      99.103      118.12      132.43    
  135.02      120.63      88.409      43.444     -3.6085     -39.446     -14.086     -1.3160      31.709      75.410    
  117.33      146.75      158.20      152.46      135.19      113.86      93.128      74.518      58.744      45.949    
  35.898      28.174      22.310      17.880      14.538      12.023      10.144      8.7639      7.7865      7.1440    
  6.7934      6.7148      6.9114      7.4069      8.2444      9.4907      11.246      13.659      16.945      21.400    
  27.404      35.387      45.754      58.756      74.307      91.795      109.90      124.77      130.39      122.00    
  98.378      63.314      25.531     -3.6085      37.296      48.714      75.410      109.60      141.05      161.02    
  165.35      155.34      136.44      115.16      94.711      76.375      60.785      48.058      37.976      30.149    
  24.143      19.555      16.056      13.392      11.374      9.8642      8.7639      8.0025      7.5339      7.3355    
  7.4069      7.7666      8.4506      9.5162      11.050      13.182      16.102      20.072      25.434      32.578    
  41.886      53.614      67.743      83.810      100.81      116.29      125.52      124.38      111.38      88.885    
  63.314      43.444      87.167      97.400      117.33      141.05      160.92      170.63      167.68      154.01    
  134.62      114.20      94.683      77.170      62.201      49.878      40.010      32.254      26.224      21.556    
  17.947      15.159      13.013      11.374      10.144      9.2519      8.6506      8.3158      8.2444      8.4506    
  8.9643      9.8329      11.130      12.966      15.501      18.963      23.645      29.891      38.049      48.378    
  60.926      75.391      91.030      106.50      118.66      124.16      121.35      111.38      98.378      88.409    
  123.75      132.94      146.75      161.02      170.63      171.71      163.42      148.10      129.81      111.01    
  93.071      76.914      62.995      51.412      42.014      34.521      28.605      23.951      20.293      17.418    
  15.159      13.392      12.023      10.984      10.228      9.7318      9.4907      9.5162      9.8329      10.481    
  11.520      13.041      15.177      18.115      22.101      27.424      34.390      43.248      54.104      66.800    
  80.842      95.405      108.98      119.09      124.16      124.38      122.00      120.63      141.10      149.22    
  158.20      165.35      167.68      163.42      152.92      138.53      122.39      105.86      90.053      75.711    
  63.224      52.696      44.028      37.002      31.358      26.835      23.208      20.293      17.947      16.056    
  14.538      13.330      12.390      11.696      11.246      11.050      11.130      11.520      12.269      13.450    
  15.169      17.575      20.862      25.266      31.042      38.418      47.531      58.342      70.561      83.639    
  96.843      108.98      118.66      125.52      130.39      135.02      139.78      146.77      152.46      155.34    
  154.01      148.10      138.53      126.48      113.03      99.224      85.929      73.741      62.994      53.801    
  46.110      39.769      34.577      30.326      26.835      23.951      21.556      19.555      17.880      16.477    
  15.314      14.375      13.659      13.182      12.966      13.041      13.450      14.250      15.524      17.384    
  19.979      23.488      28.114      34.053      41.450      50.338      60.583      71.848      83.639      95.405    
  106.50      116.29      124.77      132.43      125.36      131.26      135.19      136.44      134.62      129.81    
  122.39      113.03      102.52      91.652      81.065      71.236      62.450      54.826      48.351      42.919    
  38.382      34.577      31.358      28.605      26.224      24.143      22.310      20.687      19.253      18.003    
  16.945      16.102      15.501      15.177      15.169      15.524      16.305      17.594      19.496      22.143    
  25.684      30.274      36.047      43.074      51.313      60.583      70.561      80.842      91.030      100.81    
  109.90      118.12      105.46      110.51      113.86      115.16      114.20      111.01      105.86      99.224    
  91.652      83.697      75.840      68.449      61.764      55.899      50.859      46.572      42.919      39.769    
  37.002      34.521      32.254      30.149      28.174      26.309      24.549      22.905      21.400      20.072    
  18.963      18.115      17.575      17.384      17.594      18.260      19.455      21.264      23.790      27.146    
  31.439      36.745      43.074      50.338      58.342      66.800      75.391      83.810      91.795      99.103    
  85.717      90.056      93.128      94.711      94.683      93.071      90.053      85.929      81.065      75.840    
  70.601      65.627      61.112      57.153      53.757      50.859      48.351      46.110      44.028      42.014    
  40.010      37.976      35.898      33.777      31.630      29.489      27.404      25.434      23.645      22.101    
  20.862      19.979      19.496      19.455      19.898      20.874      22.446      24.682      27.659      31.439    
  36.047      41.450      47.531      54.104      60.926      67.743      74.307      80.379      67.977      71.672    
  74.518      76.375      77.170      76.914      75.711      73.741      71.236      68.449      65.627      62.977    
  60.648      58.710      57.153      55.899      54.826      53.801      52.696      51.412      49.878      48.058    
  45.949      43.571      40.972      38.216      35.387      32.578      29.891      27.424      25.266      23.488    
  22.143      21.264      20.874      20.994      21.645      22.862      24.682      27.146      30.274      34.053    
  38.418      43.248      48.378      53.614      58.756      63.608      53.008      56.124      58.744      60.785    
  62.201      62.995      63.224      62.994      62.450      61.764      61.112      60.648      60.481      60.648    
  61.112      61.764      62.450      62.994      63.224      62.995      62.201      60.785      58.744      56.124    
  53.008      49.508      45.754      41.886      38.049      34.390      31.042      28.114      25.684      23.790    
  22.446      21.645      21.380      21.645      22.446      23.790      25.684      28.114      31.042      34.390    
  38.049      41.886      45.754      49.508      40.972      43.571      45.949      48.058      49.878      51.412    
  52.696      53.801      54.826      55.899      57.153      58.710      60.648      62.977      65.627      68.449    
  71.236      73.741      75.711      76.914      77.170      76.375      74.518      71.672      67.977      63.608    
  58.756      53.614      48.378      43.248      38.418      34.053      30.274      27.146      24.682      22.862    
  21.645      20.994      20.874      21.264      22.143      23.488      25.266      27.424      29.891      32.578    
  35.387      38.216      31.630      33.777      35.898      37.976      40.010      42.014      44.028      46.110    
  48.351      50.859      53.757      57.153      61.112      65.627      70.601      75.840      81.065      85.929    
  90.053      93.071      94.683      94.711      93.128      90.056      85.717      80.379      74.307      67.743    
  60.926      54.104      47.531      41.450      36.047      31.439      27.659      24.682      22.446      20.874    
  19.898      19.455      19.496      19.979      20.862      22.101      23.645      25.434      27.404      29.489    
  24.549      26.309      28.174      30.149      32.254      34.521      37.002      39.769      42.919      46.572    
  50.859      55.899      61.764      68.449      75.840      83.697      91.652      99.224      105.86      111.01    
  114.20      115.16      113.86      110.51      105.46      99.103      91.795      83.810      75.391      66.800    
  58.342      50.338      43.074      36.745      31.439      27.146      23.790      21.264      19.455      18.260    
  17.594      17.384      17.575      18.115      18.963      20.072      21.400      22.905      19.253      20.687    
  22.310      24.143      26.224      28.605      31.358      34.577      38.382      42.919      48.351      54.826    
  62.450      71.236      81.065      91.652      102.52      113.03      122.39      129.81      134.62      136.44    
  135.19      131.26      125.36      118.12      109.90      100.81      91.030      80.842      70.561      60.583    
  51.313      43.074      36.047      30.274      25.684      22.143      19.496      17.594      16.305      15.524    
  15.169      15.177      15.501      16.102      16.945      18.003      15.314      16.477      17.880      19.555    
  21.556      23.951      26.835      30.326      34.577      39.769      46.110      53.801      62.994      73.741    
  85.929      99.224      113.03      126.48      138.53      148.10      154.01      155.34      152.46      146.77    
  139.78      132.43      124.77      116.29      106.50      95.405      83.639      71.848      60.583      50.338    
  41.450      34.053      28.114      23.488      19.979      17.384      15.524      14.250      13.450      13.041    
  12.966      13.182      13.659      14.375      12.390      13.330      14.538      16.056      17.947      20.293    
  23.208      26.835      31.358      37.002      44.028      52.696      63.224      75.711      90.053      105.86    
  122.39      138.53      152.92      163.42      167.68      165.34      158.19      149.22      141.10      135.01    
  130.39      125.52      118.66      108.98      96.843      83.639      70.561      58.342      47.531      38.418    
  31.042      25.266      20.862      17.575      15.169      13.450      12.269      11.520      11.130      11.050    
  11.246      11.696      10.228      10.984      12.023      13.392      15.159      17.418      20.293      23.951    
  28.605      34.521      42.014      51.412      62.995      76.914      93.071      111.01      129.81      148.10    
  163.42      171.71      170.62      161.02      146.75      132.94      123.75      120.63      122.00      124.38    
  124.16      119.09      108.98      95.405      80.842      66.800      54.104      43.248      34.390      27.424    
  22.101      18.115      15.177      13.041      11.520      10.481      9.8329      9.5162      9.4907      9.7318    
  8.6506      9.2519      10.144      11.374      13.013      15.159      17.947      21.556      26.224      32.254    
  40.010      49.878      62.201      77.170      94.683      114.20      134.62      154.01      167.68      170.62    
  160.92      141.05      117.33      97.398      87.165      88.408      98.378      111.38      121.35      124.16    
  118.66      106.50      91.030      75.391      60.926      48.378      38.049      29.891      23.645      18.963    
  15.501      12.966      11.130      9.8329      8.9643      8.4506      8.2444      8.3158      7.5339      8.0025    
  8.7639      9.8642      11.374      13.392      16.056      19.555      24.143      30.149      37.976      48.058    
  60.785      76.375      94.711      115.16      136.44      155.34      165.34      161.02      141.05      109.60    
  75.407      48.711      37.294      43.443      63.314      88.885      111.38      124.38      125.52      116.29    
  100.81      83.810      67.743      53.614      41.886      32.578      25.434      20.072      16.102      13.182    
  11.050      9.5162      8.4506      7.7666      7.4069      7.3355      6.7934      7.1440      7.7865      8.7639    
  10.144      12.023      14.538      17.880      22.310      28.174      35.898      45.949      58.744      74.518    
  93.128      113.86      135.19      152.46      158.19      146.75      117.33      75.407      31.706     -1.3182    
 -14.088     -3.6091      25.531      63.314      98.379      122.00      130.39      124.77      109.90      91.795    
  74.307      58.756      45.754      35.387      27.404      21.400      16.945      13.659      11.246      9.4907    
  8.2444      7.4069      6.9114      6.7148      6.3721      6.6137      7.1440      8.0025      9.2519      10.984    
  13.330      16.477      20.687      26.309      33.777      43.571      56.124      71.672      90.056      110.51    
  131.26      146.77      149.22      132.94      97.398      48.711     -1.3182     -38.803     -52.777     -39.446    
 -3.6078      43.445      88.410      120.63      135.02      132.43      118.12      99.103      80.379      63.608    
  49.508      38.216      29.489      22.905      18.003      14.375      11.696      9.7318      8.3158      7.3355    
  6.7148      6.4034      6.2357      6.3721      6.7934      7.5339      8.6506      10.228      12.390      15.314    
  19.253      24.549      31.630      40.972      53.008      67.977      85.717      105.46      125.36      139.78    
  141.10      123.75      87.165      37.294     -14.088     -52.777     -67.165     -52.775     -14.085      37.297    
  87.168      123.76      141.10      139.78      125.36      105.46      85.717      67.977      53.008      40.972    
  31.630      24.549      19.253      15.314      12.390      10.228      8.6506      7.5339      6.7934      6.3721    
  6.3721      6.4034      6.7148      7.3355      8.3158      9.7318      11.696      14.375      18.003      22.905    
  29.489      38.216      49.508      63.608      80.379      99.103      118.12      132.43      135.01      120.63    
  88.408      43.443     -3.6091     -39.446     -52.775     -38.799     -1.3139      48.716      97.402      132.94    
  149.22      146.77      131.26      110.51      90.056      71.672      56.124      43.571      33.777      26.309    
  20.687      16.477      13.330      10.984      9.2519      8.0025      7.1440      6.6137      6.7934      6.7148    
  6.9114      7.4069      8.2444      9.4907      11.246      13.659      16.945      21.400      27.404      35.387    
  45.754      58.756      74.307      91.795      109.90      124.77      130.39      122.00      98.378      63.314    
  25.531     -3.6078     -14.085     -1.3139      31.712      75.413      117.33      146.75      158.20      152.46    
  135.19      113.86      93.128      74.518      58.744      45.949      35.898      28.174      22.310      17.880    
  14.538      12.023      10.144      8.7639      7.7865      7.1440      7.5339      7.3355      7.4069      7.7666    
  8.4506      9.5162      11.050      13.182      16.102      20.072      25.434      32.578      41.886      53.614    
  67.743      83.810      100.81      116.29      125.52      124.38      111.38      88.885      63.314      43.445    
  37.297      48.716      75.413      109.61      141.06      161.03      165.35      155.34      136.44      115.16    
  94.711      76.375      60.785      48.058      37.976      30.149      24.143      19.555      16.056      13.392    
  11.374      9.8642      8.7639      8.0025      8.6506      8.3158      8.2444      8.4506      8.9643      9.8329    
  11.130      12.966      15.501      18.963      23.645      29.891      38.049      48.378      60.926      75.391    
  91.030      106.50      118.66      124.16      121.35      111.38      98.379      88.410      87.168      97.402    
  117.33      141.06      160.92      170.63      167.69      154.01      134.62      114.20      94.683      77.170    
  62.201      49.878      40.010      32.254      26.224      21.556      17.947      15.159      13.013      11.374    
  10.144      9.2519      10.228      9.7318      9.4907      9.5162      9.8329      10.481      11.520      13.041    
  15.177      18.115      22.101      27.424      34.390      43.248      54.104      66.800      80.842      95.405    
  108.98      119.09      124.16      124.38      122.00      120.63      123.76      132.94      146.75      161.03    
  170.63      171.71      163.42      148.10      129.81      111.01      93.071      76.914      62.995      51.412    
  42.014      34.521      28.605      23.951      20.293      17.418      15.159      13.392      12.023      10.984    
  12.390      11.696      11.246      11.050      11.130      11.520      12.269      13.450      15.169      17.575    
  20.862      25.266      31.042      38.418      47.531      58.342      70.561      83.639      96.843      108.98    
  118.66      125.52      130.39      135.02      141.10      149.22      158.20      165.35      167.69      163.42    
  152.92      138.53      122.39      105.86      90.053      75.711      63.224      52.696      44.028      37.002    
  31.358      26.835      23.208      20.293      17.947      16.056      14.538      13.330      15.314      14.375    
  13.659      13.182      12.966      13.041      13.450      14.250      15.524      17.384      19.979      23.488    
  28.114      34.053      41.450      50.338      60.583      71.848      83.639      95.405      106.50      116.29    
  124.77      132.43      139.78      146.77      152.46      155.34      154.01      148.10      138.53      126.48    
  113.03      99.224      85.929      73.741      62.994      53.801      46.110      39.769      34.577      30.326    
  26.835      23.951      21.556      19.555      17.880      16.477      19.253      18.003      16.945      16.102    
  15.501      15.177      15.169      15.524      16.305      17.594      19.496      22.143      25.684      30.274    
  36.047      43.074      51.313      60.583      70.561      80.842      91.030      100.81      109.90      118.12    
  125.36      131.26      135.19      136.44      134.62      129.81      122.39      113.03      102.52      91.652    
  81.065      71.236      62.450      54.826      48.351      42.919      38.382      34.577      31.358      28.605    
  26.224      24.143      22.310      20.687      24.549      22.905      21.400      20.072      18.963      18.115    
  17.575      17.384      17.594      18.260      19.455      21.264      23.790      27.146      31.439      36.745    
  43.074      50.338      58.342      66.800      75.391      83.810      91.795      99.103      105.46      110.51    
  113.86      115.16      114.20      111.01      105.86      99.224      91.652      83.697      75.840      68.449    
  61.764      55.899      50.859      46.572      42.919      39.769      37.002      34.521      32.254      30.149    
  28.174      26.309      31.630      29.489      27.404      25.434      23.645      22.101      20.862      19.979    
  19.496      19.455      19.898      20.874      22.446      24.682      27.659      31.439      36.047      41.450    
  47.531      54.104      60.926      67.743      74.307      80.379      85.717      90.056      93.128      94.711    
  94.683      93.071      90.053      85.929      81.065      75.840      70.601      65.627      61.112      57.153    
  53.757      50.859      48.351      46.110      44.028      42.014      40.010      37.976      35.898      33.777    
  40.972      38.216      35.387      32.578      29.891      27.424      25.266      23.488      22.143      21.264    
  20.874      20.994      21.645      22.862      24.682      27.146      30.274      34.053      38.418      43.248    
  48.378      53.614      58.756      63.608      67.977      71.672      74.518      76.375      77.170      76.914    
  75.711      73.741      71.236      68.449      65.627      62.977      60.648      58.710      57.153      55.899    
  54.826      53.801      52.696      51.412      49.878      48.058      45.949      43.571      53.008      49.508    
  45.754      41.886      38.049      34.390      31.042      28.114      25.684      23.790      22.446      21.645    
  21.380      21.645      22.446      23.790      25.684      28.114      31.042      34.390      38.049      41.886    
  45.754      49.508      53.008      56.124      58.744      60.785      62.201      62.995      63.224      62.994    
  62.450      61.764      61.112      60.648      60.481      60.648      61.112      61.764      62.450      62.994    
  63.224      62.995      62.201      60.785      58.744      56.124      67.977      63.608      58.756      53.614    
  48.378      43.248      38.418      34.053      30.274      27.146      24.682      22.862      21.645      20.994    
  20.874      21.264      22.143      23.488      25.266      27.424      29.891      32.578      35.387      38.216    
  40.972      43.571      45.949      48.058      49.878      51.412      52.696      53.801      54.826      55.899    
  57.153      58.710      60.648      62.977      65.627      68.449      71.236      73.741      75.711      76.914    
  77.170      76.375      74.518      71.672      85.717      80.379      74.307      67.743      60.926      54.104    
  47.531      41.450      36.047      31.439      27.659      24.682      22.446      20.874      19.898      19.455    
  19.496      19.979      20.862      22.101      23.645      25.434      27.404      29.489      31.630      33.777    
  35.898      37.976      40.010      42.014      44.028      46.110      48.351      50.859      53.757      57.153    
  61.112      65.627      70.601      75.840      81.065      85.929      90.053      93.071      94.683      94.711    
  93.128      90.056      105.46      99.103      91.795      83.810      75.391      66.800      58.342      50.338    
  43.074      36.745      31.439      27.146      23.790      21.264      19.455      18.260      17.594      17.384    
  17.575      18.115      18.963      20.072      21.400      22.905      24.549      26.309      28.174      30.149    
  32.254      34.521      37.002      39.769      42.919      46.572      50.859      55.899      61.764      68.449    
  75.840      83.697      91.652      99.224      105.86      111.01      114.20      115.16      113.86      110.51    
  125.36      118.12      109.90      100.81      91.030      80.842      70.561      60.583      51.313      43.074    
  36.047      30.274      25.684      22.143      19.496      17.594      16.305      15.524      15.169      15.177    
  15.501      16.102      16.945      18.003      19.253      20.687      22.310      24.143      26.224      28.605    
  31.358      34.577      38.382      42.919      48.351      54.826      62.450      71.236      81.065      91.652    
  102.52      113.03      122.39      129.81      134.62      136.44      135.19      131.26      139.78      132.43    
  124.77      116.29      106.50      95.405      83.639      71.848      60.583      50.338      41.450      34.053    
  28.114      23.488      19.979      17.384      15.524      14.250      13.450      13.041      12.966      13.182    
  13.659      14.375      15.314      16.477      17.880      19.555      21.556      23.951      26.835      30.326    
  34.577      39.769      46.110      53.801      62.994      73.741      85.929      99.224      113.03      126.48    
  138.53      148.10      154.01      155.34      152.46      146.77      141.10      135.02      130.39      125.52    
  118.66      108.98      96.843      83.639      70.561      58.342      47.531      38.418      31.042      25.266    
  20.862      17.575      15.169      13.450      12.269      11.520      11.130      11.050      11.246      11.696    
  12.390      13.330      14.538      16.056      17.947      20.293      23.208      26.835      31.358      37.002    
  44.028      52.696      63.224      75.711      90.053      105.86      122.39      138.53      152.92      163.42    
  167.68      165.35      158.20      149.22      123.75      120.63      122.00      124.38      124.16      119.09    
  108.98      95.405      80.842      66.800      54.104      43.248      34.390      27.424      22.101      18.115    
  15.177      13.041      11.520      10.481      9.8329      9.5162      9.4907      9.7318      10.228      10.984    
  12.023      13.392      15.159      17.418      20.293      23.951      28.605      34.521      42.014      51.412    
  62.995      76.914      93.071      111.01      129.81      148.10      163.42      171.71      170.63      161.02    
  146.75      132.94      87.167      88.409      98.378      111.38      121.35      124.16      118.66      106.50    
  91.030      75.391      60.926      48.378      38.049      29.891      23.645      18.963      15.501      12.966    
  11.130      9.8329      8.9643      8.4506      8.2444      8.3158      8.6506      9.2519      10.144      11.374    
  13.013      15.159      17.947      21.556      26.224      32.254      40.010      49.878      62.201      77.170    
  94.683      114.20      134.62      154.01      167.68      170.63      160.92      141.05      117.33      97.400    
  37.296      43.444      63.314      88.885      111.38      124.38      125.52      116.29      100.81      83.810    
  67.743      53.614      41.886      32.578      25.434      20.072      16.102      13.182      11.050      9.5162    
  8.4506      7.7666      7.4069      7.3355      7.5339      8.0025      8.7639      9.8642      11.374      13.392    
  16.056      19.555      24.143      30.149      37.976      48.058      60.785      76.375      94.711      115.16    
  136.44      155.34      165.35      161.02      141.05      109.60      75.410      48.714     -14.086     -3.6085    
  25.531      63.314      98.378      122.00      130.39      124.77      109.90      91.795      74.307      58.756    
  45.754      35.387      27.404      21.400      16.945      13.659      11.246      9.4907      8.2444      7.4069    
  6.9114      6.7148      6.7934      7.1440      7.7865      8.7639      10.144      12.023      14.538      17.880    
  22.310      28.174      35.898      45.949      58.744      74.518      93.128      113.86      135.19      152.46    
  158.20      146.75      117.33      75.410      31.709     -1.3160     -52.776     -39.446     -3.6085      43.444    
  88.409      120.63      135.02      132.43      118.12      99.103      80.379      63.608      49.508      38.216    
  29.489      22.905      18.003      14.375      11.696      9.7318      8.3158      7.3355      6.7148      6.4034    
  6.3721      6.6137      7.1440      8.0025      9.2519      10.984      13.330      16.477      20.687      26.309    
  33.777      43.571      56.124      71.672      90.056      110.51      131.26      146.77      149.22      132.94    
  97.400      48.714     -1.3160     -38.801     -48.950     -35.279      1.3924      49.858      96.508      130.21    
  145.47      143.06      128.38      108.69      89.133      71.430      56.351      44.084      34.438      27.029    
  21.420      17.203      14.045      11.693      9.9632      8.7295      7.9056      7.4343      7.2811      7.4343    
  7.9056      8.7295      9.9632      11.693      14.045      17.203      21.420      27.029      34.438      44.084    
  56.351      71.430      89.133      108.69      128.38      143.06      145.47      130.21      96.508      49.858    
  1.3924     -35.279     -35.279     -20.500      16.251      64.216      110.06      142.73      156.71      152.86    
  136.78      115.93      95.368      76.750      60.843      47.833      37.532      29.560      23.475      18.861    
  15.376      12.752      10.796      9.3673      8.3708      7.7403      7.4343      7.4351      7.7486      8.4024    
  9.4447      10.950      13.032      15.857      19.657      24.746      31.510      40.371      51.703      65.702    
  82.203      100.48      118.97      133.11      136.29      123.49      93.836      52.145      8.5843     -24.130    
  1.3924      16.251      49.770      92.404      132.18      159.12      168.44      161.30      143.33      121.67    
  100.54      81.423      65.026      51.528      40.750      32.328      25.833      20.858      17.058      14.164    
  11.975      10.344      9.1677      8.3708      7.9056      7.7486      7.9002      8.3809      9.2303      10.512    