   10   10    1    1
  0.3772820E+02  0.5431010E-09  0.5431010E-09  0.1279101E-08  0.5000000E-15
  1.000000000000000E-004
  CAR 
 unknown system                          
     40      6     26
 
  0.0000000E+00  0.0000000E+00  0.0000000E+00  0.4000000E-01
    1      -10.642788   1.000000
    2       -9.018197   1.000000
    3       -7.042410   1.000000
    4       -6.899621   1.000000
    5       -6.899502   1.000000
    6       -6.666540   1.000000
    7       -6.088865   1.000000
    8       -5.915437   1.000000
    9       -3.718691   1.000000
   10       -2.568539   1.000000
   11       -2.470042   1.000000
   12       -2.469982   1.000000
   13       -1.586018   1.000000
   14       -1.585999   1.000000
   15       -0.598303   1.000000
   16       -0.590521   1.000000
   17       -0.229582   1.000000
   18       -0.229570   1.000000
   19        0.034399   1.000000
   20        0.034505   1.000000
   21        0.427327   0.946311
   22        1.004328   0.000000
   23        1.999979   0.000000
   24        2.103746   0.000000
   25        2.732657   0.000000
   26        2.811130   0.000000
 
  0.2000000E+00  0.0000000E+00  0.0000000E+00  0.1600000E+00
    1      -10.475753   1.000000
    2       -8.878727   1.000000
    3       -8.122791   1.000000
    4       -7.246727   1.000000
    5       -6.604728   1.000000
    6       -6.507957   1.000000
    7       -5.635179   1.000000
    8       -5.260019   1.000000
    9       -3.889700   1.000000
   10       -2.858566   1.000000
   11       -2.647305   1.000000
   12       -2.105195   1.000000
   13       -1.911261   1.000000
   14       -1.875971   1.000000
   15       -1.296714   1.000000
   16       -0.719096   1.000000
   17       -0.421480   1.000000
   18        0.104847   1.000000
   19        0.211974   0.999998
   20        0.226723   0.999996
   21        0.438682   0.926403
   22        0.862852   0.000003
   23        2.204782   0.000000
   24        2.577073   0.000000
   25        2.844942   0.000000
   26        2.959345   0.000000
 
  0.4000000E+00  0.0000000E+00  0.0000000E+00  0.1600000E+00
    1       -9.980829   1.000000
    2       -9.179904   1.000000
    3       -8.478900   1.000000
    4       -7.884976   1.000000
    5       -6.478605   1.000000
    6       -6.427191   1.000000
    7       -5.076428   1.000000
    8       -4.417076   1.000000
    9       -3.945690   1.000000
   10       -2.858085   1.000000
   11       -2.833562   1.000000
   12       -2.740836   1.000000
   13       -2.455194   1.000000
   14       -2.319905   1.000000
   15       -1.432086   1.000000
   16       -1.224434   1.000000
   17       -0.040191   1.000000
   18        0.191831   1.000000
   19        0.269492   0.999939
   20        0.444215   0.914852
   21        0.533769   0.541724
   22        1.210047   0.000000
   23        1.407480   0.000000
   24        2.338562   0.000000
   25        3.530228   0.000000
   26        4.015964   0.000000
 
  0.2000000E+00  0.2000000E+00  0.0000000E+00  0.1600000E+00
    1      -10.312788   1.000000
    2       -8.757703   1.000000
    3       -8.238542   1.000000
    4       -7.880684   1.000000
    5       -6.581205   1.000000
    6       -6.253770   1.000000
    7       -5.703507   1.000000
    8       -4.823419   1.000000
    9       -4.213185   1.000000
   10       -2.766688   1.000000
   11       -2.749792   1.000000
   12       -2.404010   1.000000
   13       -1.961060   1.000000
   14       -1.930428   1.000000
   15       -1.344353   1.000000
   16       -0.167828   1.000000
   17       -0.141438   1.000000
   18       -0.052932   1.000000
   19        0.086933   1.000000
   20        0.125470   1.000000
   21        0.498393   0.727431
   22        1.036948   0.000000
   23        1.851336   0.000000
   24        2.578518   0.000000
   25        2.854009   0.000000
   26        3.319390   0.000000
 
  0.4000000E+00  0.2000000E+00  0.0000000E+00  0.3200000E+00
    1       -9.833307   1.000000
    2       -9.074079   1.000000
    3       -8.439696   1.000000
    4       -8.106572   1.000000
    5       -6.571381   1.000000
    6       -6.534534   1.000000
    7       -5.207981   1.000000
    8       -4.758013   1.000000
    9       -4.253465   1.000000
   10       -3.594393   1.000000
   11       -2.340336   1.000000
   12       -2.224381   1.000000
   13       -2.210252   1.000000
   14       -1.574489   1.000000
   15       -1.457858   1.000000
   16       -0.667997   1.000000
   17       -0.355730   1.000000
   18       -0.335254   1.000000
   19        0.359625   0.994879
   20        0.575793   0.312233
   21        0.685142   0.020877
   22        1.263223   0.000000
   23        1.793995   0.000000
   24        2.586139   0.000000
   25        3.474249   0.000000
   26        3.687049   0.000000
 
  0.4000000E+00  0.4000000E+00  0.0000000E+00  0.1600000E+00
    1       -9.415066   1.000000
    2       -8.926618   1.000000
    3       -8.571088   1.000000
    4       -8.453921   1.000000
    5       -6.700228   1.000000
    6       -6.613066   1.000000
    7       -5.454487   1.000000
    8       -5.196669   1.000000
    9       -4.344096   1.000000
   10       -4.219308   1.000000
   11       -2.185638   1.000000
   12       -2.139610   1.000000
   13       -1.098157   1.000000
   14       -1.070142   1.000000
   15       -0.789412   1.000000
   16       -0.747806   1.000000
   17       -0.416144   1.000000
   18       -0.158085   1.000000
   19        0.392090   0.982503
   20        0.696663   0.013943
   21        0.771391   0.000566
   22        0.806110   0.000090
   23        2.613180   0.000000
   24        3.025852   0.000000
   25        3.093565   0.000000
   26        3.394224   0.000000
