unknown system                          
   1.00000000000000     
     5.431010    0.000000    0.000000
     0.000000    5.431010    0.000000
     0.000000    0.000000   12.791010
   Si
    10
Direct
  0.000000  0.000000  0.000000
  0.499999  0.499999  0.000000
  0.250000  0.250000  0.106149
  0.750000  0.750000  0.106149
  0.000000  0.499999  0.212298
  0.499999  0.000000  0.212298
  0.250000  0.750000  0.318447
  0.750000  0.250000  0.318447
  0.000000  0.000000  0.424596
  0.499999  0.499999  0.424596
 
   24   24   50
 0.12401     0.21319     0.47747     0.69490     0.76501     0.72643     0.59133     0.39395     0.20683     0.89824E-01
 0.39109E-01 0.21345E-01 0.17153E-01 0.21354E-01 0.39093E-01 0.89885E-01 0.20675     0.39406     0.59127     0.72646    
 0.76501     0.69491     0.47748     0.21319     0.21319     0.36665     0.62455     0.77365     0.80728     0.75442    
 0.61490     0.41682     0.22998     0.10999     0.53120E-01 0.29711E-01 0.21354E-01 0.21965E-01 0.34478E-01 0.74873E-01
 0.17644     0.35461     0.55329     0.69438     0.73646     0.66810     0.47263     0.26020     0.47747     0.62455    
 0.77207     0.83726     0.83314     0.76020     0.61059     0.41352     0.23999     0.13313     0.79682E-01 0.53083E-01
 0.39093E-01 0.34478E-01 0.41872E-01 0.72138E-01 0.15232     0.30911     0.50584     0.66121     0.72700     0.70010    
 0.59145     0.47263     0.69490     0.77365     0.83726     0.85514     0.82253     0.72821     0.57057     0.39037    
 0.25120     0.17213     0.13317     0.11002     0.89885E-01 0.74873E-01 0.72138E-01 0.89607E-01 0.14454     0.26447    
 0.44265     0.60946     0.70712     0.72931     0.70009     0.66810     0.76501     0.80728     0.83314     0.82253    
 0.76447     0.65279     0.50510     0.37149     0.28809     0.25117     0.23996     0.22990     0.20675     0.17644    
 0.15232     0.14454     0.16519     0.23400     0.36397     0.52068     0.64325     0.70715     0.72701     0.73647    
 0.72643     0.75442     0.76020     0.72821     0.65279     0.54550     0.44326     0.38330     0.37151     0.39039    
 0.41357     0.41689     0.39406     0.35461     0.30911     0.26447     0.23400     0.23895     0.29582     0.40211    
 0.52063     0.60944     0.66117     0.69435     0.59133     0.61490     0.61059     0.57057     0.50510     0.44326    
 0.41794     0.44326     0.50509     0.57055     0.61055     0.61484     0.59127     0.55329     0.50584     0.44265    
 0.36397     0.29582     0.26975     0.29584     0.36399     0.44272     0.50590     0.55337     0.39395     0.41682    
 0.41352     0.39037     0.37149     0.38330     0.44326     0.54551     0.65279     0.72822     0.76021     0.75444    
 0.72646     0.69438     0.66121     0.60946     0.52068     0.40211     0.29584     0.23895     0.23398     0.26442    
 0.30902     0.35452     0.20683     0.22998     0.23999     0.25120     0.28809     0.37151     0.50509     0.65279    
 0.76446     0.82253     0.83313     0.80727     0.76501     0.73646     0.72700     0.70712     0.64325     0.52063    
 0.36399     0.23398     0.16521     0.14457     0.15237     0.17653     0.89824E-01 0.10999     0.13313     0.17213    
 0.25117     0.39039     0.57055     0.72822     0.82253     0.85514     0.83727     0.77365     0.69491     0.66810    
 0.70010     0.72931     0.70715     0.60944     0.44272     0.26442     0.14457     0.89584E-01 0.72118E-01 0.74838E-01
 0.39109E-01 0.53120E-01 0.79682E-01 0.13317     0.23996     0.41357     0.61055     0.76021     0.83313     0.83727    
 0.77206     0.62455     0.47748     0.47263     0.59145     0.70009     0.72701     0.66117     0.50590     0.30902    
 0.15237     0.72118E-01 0.41889E-01 0.34491E-01 0.21345E-01 0.29711E-01 0.53083E-01 0.11002     0.22990     0.41689    
 0.61484     0.75444     0.80727     0.77365     0.62455     0.36665     0.21319     0.26020     0.47263     0.66810    
 0.73647     0.69435     0.55337     0.35452     0.17653     0.74838E-01 0.34491E-01 0.21957E-01 0.17153E-01 0.21354E-01
 0.39093E-01 0.89885E-01 0.20675     0.39406     0.59127     0.72646     0.76501     0.69491     0.47748     0.21319    
 0.12401     0.21319     0.47747     0.69490     0.76501     0.72643     0.59133     0.39395     0.20683     0.89824E-01
 0.39109E-01 0.21345E-01 0.21354E-01 0.21965E-01 0.34478E-01 0.74873E-01 0.17644     0.35461     0.55329     0.69438    
 0.73646     0.66810     0.47263     0.26020     0.21319     0.36665     0.62455     0.77365     0.80728     0.75442    
 0.61490     0.41682     0.22998     0.10999     0.53120E-01 0.29711E-01 0.39093E-01 0.34478E-01 0.41872E-01 0.72138E-01
 0.15232     0.30911     0.50584     0.66121     0.72700     0.70010     0.59145     0.47263     0.47747     0.62455    
 0.77207     0.83726     0.83314     0.76020     0.61059     0.41352     0.23999     0.13313     0.79682E-01 0.53083E-01
 0.89885E-01 0.74873E-01 0.72138E-01 0.89607E-01 0.14454     0.26447     0.44265     0.60946     0.70712     0.72931    
 0.70009     0.66810     0.69490     0.77365     0.83726     0.85514     0.82253     0.72821     0.57057     0.39037    
 0.25120     0.17213     0.13317     0.11002     0.20675     0.17644     0.15232     0.14454     0.16519     0.23400    
 0.36397     0.52068     0.64325     0.70715     0.72701     0.73647     0.76501     0.80728     0.83314     0.82253    
 0.76447     0.65279     0.50510     0.37149     0.28809     0.25117     0.23996     0.22990     0.39406     0.35461    
 0.30911     0.26447     0.23400     0.23895     0.29582     0.40211     0.52063     0.60944     0.66117     0.69435    
 0.72643     0.75442     0.76020     0.72821     0.65279     0.54550     0.44326     0.38330     0.37151     0.39039    
 0.41357     0.41689     0.59127     0.55329     0.50584     0.44265     0.36397     0.29582     0.26975     0.29584    
 0.36399     0.44272     0.50590     0.55337     0.59133     0.61490     0.61059     0.57057     0.50510     0.44326    
 0.41794     0.44326     0.50509     0.57055     0.61055     0.61484     0.72646     0.69438     0.66121     0.60946    
 0.52068     0.40211     0.29584     0.23895     0.23398     0.26442     0.30902     0.35452     0.39395     0.41682    
 0.41352     0.39037     0.37149     0.38330     0.44326     0.54551     0.65279     0.72822     0.76021     0.75444    
 0.76501     0.73646     0.72700     0.70712     0.64325     0.52063     0.36399     0.23398     0.16521     0.14457    
 0.15237     0.17653     0.20683     0.22998     0.23999     0.25120     0.28809     0.37151     0.50509     0.65279    
 0.76446     0.82253     0.83313     0.80727     0.69491     0.66810     0.70010     0.72931     0.70715     0.60944    
 0.44272     0.26442     0.14457     0.89584E-01 0.72118E-01 0.74838E-01 0.89824E-01 0.10999     0.13313     0.17213    
 0.25117     0.39039     0.57055     0.72822     0.82253     0.85514     0.83727     0.77365     0.47748     0.47263    
 0.59145     0.70009     0.72701     0.66117     0.50590     0.30902     0.15237     0.72118E-01 0.41889E-01 0.34491E-01
 0.39109E-01 0.53120E-01 0.79682E-01 0.13317     0.23996     0.41357     0.61055     0.76021     0.83313     0.83727    
 0.77206     0.62455     0.21319     0.26020     0.47263     0.66810     0.73647     0.69435     0.55337     0.35452    
 0.17653     0.74838E-01 0.34491E-01 0.21957E-01 0.21345E-01 0.29711E-01 0.53083E-01 0.11002     0.22990     0.41689    
 0.61484     0.75444     0.80727     0.77365     0.62455     0.36665     0.12577     0.22247     0.50224     0.71278    
 0.77068     0.72453     0.59411     0.41149     0.23283     0.11258     0.53620E-01 0.30195E-01 0.24237E-01 0.30199E-01
 0.53618E-01 0.11261     0.23282     0.41154     0.59409     0.72455     0.77068     0.71278     0.50225     0.22247    
 0.22247     0.45315     0.72256     0.83217     0.84304     0.78544     0.65911     0.47773     0.29124     0.15736    
 0.83249E-01 0.46513E-01 0.30199E-01 0.27289E-01 0.38921E-01 0.78283E-01 0.17229     0.33185     0.51168     0.64675    
 0.68739     0.60458     0.39574     0.21670     0.50224     0.72256     0.85389     0.89125     0.87701     0.81485    
 0.69438     0.51813     0.33782     0.20783     0.12995     0.83226E-01 0.53618E-01 0.38921E-01 0.40298E-01 0.63792E-01
 0.12937     0.25893     0.42815     0.57080     0.62950     0.58342     0.46439     0.39574     0.71278     0.83217    
 0.89125     0.90132     0.87655     0.81324     0.69591     0.53229     0.38079     0.27600     0.20786     0.15736    
 0.11261     0.78283E-01 0.63792E-01 0.72583E-01 0.11384     0.20722     0.35114     0.49497     0.58421     0.60241    
 0.58342     0.60458     0.77068     0.84304     0.87701     0.87655     0.84676     0.77827     0.66098     0.53008    
 0.43695     0.38076     0.33781     0.29120     0.23282     0.17229     0.12937     0.11384     0.12831     0.18218    
 0.28363     0.40909     0.51552     0.58424     0.62950     0.68740     0.72453     0.78544     0.81485     0.81324    
 0.77827     0.70175     0.60488     0.54265     0.53009     0.53230     0.51816     0.47774     0.41154     0.33185    
 0.25893     0.20722     0.18218     0.18894     0.23435     0.31535     0.40903     0.49496     0.57076     0.64674    
 0.59411     0.65911     0.69438     0.69591     0.66098     0.60488     0.57592     0.60488     0.66098     0.69590    
 0.69437     0.65909     0.59409     0.51168     0.42815     0.35114     0.28363     0.23435     0.21612     0.23437    
 0.28365     0.35120     0.42816     0.51171     0.41149     0.47773     0.51813     0.53229     0.53008     0.54265    
 0.60488     0.70176     0.77827     0.81325     0.81486     0.78545     0.72455     0.64675     0.57080     0.49497    
 0.40909     0.31535     0.23437     0.18893     0.18216     0.20721     0.25887     0.33183     0.23283     0.29124    
 0.33782     0.38079     0.43695     0.53009     0.66098     0.77827     0.84675     0.87655     0.87701     0.84304    
 0.77068     0.68739     0.62950     0.58421     0.51552     0.40903     0.28365     0.18216     0.12832     0.11385    
 0.12938     0.17233     0.11258     0.15736     0.20783     0.27600     0.38076     0.53230     0.69590     0.81325    
 0.87655     0.90132     0.89125     0.83217     0.71278     0.60458     0.58342     0.60241     0.58424     0.49496    
 0.35120     0.20721     0.11385     0.72574E-01 0.63783E-01 0.78277E-01 0.53620E-01 0.83249E-01 0.12995     0.20786    
 0.33781     0.51816     0.69437     0.81486     0.87701     0.89125     0.85389     0.72256     0.50225     0.39574    
 0.46439     0.58342     0.62950     0.57076     0.42816     0.25887     0.12938     0.63783E-01 0.40303E-01 0.38927E-01
 0.30195E-01 0.46513E-01 0.83226E-01 0.15736     0.29120     0.47774     0.65909     0.78545     0.84304     0.83217    
 0.72256     0.45314     0.22247     0.21670     0.39574     0.60458     0.68740     0.64674     0.51171     0.33183    
 0.17233     0.78277E-01 0.38927E-01 0.27287E-01 0.24237E-01 0.30199E-01 0.53618E-01 0.11261     0.23282     0.41154    
 0.59409     0.72455     0.77068     0.71278     0.50225     0.22247     0.12577     0.22247     0.50224     0.71278    
 0.77068     0.72453     0.59411     0.41149     0.23283     0.11258     0.53620E-01 0.30195E-01 0.30199E-01 0.27289E-01
 0.38921E-01 0.78283E-01 0.17229     0.33185     0.51168     0.64675     0.68739     0.60458     0.39574     0.21670    
 0.22247     0.45315     0.72256     0.83217     0.84304     0.78544     0.65911     0.47773     0.29124     0.15736    
 0.83249E-01 0.46513E-01 0.53618E-01 0.38921E-01 0.40298E-01 0.63792E-01 0.12937     0.25893     0.42815     0.57080    
 0.62950     0.58342     0.46439     0.39574     0.50224     0.72256     0.85389     0.89125     0.87701     0.81485    
 0.69438     0.51813     0.33782     0.20783     0.12995     0.83226E-01 0.11261     0.78283E-01 0.63792E-01 0.72583E-01
 0.11384     0.20722     0.35114     0.49497     0.58421     0.60241     0.58342     0.60458     0.71278     0.83217    
 0.89125     0.90132     0.87655     0.81324     0.69591     0.53229     0.38079     0.27600     0.20786     0.15736    
 0.23282     0.17229     0.12937     0.11384     0.12831     0.18218     0.28363     0.40909     0.51552     0.58424    
 0.62950     0.68740     0.77068     0.84304     0.87701     0.87655     0.84676     0.77827     0.66098     0.53008    
 0.43695     0.38076     0.33781     0.29120     0.41154     0.33185     0.25893     0.20722     0.18218     0.18894    
 0.23435     0.31535     0.40903     0.49496     0.57076     0.64674     0.72453     0.78544     0.81485     0.81324    
 0.77827     0.70175     0.60488     0.54265     0.53009     0.53230     0.51816     0.47774     0.59409     0.51168    
 0.42815     0.35114     0.28363     0.23435     0.21612     0.23437     0.28365     0.35120     0.42816     0.51171    
 0.59411     0.65911     0.69438     0.69591     0.66098     0.60488     0.57592     0.60488     0.66098     0.69590    
 0.69437     0.65909     0.72455     0.64675     0.57080     0.49497     0.40909     0.31535     0.23437     0.18893    
 0.18216     0.20721     0.25887     0.33183     0.41149     0.47773     0.51813     0.53229     0.53008     0.54265    
 0.60488     0.70176     0.77827     0.81325     0.81486     0.78545     0.77068     0.68739     0.62950     0.58421    
 0.51552     0.40903     0.28365     0.18216     0.12832     0.11385     0.12938     0.17233     0.23283     0.29124    
 0.33782     0.38079     0.43695     0.53009     0.66098     0.77827     0.84675     0.87655     0.87701     0.84304    
 0.71278     0.60458     0.58342     0.60241     0.58424     0.49496     0.35120     0.20721     0.11385     0.72574E-01
 0.63783E-01 0.78277E-01 0.11258     0.15736     0.20783     0.27600     0.38076     0.53230     0.69590     0.81325    
 0.87655     0.90132     0.89125     0.83217     0.50225     0.39574     0.46439     0.58342     0.62950     0.57076    
 0.42816     0.25887     0.12938     0.63783E-01 0.40303E-01 0.38927E-01 0.53620E-01 0.83249E-01 0.12995     0.20786    
 0.33781     0.51816     0.69437     0.81486     0.87701     0.89125     0.85389     0.72256     0.22247     0.21670    
 0.39574     0.60458     0.68740     0.64674     0.51171     0.33183     0.17233     0.78277E-01 0.38927E-01 0.27287E-01
 0.30195E-01 0.46513E-01 0.83226E-01 0.15736     0.29120     0.47774     0.65909     0.78545     0.84304     0.83217    
 0.72256     0.45314     0.30390     0.41013     0.63038     0.76232     0.78249     0.72181     0.59698     0.42884    
 0.26297     0.14523     0.79419E-01 0.49404E-01 0.41144E-01 0.49399E-01 0.79426E-01 0.14523     0.26301     0.42884    
 0.59701     0.72181     0.78250     0.76232     0.63038     0.41013     0.41013     0.63791     0.81604     0.87362    
 0.86497     0.80722     0.69744     0.53520     0.35928     0.22059     0.13021     0.77004E-01 0.49399E-01 0.40962E-01
 0.51136E-01 0.89113E-01 0.17361     0.31298     0.47323     0.60200     0.65907     0.61527     0.47629     0.35721    
 0.63038     0.81604     0.89993     0.91746     0.90156     0.85522     0.76128     0.60798     0.43952     0.30334    
 0.20298     0.13022     0.79426E-01 0.51136E-01 0.44876E-01 0.61281E-01 0.11224     0.21411     0.35240     0.47772    
 0.54435     0.53009     0.47094     0.47629     0.76232     0.87362     0.91746     0.92475     0.91200     0.87225    
 0.77740     0.62634     0.48723     0.38827     0.30336     0.22056     0.14523     0.89113E-01 0.61281E-01 0.60011E-01
 0.86272E-01 0.15189     0.25856     0.37283     0.45703     0.49939     0.53009     0.61527     0.78249     0.86497    
 0.90156     0.91200     0.90113     0.85043     0.73450     0.59723     0.52062     0.48721     0.43954     0.35927    
 0.26301     0.17361     0.11224     0.86272E-01 0.90765E-01 0.12628     0.19708     0.28870     0.37655     0.45706    
 0.54434     0.65908     0.72181     0.80722     0.85522     0.87225     0.85043     0.76980     0.64838     0.58096    
 0.59724     0.62634     0.60799     0.53518     0.42884     0.31298     0.21411     0.15189     0.12628     0.12995    
 0.16148     0.21791     0.28865     0.37284     0.47770     0.60202     0.59698     0.69744     0.76128     0.77740    
 0.73450     0.64838     0.59990     0.64838     0.73450     0.77739     0.76128     0.69744     0.59701     0.47323    
 0.35240     0.25856     0.19708     0.16148     0.14933     0.16150     0.19709     0.25860     0.35238     0.47324    
 0.42884     0.53520     0.60798     0.62634     0.59723     0.58096     0.64838     0.76981     0.85044     0.87225    
 0.85522     0.80721     0.72181     0.60200     0.47772     0.37283     0.28870     0.21791     0.16150     0.12995    
 0.12627     0.15189     0.21409     0.31302     0.26297     0.35928     0.43952     0.48723     0.52062     0.59724    
 0.73450     0.85044     0.90113     0.91200     0.90156     0.86497     0.78250     0.65907     0.54435     0.45703    
 0.37655     0.28865     0.19709     0.12627     0.90770E-01 0.86280E-01 0.11224     0.17361     0.14523     0.22059    
 0.30334     0.38827     0.48721     0.62634     0.77739     0.87225     0.91200     0.92475     0.91746     0.87362    
 0.76232     0.61527     0.53009     0.49939     0.45706     0.37284     0.25860     0.15189     0.86280E-01 0.60009E-01
 0.61279E-01 0.89124E-01 0.79419E-01 0.13021     0.20298     0.30336     0.43954     0.60799     0.76128     0.85522    
 0.90156     0.91746     0.89993     0.81604     0.63038     0.47629     0.47094     0.53009     0.54434     0.47770    
 0.35238     0.21409     0.11224     0.61279E-01 0.44876E-01 0.51134E-01 0.49404E-01 0.77004E-01 0.13022     0.22056    
 0.35927     0.53518     0.69744     0.80721     0.86497     0.87362     0.81604     0.63791     0.41013     0.35721    
 0.47629     0.61527     0.65908     0.60202     0.47324     0.31302     0.17361     0.89124E-01 0.51134E-01 0.40962E-01
 0.41144E-01 0.49399E-01 0.79426E-01 0.14523     0.26301     0.42884     0.59701     0.72181     0.78250     0.76232    
 0.63038     0.41013     0.30390     0.41013     0.63038     0.76232     0.78249     0.72181     0.59698     0.42884    
 0.26297     0.14523     0.79419E-01 0.49404E-01 0.49399E-01 0.40962E-01 0.51136E-01 0.89113E-01 0.17361     0.31298    
 0.47323     0.60200     0.65907     0.61527     0.47629     0.35721     0.41013     0.63791     0.81604     0.87362    
 0.86497     0.80722     0.69744     0.53520     0.35928     0.22059     0.13021     0.77004E-01 0.79426E-01 0.51136E-01
 0.44876E-01 0.61281E-01 0.11224     0.21411     0.35240     0.47772     0.54435     0.53009     0.47094     0.47629    
 0.63038     0.81604     0.89993     0.91746     0.90156     0.85522     0.76128     0.60798     0.43952     0.30334    
 0.20298     0.13022     0.14523     0.89113E-01 0.61281E-01 0.60011E-01 0.86272E-01 0.15189     0.25856     0.37283    
 0.45703     0.49939     0.53009     0.61527     0.76232     0.87362     0.91746     0.92475     0.91200     0.87225    
 0.77740     0.62634     0.48723     0.38827     0.30336     0.22056     0.26301     0.17361     0.11224     0.86272E-01
 0.90765E-01 0.12628     0.19708     0.28870     0.37655     0.45706     0.54434     0.65908     0.78249     0.86497    
 0.90156     0.91200     0.90113     0.85043     0.73450     0.59723     0.52062     0.48721     0.43954     0.35927    
 0.42884     0.31298     0.21411     0.15189     0.12628     0.12995     0.16148     0.21791     0.28865     0.37284    
 0.47770     0.60202     0.72181     0.80722     0.85522     0.87225     0.85043     0.76980     0.64838     0.58096    
 0.59724     0.62634     0.60799     0.53518     0.59701     0.47323     0.35240     0.25856     0.19708     0.16148    
 0.14933     0.16150     0.19709     0.25860     0.35238     0.47324     0.59698     0.69744     0.76128     0.77740    
 0.73450     0.64838     0.59990     0.64838     0.73450     0.77739     0.76128     0.69744     0.72181     0.60200    
 0.47772     0.37283     0.28870     0.21791     0.16150     0.12995     0.12627     0.15189     0.21409     0.31302    
 0.42884     0.53520     0.60798     0.62634     0.59723     0.58096     0.64838     0.76981     0.85044     0.87225    
 0.85522     0.80721     0.78250     0.65907     0.54435     0.45703     0.37655     0.28865     0.19709     0.12627    
 0.90770E-01 0.86280E-01 0.11224     0.17361     0.26297     0.35928     0.43952     0.48723     0.52062     0.59724    
 0.73450     0.85044     0.90113     0.91200     0.90156     0.86497     0.76232     0.61527     0.53009     0.49939    
 0.45706     0.37284     0.25860     0.15189     0.86280E-01 0.60009E-01 0.61279E-01 0.89124E-01 0.14523     0.22059    
 0.30334     0.38827     0.48721     0.62634     0.77739     0.87225     0.91200     0.92475     0.91746     0.87362    
 0.63038     0.47629     0.47094     0.53009     0.54434     0.47770     0.35238     0.21409     0.11224     0.61279E-01
 0.44876E-01 0.51134E-01 0.79419E-01 0.13021     0.20298     0.30336     0.43954     0.60799     0.76128     0.85522    
 0.90156     0.91746     0.89993     0.81604     0.41013     0.35721     0.47629     0.61527     0.65908     0.60202    
 0.47324     0.31302     0.17361     0.89124E-01 0.51134E-01 0.40962E-01 0.49404E-01 0.77004E-01 0.13022     0.22056    
 0.35927     0.53518     0.69744     0.80721     0.86497     0.87362     0.81604     0.63791     0.49759     0.56610    
 0.69289     0.76355     0.75981     0.69839     0.58840     0.44473     0.30698     0.20214     0.13195     0.93690E-01
 0.82085E-01 0.93680E-01 0.13196     0.20212     0.30702     0.44472     0.58843     0.69839     0.75983     0.76355    
 0.69289     0.56610     0.56610     0.72094     0.83326     0.86902     0.85672     0.80799     0.71485     0.57919    
 0.43722     0.31492     0.21454     0.13966     0.93680E-01 0.75072E-01 0.81748E-01 0.11660     0.18704     0.29879    
 0.43285     0.54567     0.60936     0.60809     0.54837     0.50188     0.69289     0.83326     0.89812     0.91406    
 0.90526     0.86913     0.78373     0.65056     0.52227     0.41782     0.31578     0.21457     0.13196     0.81748E-01
 0.63339E-01 0.71136E-01 0.10735     0.18133     0.28706     0.38802     0.45512     0.48172     0.49060     0.54837    
 0.76355     0.86902     0.91406     0.92882     0.92420     0.88599     0.78098     0.62936     0.52914     0.48078    
 0.41782     0.31490     0.20212     0.11660     0.71136E-01 0.58397E-01 0.70872E-01 0.11197     0.18403     0.26647    
 0.33821     0.40303     0.48172     0.60809     0.75981     0.85672     0.90526     0.92420     0.91455     0.85070    
 0.69232     0.53177     0.49749     0.52913     0.52228     0.43723     0.30702     0.18704     0.10735     0.70872E-01
 0.65476E-01 0.84166E-01 0.12732     0.18758     0.25472     0.33823     0.45511     0.60936     0.69839     0.80799    
 0.86913     0.88599     0.85070     0.72475     0.53207     0.45655     0.53177     0.62936     0.65056     0.57916    
 0.44472     0.29879     0.18133     0.11197     0.84166E-01 0.82618E-01 0.10062     0.13593     0.18755     0.26647    
 0.38801     0.54569     0.58840     0.71485     0.78373     0.78098     0.69232     0.53207     0.44470     0.53207    
 0.69232     0.78098     0.78373     0.71485     0.58843     0.43285     0.28706     0.18403     0.12732     0.10062    
 0.92544E-01 0.10063     0.12732     0.18405     0.28704     0.43284     0.44473     0.57919     0.65056     0.62936    
 0.53177     0.45655     0.53207     0.72475     0.85070     0.88599     0.86913     0.80798     0.69839     0.54567    
 0.38802     0.26647     0.18758     0.13593     0.10063     0.82618E-01 0.84160E-01 0.11198     0.18133     0.29882    
 0.30698     0.43722     0.52227     0.52914     0.49749     0.53177     0.69232     0.85070     0.91455     0.92420    
 0.90526     0.85672     0.75983     0.60936     0.45512     0.33821     0.25472     0.18755     0.12732     0.84160E-01
 0.65476E-01 0.70876E-01 0.10734     0.18704     0.20214     0.31492     0.41782     0.48078     0.52913     0.62936    
 0.78098     0.88599     0.92420     0.92882     0.91406     0.86902     0.76355     0.60809     0.48172     0.40303    
 0.33823     0.26647     0.18405     0.11198     0.70876E-01 0.58397E-01 0.71136E-01 0.11662     0.13195     0.21454    
 0.31578     0.41782     0.52228     0.65056     0.78373     0.86913     0.90526     0.91406     0.89812     0.83326    
 0.69289     0.54837     0.49060     0.48172     0.45511     0.38801     0.28704     0.18133     0.10734     0.71136E-01
 0.63340E-01 0.81743E-01 0.93690E-01 0.13966     0.21457     0.31490     0.43723     0.57916     0.71485     0.80798    
 0.85672     0.86902     0.83326     0.72094     0.56610     0.50188     0.54837     0.60809     0.60936     0.54569    
 0.43284     0.29882     0.18704     0.11662     0.81743E-01 0.75070E-01 0.82085E-01 0.93680E-01 0.13196     0.20212    
 0.30702     0.44472     0.58843     0.69839     0.75983     0.76355     0.69289     0.56610     0.49759     0.56610    
 0.69289     0.76355     0.75981     0.69839     0.58840     0.44473     0.30698     0.20214     0.13195     0.93690E-01
 0.93680E-01 0.75072E-01 0.81748E-01 0.11660     0.18704     0.29879     0.43285     0.54567     0.60936     0.60809    
 0.54837     0.50188     0.56610     0.72094     0.83326     0.86902     0.85672     0.80799     0.71485     0.57919    
 0.43722     0.31492     0.21454     0.13966     0.13196     0.81748E-01 0.63339E-01 0.71136E-01 0.10735     0.18133    
 0.28706     0.38802     0.45512     0.48172     0.49060     0.54837     0.69289     0.83326     0.89812     0.91406    
 0.90526     0.86913     0.78373     0.65056     0.52227     0.41782     0.31578     0.21457     0.20212     0.11660    
 0.71136E-01 0.58397E-01 0.70872E-01 0.11197     0.18403     0.26647     0.33821     0.40303     0.48172     0.60809    
 0.76355     0.86902     0.91406     0.92882     0.92420     0.88599     0.78098     0.62936     0.52914     0.48078    
 0.41782     0.31490     0.30702     0.18704     0.10735     0.70872E-01 0.65476E-01 0.84166E-01 0.12732     0.18758    
 0.25472     0.33823     0.45511     0.60936     0.75981     0.85672     0.90526     0.92420     0.91455     0.85070    
 0.69232     0.53177     0.49749     0.52913     0.52228     0.43723     0.44472     0.29879     0.18133     0.11197    
 0.84166E-01 0.82618E-01 0.10062     0.13593     0.18755     0.26647     0.38801     0.54569     0.69839     0.80799    
 0.86913     0.88599     0.85070     0.72475     0.53207     0.45655     0.53177     0.62936     0.65056     0.57916    
 0.58843     0.43285     0.28706     0.18403     0.12732     0.10062     0.92544E-01 0.10063     0.12732     0.18405    
 0.28704     0.43284     0.58840     0.71485     0.78373     0.78098     0.69232     0.53207     0.44470     0.53207    
 0.69232     0.78098     0.78373     0.71485     0.69839     0.54567     0.38802     0.26647     0.18758     0.13593    
 0.10063     0.82618E-01 0.84160E-01 0.11198     0.18133     0.29882     0.44473     0.57919     0.65056     0.62936    
 0.53177     0.45655     0.53207     0.72475     0.85070     0.88599     0.86913     0.80798     0.75983     0.60936    
 0.45512     0.33821     0.25472     0.18755     0.12732     0.84160E-01 0.65476E-01 0.70876E-01 0.10734     0.18704    
 0.30698     0.43722     0.52227     0.52914     0.49749     0.53177     0.69232     0.85070     0.91455     0.92420    
 0.90526     0.85672     0.76355     0.60809     0.48172     0.40303     0.33823     0.26647     0.18405     0.11198    
 0.70876E-01 0.58397E-01 0.71136E-01 0.11662     0.20214     0.31492     0.41782     0.48078     0.52913     0.62936    
 0.78098     0.88599     0.92420     0.92882     0.91406     0.86902     0.69289     0.54837     0.49060     0.48172    
 0.45511     0.38801     0.28704     0.18133     0.10734     0.71136E-01 0.63340E-01 0.81743E-01 0.13195     0.21454    
 0.31578     0.41782     0.52228     0.65056     0.78373     0.86913     0.90526     0.91406     0.89812     0.83326    
 0.56610     0.50188     0.54837     0.60809     0.60936     0.54569     0.43284     0.29882     0.18704     0.11662    
 0.81743E-01 0.75070E-01 0.93690E-01 0.13966     0.21457     0.31490     0.43723     0.57916     0.71485     0.80798    
 0.85672     0.86902     0.83326     0.72094     0.54273     0.58090     0.65526     0.70154     0.69875     0.65015    
 0.56454     0.46683     0.38022     0.30423     0.23611     0.18847     0.17204     0.18846     0.23611     0.30422    
 0.38023     0.46683     0.56455     0.65015     0.69875     0.70154     0.65526     0.58090     0.58090     0.69432    
 0.78559     0.82438     0.82117     0.77946     0.70033     0.60859     0.52964     0.45265     0.35969     0.26213    
 0.18846     0.15202     0.15050     0.17798     0.22800     0.29980     0.39015     0.47447     0.52477     0.53508    
 0.51893     0.51793     0.65526     0.78559     0.85957     0.88810     0.88433     0.84138     0.75267     0.65716    
 0.60034     0.55725     0.47982     0.35970     0.23611     0.15050     0.11025     0.10424     0.12386     0.16794    
 0.23457     0.30440     0.35522     0.39155     0.43506     0.51892     0.70154     0.82438     0.88810     0.91189    
 0.90184     0.83967     0.70601     0.58438     0.56269     0.58288     0.55725     0.45264     0.30422     0.17798    
 0.10424     0.74340E-01 0.72443E-01 0.92093E-01 0.13242     0.18400     0.23546     0.29729     0.39155     0.53509    
 0.69875     0.82117     0.88433     0.90184     0.87345     0.75548     0.52959     0.40211     0.45456     0.56269    
 0.60034     0.52964     0.38023     0.22800     0.12386     0.72443E-01 0.56106E-01 0.60693E-01 0.81917E-01 0.11661    
 0.16314     0.23546     0.35521     0.52477     0.65015     0.77946     0.84138     0.83967     0.75548     0.52394    