       N       E                     dE             d eps       ncg     rms          rms(c)
DAV:   1     0.961267094589E+02    0.96127E+02   -0.93591E+03   312   0.653E+02
DAV:   2    -0.383168350400E+02   -0.13444E+03   -0.13191E+03   386   0.142E+02
DAV:   3    -0.473464113113E+02   -0.90296E+01   -0.88663E+01   406   0.377E+01
DAV:   4    -0.476332330473E+02   -0.28682E+00   -0.28566E+00   472   0.803E+00
DAV:   5    -0.476410126961E+02   -0.77796E-02   -0.77737E-02   464   0.106E+00    0.593E+00
RMM:   6    -0.466206061518E+02    0.10204E+01   -0.22928E+00   327   0.354E+00    0.324E+00
RMM:   7    -0.464292831741E+02    0.19132E+00   -0.12120E+00   340   0.299E+00    0.100E+00
RMM:   8    -0.464113087057E+02    0.17974E-01   -0.14068E-01   352   0.136E+00    0.235E-01
RMM:   9    -0.464124128337E+02   -0.11041E-02   -0.20269E-02   389   0.484E-01    0.118E-01
RMM:  10    -0.464130120095E+02   -0.59918E-03   -0.42784E-03   357   0.232E-01    0.485E-02
RMM:  11    -0.464135844999E+02   -0.57249E-03   -0.12104E-03   359   0.129E-01    0.319E-02
RMM:  12    -0.464136957668E+02   -0.11127E-03   -0.21027E-03   349   0.105E-01    0.307E-02
RMM:  13    -0.464135864130E+02    0.10935E-03   -0.25323E-04   357   0.526E-02    0.809E-03
RMM:  14    -0.464135877889E+02   -0.13759E-05   -0.55455E-05   382   0.224E-02    0.593E-03
RMM:  15    -0.464135853045E+02    0.24845E-05   -0.30206E-05   349   0.147E-02    0.186E-03
RMM:  16    -0.464135863197E+02   -0.10152E-05   -0.29204E-06   254   0.658E-03    0.205E-03
RMM:  17    -0.464135859782E+02    0.34153E-06   -0.67158E-07   208   0.322E-03
   1 F= -.46413586E+02 E0= -.46391289E+02  d E =-.445932E-01
