unknown system                          
           1
     5.431010    0.000000    0.000000
     0.000000    5.431010    0.000000
     0.000000    0.000000   12.791010
   Si
  10
Direct configuration=     1
   0.00000000  0.00000000  0.00000000
   0.49999908  0.49999908  0.00000000
   0.24999954  0.24999954  0.10614877
   0.75000046  0.75000046  0.10614877
   0.00000000  0.49999908  0.21229754
   0.49999908  0.00000000  0.21229754
   0.24999954  0.75000046  0.31844710
   0.75000046  0.24999954  0.31844710
   0.00000000  0.00000000  0.42459587
   0.49999908  0.49999908  0.42459587
