  20  20   0   0
  0.2945253E+02  0.3946846E-09  0.3946846E-09  0.3781396E-08  0.5000000E-15
  1.000000000000000E-004
  CAR 
 unknown system                          
      8.26110360    -37.50523593  301     -0.66333261      1.00000000
    -37.505  0.0000E+00  0.0000E+00
    -37.353  0.0000E+00  0.0000E+00
    -37.200  0.0000E+00  0.0000E+00
    -37.048  0.0000E+00  0.0000E+00
    -36.895  0.0000E+00  0.0000E+00
    -36.742  0.0000E+00  0.0000E+00
    -36.590  0.0000E+00  0.0000E+00
    -36.437  0.0000E+00  0.0000E+00
    -36.285  0.0000E+00  0.0000E+00
    -36.132  0.0000E+00  0.0000E+00
    -35.980  0.0000E+00  0.0000E+00
    -35.827  0.0000E+00  0.0000E+00
    -35.675  0.0000E+00  0.0000E+00
    -35.522  0.0000E+00  0.0000E+00
    -35.369  0.0000E+00  0.2000E+01
    -35.217  0.0000E+00  0.2000E+01
    -35.064  0.0000E+00  0.2000E+01
    -34.912  0.0000E+00  0.2000E+01
    -34.759  0.0000E+00  0.2000E+01
    -34.607  0.0000E+00  0.2000E+01
    -34.454  0.0000E+00  0.2000E+01
    -34.302  0.0000E+00  0.2000E+01
    -34.149  0.0000E+00  0.6000E+01
    -33.996  0.0000E+00  0.8000E+01
    -33.844  0.0000E+00  0.8000E+01
    -33.691  0.0000E+00  0.8000E+01
    -33.539  0.0000E+00  0.8000E+01
    -33.386  0.0000E+00  0.8000E+01
    -33.234  0.0000E+00  0.8000E+01
    -33.081  0.0000E+00  0.8000E+01
    -32.929  0.0000E+00  0.8000E+01
    -32.776  0.0000E+00  0.8000E+01
    -32.623  0.0000E+00  0.8000E+01
    -32.471  0.0000E+00  0.8000E+01
    -32.318  0.0000E+00  0.8000E+01
    -32.166  0.0000E+00  0.8000E+01
    -32.013  0.0000E+00  0.8000E+01
    -31.861  0.0000E+00  0.8000E+01
    -31.708  0.0000E+00  0.8000E+01
    -31.556  0.0000E+00  0.8000E+01
    -31.403  0.0000E+00  0.8000E+01
    -31.251  0.0000E+00  0.8000E+01
    -31.098  0.0000E+00  0.8000E+01
    -30.945  0.0000E+00  0.8000E+01
    -30.793  0.0000E+00  0.8000E+01
    -30.640  0.0000E+00  0.8000E+01
    -30.488  0.0000E+00  0.8000E+01
    -30.335  0.0000E+00  0.8000E+01
    -30.183  0.0000E+00  0.8000E+01
    -30.030  0.0000E+00  0.8000E+01
    -29.878  0.0000E+00  0.8000E+01
    -29.725  0.0000E+00  0.8000E+01
    -29.572  0.0000E+00  0.8000E+01
    -29.420  0.0000E+00  0.8000E+01
    -29.267  0.0000E+00  0.8000E+01
    -29.115  0.0000E+00  0.8000E+01
    -28.962  0.0000E+00  0.8000E+01
    -28.810  0.0000E+00  0.8000E+01
    -28.657  0.0000E+00  0.8000E+01
    -28.505  0.0000E+00  0.8000E+01
    -28.352  0.0000E+00  0.8000E+01
    -28.199  0.0000E+00  0.8000E+01
    -28.047  0.0000E+00  0.8000E+01
    -27.894  0.0000E+00  0.8000E+01
    -27.742  0.0000E+00  0.8000E+01
    -27.589  0.0000E+00  0.8000E+01
    -27.437  0.0000E+00  0.8000E+01
    -27.284  0.0000E+00  0.8000E+01
    -27.132  0.0000E+00  0.8000E+01
    -26.979  0.0000E+00  0.8000E+01
    -26.826  0.0000E+00  0.8000E+01
    -26.674  0.0000E+00  0.8000E+01
    -26.521  0.0000E+00  0.8000E+01
    -26.369  0.0000E+00  0.8000E+01
    -26.216  0.0000E+00  0.8000E+01
    -26.064  0.0000E+00  0.8000E+01
    -25.911  0.0000E+00  0.8000E+01
    -25.759  0.0000E+00  0.8000E+01
    -25.606  0.0000E+00  0.8000E+01
    -25.453  0.0000E+00  0.8000E+01
    -25.301  0.0000E+00  0.8000E+01
    -25.148  0.0000E+00  0.8000E+01
    -24.996  0.0000E+00  0.8000E+01
    -24.843  0.0000E+00  0.8000E+01
    -24.691  0.0000E+00  0.8000E+01
    -24.538  0.0000E+00  0.8000E+01
    -24.386  0.0000E+00  0.8000E+01
    -24.233  0.0000E+00  0.8000E+01
    -24.080  0.0000E+00  0.8000E+01
    -23.928  0.0000E+00  0.8000E+01
    -23.775  0.0000E+00  0.8000E+01
    -23.623  0.0000E+00  0.8000E+01
    -23.470  0.0000E+00  0.8000E+01
    -23.318  0.0000E+00  0.8000E+01
    -23.165  0.0000E+00  0.8000E+01
    -23.013  0.0000E+00  0.8000E+01
    -22.860  0.0000E+00  0.8000E+01
    -22.707  0.0000E+00  0.8000E+01
    -22.555  0.0000E+00  0.8000E+01
    -22.402  0.0000E+00  0.8000E+01
    -22.250  0.0000E+00  0.8000E+01
    -22.097  0.0000E+00  0.8000E+01
    -21.945  0.0000E+00  0.8000E+01
    -21.792  0.0000E+00  0.8000E+01
    -21.640  0.0000E+00  0.8000E+01
    -21.487  0.0000E+00  0.8000E+01
    -21.334  0.0000E+00  0.8000E+01
    -21.182  0.0000E+00  0.8000E+01
    -21.029  0.0000E+00  0.8000E+01
    -20.877  0.0000E+00  0.8000E+01
    -20.724  0.0000E+00  0.8000E+01
    -20.572  0.0000E+00  0.8000E+01
    -20.419  0.0000E+00  0.8000E+01
    -20.267  0.0000E+00  0.8000E+01
    -20.114  0.0000E+00  0.8000E+01
    -19.961  0.0000E+00  0.8000E+01
    -19.809  0.0000E+00  0.8000E+01
    -19.656  0.0000E+00  0.8000E+01
    -19.504  0.0000E+00  0.8000E+01
    -19.351  0.0000E+00  0.8000E+01
    -19.199  0.0000E+00  0.8000E+01
    -19.046  0.0000E+00  0.8000E+01
    -18.894  0.7384E+01  0.8259E+01
    -18.741  0.1457E+02  0.1023E+02
    -18.588  0.8078E+01  0.1174E+02
    -18.436  0.4974E+01  0.1286E+02
    -18.283  0.2929E+01  0.1352E+02
    -18.131  0.1479E+02  0.1540E+02
    -17.978  0.1690E+02  0.1762E+02
    -17.826  0.5651E+02  0.2237E+02
    -17.673  0.2924E+02  0.2702E+02
    -17.521  0.5402E+01  0.2850E+02
    -17.368  0.1183E+02  0.2995E+02
    -17.215  0.1497E+02  0.3343E+02
    -17.063  0.6122E-01  0.3600E+02
    -16.910  0.1148E+01  0.3609E+02
    -16.758  0.2400E+01  0.3636E+02
    -16.605  0.5610E+01  0.3690E+02
    -16.453  0.3463E+01  0.3767E+02
    -16.300  0.3476E+02  0.4044E+02
    -16.148  0.1478E+02  0.4499E+02
    -15.995  0.2473E+02  0.5026E+02
    -15.843  0.2007E+02  0.5430E+02
    -15.690  0.0000E+00  0.5600E+02
    -15.537  0.0000E+00  0.5600E+02
    -15.385  0.0000E+00  0.5600E+02
    -15.232  0.0000E+00  0.5600E+02
    -15.080  0.0000E+00  0.5600E+02
    -14.927  0.0000E+00  0.5600E+02
    -14.775  0.0000E+00  0.5600E+02
    -14.622  0.0000E+00  0.5600E+02
    -14.470  0.0000E+00  0.5600E+02
    -14.317  0.0000E+00  0.5600E+02
    -14.164  0.0000E+00  0.5600E+02
    -14.012  0.0000E+00  0.5600E+02
    -13.859  0.0000E+00  0.5600E+02
    -13.707  0.0000E+00  0.5600E+02
    -13.554  0.0000E+00  0.5600E+02
    -13.402  0.0000E+00  0.5600E+02
    -13.249  0.0000E+00  0.5600E+02
    -13.097  0.0000E+00  0.5600E+02
    -12.944  0.0000E+00  0.5600E+02
    -12.791  0.0000E+00  0.5600E+02
    -12.639  0.0000E+00  0.5600E+02
    -12.486  0.0000E+00  0.5600E+02
    -12.334  0.0000E+00  0.5600E+02
    -12.181  0.0000E+00  0.5600E+02
    -12.029  0.0000E+00  0.5600E+02
    -11.876  0.0000E+00  0.5600E+02
    -11.724  0.0000E+00  0.5600E+02
    -11.571  0.0000E+00  0.5600E+02
    -11.418  0.0000E+00  0.5600E+02
    -11.266  0.0000E+00  0.5600E+02
    -11.113  0.0000E+00  0.5600E+02
    -10.961  0.0000E+00  0.5600E+02
    -10.808  0.0000E+00  0.5600E+02
    -10.656  0.0000E+00  0.5600E+02
    -10.503  0.0000E+00  0.5600E+02
    -10.351  0.0000E+00  0.5600E+02
    -10.198  0.0000E+00  0.5600E+02
    -10.045  0.0000E+00  0.5600E+02
     -9.893  0.0000E+00  0.5600E+02
     -9.740  0.0000E+00  0.5600E+02
     -9.588  0.0000E+00  0.5600E+02
     -9.435  0.0000E+00  0.5600E+02
     -9.283  0.0000E+00  0.5600E+02
     -9.130  0.0000E+00  0.5600E+02
     -8.978  0.0000E+00  0.5600E+02
     -8.825  0.0000E+00  0.5600E+02
     -8.672  0.0000E+00  0.5600E+02
     -8.520  0.0000E+00  0.5600E+02
     -8.367  0.0000E+00  0.5600E+02
     -8.215  0.0000E+00  0.5600E+02
     -8.062  0.0000E+00  0.5600E+02
     -7.910  0.0000E+00  0.5600E+02
     -7.757  0.0000E+00  0.5600E+02
     -7.605  0.0000E+00  0.5600E+02
     -7.452  0.0000E+00  0.5600E+02
     -7.299  0.0000E+00  0.5600E+02
     -7.147  0.0000E+00  0.5600E+02
     -6.994  0.0000E+00  0.5600E+02
     -6.842  0.0000E+00  0.5600E+02
     -6.689  0.0000E+00  0.5600E+02
     -6.537  0.0000E+00  0.5600E+02
     -6.384  0.0000E+00  0.5600E+02
     -6.232  0.0000E+00  0.5600E+02
     -6.079  0.0000E+00  0.5600E+02
     -5.926  0.0000E+00  0.5600E+02
     -5.774  0.1695E+02  0.5646E+02
     -5.621  0.1713E+02  0.5896E+02
     -5.469  0.1035E+02  0.6113E+02
     -5.316  0.1628E+02  0.6364E+02
     -5.164  0.1393E+02  0.6588E+02
     -5.011  0.1555E+02  0.6849E+02
     -4.859  0.1576E+02  0.7126E+02
     -4.706  0.1839E+02  0.7424E+02
     -4.553  0.2004E+02  0.7718E+02
     -4.401  0.3163E+02  0.8106E+02
     -4.248  0.1928E+02  0.8517E+02
     -4.096  0.1236E+02  0.8739E+02
     -3.943  0.1243E+02  0.8945E+02
     -3.791  0.1351E+02  0.9164E+02
     -3.638  0.1438E+02  0.9367E+02
     -3.486  0.1141E+02  0.9565E+02
     -3.333  0.1072E+02  0.9737E+02
     -3.180  0.1012E+02  0.9880E+02
     -3.028  0.1700E+02  0.1006E+03
     -2.875  0.1024E+02  0.1030E+03
     -2.723  0.2466E+02  0.1055E+03
     -2.570  0.1880E+02  0.1088E+03
     -2.418  0.2315E+02  0.1122E+03
     -2.265  0.1593E+02  0.1159E+03
     -2.113  0.1918E+02  0.1191E+03
     -1.960  0.1603E+02  0.1218E+03
     -1.807  0.1029E+02  0.1243E+03
     -1.655  0.8646E+01  0.1258E+03
     -1.502  0.2296E+01  0.1271E+03
     -1.350  0.1253E+01  0.1274E+03
     -1.197  0.9815E+00  0.1276E+03
     -1.045  0.1052E+01  0.1277E+03
     -0.892  0.7837E+00  0.1279E+03
     -0.740  0.5153E+00  0.1280E+03
     -0.587  0.0000E+00  0.1280E+03
     -0.435  0.0000E+00  0.1280E+03
     -0.282  0.0000E+00  0.1280E+03
     -0.129  0.0000E+00  0.1280E+03
      0.023  0.0000E+00  0.1280E+03
      0.176  0.0000E+00  0.1280E+03
      0.328  0.9828E+00  0.1281E+03
      0.481  0.3935E+01  0.1285E+03
      0.633  0.5100E+01  0.1292E+03
      0.786  0.5558E+01  0.1301E+03
      0.938  0.8234E+01  0.1311E+03
      1.091  0.7454E+01  0.1324E+03
      1.244  0.7449E+01  0.1335E+03
      1.396  0.1048E+02  0.1348E+03
      1.549  0.1196E+02  0.1367E+03
      1.701  0.1277E+02  0.1386E+03
      1.854  0.1595E+02  0.1406E+03
      2.006  0.1757E+02  0.1440E+03
      2.159  0.1251E+02  0.1464E+03
      2.311  0.8167E+01  0.1481E+03
      2.464  0.7473E+00  0.1489E+03
      2.617  0.7319E+00  0.1490E+03
      2.769  0.7121E+00  0.1491E+03
      2.922  0.6923E+00  0.1492E+03
      3.074  0.6725E+00  0.1493E+03
      3.227  0.6527E+00  0.1494E+03
      3.379  0.6329E+00  0.1495E+03
      3.532  0.6159E+00  0.1496E+03
      3.684  0.6057E+00  0.1497E+03
      3.837  0.5955E+00  0.1498E+03
      3.990  0.5853E+00  0.1499E+03
      4.142  0.6437E+00  0.1500E+03
      4.295  0.9211E+00  0.1501E+03
      4.447  0.1647E+01  0.1503E+03
      4.600  0.9465E+00  0.1505E+03
      4.752  0.8728E+00  0.1506E+03
      4.905  0.8571E+00  0.1508E+03
      5.057  0.8968E+00  0.1509E+03
      5.210  0.9365E+00  0.1510E+03
      5.363  0.9761E+00  0.1512E+03
      5.515  0.7625E+00  0.1513E+03
      5.668  0.7320E+00  0.1514E+03
      5.820  0.6559E+00  0.1516E+03
      5.973  0.5834E+00  0.1517E+03
      6.125  0.1191E+01  0.1519E+03
      6.278  0.0000E+00  0.1520E+03
      6.430  0.0000E+00  0.1520E+03
      6.583  0.0000E+00  0.1520E+03
      6.736  0.0000E+00  0.1520E+03
      6.888  0.0000E+00  0.1520E+03
      7.041  0.0000E+00  0.1520E+03
      7.193  0.0000E+00  0.1520E+03
      7.346  0.0000E+00  0.1520E+03
      7.498  0.0000E+00  0.1520E+03
      7.651  0.0000E+00  0.1520E+03
      7.803  0.0000E+00  0.1520E+03
      7.956  0.0000E+00  0.1520E+03
      8.109  0.0000E+00  0.1520E+03
      8.261  0.0000E+00  0.1520E+03
