       N       E                     dE             d eps       ncg     rms          rms(c)
DAV:   1     0.157254240972E+04    0.15725E+04   -0.54705E+04  1560   0.142E+03
DAV:   2     0.180357283417E+03   -0.13922E+04   -0.13470E+04  1880   0.368E+02
DAV:   3    -0.178130316354E+03   -0.35849E+03   -0.35126E+03  2060   0.183E+02
DAV:   4    -0.200989620602E+03   -0.22859E+02   -0.22780E+02  1944   0.556E+01
DAV:   5    -0.202311193857E+03   -0.13216E+01   -0.13209E+01  2616   0.120E+01    0.371E+01
RMM:   6    -0.161860945210E+03    0.40450E+02   -0.29648E+02  1683   0.505E+01    0.147E+01
RMM:   7    -0.157751932161E+03    0.41090E+01   -0.15046E+01  1777   0.147E+01    0.729E+00
RMM:   8    -0.156991664740E+03    0.76027E+00   -0.30557E+00  2040   0.607E+00    0.369E+00
RMM:   9    -0.156729855514E+03    0.26181E+00   -0.15833E+00  1997   0.450E+00    0.106E+00
RMM:  10    -0.156682361778E+03    0.47494E-01   -0.25858E-01  2338   0.152E+00    0.709E-01
RMM:  11    -0.156658888973E+03    0.23473E-01   -0.17328E-01  2225   0.111E+00    0.397E-01
RMM:  12    -0.156650744251E+03    0.81447E-02   -0.50782E-02  2370   0.598E-01    0.330E-01
RMM:  13    -0.156645117269E+03    0.56270E-02   -0.18294E-02  2583   0.336E-01    0.215E-01
RMM:  14    -0.156641854655E+03    0.32626E-02   -0.21655E-02  2204   0.389E-01    0.151E-01
RMM:  15    -0.156641345832E+03    0.50882E-03   -0.71135E-03  2399   0.223E-01    0.736E-02
RMM:  16    -0.156642090013E+03   -0.74418E-03   -0.44952E-03  2333   0.161E-01    0.640E-02
RMM:  17    -0.156642909147E+03   -0.81913E-03   -0.18291E-03  2313   0.956E-02    0.230E-02
RMM:  18    -0.156643379908E+03   -0.47076E-03   -0.64423E-04  2324   0.538E-02    0.214E-02
RMM:  19    -0.156644003160E+03   -0.62325E-03   -0.34807E-04  2036   0.484E-02    0.167E-02
RMM:  20    -0.156644471417E+03   -0.46826E-03   -0.16389E-04  1830   0.292E-02    0.674E-03
RMM:  21    -0.156644930229E+03   -0.45881E-03   -0.10163E-04  1594   0.205E-02    0.487E-03
RMM:  22    -0.156645097346E+03   -0.16712E-03   -0.47092E-05  1413   0.167E-02    0.553E-03
RMM:  23    -0.156645222593E+03   -0.12525E-03   -0.37605E-05  1396   0.184E-02    0.378E-03
RMM:  24    -0.156645277470E+03   -0.54878E-04   -0.14587E-05  1171   0.111E-02    0.249E-03
RMM:  25    -0.156645315340E+03   -0.37869E-04   -0.13047E-05  1149   0.925E-03    0.165E-03
RMM:  26    -0.156645329386E+03   -0.14047E-04   -0.60265E-06  1021   0.743E-03    0.937E-04
RMM:  27    -0.156645333131E+03   -0.37450E-05   -0.37695E-06   933   0.596E-03
   1 F= -.15664533E+03 E0= -.15664533E+03  d E =0.000000E+00
