<?xml version="1.0" encoding="ISO-8859-1"?>
<modeling>
 <generator>
  <i name="program" type="string">vasp </i>
  <i name="version" type="string">5.4.4.18Apr17-6-g9f103f2a35  </i>
  <i name="subversion" type="string">(build Jun 30 2017 11:15:00) complex            parallel </i>
  <i name="platform" type="string">STALLO_VASP_5.4.4 </i>
  <i name="date" type="string">2019 11 08 </i>
  <i name="time" type="string">10:25:21 </i>
 </generator>
 <incar>
  <i type="string" name="PREC">normal    ! low/normal/accurate</i>
  <i type="string" name="ALGO"> Fast      ! Algorithm for electronic re</i>
  <i type="int" name="ISPIN">     1</i>
  <i type="int" name="NELMIN">     4</i>
  <i name="EDIFF">      0.00001000</i>
  <i type="int" name="NSW">     0</i>
  <i name="ENCUT">    500.00000000</i>
  <i type="logical" name="LREAL"> F  </i>
  <i type="int" name="ISMEAR">    -5</i>
  <i name="SIGMA">      0.20000000</i>
  <i type="logical" name="LWAVE"> F  </i>
  <v type="int" name="KPOINT_BSE">    -1     0     0     0</v>
 </incar>
 <structure name="primitive_cell" >
  <crystal>
   <varray name="basis" >
    <v>       3.94684634       0.00000000       0.00000000 </v>
    <v>       0.00000000       3.94684634       0.00000000 </v>
    <v>       0.00000000       0.00000000      37.81396220 </v>
   </varray>
   <i name="volume">    589.05062792 </i>
   <varray name="rec_basis" >
    <v>       0.25336684       0.00000000       0.00000000 </v>
    <v>       0.00000000       0.25336684       0.00000000 </v>
    <v>       0.00000000       0.00000000       0.02644526 </v>
   </varray>
  </crystal>
  <varray name="positions" >
   <v>      -0.50000000      -0.50000000       0.31734310 </v>
   <v>      -0.50000000      -0.50000000       0.36953079 </v>
   <v>       0.00000000       0.00000000       0.31734310 </v>
   <v>      -0.50000000       0.00000000       0.36953079 </v>
   <v>       0.00000000      -0.50000000       0.36953079 </v>
   <v>      -0.50000000      -0.50000000       0.42171847 </v>
   <v>       0.00000000       0.00000000       0.42171847 </v>
   <v>      -0.50000000      -0.50000000       0.47390616 </v>
   <v>      -0.50000000       0.00000000       0.47390616 </v>
   <v>       0.00000000      -0.50000000       0.47390616 </v>
   <v>      -0.50000000      -0.50000000      -0.47390616 </v>
   <v>       0.00000000       0.00000000      -0.47390616 </v>
   <v>      -0.50000000      -0.50000000      -0.42171847 </v>
   <v>      -0.50000000       0.00000000      -0.42171847 </v>
   <v>       0.00000000      -0.50000000      -0.42171847 </v>
   <v>      -0.50000000      -0.50000000      -0.36953079 </v>
   <v>       0.00000000       0.00000000      -0.36953079 </v>
   <v>      -0.50000000      -0.50000000      -0.31734310 </v>
   <v>      -0.50000000       0.00000000      -0.31734310 </v>
   <v>       0.00000000      -0.50000000      -0.31734310 </v>
  </varray>
 </structure>
 <varray name="primitive_index" >
  <v type="int" >        1 </v>
  <v type="int" >       17 </v>
  <v type="int" >       13 </v>
  <v type="int" >        2 </v>
  <v type="int" >        3 </v>
  <v type="int" >        4 </v>
  <v type="int" >       14 </v>
  <v type="int" >       18 </v>
  <v type="int" >        5 </v>
  <v type="int" >        6 </v>
  <v type="int" >        7 </v>
  <v type="int" >       15 </v>
  <v type="int" >       19 </v>
  <v type="int" >        8 </v>
  <v type="int" >        9 </v>
  <v type="int" >       10 </v>
  <v type="int" >       16 </v>
  <v type="int" >       20 </v>
  <v type="int" >       11 </v>
  <v type="int" >       12 </v>
 </varray>
 <kpoints>
  <generation param="Gamma">
   <v type="int" name="divisions">       7        7        1 </v>
   <v name="usershift">      0.00000000       0.00000000       0.00000000 </v>
   <v name="genvec1">      0.14285714       0.00000000       0.00000000 </v>
   <v name="genvec2">      0.00000000       0.14285714       0.00000000 </v>
   <v name="genvec3">      0.00000000       0.00000000       1.00000000 </v>
   <v name="shift">      0.00000000       0.00000000       0.00000000 </v>
  </generation>
  <varray name="kpointlist" >
   <v>       0.00000000       0.00000000       0.00000000 </v>
   <v>       0.14285714       0.00000000       0.00000000 </v>
   <v>       0.28571429       0.00000000       0.00000000 </v>
   <v>       0.42857143       0.00000000       0.00000000 </v>
   <v>       0.14285714       0.14285714       0.00000000 </v>
   <v>       0.28571429       0.14285714       0.00000000 </v>
   <v>       0.42857143       0.14285714       0.00000000 </v>
   <v>       0.28571429       0.28571429       0.00000000 </v>
   <v>       0.42857143       0.28571429       0.00000000 </v>
   <v>       0.42857143       0.42857143       0.00000000 </v>
  </varray>
  <varray name="weights" >
   <v>       0.02040816 </v>
   <v>       0.08163265 </v>
   <v>       0.08163265 </v>
   <v>       0.08163265 </v>
   <v>       0.08163265 </v>
   <v>       0.16326531 </v>
   <v>       0.16326531 </v>
   <v>       0.08163265 </v>
   <v>       0.16326531 </v>
   <v>       0.08163265 </v>
  </varray>
  <varray name="tetrahedronlist"  type="int" >
   <v type="int" >        4        1        1        2        5 </v>
   <v type="int" >        4        1        2        2        5 </v>
   <v type="int" >        4        1        2        5        5 </v>
   <v type="int" >        4        2        2        3        6 </v>
   <v type="int" >        4        2        2        5        6 </v>
   <v type="int" >        4        2        5        5        6 </v>
   <v type="int" >        4        2        3        3        6 </v>
   <v type="int" >        4        2        3        6        6 </v>
   <v type="int" >        4        2        5        6        6 </v>
   <v type="int" >        4        3        3        4        7 </v>
   <v type="int" >        4        3        3        6        7 </v>
   <v type="int" >        4        3        6        6        7 </v>
   <v type="int" >        4        3        4        4        7 </v>
   <v type="int" >        4        3        4        7        7 </v>
   <v type="int" >        4        3        6        7        7 </v>
   <v type="int" >        8        4        4        4        7 </v>
   <v type="int" >        8        4        4        7        7 </v>
   <v type="int" >        8        4        7        7        7 </v>
   <v type="int" >        4        3        4        4        6 </v>
   <v type="int" >        4        4        4        6        7 </v>
   <v type="int" >        4        4        6        7        7 </v>
   <v type="int" >        4        3        3        4        6 </v>
   <v type="int" >        4        3        4        6        6 </v>
   <v type="int" >        4        4        6        6        7 </v>
   <v type="int" >        4        2        3        3        5 </v>
   <v type="int" >        4        3        3        5        6 </v>
   <v type="int" >        4        3        5        6        6 </v>
   <v type="int" >        4        2        2        3        5 </v>
   <v type="int" >        4        2        3        5        5 </v>
   <v type="int" >        4        3        5        5        6 </v>
   <v type="int" >        4        1        2        2        2 </v>
   <v type="int" >        4        2        2        2        5 </v>
   <v type="int" >        2        2        2        5        5 </v>
   <v type="int" >        2        1        1        2        2 </v>
   <v type="int" >        4        5        5        6        8 </v>
   <v type="int" >        4        5        6        6        8 </v>
   <v type="int" >        4        5        6        8        8 </v>
   <v type="int" >        4        6        6        7        9 </v>
   <v type="int" >        4        6        6        8        9 </v>
   <v type="int" >        4        6        8        8        9 </v>
   <v type="int" >        4        6        7        7        9 </v>
   <v type="int" >        4        6        7        9        9 </v>
   <v type="int" >        4        6        8        9        9 </v>
   <v type="int" >        8        7        7        7        9 </v>
   <v type="int" >        8        7        7        9        9 </v>
   <v type="int" >        8        7        9        9        9 </v>
   <v type="int" >        4        6        7        7        8 </v>
   <v type="int" >        4        7        7        8        9 </v>
   <v type="int" >        4        7        8        9        9 </v>
   <v type="int" >        4        6        6        7        8 </v>
   <v type="int" >        4        6        7        8        8 </v>
   <v type="int" >        4        7        8        8        9 </v>
   <v type="int" >        4        5        6        6        6 </v>
   <v type="int" >        4        6        6        6        8 </v>
   <v type="int" >        2        6        6        8        8 </v>
   <v type="int" >        2        5        5        6        6 </v>
   <v type="int" >        4        8        8        9       10 </v>
   <v type="int" >        4        8        9        9       10 </v>
   <v type="int" >        4        8        9       10       10 </v>
   <v type="int" >       12        9        9        9       10 </v>
   <v type="int" >       10        9        9       10       10 </v>
   <v type="int" >        8        9       10       10       10 </v>
   <v type="int" >        4        8        9        9        9 </v>
   <v type="int" >        2        8        8        9        9 </v>
   <v type="int" >        6       10       10       10       10 </v>
  </varray>
  <i name="volumeweight">      0.00340136 </i>
 </kpoints>
 <parameters>
  <separator name="general" >
   <i type="string" name="SYSTEM">unknown system</i>
   <i type="logical" name="LCOMPAT"> F  </i>
  </separator>
  <separator name="electronic" >
   <i type="string" name="PREC">normal</i>
   <i name="ENMAX">    500.00000000</i>
   <i name="ENAUG">    605.39200000</i>
   <i name="EDIFF">      0.00001000</i>
   <i type="int" name="IALGO">    68</i>
   <i type="int" name="IWAVPR">    10</i>
   <i type="int" name="NBANDS">    76</i>
   <i name="NELECT">    128.00000000</i>
   <i type="int" name="TURBO">     0</i>
   <i type="int" name="IRESTART">     0</i>
   <i type="int" name="NREBOOT">     0</i>
   <i type="int" name="NMIN">     0</i>
   <i name="EREF">      0.00000000</i>
   <separator name="electronic smearing" >
    <i type="int" name="ISMEAR">    -5</i>
    <i name="SIGMA">      0.20000000</i>
    <i name="KSPACING">      0.50000000</i>
    <i type="logical" name="KGAMMA"> T  </i>
   </separator>
   <separator name="electronic projectors" >
    <i type="logical" name="LREAL"> F  </i>
    <v name="ROPT">      0.00000000      0.00000000      0.00000000</v>
    <i type="int" name="LMAXPAW">  -100</i>
    <i type="int" name="LMAXMIX">     2</i>
    <i type="logical" name="NLSPLINE"> F  </i>
   </separator>
   <separator name="electronic startup" >
    <i type="int" name="ISTART">     0</i>
    <i type="int" name="ICHARG">     2</i>
    <i type="int" name="INIWAV">     1</i>
   </separator>
   <separator name="electronic spin" >
    <i type="int" name="ISPIN">     1</i>
    <i type="logical" name="LNONCOLLINEAR"> F  </i>
    <v name="MAGMOM">      1.00000000      1.00000000      1.00000000      1.00000000      1.00000000      1.00000000      1.00000000      1.00000000      1.00000000      1.00000000      1.00000000      1.00000000      1.00000000      1.00000000      1.00000000      1.00000000      1.00000000      1.00000000      1.00000000      1.00000000
</v>
    <i name="NUPDOWN">     -1.00000000</i>
    <i type="logical" name="LSORBIT"> F  </i>
    <v name="SAXIS">      0.00000000      0.00000000      1.00000000</v>
    <i type="logical" name="LSPIRAL"> F  </i>
    <v name="QSPIRAL">      0.00000000      0.00000000      0.00000000</v>
    <i type="logical" name="LZEROZ"> F  </i>
   </separator>
   <separator name="electronic exchange-correlation" >
    <i type="logical" name="LASPH"> F  </i>
    <i type="logical" name="LMETAGGA"> F  </i>
   </separator>
   <separator name="electronic convergence" >
    <i type="int" name="NELM">    60</i>
    <i type="int" name="NELMDL">    -5</i>
    <i type="int" name="NELMIN">     4</i>
    <i name="ENINI">    500.00000000</i>
    <separator name="electronic convergence detail" >
     <i type="logical" name="LDIAG"> T  </i>
     <i type="logical" name="LSUBROT"> F  </i>
     <i name="WEIMIN">      0.00000000</i>
     <i name="EBREAK">      0.00000003</i>
     <i name="DEPER">      0.30000000</i>
     <i type="int" name="NRMM">     4</i>
     <i name="TIME">      0.40000000</i>
    </separator>
   </separator>
   <separator name="electronic mixer" >
    <i name="AMIX">      0.40000000</i>
    <i name="BMIX">      1.00000000</i>
    <i name="AMIN">      0.10000000</i>
    <i name="AMIX_MAG">      1.60000000</i>
    <i name="BMIX_MAG">      1.00000000</i>
    <separator name="electronic mixer details" >
     <i type="int" name="IMIX">     4</i>
     <i type="logical" name="MIXFIRST"> F  </i>
     <i type="int" name="MAXMIX">   -45</i>
     <i name="WC">    100.00000000</i>
     <i type="int" name="INIMIX">     1</i>
     <i type="int" name="MIXPRE">     1</i>
     <i type="int" name="MREMOVE">     5</i>
    </separator>
   </separator>
   <separator name="electronic dipolcorrection" >
    <i type="logical" name="LDIPOL"> F  </i>
    <i type="logical" name="LMONO"> F  </i>
    <i type="int" name="IDIPOL">     0</i>
    <i name="EPSILON">      1.00000000</i>
    <v name="DIPOL">   -100.00000000   -100.00000000   -100.00000000</v>
    <i name="EFIELD">      0.00000000</i>
   </separator>
  </separator>
  <separator name="grids" >
   <i type="int" name="NGX">    24</i>
   <i type="int" name="NGY">    24</i>
   <i type="int" name="NGZ">   210</i>
   <i type="int" name="NGXF">    48</i>
   <i type="int" name="NGYF">    48</i>
   <i type="int" name="NGZF">   420</i>
   <i type="logical" name="ADDGRID"> F  </i>
  </separator>
  <separator name="ionic" >
   <i type="int" name="NSW">     0</i>
   <i type="int" name="IBRION">    -1</i>
   <i type="int" name="MDALGO">     0</i>
   <i type="int" name="ISIF">     2</i>
   <i name="PSTRESS">      0.00000000</i>
   <i name="EDIFFG">      0.00010000</i>
   <i type="int" name="NFREE">     0</i>
   <i name="POTIM">      0.50000000</i>
   <i name="SMASS">     -3.00000000</i>
   <i name="SCALEE">      1.00000000</i>
  </separator>
  <separator name="ionic md" >
   <i name="TEBEG">      0.00010000</i>
   <i name="TEEND">      0.00010000</i>
   <i type="int" name="NBLOCK">     1</i>
   <i type="int" name="KBLOCK">     1</i>
   <i type="int" name="NPACO">   256</i>
   <i name="APACO">     16.00000000</i>
  </separator>
  <separator name="symmetry" >
   <i type="int" name="ISYM">     2</i>
   <i name="SYMPREC">      0.00001000</i>
  </separator>
  <separator name="dos" >
   <i type="int" name="LORBIT">     0</i>
   <v name="RWIGS">     -1.00000000     -1.00000000     -1.00000000</v>
   <i type="int" name="NEDOS">   301</i>
   <i name="EMIN">     10.00000000</i>
   <i name="EMAX">    -10.00000000</i>
   <i name="EFERMI">      0.00000000</i>
  </separator>
  <separator name="writing" >
   <i type="int" name="NWRITE">     2</i>
   <i type="logical" name="LWAVE"> F  </i>
   <i type="logical" name="LDOWNSAMPLE"> F  </i>
   <i type="logical" name="LCHARG"> T  </i>
   <i type="logical" name="LPARD"> F  </i>
   <i type="logical" name="LVTOT"> F  </i>
   <i type="logical" name="LVHAR"> F  </i>
   <i type="logical" name="LELF"> F  </i>
   <i type="logical" name="LOPTICS"> F  </i>
   <v name="STM">      0.00000000      0.00000000      0.00000000      0.00000000      0.00000000      0.00000000      0.00000000</v>
  </separator>
  <separator name="performance" >
   <i type="int" name="NPAR">     2</i>
   <i type="int" name="NSIM">     4</i>
   <i type="int" name="NBLK">    -1</i>
   <i type="logical" name="LPLANE"> T  </i>
   <i type="logical" name="LSCALAPACK"> T  </i>
   <i type="logical" name="LSCAAWARE"> F  </i>
   <i type="logical" name="LSCALU"> F  </i>
   <i type="logical" name="LASYNC"> F  </i>
   <i type="logical" name="LORBITALREAL"> F  </i>
  </separator>
  <separator name="miscellaneous" >
   <i type="int" name="IDIOT">     3</i>
   <i type="int" name="ISPECIAL">     0</i>
   <i type="logical" name="LMUSIC"> F  </i>
   <v name="POMASS">     16.00000000     87.62000000     47.88000000</v>
   <v name="DARWINR">      0.00000000      0.00000000      0.00000000</v>
   <v name="DARWINV">      1.00000000      1.00000000      1.00000000</v>
   <i type="logical" name="LCORR"> T  </i>
  </separator>
  <i type="logical" name="GGA_COMPAT"> T  </i>
  <i type="logical" name="LBERRY"> F  </i>
  <i type="int" name="ICORELEVEL">     0</i>
  <i type="logical" name="LDAU"> F  </i>
  <i type="int" name="I_CONSTRAINED_M">     0</i>
  <separator name="electronic exchange-correlation" >
   <i type="string" name="GGA">--</i>
   <i type="int" name="VOSKOWN">     0</i>
   <i type="logical" name="LHFCALC"> F  </i>
   <i type="string" name="PRECFOCK"></i>
   <i type="logical" name="LSYMGRAD"> F  </i>
   <i type="logical" name="LHFONE"> F  </i>
   <i type="logical" name="LRHFCALC"> F  </i>
   <i type="logical" name="LTHOMAS"> F  </i>
   <i type="logical" name="LMODELHF"> F  </i>
   <i name="ENCUT4O">     -1.00000000</i>
   <i type="int" name="EXXOEP">     0</i>
   <i type="int" name="FOURORBIT">     0</i>
   <i name="AEXX">      0.00000000</i>
   <i name="HFALPHA">      0.00000000</i>
   <i name="MCALPHA">      0.00000000</i>
   <i name="ALDAX">      1.00000000</i>
   <i name="AGGAX">      1.00000000</i>
   <i name="ALDAC">      1.00000000</i>
   <i name="AGGAC">      1.00000000</i>
   <i type="int" name="NKREDX">     1</i>
   <i type="int" name="NKREDY">     1</i>
   <i type="int" name="NKREDZ">     1</i>
   <i type="logical" name="SHIFTRED"> F  </i>
   <i type="logical" name="ODDONLY"> F  </i>
   <i type="logical" name="EVENONLY"> F  </i>
   <i type="int" name="LMAXFOCK">     0</i>
   <i type="int" name="NMAXFOCKAE">     0</i>
   <i type="logical" name="LFOCKAEDFT"> F  </i>
   <i name="HFSCREEN">      0.00000000</i>
   <i name="HFSCREENC">      0.00000000</i>
   <i type="int" name="NBANDSGWLOW">     0</i>
  </separator>
  <separator name="vdW DFT" >
   <i type="logical" name="LUSE_VDW"> F  </i>
   <i name="Zab_VDW">     -0.84910000</i>
   <i name="PARAM1">      0.12340000</i>
   <i name="PARAM2">      1.00000000</i>
   <i name="PARAM3">      0.00000000</i>
  </separator>
  <separator name="model GW" >
   <i type="int" name="MODEL_GW">     0</i>
   <i name="MODEL_EPS0">     17.67151884</i>
   <i name="MODEL_ALPHA">      1.00000000</i>
  </separator>
  <separator name="linear response parameters" >
   <i type="logical" name="LEPSILON"> F  </i>
   <i type="logical" name="LRPA"> F  </i>
   <i type="logical" name="LNABLA"> F  </i>
   <i type="logical" name="LVEL"> F  </i>
   <i type="int" name="KINTER">     0</i>
   <i name="CSHIFT">      0.10000000</i>
   <i name="OMEGAMAX">     -1.00000000</i>
   <i name="DEG_THRESHOLD">      0.00200000</i>
   <i name="RTIME">     -0.10000000</i>
   <i name="WPLASMAI">      0.00000000</i>
   <v name="DFIELD">      0.00000000      0.00000000      0.00000000</v>
   <v name="WPLASMA">      0.00000000      0.00000000      0.00000000      0.00000000      0.00000000      0.00000000      0.00000000      0.00000000      0.00000000</v>
  </separator>
  <separator name="orbital magnetization" >
   <i type="logical" name="NUCIND"> F  </i>
   <v name="MAGPOS">      0.00000000      0.00000000      0.00000000</v>
   <i type="logical" name="LNICSALL"> T  </i>
   <i type="logical" name="ORBITALMAG"> F  </i>
   <i type="logical" name="LMAGBLOCH"> F  </i>
   <i type="logical" name="LCHIMAG"> F  </i>
   <i type="logical" name="LGAUGE"> T  </i>
   <i type="int" name="MAGATOM">     0</i>
   <v name="MAGDIPOL">      0.00000000      0.00000000      0.00000000</v>
   <v name="AVECCONST">      0.00000000      0.00000000      0.00000000</v>
  </separator>
  <separator name="response functions" >
   <i type="logical" name="LADDER"> F  </i>
   <i type="logical" name="LRPAFORCE"> F  </i>
   <i type="logical" name="LFXC"> F  </i>
   <i type="logical" name="LHARTREE"> T  </i>
   <i type="int" name="IBSE">     0</i>
   <v type="int" name="KPOINT">    -1     0     0     0</v>
   <i type="logical" name="LTCTE"> F  </i>
   <i type="logical" name="LTETE"> F  </i>
   <i type="logical" name="LTRIPLET"> F  </i>
   <i type="logical" name="LFXCEPS"> F  </i>
   <i type="logical" name="LFXHEG"> F  </i>
   <i type="int" name="NATURALO">     2</i>
   <i type="logical" name="L2ORDER"> F  </i>
   <i type="logical" name="LMP2LT"> F  </i>
   <i type="logical" name="LUSEW"> F  </i>
   <i name="ENCUTGW">     -2.00000000</i>
   <i name="ENCUTGWSOFT">     -2.00000000</i>
   <i name="ENCUTLF">     -1.00000000</i>
   <i type="int" name="LMAXMP2">    -1</i>
   <i name="SCISSOR">      0.00000000</i>
   <i type="int" name="NOMEGA">     0</i>
   <i type="int" name="NOMEGAR">     0</i>
   <i type="int" name="NBANDSGW">    -1</i>
   <i type="int" name="NBANDSO">    -1</i>
   <i type="int" name="NBANDSV">    -1</i>
   <i type="int" name="NELM">     1</i>
   <i type="int" name="NELMHF">     1</i>
   <i type="int" name="DIM">     3</i>
   <i type="int" name="ANTIRES">     0</i>
   <i name="OMEGAMAX">    -30.00000000</i>
   <i name="OMEGAMIN">    -30.00000000</i>
   <i name="OMEGATL">   -200.00000000</i>
   <i type="int" name="OMEGAGRID">   140</i>
   <i name="CSHIFT">     -0.10000000</i>
   <i type="logical" name="SELFENERGY"> F  </i>
   <i type="logical" name="LSPECTRAL"> F  </i>
   <i type="logical" name="LSPECTRALGW"> F  </i>
   <i type="logical" name="LSINGLES"> F  </i>
   <i type="logical" name="LFERMIGW"> F  </i>
   <i type="logical" name="ODDONLYGW"> F  </i>
   <i type="logical" name="EVENONLYGW"> F  </i>
   <i type="int" name="NKREDLFX">     1</i>
   <i type="int" name="NKREDLFY">     1</i>
   <i type="int" name="NKREDLFZ">     1</i>
   <i type="int" name="MAXMEM">  2800</i>
   <i type="int" name="TELESCOPE">     0</i>
   <i type="int" name="TAUPAR">     1</i>
   <i type="int" name="OMEGAPAR">    -1</i>
   <i name="LAMBDA">      1.00000000</i>
  </separator>
  <separator name="External order field" >
   <i name="OFIELD_KAPPA">      0.00000000</i>
   <v name="OFIELD_K">      0.00000000      0.00000000      0.00000000</v>
   <i name="OFIELD_Q6_NEAR">      0.00000000</i>
   <i name="OFIELD_Q6_FAR">      0.00000000</i>
   <i name="OFIELD_A">      0.00000000</i>
  </separator>
 </parameters>
 <atominfo>
  <atoms>      20 </atoms>
  <types>       3 </types>
  <array name="atoms" >
   <dimension dim="1">ion</dimension>
   <field type="string">element</field>
   <field type="int">atomtype</field>
   <set>
    <rc><c>O </c><c>   1</c></rc>
    <rc><c>O </c><c>   1</c></rc>
    <rc><c>O </c><c>   1</c></rc>
    <rc><c>O </c><c>   1</c></rc>
    <rc><c>O </c><c>   1</c></rc>
    <rc><c>O </c><c>   1</c></rc>
    <rc><c>O </c><c>   1</c></rc>
    <rc><c>O </c><c>   1</c></rc>
    <rc><c>O </c><c>   1</c></rc>
    <rc><c>O </c><c>   1</c></rc>
    <rc><c>O </c><c>   1</c></rc>
    <rc><c>O </c><c>   1</c></rc>
    <rc><c>Sr</c><c>   2</c></rc>
    <rc><c>Sr</c><c>   2</c></rc>
    <rc><c>Sr</c><c>   2</c></rc>
    <rc><c>Sr</c><c>   2</c></rc>
    <rc><c>Ti</c><c>   3</c></rc>
    <rc><c>Ti</c><c>   3</c></rc>
    <rc><c>Ti</c><c>   3</c></rc>
    <rc><c>Ti</c><c>   3</c></rc>
   </set>
  </array>
  <array name="atomtypes" >
   <dimension dim="1">type</dimension>
   <field type="int">atomspertype</field>
   <field type="string">element</field>
   <field>mass</field>
   <field>valence</field>
   <field type="string">pseudopotential</field>
   <set>
    <rc><c>  12</c><c>O </c><c>     16.00000000</c><c>      6.00000000</c><c> PAW_PBE O 08Apr2002                    </c></rc>
    <rc><c>   4</c><c>Sr</c><c>     87.62000000</c><c>     10.00000000</c><c> PAW_PBE Sr_sv 07Sep2000                </c></rc>
    <rc><c>   4</c><c>Ti</c><c>     47.88000000</c><c>      4.00000000</c><c> PAW_PBE Ti 08Apr2002                   </c></rc>
   </set>
  </array>
 </atominfo>
 <structure name="initialpos" >
  <crystal>
   <varray name="basis" >
    <v>       3.94684634       0.00000000       0.00000000 </v>
    <v>       0.00000000       3.94684634       0.00000000 </v>
    <v>       0.00000000       0.00000000      37.81396220 </v>
   </varray>
   <i name="volume">    589.05062792 </i>
   <varray name="rec_basis" >
    <v>       0.25336684       0.00000000       0.00000000 </v>
    <v>       0.00000000       0.25336684       0.00000000 </v>
    <v>       0.00000000       0.00000000       0.02644526 </v>
   </varray>
  </crystal>
  <varray name="positions" >
   <v>       0.50000000       0.50000000       0.31734310 </v>
   <v>       0.50000000       0.00000000       0.36953079 </v>
   <v>       0.00000000       0.50000000       0.36953079 </v>
   <v>       0.50000000       0.50000000       0.42171847 </v>
   <v>       0.50000000       0.00000000       0.47390616 </v>
   <v>       0.00000000       0.50000000       0.47390616 </v>
   <v>       0.50000000       0.50000000       0.52609384 </v>
   <v>       0.50000000       0.00000000       0.57828153 </v>
   <v>       0.00000000       0.50000000       0.57828153 </v>
   <v>       0.50000000       0.50000000       0.63046921 </v>
   <v>       0.50000000       0.00000000       0.68265690 </v>
   <v>       0.00000000       0.50000000       0.68265690 </v>
   <v>       0.00000000       0.00000000       0.31734310 </v>
   <v>       0.00000000       0.00000000       0.42171847 </v>
   <v>       0.00000000       0.00000000       0.52609384 </v>
   <v>       0.00000000       0.00000000       0.63046921 </v>
   <v>       0.50000000       0.50000000       0.36953079 </v>
   <v>       0.50000000       0.50000000       0.47390616 </v>
   <v>       0.50000000       0.50000000       0.57828153 </v>
   <v>       0.50000000       0.50000000       0.68265690 </v>
  </varray>
 </structure>
 <calculation>
  <scstep>
   <time name="dav">    7.29    7.30</time>
   <time name="total">    7.46    7.47</time>
   <energy>
    <i name="alphaZ">    299.93647548 </i>
    <i name="ewald">  95251.25859114 </i>
    <i name="hartreedc">-103240.95380228 </i>
    <i name="XCdc">    325.52649442 </i>
    <i name="pawpsdc">   5334.45189010 </i>
    <i name="pawaedc">  -5139.13784255 </i>
    <i name="eentropy">      0.00000000 </i>
    <i name="bandstr">   -195.80764676 </i>
    <i name="atom">   8937.26825017 </i>
    <i name="e_fr_energy">   1572.54240972 </i>
    <i name="e_wo_entrp">   1572.54240972 </i>
    <i name="e_0_energy">   1572.54240972 </i>
   </energy>
  </scstep>
  <scstep>
   <time name="dav">    8.40    8.43</time>
   <time name="total">    8.41    8.44</time>
   <energy>
    <i name="e_fr_energy">    180.35728342 </i>
    <i name="e_wo_entrp">    180.35728342 </i>
    <i name="e_0_energy">    180.35728342 </i>
   </energy>
  </scstep>
  <scstep>
   <time name="dav">    9.03    9.04</time>
   <time name="total">    9.04    9.04</time>
   <energy>
    <i name="e_fr_energy">   -178.13031635 </i>
    <i name="e_wo_entrp">   -178.13031635 </i>
    <i name="e_0_energy">   -178.13031635 </i>
   </energy>
  </scstep>
  <scstep>
   <time name="dav">    8.63    8.63</time>
   <time name="total">    8.63    8.63</time>
   <energy>
    <i name="e_fr_energy">   -200.98962060 </i>
    <i name="e_wo_entrp">   -200.98962060 </i>
    <i name="e_0_energy">   -200.98962060 </i>
   </energy>
  </scstep>
  <scstep>
   <time name="dav">   11.06   11.06</time>
   <time name="total">   11.35   11.35</time>
   <energy>
    <i name="e_fr_energy">   -202.31119386 </i>
    <i name="e_wo_entrp">   -202.31119386 </i>
    <i name="e_0_energy">   -202.31119386 </i>
   </energy>
  </scstep>
  <scstep>
   <time name="diag">    0.80    0.80</time>
   <time name="diis">    5.72    5.72</time>
   <time name="orth">    0.16    0.16</time>
   <time name="total">    7.13    7.13</time>
   <energy>
    <i name="e_fr_energy">   -161.86094521 </i>
    <i name="e_wo_entrp">   -161.86094521 </i>
    <i name="e_0_energy">   -161.86094521 </i>
   </energy>
  </scstep>
  <scstep>
   <time name="diag">    0.80    0.80</time>
   <time name="diis">    5.99    5.99</time>
   <time name="orth">    0.15    0.15</time>
   <time name="total">    7.37    7.38</time>
   <energy>
    <i name="e_fr_energy">   -157.75193216 </i>
    <i name="e_wo_entrp">   -157.75193216 </i>
    <i name="e_0_energy">   -157.75193216 </i>
   </energy>
  </scstep>
  <scstep>
   <time name="diag">    0.80    0.80</time>
   <time name="diis">    6.95    6.95</time>
   <time name="orth">    0.17    0.17</time>
   <time name="total">    8.35    8.36</time>
   <energy>
    <i name="e_fr_energy">   -156.99166474 </i>
    <i name="e_wo_entrp">   -156.99166474 </i>
    <i name="e_0_energy">   -156.99166474 </i>
   </energy>
  </scstep>
  <scstep>
   <time name="diag">    0.79    0.79</time>
   <time name="diis">    6.62    6.62</time>
   <time name="orth">    0.15    0.15</time>
   <time name="total">    7.99    8.00</time>
   <energy>
    <i name="e_fr_energy">   -156.72985551 </i>
    <i name="e_wo_entrp">   -156.72985551 </i>
    <i name="e_0_energy">   -156.72985551 </i>
   </energy>
  </scstep>
  <scstep>
   <time name="diag">    0.79    0.79</time>
   <time name="diis">    7.68    7.68</time>
   <time name="orth">    0.15    0.15</time>
   <time name="total">    9.05    9.05</time>
   <energy>
    <i name="e_fr_energy">   -156.68236178 </i>
    <i name="e_wo_entrp">   -156.68236178 </i>
    <i name="e_0_energy">   -156.68236178 </i>
   </energy>
  </scstep>
  <scstep>
   <time name="diag">    0.80    0.80</time>
   <time name="diis">    7.45    7.45</time>
   <time name="orth">    0.15    0.15</time>
   <time name="total">    8.83    8.83</time>
   <energy>
    <i name="e_fr_energy">   -156.65888897 </i>
    <i name="e_wo_entrp">   -156.65888897 </i>
    <i name="e_0_energy">   -156.65888897 </i>
   </energy>
  </scstep>
  <scstep>
   <time name="diag">    0.79    0.79</time>
   <time name="diis">    7.89    7.89</time>
   <time name="orth">    0.15    0.15</time>
   <time name="total">    9.26    9.26</time>
   <energy>
    <i name="e_fr_energy">   -156.65074425 </i>
    <i name="e_wo_entrp">   -156.65074425 </i>
    <i name="e_0_energy">   -156.65074425 </i>
   </energy>
  </scstep>
  <scstep>
   <time name="diag">    0.79    0.79</time>
   <time name="diis">    8.48    8.48</time>
   <time name="orth">    0.15    0.15</time>
   <time name="total">    9.85    9.85</time>
   <energy>
    <i name="e_fr_energy">   -156.64511727 </i>
    <i name="e_wo_entrp">   -156.64511727 </i>
    <i name="e_0_energy">   -156.64511727 </i>
   </energy>
  </scstep>
  <scstep>
   <time name="diag">    0.79    0.79</time>
   <time name="diis">    7.29    7.29</time>
   <time name="orth">    0.15    0.15</time>
   <time name="total">    8.67    8.67</time>
   <energy>
    <i name="e_fr_energy">   -156.64185466 </i>
    <i name="e_wo_entrp">   -156.64185466 </i>
    <i name="e_0_energy">   -156.64185466 </i>
   </energy>
  </scstep>
  <scstep>
   <time name="diag">    0.79    0.79</time>
   <time name="diis">    7.89    7.89</time>
   <time name="orth">    0.15    0.15</time>
   <time name="total">    9.27    9.27</time>
   <energy>
    <i name="e_fr_energy">   -156.64134583 </i>
    <i name="e_wo_entrp">   -156.64134583 </i>
    <i name="e_0_energy">   -156.64134583 </i>
   </energy>
  </scstep>
  <scstep>
   <time name="diag">    0.79    0.79</time>
   <time name="diis">    7.76    7.76</time>
   <time name="orth">    0.15    0.15</time>
   <time name="total">    9.14    9.14</time>
   <energy>
    <i name="e_fr_energy">   -156.64209001 </i>
    <i name="e_wo_entrp">   -156.64209001 </i>
    <i name="e_0_energy">   -156.64209001 </i>
   </energy>
  </scstep>
  <scstep>
   <time name="diag">    0.79    0.79</time>
   <time name="diis">    7.65    7.65</time>
   <time name="orth">    0.15    0.15</time>
   <time name="total">    9.03    9.03</time>
   <energy>
    <i name="e_fr_energy">   -156.64290915 </i>
    <i name="e_wo_entrp">   -156.64290915 </i>
    <i name="e_0_energy">   -156.64290915 </i>
   </energy>
  </scstep>
  <scstep>
   <time name="diag">    0.79    0.79</time>
   <time name="diis">    7.63    7.63</time>
   <time name="orth">    0.15    0.15</time>
   <time name="total">    9.01    9.01</time>
   <energy>
    <i name="e_fr_energy">   -156.64337991 </i>
    <i name="e_wo_entrp">   -156.64337991 </i>
    <i name="e_0_energy">   -156.64337991 </i>
   </energy>
  </scstep>
  <scstep>
   <time name="diag">    0.79    0.79</time>
   <time name="diis">    6.89    6.89</time>
   <time name="orth">    0.16    0.16</time>
   <time name="total">    8.28    8.28</time>
   <energy>
    <i name="e_fr_energy">   -156.64400316 </i>
    <i name="e_wo_entrp">   -156.64400316 </i>
    <i name="e_0_energy">   -156.64400316 </i>
   </energy>
  </scstep>
  <scstep>
   <time name="diag">    0.80    0.80</time>
   <time name="diis">    6.27    6.27</time>
   <time name="orth">    0.15    0.16</time>
   <time name="total">    7.66    7.67</time>
   <energy>
    <i name="e_fr_energy">   -156.64447142 </i>
    <i name="e_wo_entrp">   -156.64447142 </i>
    <i name="e_0_energy">   -156.64447142 </i>
   </energy>
  </scstep>
  <scstep>
   <time name="diag">    0.80    0.80</time>
   <time name="diis">    5.50    5.50</time>
   <time name="orth">    0.15    0.15</time>
   <time name="total">    6.89    6.89</time>
   <energy>
    <i name="e_fr_energy">   -156.64493023 </i>
    <i name="e_wo_entrp">   -156.64493023 </i>
    <i name="e_0_energy">   -156.64493023 </i>
   </energy>
  </scstep>
  <scstep>
   <time name="diag">    0.79    0.79</time>
   <time name="diis">    4.86    4.86</time>
   <time name="orth">    0.15    0.15</time>
   <time name="total">    6.25    6.25</time>
   <energy>
    <i name="e_fr_energy">   -156.64509735 </i>
    <i name="e_wo_entrp">   -156.64509735 </i>
    <i name="e_0_energy">   -156.64509735 </i>
   </energy>
  </scstep>
  <scstep>
   <time name="diag">    0.79    0.79</time>
   <time name="diis">    4.81    4.81</time>
   <time name="orth">    0.15    0.15</time>
   <time name="total">    6.20    6.20</time>
   <energy>
    <i name="e_fr_energy">   -156.64522259 </i>
    <i name="e_wo_entrp">   -156.64522259 </i>
    <i name="e_0_energy">   -156.64522259 </i>
   </energy>
  </scstep>
  <scstep>
   <time name="diag">    0.79    0.79</time>
   <time name="diis">    4.14    4.14</time>
   <time name="orth">    0.16    0.16</time>
   <time name="total">    5.53    5.53</time>
   <energy>
    <i name="e_fr_energy">   -156.64527747 </i>
    <i name="e_wo_entrp">   -156.64527747 </i>
    <i name="e_0_energy">   -156.64527747 </i>
   </energy>
  </scstep>
  <scstep>
   <time name="diag">    0.81    0.81</time>
   <time name="diis">    4.12    4.12</time>
   <time name="orth">    0.16    0.16</time>
   <time name="total">    5.53    5.54</time>
   <energy>
    <i name="e_fr_energy">   -156.64531534 </i>
    <i name="e_wo_entrp">   -156.64531534 </i>
    <i name="e_0_energy">   -156.64531534 </i>
   </energy>
  </scstep>
  <scstep>
   <time name="diag">    0.81    0.81</time>
   <time name="diis">    3.88    3.88</time>
   <time name="orth">    0.16    0.16</time>
   <time name="total">    5.30    5.30</time>
   <energy>
    <i name="e_fr_energy">   -156.64532939 </i>
    <i name="e_wo_entrp">   -156.64532939 </i>
    <i name="e_0_energy">   -156.64532939 </i>
   </energy>
  </scstep>
  <scstep>
   <time name="diag">    0.82    0.82</time>
   <time name="diis">    3.83    3.83</time>
   <time name="orth">    0.16    0.16</time>
   <time name="total">    4.96    4.96</time>
   <energy>
    <i name="alphaZ">    299.93647548 </i>
    <i name="ewald">  95251.25859114 </i>
    <i name="hartreedc">-103793.60033068 </i>
    <i name="XCdc">    341.54518570 </i>
    <i name="pawpsdc">   6145.05362496 </i>
    <i name="pawaedc">  -5974.97982618 </i>
    <i name="eentropy">      0.00000000 </i>
    <i name="bandstr">  -1363.12730373 </i>
    <i name="atom">   8937.26825017 </i>
    <i name="e_fr_energy">   -156.64533313 </i>
    <i name="e_wo_entrp">   -156.64533313 </i>
    <i name="e_0_energy">   -156.64533313 </i>
   </energy>
  </scstep>
  <structure>
   <crystal>
    <varray name="basis" >
     <v>       3.94684634       0.00000000       0.00000000 </v>
     <v>       0.00000000       3.94684634       0.00000000 </v>
     <v>       0.00000000       0.00000000      37.81396220 </v>
    </varray>
    <i name="volume">    589.05062792 </i>
    <varray name="rec_basis" >
     <v>       0.25336684       0.00000000       0.00000000 </v>
     <v>       0.00000000       0.25336684       0.00000000 </v>
     <v>       0.00000000       0.00000000       0.02644526 </v>
    </varray>
   </crystal>
   <varray name="positions" >
    <v>       0.50000000       0.50000000       0.31734310 </v>
    <v>       0.50000000       0.00000000       0.36953079 </v>
    <v>       0.00000000       0.50000000       0.36953079 </v>
    <v>       0.50000000       0.50000000       0.42171847 </v>
    <v>       0.50000000       0.00000000       0.47390616 </v>
    <v>       0.00000000       0.50000000       0.47390616 </v>
    <v>       0.50000000       0.50000000       0.52609384 </v>
    <v>       0.50000000       0.00000000       0.57828153 </v>
    <v>       0.00000000       0.50000000       0.57828153 </v>
    <v>       0.50000000       0.50000000       0.63046921 </v>
    <v>       0.50000000       0.00000000       0.68265690 </v>
    <v>       0.00000000       0.50000000       0.68265690 </v>
    <v>       0.00000000       0.00000000       0.31734310 </v>
    <v>       0.00000000       0.00000000       0.42171847 </v>
    <v>       0.00000000       0.00000000       0.52609384 </v>
    <v>       0.00000000       0.00000000       0.63046921 </v>
    <v>       0.50000000       0.50000000       0.36953079 </v>
    <v>       0.50000000       0.50000000       0.47390616 </v>
    <v>       0.50000000       0.50000000       0.57828153 </v>
    <v>       0.50000000       0.50000000       0.68265690 </v>
   </varray>
  </structure>
  <varray name="forces" >
   <v>      -0.00000000       0.00000000      -0.76647931 </v>
   <v>       0.00000000       0.00000000      -0.04509056 </v>
   <v>       0.00000000       0.00000000      -0.04509056 </v>
   <v>       0.00000000      -0.00000000       0.25460161 </v>
   <v>       0.00000000       0.00000000       0.02669698 </v>
   <v>       0.00000000       0.00000000       0.02669698 </v>
   <v>       0.00000000       0.00000000       0.18301929 </v>
   <v>      -0.00000000       0.00000000      -0.01615304 </v>
   <v>       0.00000000      -0.00000000      -0.01615304 </v>
   <v>       0.00000000      -0.00000000       0.89172990 </v>
   <v>       0.00000000      -0.00000000       0.33600284 </v>
   <v>       0.00000000       0.00000000       0.33600284 </v>
   <v>       0.00000000       0.00000000       1.41046977 </v>
   <v>       0.00000000       0.00000000       0.04182768 </v>
   <v>       0.00000000       0.00000000      -0.00988235 </v>
   <v>       0.00000000       0.00000000       0.68319385 </v>
   <v>       0.00000000       0.00000000      -0.84458522 </v>
   <v>       0.00000000       0.00000000      -0.15915774 </v>
   <v>       0.00000000      -0.00000000      -0.21697107 </v>
   <v>       0.00000000       0.00000000      -2.07067885 </v>
  </varray>
  <varray name="stress" >
   <v>     -15.66522538       0.00000000       0.00000000 </v>
   <v>       0.00000000     -15.66522538      -0.00000000 </v>
   <v>       0.00000000       0.00000000      -9.30741566 </v>
  </varray>
  <energy>
   <i name="e_fr_energy">   -156.64533313 </i>
   <i name="e_wo_entrp">   -156.64533313 </i>
   <i name="e_0_energy">      0.00000000 </i>
  </energy>
  <time name="totalsc">  225.15  225.37</time>
  <eigenvalues>
   <array>
    <dimension dim="1">band</dimension>
    <dimension dim="2">kpoint</dimension>
    <dimension dim="3">spin</dimension>
    <field>eigene</field>
    <field>occ</field>
    <set>
     <set comment="spin 1">
      <set comment="kpoint 1">
       <r>  -35.4249    1.0000 </r>
       <r>  -34.2732    1.0000 </r>
       <r>  -34.2558    1.0000 </r>
       <r>  -34.0662    1.0000 </r>
       <r>  -19.0031    1.0000 </r>
       <r>  -18.9077    1.0000 </r>
       <r>  -18.8164    1.0000 </r>
       <r>  -18.2367    1.0000 </r>
       <r>  -17.8431    1.0000 </r>
       <r>  -17.8254    1.0000 </r>
       <r>  -17.8193    1.0000 </r>
       <r>  -17.7859    1.0000 </r>
       <r>  -17.7546    1.0000 </r>
       <r>  -17.6957    1.0000 </r>
       <r>  -17.3417    1.0000 </r>
       <r>  -17.3377    1.0000 </r>
       <r>  -17.3377    1.0000 </r>
       <r>  -17.1510    1.0000 </r>
       <r>  -17.0848    1.0000 </r>
       <r>  -16.3194    1.0000 </r>
       <r>  -16.3194    1.0000 </r>
       <r>  -16.2917    1.0000 </r>
       <r>  -16.2917    1.0000 </r>
       <r>  -16.1845    1.0000 </r>
       <r>  -16.1263    1.0000 </r>
       <r>  -16.1263    1.0000 </r>
       <r>  -15.9238    1.0000 </r>
       <r>  -15.7140    1.0000 </r>
       <r>   -5.5342    1.0000 </r>
       <r>   -5.0328    1.0000 </r>
       <r>   -4.5219    1.0000 </r>
       <r>   -4.3013    1.0000 </r>
       <r>   -4.3013    1.0000 </r>
       <r>   -4.2785    1.0000 </r>
       <r>   -4.2785    1.0000 </r>
       <r>   -4.2694    1.0000 </r>
       <r>   -4.2694    1.0000 </r>
       <r>   -3.9538    1.0000 </r>
       <r>   -3.7982    1.0000 </r>
       <r>   -3.7982    1.0000 </r>
       <r>   -3.5956    1.0000 </r>
       <r>   -3.4848    1.0000 </r>
       <r>   -3.4848    1.0000 </r>
       <r>   -3.2586    1.0000 </r>
       <r>   -3.1284    1.0000 </r>
       <r>   -3.1014    1.0000 </r>
       <r>   -3.1014    1.0000 </r>
       <r>   -3.0364    1.0000 </r>
       <r>   -2.7533    1.0000 </r>
       <r>   -2.7533    1.0000 </r>
       <r>   -2.7267    1.0000 </r>
       <r>   -2.7034    1.0000 </r>
       <r>   -2.5166    1.0000 </r>
       <r>   -2.5166    1.0000 </r>
       <r>   -2.1262    1.0000 </r>
       <r>   -2.1262    1.0000 </r>
       <r>   -2.0915    1.0000 </r>
       <r>   -2.0858    1.0000 </r>
       <r>   -2.0156    1.0000 </r>
       <r>   -2.0156    1.0000 </r>
       <r>   -1.8376    1.0000 </r>
       <r>   -1.8376    1.0000 </r>
       <r>   -1.3428    1.0000 </r>
       <r>   -1.3428    1.0000 </r>
       <r>    0.1913    0.0000 </r>
       <r>    0.2631    0.0000 </r>
       <r>    0.3064    0.0000 </r>
       <r>    0.3064    0.0000 </r>
       <r>    0.3338    0.0000 </r>
       <r>    0.5918    0.0000 </r>
       <r>    0.6368    0.0000 </r>
       <r>    0.8089    0.0000 </r>
       <r>    0.8093    0.0000 </r>
       <r>    3.4876    0.0000 </r>
       <r>    4.1057    0.0000 </r>
       <r>    4.2953    0.0000 </r>
      </set>
      <set comment="kpoint 2">
       <r>  -35.4220    1.0000 </r>
       <r>  -34.2696    1.0000 </r>
       <r>  -34.2524    1.0000 </r>
       <r>  -34.0627    1.0000 </r>
       <r>  -18.9290    1.0000 </r>
       <r>  -18.8449    1.0000 </r>
       <r>  -18.8025    1.0000 </r>
       <r>  -18.2391    1.0000 </r>
       <r>  -17.9137    1.0000 </r>
       <r>  -17.8713    1.0000 </r>
       <r>  -17.8276    1.0000 </r>
       <r>  -17.7933    1.0000 </r>
       <r>  -17.7807    1.0000 </r>
       <r>  -17.6692    1.0000 </r>
       <r>  -17.5768    1.0000 </r>
       <r>  -17.3308    1.0000 </r>
       <r>  -17.3118    1.0000 </r>
       <r>  -17.1479    1.0000 </r>
       <r>  -16.8186    1.0000 </r>
       <r>  -16.3111    1.0000 </r>
       <r>  -16.2829    1.0000 </r>
       <r>  -16.2234    1.0000 </r>
       <r>  -16.2095    1.0000 </r>
       <r>  -16.1698    1.0000 </r>
       <r>  -16.1175    1.0000 </r>
       <r>  -16.0339    1.0000 </r>
       <r>  -15.9442    1.0000 </r>
       <r>  -15.7418    1.0000 </r>
       <r>   -5.5468    1.0000 </r>
       <r>   -5.0764    1.0000 </r>
       <r>   -4.6810    1.0000 </r>
       <r>   -4.5892    1.0000 </r>
       <r>   -4.5437    1.0000 </r>
       <r>   -4.4618    1.0000 </r>
       <r>   -4.4006    1.0000 </r>
       <r>   -4.3051    1.0000 </r>
       <r>   -4.2798    1.0000 </r>
       <r>   -4.2670    1.0000 </r>
       <r>   -4.1432    1.0000 </r>
       <r>   -3.8642    1.0000 </r>
       <r>   -3.8306    1.0000 </r>
       <r>   -3.6174    1.0000 </r>
       <r>   -3.5647    1.0000 </r>
       <r>   -3.3649    1.0000 </r>
       <r>   -3.3342    1.0000 </r>
       <r>   -3.1952    1.0000 </r>
       <r>   -3.0372    1.0000 </r>
       <r>   -2.8862    1.0000 </r>
       <r>   -2.8608    1.0000 </r>
       <r>   -2.7710    1.0000 </r>
       <r>   -2.6976    1.0000 </r>
       <r>   -2.6264    1.0000 </r>
       <r>   -2.5944    1.0000 </r>
       <r>   -2.5576    1.0000 </r>
       <r>   -2.4383    1.0000 </r>
       <r>   -2.3981    1.0000 </r>
       <r>   -2.3789    1.0000 </r>
       <r>   -2.3381    1.0000 </r>
       <r>   -2.2120    1.0000 </r>
       <r>   -2.1210    1.0000 </r>
       <r>   -1.9802    1.0000 </r>
       <r>   -1.9627    1.0000 </r>
       <r>   -1.7118    1.0000 </r>
       <r>   -1.6516    1.0000 </r>
       <r>    0.3231    0.0000 </r>
       <r>    0.6008    0.0000 </r>
       <r>    0.6513    0.0000 </r>
       <r>    0.6644    0.0000 </r>
       <r>    0.7170    0.0000 </r>
       <r>    0.7524    0.0000 </r>
       <r>    0.8301    0.0000 </r>
       <r>    1.0084    0.0000 </r>
       <r>    1.0671    0.0000 </r>
       <r>    1.5264    0.0000 </r>
       <r>    4.4164    0.0000 </r>
       <r>    4.5034    0.0000 </r>
      </set>
      <set comment="kpoint 3">
       <r>  -35.4154    1.0000 </r>
       <r>  -34.2617    1.0000 </r>
       <r>  -34.2448    1.0000 </r>
       <r>  -34.0548    1.0000 </r>
       <r>  -18.8550    1.0000 </r>
       <r>  -18.7849    1.0000 </r>
       <r>  -18.6717    1.0000 </r>
       <r>  -18.2503    1.0000 </r>
       <r>  -18.0872    1.0000 </r>
       <r>  -17.9547    1.0000 </r>
       <r>  -17.9081    1.0000 </r>
       <r>  -17.8004    1.0000 </r>
       <r>  -17.7657    1.0000 </r>
       <r>  -17.6532    1.0000 </r>
       <r>  -17.5546    1.0000 </r>
       <r>  -17.3153    1.0000 </r>
       <r>  -17.3012    1.0000 </r>
       <r>  -17.1305    1.0000 </r>
       <r>  -16.5153    1.0000 </r>
       <r>  -16.2923    1.0000 </r>
       <r>  -16.2631    1.0000 </r>
       <r>  -16.1996    1.0000 </r>
       <r>  -16.0976    1.0000 </r>
       <r>  -16.0525    1.0000 </r>
       <r>  -16.0108    1.0000 </r>
       <r>  -15.9649    1.0000 </r>
       <r>  -15.8556    1.0000 </r>
       <r>  -15.7869    1.0000 </r>
       <r>   -5.5905    1.0000 </r>
       <r>   -5.4088    1.0000 </r>
       <r>   -5.1914    1.0000 </r>
       <r>   -5.1567    1.0000 </r>
       <r>   -5.0830    1.0000 </r>
       <r>   -4.9304    1.0000 </r>
       <r>   -4.8403    1.0000 </r>
       <r>   -4.5242    1.0000 </r>
       <r>   -4.4517    1.0000 </r>
       <r>   -4.3046    1.0000 </r>
       <r>   -4.2746    1.0000 </r>
       <r>   -4.2497    1.0000 </r>
       <r>   -4.1771    1.0000 </r>
       <r>   -4.0246    1.0000 </r>
       <r>   -3.7722    1.0000 </r>
       <r>   -3.7116    1.0000 </r>
       <r>   -3.5092    1.0000 </r>
       <r>   -3.4891    1.0000 </r>
       <r>   -3.2662    1.0000 </r>
       <r>   -3.1896    1.0000 </r>
       <r>   -3.1695    1.0000 </r>
       <r>   -3.0622    1.0000 </r>
       <r>   -3.0403    1.0000 </r>
       <r>   -3.0045    1.0000 </r>
       <r>   -2.8168    1.0000 </r>
       <r>   -2.7740    1.0000 </r>
       <r>   -2.7450    1.0000 </r>
       <r>   -2.5266    1.0000 </r>
       <r>   -2.4921    1.0000 </r>
       <r>   -2.3555    1.0000 </r>
       <r>   -2.1718    1.0000 </r>
       <r>   -2.1283    1.0000 </r>
       <r>   -2.0944    1.0000 </r>
       <r>   -2.0708    1.0000 </r>
       <r>   -1.9461    1.0000 </r>
       <r>   -1.8939    1.0000 </r>
       <r>    0.3685    0.0000 </r>
       <r>    0.8457    0.0000 </r>
       <r>    1.2999    0.0000 </r>
       <r>    1.3522    0.0000 </r>
       <r>    1.3694    0.0000 </r>
       <r>    1.4183    0.0000 </r>
       <r>    1.4438    0.0000 </r>
       <r>    1.4563    0.0000 </r>
       <r>    1.5844    0.0000 </r>
       <r>    1.8029    0.0000 </r>
       <r>    1.8738    0.0000 </r>
       <r>    5.3812    0.0000 </r>
      </set>
      <set comment="kpoint 4">
       <r>  -35.4101    1.0000 </r>
       <r>  -34.2553    1.0000 </r>
       <r>  -34.2387    1.0000 </r>
       <r>  -34.0485    1.0000 </r>
       <r>  -18.9209    1.0000 </r>
       <r>  -18.7676    1.0000 </r>
       <r>  -18.5261    1.0000 </r>
       <r>  -18.2100    1.0000 </r>
       <r>  -18.1575    1.0000 </r>
       <r>  -18.0231    1.0000 </r>
       <r>  -17.8797    1.0000 </r>
       <r>  -17.8263    1.0000 </r>
       <r>  -17.7701    1.0000 </r>
       <r>  -17.6788    1.0000 </r>
       <r>  -17.4386    1.0000 </r>
       <r>  -17.3028    1.0000 </r>
       <r>  -17.2594    1.0000 </r>
       <r>  -17.1171    1.0000 </r>
       <r>  -16.3456    1.0000 </r>
       <r>  -16.2771    1.0000 </r>
       <r>  -16.2471    1.0000 </r>
       <r>  -16.1947    1.0000 </r>
       <r>  -16.0814    1.0000 </r>
       <r>  -16.0242    1.0000 </r>
       <r>  -15.9332    1.0000 </r>
       <r>  -15.8511    1.0000 </r>
       <r>  -15.8057    1.0000 </r>
       <r>  -15.7310    1.0000 </r>
       <r>   -5.7755    1.0000 </r>
       <r>   -5.7607    1.0000 </r>
       <r>   -5.6576    1.0000 </r>
       <r>   -5.6299    1.0000 </r>
       <r>   -5.4453    1.0000 </r>
       <r>   -5.3547    1.0000 </r>
       <r>   -5.1359    1.0000 </r>
       <r>   -4.9536    1.0000 </r>
       <r>   -4.7167    1.0000 </r>
       <r>   -4.4298    1.0000 </r>
       <r>   -4.2727    1.0000 </r>
       <r>   -4.2425    1.0000 </r>
       <r>   -4.2161    1.0000 </r>
       <r>   -4.1521    1.0000 </r>
       <r>   -3.9896    1.0000 </r>
       <r>   -3.9600    1.0000 </r>
       <r>   -3.7905    1.0000 </r>
       <r>   -3.7647    1.0000 </r>
       <r>   -3.6139    1.0000 </r>
       <r>   -3.4800    1.0000 </r>
       <r>   -3.3172    1.0000 </r>
       <r>   -3.0970    1.0000 </r>
       <r>   -3.0910    1.0000 </r>
       <r>   -3.0296    1.0000 </r>
       <r>   -3.0117    1.0000 </r>
       <r>   -2.9728    1.0000 </r>
       <r>   -2.7281    1.0000 </r>
       <r>   -2.6900    1.0000 </r>
       <r>   -2.5065    1.0000 </r>
       <r>   -2.4166    1.0000 </r>
       <r>   -2.3810    1.0000 </r>
       <r>   -2.2710    1.0000 </r>
       <r>   -2.2027    1.0000 </r>
       <r>   -2.1874    1.0000 </r>
       <r>   -1.8726    1.0000 </r>
       <r>   -1.6540    1.0000 </r>
       <r>    0.4061    0.0000 </r>
       <r>    0.8757    0.0000 </r>
       <r>    1.4135    0.0000 </r>
       <r>    1.8364    0.0000 </r>
       <r>    1.8743    0.0000 </r>
       <r>    1.8858    0.0000 </r>
       <r>    1.9236    0.0000 </r>
       <r>    1.9617    0.0000 </r>
       <r>    1.9653    0.0000 </r>
       <r>    2.0812    0.0000 </r>
       <r>    2.1590    0.0000 </r>
       <r>    6.0149    0.0000 </r>
      </set>
      <set comment="kpoint 5">
       <r>  -35.4191    1.0000 </r>
       <r>  -34.2662    1.0000 </r>
       <r>  -34.2491    1.0000 </r>
       <r>  -34.0593    1.0000 </r>
       <r>  -18.8604    1.0000 </r>
       <r>  -18.7872    1.0000 </r>
       <r>  -18.7613    1.0000 </r>
       <r>  -18.2232    1.0000 </r>
       <r>  -17.8972    1.0000 </r>
       <r>  -17.8749    1.0000 </r>
       <r>  -17.8609    1.0000 </r>
       <r>  -17.8499    1.0000 </r>
       <r>  -17.7825    1.0000 </r>
       <r>  -17.7024    1.0000 </r>
       <r>  -17.6257    1.0000 </r>
       <r>  -17.3105    1.0000 </r>
       <r>  -17.3021    1.0000 </r>
       <r>  -17.1500    1.0000 </r>
       <r>  -16.7124    1.0000 </r>
       <r>  -16.3152    1.0000 </r>
       <r>  -16.2660    1.0000 </r>
       <r>  -16.2203    1.0000 </r>
       <r>  -16.1706    1.0000 </r>
       <r>  -16.1068    1.0000 </r>
       <r>  -16.0988    1.0000 </r>
       <r>  -15.9983    1.0000 </r>
       <r>  -15.9447    1.0000 </r>
       <r>  -15.7734    1.0000 </r>
       <r>   -5.5572    1.0000 </r>
       <r>   -5.1313    1.0000 </r>
       <r>   -4.8350    1.0000 </r>
       <r>   -4.7125    1.0000 </r>
       <r>   -4.6695    1.0000 </r>
       <r>   -4.5686    1.0000 </r>
       <r>   -4.4226    1.0000 </r>
       <r>   -4.4185    1.0000 </r>
       <r>   -4.3931    1.0000 </r>
       <r>   -4.3619    1.0000 </r>
       <r>   -4.2632    1.0000 </r>
       <r>   -4.2120    1.0000 </r>
       <r>   -3.9892    1.0000 </r>
       <r>   -3.8670    1.0000 </r>
       <r>   -3.6726    1.0000 </r>
       <r>   -3.5744    1.0000 </r>
       <r>   -3.3926    1.0000 </r>
       <r>   -3.3793    1.0000 </r>
       <r>   -3.2448    1.0000 </r>
       <r>   -3.1278    1.0000 </r>
       <r>   -3.0522    1.0000 </r>
       <r>   -2.8679    1.0000 </r>
       <r>   -2.7386    1.0000 </r>
       <r>   -2.6947    1.0000 </r>
       <r>   -2.5103    1.0000 </r>
       <r>   -2.4962    1.0000 </r>
       <r>   -2.4785    1.0000 </r>
       <r>   -2.4512    1.0000 </r>
       <r>   -2.4362    1.0000 </r>
       <r>   -2.3934    1.0000 </r>
       <r>   -2.2940    1.0000 </r>
       <r>   -2.2864    1.0000 </r>
       <r>   -2.1641    1.0000 </r>
       <r>   -2.0826    1.0000 </r>
       <r>   -2.0215    1.0000 </r>
       <r>   -1.5314    1.0000 </r>
       <r>    0.6004    0.0000 </r>
       <r>    0.7504    0.0000 </r>
       <r>    0.8313    0.0000 </r>
       <r>    0.8619    0.0000 </r>
       <r>    0.9221    0.0000 </r>
       <r>    0.9907    0.0000 </r>
       <r>    1.0451    0.0000 </r>
       <r>    1.0478    0.0000 </r>
       <r>    1.3822    0.0000 </r>
       <r>    1.4883    0.0000 </r>
       <r>    4.6113    0.0000 </r>
       <r>    4.8890    0.0000 </r>
      </set>
      <set comment="kpoint 6">
       <r>  -35.4126    1.0000 </r>
       <r>  -34.2584    1.0000 </r>
       <r>  -34.2416    1.0000 </r>
       <r>  -34.0516    1.0000 </r>
       <r>  -18.7887    1.0000 </r>
       <r>  -18.7155    1.0000 </r>
       <r>  -18.5910    1.0000 </r>
       <r>  -18.1990    1.0000 </r>
       <r>  -18.0449    1.0000 </r>
       <r>  -17.9261    1.0000 </r>
       <r>  -17.8897    1.0000 </r>
       <r>  -17.8302    1.0000 </r>
       <r>  -17.7787    1.0000 </r>
       <r>  -17.7163    1.0000 </r>
       <r>  -17.5017    1.0000 </r>
       <r>  -17.3544    1.0000 </r>
       <r>  -17.2517    1.0000 </r>
       <r>  -17.1401    1.0000 </r>
       <r>  -16.5375    1.0000 </r>
       <r>  -16.3166    1.0000 </r>
       <r>  -16.2552    1.0000 </r>
       <r>  -16.2175    1.0000 </r>
       <r>  -16.0905    1.0000 </r>
       <r>  -16.0736    1.0000 </r>
       <r>  -16.0222    1.0000 </r>
       <r>  -15.9667    1.0000 </r>
       <r>  -15.8581    1.0000 </r>
       <r>  -15.8265    1.0000 </r>
       <r>   -5.5932    1.0000 </r>
       <r>   -5.3919    1.0000 </r>
       <r>   -5.2288    1.0000 </r>
       <r>   -5.1730    1.0000 </r>
       <r>   -5.0822    1.0000 </r>
       <r>   -4.9193    1.0000 </r>
       <r>   -4.8179    1.0000 </r>
       <r>   -4.5789    1.0000 </r>
       <r>   -4.5531    1.0000 </r>
       <r>   -4.4864    1.0000 </r>
       <r>   -4.4767    1.0000 </r>
       <r>   -4.4164    1.0000 </r>
       <r>   -4.3533    1.0000 </r>
       <r>   -4.1764    1.0000 </r>
       <r>   -4.0918    1.0000 </r>
       <r>   -4.0167    1.0000 </r>
       <r>   -3.9192    1.0000 </r>
       <r>   -3.6579    1.0000 </r>
       <r>   -3.6346    1.0000 </r>
       <r>   -3.5521    1.0000 </r>
       <r>   -3.3996    1.0000 </r>
       <r>   -3.1652    1.0000 </r>
       <r>   -2.9824    1.0000 </r>
       <r>   -2.8943    1.0000 </r>
       <r>   -2.6844    1.0000 </r>
       <r>   -2.6163    1.0000 </r>
       <r>   -2.5831    1.0000 </r>
       <r>   -2.5323    1.0000 </r>
       <r>   -2.4797    1.0000 </r>
       <r>   -2.4540    1.0000 </r>
       <r>   -2.3773    1.0000 </r>
       <r>   -2.2030    1.0000 </r>
       <r>   -2.1329    1.0000 </r>
       <r>   -1.9607    1.0000 </r>
       <r>   -1.9049    1.0000 </r>
       <r>   -1.6086    1.0000 </r>
       <r>    0.7017    0.0000 </r>
       <r>    1.0496    0.0000 </r>
       <r>    1.3306    0.0000 </r>
       <r>    1.4081    0.0000 </r>
       <r>    1.4471    0.0000 </r>
       <r>    1.4875    0.0000 </r>
       <r>    1.5578    0.0000 </r>
       <r>    1.5767    0.0000 </r>
       <r>    1.5953    0.0000 </r>
       <r>    1.8346    0.0000 </r>
       <r>    1.9303    0.0000 </r>
       <r>    5.4188    0.0000 </r>
      </set>
      <set comment="kpoint 7">
       <r>  -35.4074    1.0000 </r>
       <r>  -34.2521    1.0000 </r>
       <r>  -34.2356    1.0000 </r>
       <r>  -34.0454    1.0000 </r>
       <r>  -18.8281    1.0000 </r>
       <r>  -18.6785    1.0000 </r>
       <r>  -18.4430    1.0000 </r>
       <r>  -18.1517    1.0000 </r>
       <r>  -18.1129    1.0000 </r>
       <r>  -17.9754    1.0000 </r>
       <r>  -17.8402    1.0000 </r>
       <r>  -17.8306    1.0000 </r>
       <r>  -17.7774    1.0000 </r>
       <r>  -17.6495    1.0000 </r>
       <r>  -17.4169    1.0000 </r>
       <r>  -17.3794    1.0000 </r>
       <r>  -17.2047    1.0000 </r>
       <r>  -17.1351    1.0000 </r>
       <r>  -16.4328    1.0000 </r>
       <r>  -16.3208    1.0000 </r>
       <r>  -16.2732    1.0000 </r>
       <r>  -16.1899    1.0000 </r>
       <r>  -16.0848    1.0000 </r>
       <r>  -16.0256    1.0000 </r>
       <r>  -16.0029    1.0000 </r>
       <r>  -15.9030    1.0000 </r>
       <r>  -15.8544    1.0000 </r>
       <r>  -15.7767    1.0000 </r>
       <r>   -5.7605    1.0000 </r>
       <r>   -5.6896    1.0000 </r>
       <r>   -5.6444    1.0000 </r>
       <r>   -5.6067    1.0000 </r>
       <r>   -5.4397    1.0000 </r>
       <r>   -5.2822    1.0000 </r>
       <r>   -5.1271    1.0000 </r>
       <r>   -4.9532    1.0000 </r>
       <r>   -4.7770    1.0000 </r>
       <r>   -4.6786    1.0000 </r>
       <r>   -4.5157    1.0000 </r>
       <r>   -4.4754    1.0000 </r>
       <r>   -4.4521    1.0000 </r>
       <r>   -4.4117    1.0000 </r>
       <r>   -4.3763    1.0000 </r>
       <r>   -4.2888    1.0000 </r>
       <r>   -4.0829    1.0000 </r>
       <r>   -3.8580    1.0000 </r>
       <r>   -3.7637    1.0000 </r>
       <r>   -3.6747    1.0000 </r>
       <r>   -3.5422    1.0000 </r>
       <r>   -3.2430    1.0000 </r>
       <r>   -3.0771    1.0000 </r>
       <r>   -3.0022    1.0000 </r>
       <r>   -2.7621    1.0000 </r>
       <r>   -2.6941    1.0000 </r>
       <r>   -2.6482    1.0000 </r>
       <r>   -2.6215    1.0000 </r>
       <r>   -2.5888    1.0000 </r>
       <r>   -2.5057    1.0000 </r>
       <r>   -2.3829    1.0000 </r>
       <r>   -2.3085    1.0000 </r>
       <r>   -2.2135    1.0000 </r>
       <r>   -1.9061    1.0000 </r>
       <r>   -1.7184    1.0000 </r>
       <r>   -1.6205    1.0000 </r>
       <r>    0.7385    0.0000 </r>
       <r>    1.1015    0.0000 </r>
       <r>    1.5449    0.0000 </r>
       <r>    1.9132    0.0000 </r>
       <r>    1.9234    0.0000 </r>
       <r>    1.9279    0.0000 </r>
       <r>    1.9687    0.0000 </r>
       <r>    1.9936    0.0000 </r>
       <r>    2.0444    0.0000 </r>
       <r>    2.2066    0.0000 </r>
       <r>    2.3112    0.0000 </r>
       <r>    6.1808    0.0000 </r>
      </set>
      <set comment="kpoint 8">
       <r>  -35.4064    1.0000 </r>
       <r>  -34.2510    1.0000 </r>
       <r>  -34.2345    1.0000 </r>
       <r>  -34.0442    1.0000 </r>
       <r>  -18.6538    1.0000 </r>
       <r>  -18.5613    1.0000 </r>
       <r>  -18.3993    1.0000 </r>
       <r>  -18.0831    1.0000 </r>
       <r>  -18.0258    1.0000 </r>
       <r>  -17.9196    1.0000 </r>
       <r>  -17.8697    1.0000 </r>
       <r>  -17.8004    1.0000 </r>
       <r>  -17.7857    1.0000 </r>
       <r>  -17.7717    1.0000 </r>
       <r>  -17.3735    1.0000 </r>
       <r>  -17.3377    1.0000 </r>
       <r>  -17.2527    1.0000 </r>
       <r>  -17.1417    1.0000 </r>
       <r>  -16.5980    1.0000 </r>
       <r>  -16.3581    1.0000 </r>
       <r>  -16.2757    1.0000 </r>
       <r>  -16.2180    1.0000 </r>
       <r>  -16.1766    1.0000 </r>
       <r>  -16.0810    1.0000 </r>
       <r>  -16.0094    1.0000 </r>
       <r>  -15.9948    1.0000 </r>
       <r>  -15.8986    1.0000 </r>
       <r>  -15.8652    1.0000 </r>
       <r>   -5.6081    1.0000 </r>
       <r>   -5.4553    1.0000 </r>
       <r>   -5.3984    1.0000 </r>
       <r>   -5.2505    1.0000 </r>
       <r>   -5.1014    1.0000 </r>
       <r>   -4.9527    1.0000 </r>
       <r>   -4.9207    1.0000 </r>
       <r>   -4.8905    1.0000 </r>
       <r>   -4.8863    1.0000 </r>
       <r>   -4.7915    1.0000 </r>
       <r>   -4.7713    1.0000 </r>
       <r>   -4.7427    1.0000 </r>
       <r>   -4.6446    1.0000 </r>
       <r>   -4.5480    1.0000 </r>
       <r>   -4.5017    1.0000 </r>
       <r>   -4.4631    1.0000 </r>
       <r>   -4.4209    1.0000 </r>
       <r>   -4.3750    1.0000 </r>
       <r>   -4.0760    1.0000 </r>
       <r>   -4.0447    1.0000 </r>
       <r>   -3.7918    1.0000 </r>
       <r>   -3.5000    1.0000 </r>
       <r>   -3.4524    1.0000 </r>
       <r>   -3.0625    1.0000 </r>
       <r>   -2.7872    1.0000 </r>
       <r>   -2.6144    1.0000 </r>
       <r>   -2.3378    1.0000 </r>
       <r>   -2.3015    1.0000 </r>
       <r>   -2.2360    1.0000 </r>
       <r>   -2.1588    1.0000 </r>
       <r>   -2.1514    1.0000 </r>
       <r>   -2.0503    1.0000 </r>
       <r>   -2.0378    1.0000 </r>
       <r>   -1.8871    1.0000 </r>
       <r>   -1.8254    1.0000 </r>
       <r>   -1.2157    1.0000 </r>
       <r>    1.2898    0.0000 </r>
       <r>    1.4974    0.0000 </r>
       <r>    1.5173    0.0000 </r>
       <r>    1.6577    0.0000 </r>
       <r>    1.7504    0.0000 </r>
       <r>    1.7733    0.0000 </r>
       <r>    1.8233    0.0000 </r>
       <r>    1.8751    0.0000 </r>
       <r>    1.9075    0.0000 </r>
       <r>    2.0936    0.0000 </r>
       <r>    2.1426    0.0000 </r>
       <r>    2.2054    0.0000 </r>
      </set>
      <set comment="kpoint 9">
       <r>  -35.4014    1.0000 </r>
       <r>  -34.2451    1.0000 </r>
       <r>  -34.2287    1.0000 </r>
       <r>  -34.0384    1.0000 </r>
       <r>  -18.5855    1.0000 </r>
       <r>  -18.4498    1.0000 </r>
       <r>  -18.2352    1.0000 </r>
       <r>  -18.0859    1.0000 </r>
       <r>  -17.9679    1.0000 </r>
       <r>  -17.9213    1.0000 </r>
       <r>  -17.8528    1.0000 </r>
       <r>  -17.7820    1.0000 </r>
       <r>  -17.7453    1.0000 </r>
       <r>  -17.6346    1.0000 </r>
       <r>  -17.4406    1.0000 </r>
       <r>  -17.2512    1.0000 </r>
       <r>  -17.2107    1.0000 </r>
       <r>  -17.1464    1.0000 </r>
       <r>  -16.6600    1.0000 </r>
       <r>  -16.3960    1.0000 </r>
       <r>  -16.3277    1.0000 </r>
       <r>  -16.2514    1.0000 </r>
       <r>  -16.1679    1.0000 </r>
       <r>  -16.1255    1.0000 </r>
       <r>  -16.0237    1.0000 </r>
       <r>  -15.9810    1.0000 </r>
       <r>  -15.9474    1.0000 </r>
       <r>  -15.8627    1.0000 </r>
       <r>   -5.7600    1.0000 </r>
       <r>   -5.6989    1.0000 </r>
       <r>   -5.6754    1.0000 </r>
       <r>   -5.4343    1.0000 </r>
       <r>   -5.3686    1.0000 </r>
       <r>   -5.3534    1.0000 </r>
       <r>   -5.2336    1.0000 </r>
       <r>   -5.1397    1.0000 </r>
       <r>   -5.0783    1.0000 </r>
       <r>   -5.0136    1.0000 </r>
       <r>   -4.9732    1.0000 </r>
       <r>   -4.9205    1.0000 </r>
       <r>   -4.8635    1.0000 </r>
       <r>   -4.7999    1.0000 </r>
       <r>   -4.7627    1.0000 </r>
       <r>   -4.5896    1.0000 </r>
       <r>   -4.4741    1.0000 </r>
       <r>   -4.3657    1.0000 </r>
       <r>   -4.3212    1.0000 </r>
       <r>   -4.2177    1.0000 </r>
       <r>   -3.9441    1.0000 </r>
       <r>   -3.8021    1.0000 </r>
       <r>   -3.4558    1.0000 </r>
       <r>   -2.9586    1.0000 </r>
       <r>   -2.8614    1.0000 </r>
       <r>   -2.6985    1.0000 </r>
       <r>   -2.3727    1.0000 </r>
       <r>   -2.3157    1.0000 </r>
       <r>   -2.0963    1.0000 </r>
       <r>   -2.0338    1.0000 </r>
       <r>   -2.0312    1.0000 </r>
       <r>   -1.9814    1.0000 </r>
       <r>   -1.9391    1.0000 </r>
       <r>   -1.8209    1.0000 </r>
       <r>   -1.6232    1.0000 </r>
       <r>   -1.0580    1.0000 </r>
       <r>    1.4035    0.0000 </r>
       <r>    1.6303    0.0000 </r>
       <r>    1.9003    0.0000 </r>
       <r>    1.9406    0.0000 </r>
       <r>    2.0598    0.0000 </r>
       <r>    2.1075    0.0000 </r>
       <r>    2.1697    0.0000 </r>
       <r>    2.1811    0.0000 </r>
       <r>    2.1975    0.0000 </r>
       <r>    2.2524    0.0000 </r>
       <r>    2.3760    0.0000 </r>
       <r>    2.5744    0.0000 </r>
      </set>
      <set comment="kpoint 10">
       <r>  -35.3965    1.0000 </r>
       <r>  -34.2394    1.0000 </r>
       <r>  -34.2232    1.0000 </r>
       <r>  -34.0327    1.0000 </r>
       <r>  -18.3114    1.0000 </r>
       <r>  -18.2057    1.0000 </r>
       <r>  -18.1103    1.0000 </r>
       <r>  -18.0242    1.0000 </r>
       <r>  -17.9721    1.0000 </r>
       <r>  -17.8838    1.0000 </r>
       <r>  -17.7855    1.0000 </r>
       <r>  -17.7678    1.0000 </r>
       <r>  -17.7428    1.0000 </r>
       <r>  -17.6270    1.0000 </r>
       <r>  -17.3353    1.0000 </r>
       <r>  -17.2292    1.0000 </r>
       <r>  -17.1595    1.0000 </r>
       <r>  -17.1306    1.0000 </r>
       <r>  -16.9242    1.0000 </r>
       <r>  -16.4394    1.0000 </r>
       <r>  -16.3850    1.0000 </r>
       <r>  -16.3845    1.0000 </r>
       <r>  -16.2755    1.0000 </r>
       <r>  -16.1295    1.0000 </r>
       <r>  -16.1135    1.0000 </r>
       <r>  -16.0445    1.0000 </r>
       <r>  -15.9232    1.0000 </r>
       <r>  -15.9047    1.0000 </r>
       <r>   -5.8734    1.0000 </r>
       <r>   -5.8270    1.0000 </r>
       <r>   -5.8017    1.0000 </r>
       <r>   -5.7359    1.0000 </r>
       <r>   -5.5215    1.0000 </r>
       <r>   -5.4979    1.0000 </r>
       <r>   -5.4606    1.0000 </r>
       <r>   -5.4481    1.0000 </r>
       <r>   -5.4236    1.0000 </r>
       <r>   -5.2492    1.0000 </r>
       <r>   -5.2097    1.0000 </r>
       <r>   -5.0761    1.0000 </r>
       <r>   -5.0323    1.0000 </r>
       <r>   -5.0021    1.0000 </r>
       <r>   -4.8444    1.0000 </r>
       <r>   -4.7863    1.0000 </r>
       <r>   -4.7683    1.0000 </r>
       <r>   -4.5475    1.0000 </r>
       <r>   -4.4699    1.0000 </r>
       <r>   -4.4328    1.0000 </r>
       <r>   -4.0105    1.0000 </r>
       <r>   -3.8696    1.0000 </r>
       <r>   -3.7338    1.0000 </r>
       <r>   -2.8443    1.0000 </r>
       <r>   -2.7995    1.0000 </r>
       <r>   -2.7350    1.0000 </r>
       <r>   -2.3279    1.0000 </r>
       <r>   -2.2884    1.0000 </r>
       <r>   -1.9193    1.0000 </r>
       <r>   -1.8815    1.0000 </r>
       <r>   -1.6723    1.0000 </r>
       <r>   -1.6542    1.0000 </r>
       <r>   -1.6269    1.0000 </r>
       <r>   -1.5840    1.0000 </r>
       <r>   -1.5797    1.0000 </r>
       <r>   -0.7275    1.0000 </r>
       <r>    1.9159    0.0000 </r>
       <r>    1.9666    0.0000 </r>
       <r>    2.0819    0.0000 </r>
       <r>    2.1323    0.0000 </r>
       <r>    2.2849    0.0000 </r>
       <r>    2.3469    0.0000 </r>
       <r>    2.3936    0.0000 </r>
       <r>    2.4168    0.0000 </r>
       <r>    2.4564    0.0000 </r>
       <r>    5.7775    0.0000 </r>
       <r>    5.8984    0.0000 </r>
       <r>    6.0529    0.0000 </r>
      </set>
     </set>
    </set>
   </array>
  </eigenvalues>
  <separator name="orbital magnetization" >
   <v name="MAGDIPOLOUT">      0.00000000      0.00000000      0.00000000</v>
  </separator>
  <dos>
   <i name="efermi">     -0.66333261 </i>
   <total>
    <array>
     <dimension dim="1">gridpoints</dimension>
     <dimension dim="2">spin</dimension>
     <field>energy</field>
     <field>total</field>
     <field>integrated</field>
     <set>
      <set comment="spin 1">
       <r>   -37.5052     0.0000     0.0000 </r>
       <r>   -37.3527     0.0000     0.0000 </r>
       <r>   -37.2001     0.0000     0.0000 </r>
       <r>   -37.0476     0.0000     0.0000 </r>
       <r>   -36.8950     0.0000     0.0000 </r>
       <r>   -36.7425     0.0000     0.0000 </r>
       <r>   -36.5899     0.0000     0.0000 </r>
       <r>   -36.4374     0.0000     0.0000 </r>
       <r>   -36.2848     0.0000     0.0000 </r>
       <r>   -36.1322     0.0000     0.0000 </r>
       <r>   -35.9797     0.0000     0.0000 </r>
       <r>   -35.8271     0.0000     0.0000 </r>
       <r>   -35.6746     0.0000     0.0000 </r>
       <r>   -35.5220     0.0000     0.0000 </r>
       <r>   -35.3695     0.0000     2.0000 </r>
       <r>   -35.2169     0.0000     2.0000 </r>
       <r>   -35.0644     0.0000     2.0000 </r>
       <r>   -34.9118     0.0000     2.0000 </r>
       <r>   -34.7593     0.0000     2.0000 </r>
       <r>   -34.6067     0.0000     2.0000 </r>
       <r>   -34.4541     0.0000     2.0000 </r>
       <r>   -34.3016     0.0000     2.0000 </r>
       <r>   -34.1490     0.0000     6.0000 </r>
       <r>   -33.9965     0.0000     8.0000 </r>
       <r>   -33.8439     0.0000     8.0000 </r>
       <r>   -33.6914     0.0000     8.0000 </r>
       <r>   -33.5388     0.0000     8.0000 </r>
       <r>   -33.3863     0.0000     8.0000 </r>
       <r>   -33.2337     0.0000     8.0000 </r>
       <r>   -33.0812     0.0000     8.0000 </r>
       <r>   -32.9286     0.0000     8.0000 </r>
       <r>   -32.7760     0.0000     8.0000 </r>
       <r>   -32.6235     0.0000     8.0000 </r>
       <r>   -32.4709     0.0000     8.0000 </r>
       <r>   -32.3184     0.0000     8.0000 </r>
       <r>   -32.1658     0.0000     8.0000 </r>
       <r>   -32.0133     0.0000     8.0000 </r>
       <r>   -31.8607     0.0000     8.0000 </r>
       <r>   -31.7082     0.0000     8.0000 </r>
       <r>   -31.5556     0.0000     8.0000 </r>
       <r>   -31.4031     0.0000     8.0000 </r>
       <r>   -31.2505     0.0000     8.0000 </r>
       <r>   -31.0979     0.0000     8.0000 </r>
       <r>   -30.9454     0.0000     8.0000 </r>
       <r>   -30.7928     0.0000     8.0000 </r>
       <r>   -30.6403     0.0000     8.0000 </r>
       <r>   -30.4877     0.0000     8.0000 </r>
       <r>   -30.3352     0.0000     8.0000 </r>
       <r>   -30.1826     0.0000     8.0000 </r>
       <r>   -30.0301     0.0000     8.0000 </r>
       <r>   -29.8775     0.0000     8.0000 </r>
       <r>   -29.7250     0.0000     8.0000 </r>
       <r>   -29.5724     0.0000     8.0000 </r>
       <r>   -29.4198     0.0000     8.0000 </r>
       <r>   -29.2673     0.0000     8.0000 </r>
       <r>   -29.1147     0.0000     8.0000 </r>
       <r>   -28.9622     0.0000     8.0000 </r>
       <r>   -28.8096     0.0000     8.0000 </r>
       <r>   -28.6571     0.0000     8.0000 </r>
       <r>   -28.5045     0.0000     8.0000 </r>
       <r>   -28.3520     0.0000     8.0000 </r>
       <r>   -28.1994     0.0000     8.0000 </r>
       <r>   -28.0469     0.0000     8.0000 </r>
       <r>   -27.8943     0.0000     8.0000 </r>
       <r>   -27.7418     0.0000     8.0000 </r>
       <r>   -27.5892     0.0000     8.0000 </r>
       <r>   -27.4366     0.0000     8.0000 </r>
       <r>   -27.2841     0.0000     8.0000 </r>
       <r>   -27.1315     0.0000     8.0000 </r>
       <r>   -26.9790     0.0000     8.0000 </r>
       <r>   -26.8264     0.0000     8.0000 </r>
       <r>   -26.6739     0.0000     8.0000 </r>
       <r>   -26.5213     0.0000     8.0000 </r>
       <r>   -26.3688     0.0000     8.0000 </r>
       <r>   -26.2162     0.0000     8.0000 </r>
       <r>   -26.0637     0.0000     8.0000 </r>
       <r>   -25.9111     0.0000     8.0000 </r>
       <r>   -25.7585     0.0000     8.0000 </r>
       <r>   -25.6060     0.0000     8.0000 </r>
       <r>   -25.4534     0.0000     8.0000 </r>
       <r>   -25.3009     0.0000     8.0000 </r>
       <r>   -25.1483     0.0000     8.0000 </r>
       <r>   -24.9958     0.0000     8.0000 </r>
       <r>   -24.8432     0.0000     8.0000 </r>
       <r>   -24.6907     0.0000     8.0000 </r>
       <r>   -24.5381     0.0000     8.0000 </r>
       <r>   -24.3856     0.0000     8.0000 </r>
       <r>   -24.2330     0.0000     8.0000 </r>
       <r>   -24.0804     0.0000     8.0000 </r>
       <r>   -23.9279     0.0000     8.0000 </r>
       <r>   -23.7753     0.0000     8.0000 </r>
       <r>   -23.6228     0.0000     8.0000 </r>
       <r>   -23.4702     0.0000     8.0000 </r>
       <r>   -23.3177     0.0000     8.0000 </r>
       <r>   -23.1651     0.0000     8.0000 </r>
       <r>   -23.0126     0.0000     8.0000 </r>
       <r>   -22.8600     0.0000     8.0000 </r>
       <r>   -22.7075     0.0000     8.0000 </r>
       <r>   -22.5549     0.0000     8.0000 </r>
       <r>   -22.4023     0.0000     8.0000 </r>
       <r>   -22.2498     0.0000     8.0000 </r>
       <r>   -22.0972     0.0000     8.0000 </r>
       <r>   -21.9447     0.0000     8.0000 </r>
       <r>   -21.7921     0.0000     8.0000 </r>
       <r>   -21.6396     0.0000     8.0000 </r>
       <r>   -21.4870     0.0000     8.0000 </r>
       <r>   -21.3345     0.0000     8.0000 </r>
       <r>   -21.1819     0.0000     8.0000 </r>
       <r>   -21.0294     0.0000     8.0000 </r>
       <r>   -20.8768     0.0000     8.0000 </r>
       <r>   -20.7242     0.0000     8.0000 </r>
       <r>   -20.5717     0.0000     8.0000 </r>
       <r>   -20.4191     0.0000     8.0000 </r>
       <r>   -20.2666     0.0000     8.0000 </r>
       <r>   -20.1140     0.0000     8.0000 </r>
       <r>   -19.9615     0.0000     8.0000 </r>
       <r>   -19.8089     0.0000     8.0000 </r>
       <r>   -19.6564     0.0000     8.0000 </r>
       <r>   -19.5038     0.0000     8.0000 </r>
       <r>   -19.3513     0.0000     8.0000 </r>
       <r>   -19.1987     0.0000     8.0000 </r>
       <r>   -19.0461     0.0000     8.0000 </r>
       <r>   -18.8936     7.3844     8.2593 </r>
       <r>   -18.7410    14.5683    10.2292 </r>
       <r>   -18.5885     8.0785    11.7448 </r>
       <r>   -18.4359     4.9739    12.8624 </r>
       <r>   -18.2834     2.9295    13.5244 </r>
       <r>   -18.1308    14.7946    15.3962 </r>
       <r>   -17.9783    16.9024    17.6152 </r>
       <r>   -17.8257    56.5119    22.3682 </r>
       <r>   -17.6732    29.2373    27.0240 </r>
       <r>   -17.5206     5.4015    28.5045 </r>
       <r>   -17.3680    11.8316    29.9493 </r>
       <r>   -17.2155    14.9734    33.4331 </r>
       <r>   -17.0629     0.0612    36.0007 </r>
       <r>   -16.9104     1.1485    36.0922 </r>
       <r>   -16.7578     2.4003    36.3606 </r>
       <r>   -16.6053     5.6104    36.9049 </r>
       <r>   -16.4527     3.4626    37.6745 </r>
       <r>   -16.3002    34.7607    40.4374 </r>
       <r>   -16.1476    14.7752    44.9917 </r>
       <r>   -15.9951    24.7332    50.2571 </r>
       <r>   -15.8425    20.0734    54.3017 </r>
       <r>   -15.6899     0.0000    56.0000 </r>
       <r>   -15.5374     0.0000    56.0000 </r>
       <r>   -15.3848     0.0000    56.0000 </r>
       <r>   -15.2323     0.0000    56.0000 </r>
       <r>   -15.0797     0.0000    56.0000 </r>
       <r>   -14.9272     0.0000    56.0000 </r>
       <r>   -14.7746     0.0000    56.0000 </r>
       <r>   -14.6221     0.0000    56.0000 </r>
       <r>   -14.4695     0.0000    56.0000 </r>
       <r>   -14.3170     0.0000    56.0000 </r>
       <r>   -14.1644     0.0000    56.0000 </r>
       <r>   -14.0118     0.0000    56.0000 </r>
       <r>   -13.8593     0.0000    56.0000 </r>
       <r>   -13.7067     0.0000    56.0000 </r>
       <r>   -13.5542     0.0000    56.0000 </r>
       <r>   -13.4016     0.0000    56.0000 </r>
       <r>   -13.2491     0.0000    56.0000 </r>
       <r>   -13.0965     0.0000    56.0000 </r>
       <r>   -12.9440     0.0000    56.0000 </r>
       <r>   -12.7914     0.0000    56.0000 </r>
       <r>   -12.6389     0.0000    56.0000 </r>
       <r>   -12.4863     0.0000    56.0000 </r>
       <r>   -12.3337     0.0000    56.0000 </r>
       <r>   -12.1812     0.0000    56.0000 </r>
       <r>   -12.0286     0.0000    56.0000 </r>
       <r>   -11.8761     0.0000    56.0000 </r>
       <r>   -11.7235     0.0000    56.0000 </r>
       <r>   -11.5710     0.0000    56.0000 </r>
       <r>   -11.4184     0.0000    56.0000 </r>
       <r>   -11.2659     0.0000    56.0000 </r>
       <r>   -11.1133     0.0000    56.0000 </r>
       <r>   -10.9608     0.0000    56.0000 </r>
       <r>   -10.8082     0.0000    56.0000 </r>
       <r>   -10.6557     0.0000    56.0000 </r>
       <r>   -10.5031     0.0000    56.0000 </r>
       <r>   -10.3505     0.0000    56.0000 </r>
       <r>   -10.1980     0.0000    56.0000 </r>
       <r>   -10.0454     0.0000    56.0000 </r>
       <r>    -9.8929     0.0000    56.0000 </r>
       <r>    -9.7403     0.0000    56.0000 </r>
       <r>    -9.5878     0.0000    56.0000 </r>
       <r>    -9.4352     0.0000    56.0000 </r>
       <r>    -9.2827     0.0000    56.0000 </r>
       <r>    -9.1301     0.0000    56.0000 </r>
       <r>    -8.9776     0.0000    56.0000 </r>
       <r>    -8.8250     0.0000    56.0000 </r>
       <r>    -8.6724     0.0000    56.0000 </r>
       <r>    -8.5199     0.0000    56.0000 </r>
       <r>    -8.3673     0.0000    56.0000 </r>
       <r>    -8.2148     0.0000    56.0000 </r>
       <r>    -8.0622     0.0000    56.0000 </r>
       <r>    -7.9097     0.0000    56.0000 </r>
       <r>    -7.7571     0.0000    56.0000 </r>
       <r>    -7.6046     0.0000    56.0000 </r>
       <r>    -7.4520     0.0000    56.0000 </r>
       <r>    -7.2995     0.0000    56.0000 </r>
       <r>    -7.1469     0.0000    56.0000 </r>
       <r>    -6.9943     0.0000    56.0000 </r>
       <r>    -6.8418     0.0000    56.0000 </r>
       <r>    -6.6892     0.0000    56.0000 </r>
       <r>    -6.5367     0.0000    56.0000 </r>
       <r>    -6.3841     0.0000    56.0000 </r>
       <r>    -6.2316     0.0000    56.0000 </r>
       <r>    -6.0790     0.0000    56.0000 </r>
       <r>    -5.9265     0.0000    56.0000 </r>
       <r>    -5.7739    16.9474    56.4602 </r>
       <r>    -5.6214    17.1261    58.9605 </r>
       <r>    -5.4688    10.3501    61.1273 </r>
       <r>    -5.3162    16.2792    63.6411 </r>
       <r>    -5.1637    13.9251    65.8812 </r>
       <r>    -5.0111    15.5503    68.4923 </r>
       <r>    -4.8586    15.7592    71.2624 </r>
       <r>    -4.7060    18.3925    74.2412 </r>
       <r>    -4.5535    20.0372    77.1756 </r>
       <r>    -4.4009    31.6311    81.0561 </r>
       <r>    -4.2484    19.2849    85.1723 </r>
       <r>    -4.0958    12.3572    87.3898 </r>
       <r>    -3.9433    12.4340    89.4533 </r>
       <r>    -3.7907    13.5054    91.6384 </r>
       <r>    -3.6381    14.3798    93.6724 </r>
       <r>    -3.4856    11.4120    95.6494 </r>
       <r>    -3.3330    10.7189    97.3729 </r>
       <r>    -3.1805    10.1169    98.7996 </r>
       <r>    -3.0279    17.0032   100.5819 </r>
       <r>    -2.8754    10.2367   103.0136 </r>
       <r>    -2.7228    24.6616   105.5425 </r>
       <r>    -2.5703    18.7999   108.7523 </r>
       <r>    -2.4177    23.1530   112.2310 </r>
       <r>    -2.2652    15.9336   115.9244 </r>
       <r>    -2.1126    19.1830   119.1406 </r>
       <r>    -1.9600    16.0277   121.8415 </r>
       <r>    -1.8075    10.2880   124.2581 </r>
       <r>    -1.6549     8.6462   125.7531 </r>
       <r>    -1.5024     2.2963   127.1171 </r>
       <r>    -1.3498     1.2532   127.3878 </r>
       <r>    -1.1973     0.9815   127.5520 </r>
       <r>    -1.0447     1.0521   127.7140 </r>
       <r>    -0.8922     0.7837   127.8540 </r>
       <r>    -0.7396     0.5153   127.9531 </r>
       <r>    -0.5871     0.0000   128.0000 </r>
       <r>    -0.4345     0.0000   128.0000 </r>
       <r>    -0.2819     0.0000   128.0000 </r>
       <r>    -0.1294     0.0000   128.0000 </r>
       <r>     0.0232     0.0000   128.0000 </r>
       <r>     0.1757     0.0000   128.0000 </r>
       <r>     0.3283     0.9828   128.0753 </r>
       <r>     0.4808     3.9345   128.5208 </r>
       <r>     0.6334     5.0998   129.1768 </r>
       <r>     0.7859     5.5580   130.0539 </r>
       <r>     0.9385     8.2343   131.1003 </r>
       <r>     1.0910     7.4543   132.3786 </r>
       <r>     1.2436     7.4489   133.4762 </r>
       <r>     1.3962    10.4842   134.8351 </r>
       <r>     1.5487    11.9640   136.6772 </r>
       <r>     1.7013    12.7743   138.5832 </r>
       <r>     1.8538    15.9521   140.6466 </r>
       <r>     2.0064    17.5695   144.0322 </r>
       <r>     2.1589    12.5111   146.3851 </r>
       <r>     2.3115     8.1672   148.1054 </r>
       <r>     2.4640     0.7473   148.8872 </r>
       <r>     2.6166     0.7319   149.0059 </r>
       <r>     2.7691     0.7121   149.1161 </r>
       <r>     2.9217     0.6923   149.2232 </r>
       <r>     3.0743     0.6725   149.3273 </r>
       <r>     3.2268     0.6527   149.4284 </r>
       <r>     3.3794     0.6329   149.5264 </r>
       <r>     3.5319     0.6159   149.6215 </r>
       <r>     3.6845     0.6057   149.7147 </r>
       <r>     3.8370     0.5955   149.8063 </r>
       <r>     3.9896     0.5853   149.8964 </r>
       <r>     4.1421     0.6437   149.9862 </r>
       <r>     4.2947     0.9211   150.1055 </r>
       <r>     4.4472     1.6469   150.3060 </r>
       <r>     4.5998     0.9465   150.5092 </r>
       <r>     4.7524     0.8728   150.6443 </r>
       <r>     4.9049     0.8571   150.7759 </r>
       <r>     5.0575     0.8968   150.9096 </r>
       <r>     5.2100     0.9365   151.0495 </r>
       <r>     5.3626     0.9761   151.1954 </r>
       <r>     5.5151     0.7625   151.3245 </r>
       <r>     5.6677     0.7320   151.4385 </r>
       <r>     5.8202     0.6559   151.5867 </r>
       <r>     5.9728     0.5834   151.7221 </r>
       <r>     6.1253     1.1908   151.9384 </r>
       <r>     6.2779     0.0000   152.0000 </r>
       <r>     6.4305     0.0000   152.0000 </r>
       <r>     6.5830     0.0000   152.0000 </r>
       <r>     6.7356     0.0000   152.0000 </r>
       <r>     6.8881     0.0000   152.0000 </r>
       <r>     7.0407     0.0000   152.0000 </r>
       <r>     7.1932     0.0000   152.0000 </r>
       <r>     7.3458     0.0000   152.0000 </r>
       <r>     7.4983     0.0000   152.0000 </r>
       <r>     7.6509     0.0000   152.0000 </r>
       <r>     7.8034     0.0000   152.0000 </r>
       <r>     7.9560     0.0000   152.0000 </r>
       <r>     8.1085     0.0000   152.0000 </r>
       <r>     8.2611     0.0000   152.0000 </r>
      </set>
     </set>
    </array>
   </total>
  </dos>
 </calculation>
 <structure name="finalpos" >
  <crystal>
   <varray name="basis" >
    <v>       3.94684634       0.00000000       0.00000000 </v>
    <v>       0.00000000       3.94684634       0.00000000 </v>
    <v>       0.00000000       0.00000000      37.81396220 </v>
   </varray>
   <i name="volume">    589.05062792 </i>
   <varray name="rec_basis" >
    <v>       0.25336684       0.00000000       0.00000000 </v>
    <v>       0.00000000       0.25336684       0.00000000 </v>
    <v>       0.00000000       0.00000000       0.02644526 </v>
   </varray>
  </crystal>
  <varray name="positions" >
   <v>       0.50000000       0.50000000       0.31734310 </v>
   <v>       0.50000000       0.00000000       0.36953079 </v>
   <v>       0.00000000       0.50000000       0.36953079 </v>
   <v>       0.50000000       0.50000000       0.42171847 </v>
   <v>       0.50000000       0.00000000       0.47390616 </v>
   <v>       0.00000000       0.50000000       0.47390616 </v>
   <v>       0.50000000       0.50000000       0.52609384 </v>
   <v>       0.50000000       0.00000000       0.57828153 </v>
   <v>       0.00000000       0.50000000       0.57828153 </v>
   <v>       0.50000000       0.50000000       0.63046921 </v>
   <v>       0.50000000       0.00000000       0.68265690 </v>
   <v>       0.00000000       0.50000000       0.68265690 </v>
   <v>       0.00000000       0.00000000       0.31734310 </v>
   <v>       0.00000000       0.00000000       0.42171847 </v>
   <v>       0.00000000       0.00000000       0.52609384 </v>
   <v>       0.00000000       0.00000000       0.63046921 </v>
   <v>       0.50000000       0.50000000       0.36953079 </v>
   <v>       0.50000000       0.50000000       0.47390616 </v>
   <v>       0.50000000       0.50000000       0.57828153 </v>
   <v>       0.50000000       0.50000000       0.68265690 </v>
  </varray>
 </structure>
</modeling>
