unknown system                          
           1
     3.946846    0.000000    0.000000
     0.000000    3.946846    0.000000
     0.000000    0.000000   37.813962
   O    Sr   Ti
  12   4   4
Direct configuration=     1
   0.50000000  0.50000000  0.31734310
   0.50000000  0.00000000  0.36953079
   0.00000000  0.50000000  0.36953079
   0.50000000  0.50000000  0.42171847
   0.50000000  0.00000000  0.47390616
   0.00000000  0.50000000  0.47390616
   0.50000000  0.50000000  0.52609384
   0.50000000  0.00000000  0.57828153
   0.00000000  0.50000000  0.57828153
   0.50000000  0.50000000  0.63046921
   0.50000000  0.00000000  0.68265690
   0.00000000  0.50000000  0.68265690
   0.00000000  0.00000000  0.31734310
   0.00000000  0.00000000  0.42171847
   0.00000000  0.00000000  0.52609384
   0.00000000  0.00000000  0.63046921
   0.50000000  0.50000000  0.36953079
   0.50000000  0.50000000  0.47390616
   0.50000000  0.50000000  0.57828153
   0.50000000  0.50000000  0.68265690
