  20  20   0   0
  0.1957362E+02  0.3905268E-09  0.3905268E-09  0.2566844E-08  0.5000000E-15
  1.000000000000000E-004
  CAR 
 unknown system                          
      9.90900355    -35.86223181  301      0.64032839      1.00000000
    -35.862  0.0000E+00  0.0000E+00
    -35.710  0.0000E+00  0.0000E+00
    -35.557  0.0000E+00  0.0000E+00
    -35.405  0.0000E+00  0.0000E+00
    -35.252  0.0000E+00  0.0000E+00
    -35.099  0.0000E+00  0.0000E+00
    -34.947  0.0000E+00  0.0000E+00
    -34.794  0.0000E+00  0.0000E+00
    -34.642  0.0000E+00  0.0000E+00
    -34.489  0.0000E+00  0.0000E+00
    -34.337  0.0000E+00  0.0000E+00
    -34.184  0.0000E+00  0.0000E+00
    -34.031  0.0000E+00  0.0000E+00
    -33.879  0.0000E+00  0.0000E+00
    -33.726  0.0000E+00  0.2000E+01
    -33.574  0.0000E+00  0.2000E+01
    -33.421  0.0000E+00  0.2000E+01
    -33.269  0.0000E+00  0.2000E+01
    -33.116  0.0000E+00  0.2000E+01
    -32.963  0.0000E+00  0.2000E+01
    -32.811  0.0000E+00  0.2000E+01
    -32.658  0.3635E+02  0.6081E+01
    -32.506  0.0000E+00  0.8000E+01
    -32.353  0.0000E+00  0.8000E+01
    -32.201  0.0000E+00  0.8000E+01
    -32.048  0.0000E+00  0.8000E+01
    -31.895  0.0000E+00  0.8000E+01
    -31.743  0.0000E+00  0.8000E+01
    -31.590  0.0000E+00  0.8000E+01
    -31.438  0.0000E+00  0.8000E+01
    -31.285  0.0000E+00  0.8000E+01
    -31.133  0.0000E+00  0.8000E+01
    -30.980  0.0000E+00  0.8000E+01
    -30.827  0.0000E+00  0.8000E+01
    -30.675  0.0000E+00  0.8000E+01
    -30.522  0.0000E+00  0.8000E+01
    -30.370  0.0000E+00  0.8000E+01
    -30.217  0.0000E+00  0.8000E+01
    -30.065  0.0000E+00  0.8000E+01
    -29.912  0.0000E+00  0.8000E+01
    -29.759  0.0000E+00  0.8000E+01
    -29.607  0.0000E+00  0.8000E+01
    -29.454  0.0000E+00  0.8000E+01
    -29.302  0.0000E+00  0.8000E+01
    -29.149  0.0000E+00  0.8000E+01
    -28.997  0.0000E+00  0.8000E+01
    -28.844  0.0000E+00  0.8000E+01
    -28.691  0.0000E+00  0.8000E+01
    -28.539  0.0000E+00  0.8000E+01
    -28.386  0.0000E+00  0.8000E+01
    -28.234  0.0000E+00  0.8000E+01
    -28.081  0.0000E+00  0.8000E+01
    -27.929  0.0000E+00  0.8000E+01
    -27.776  0.0000E+00  0.8000E+01
    -27.623  0.0000E+00  0.8000E+01
    -27.471  0.0000E+00  0.8000E+01
    -27.318  0.0000E+00  0.8000E+01
    -27.166  0.0000E+00  0.8000E+01
    -27.013  0.0000E+00  0.8000E+01
    -26.861  0.0000E+00  0.8000E+01
    -26.708  0.0000E+00  0.8000E+01
    -26.555  0.0000E+00  0.8000E+01
    -26.403  0.0000E+00  0.8000E+01
    -26.250  0.0000E+00  0.8000E+01
    -26.098  0.0000E+00  0.8000E+01
    -25.945  0.0000E+00  0.8000E+01
    -25.793  0.0000E+00  0.8000E+01
    -25.640  0.0000E+00  0.8000E+01
    -25.487  0.0000E+00  0.8000E+01
    -25.335  0.0000E+00  0.8000E+01
    -25.182  0.0000E+00  0.8000E+01
    -25.030  0.0000E+00  0.8000E+01
    -24.877  0.0000E+00  0.8000E+01
    -24.725  0.0000E+00  0.8000E+01
    -24.572  0.0000E+00  0.8000E+01
    -24.419  0.0000E+00  0.8000E+01
    -24.267  0.0000E+00  0.8000E+01
    -24.114  0.0000E+00  0.8000E+01
    -23.962  0.0000E+00  0.8000E+01
    -23.809  0.0000E+00  0.8000E+01
    -23.657  0.0000E+00  0.8000E+01
    -23.504  0.0000E+00  0.8000E+01
    -23.351  0.0000E+00  0.8000E+01
    -23.199  0.0000E+00  0.8000E+01
    -23.046  0.0000E+00  0.8000E+01
    -22.894  0.0000E+00  0.8000E+01
    -22.741  0.0000E+00  0.8000E+01
    -22.589  0.0000E+00  0.8000E+01
    -22.436  0.0000E+00  0.8000E+01
    -22.283  0.0000E+00  0.8000E+01
    -22.131  0.0000E+00  0.8000E+01
    -21.978  0.0000E+00  0.8000E+01
    -21.826  0.0000E+00  0.8000E+01
    -21.673  0.0000E+00  0.8000E+01
    -21.521  0.0000E+00  0.8000E+01
    -21.368  0.0000E+00  0.8000E+01
    -21.215  0.0000E+00  0.8000E+01
    -21.063  0.0000E+00  0.8000E+01
    -20.910  0.0000E+00  0.8000E+01
    -20.758  0.0000E+00  0.8000E+01
    -20.605  0.0000E+00  0.8000E+01
    -20.453  0.0000E+00  0.8000E+01
    -20.300  0.0000E+00  0.8000E+01
    -20.147  0.0000E+00  0.8000E+01
    -19.995  0.0000E+00  0.8000E+01
    -19.842  0.0000E+00  0.8000E+01
    -19.690  0.0000E+00  0.8000E+01
    -19.537  0.0000E+00  0.8000E+01
    -19.385  0.0000E+00  0.8000E+01
    -19.232  0.0000E+00  0.8000E+01
    -19.079  0.0000E+00  0.8000E+01
    -18.927  0.0000E+00  0.8000E+01
    -18.774  0.0000E+00  0.8000E+01
    -18.622  0.0000E+00  0.8000E+01
    -18.469  0.0000E+00  0.8000E+01
    -18.317  0.0000E+00  0.8000E+01
    -18.164  0.0000E+00  0.8000E+01
    -18.011  0.0000E+00  0.8000E+01
    -17.859  0.0000E+00  0.8000E+01
    -17.706  0.2614E+00  0.8001E+01
    -17.554  0.7226E+01  0.9079E+01
    -17.401  0.9135E+01  0.1083E+02
    -17.249  0.7214E+01  0.1196E+02
    -17.096  0.4651E+01  0.1295E+02
    -16.943  0.6740E+01  0.1436E+02
    -16.791  0.4767E+01  0.1533E+02
    -16.638  0.2857E+02  0.1719E+02
    -16.486  0.5014E+02  0.2247E+02
    -16.333  0.3501E+01  0.2651E+02
    -16.181  0.1408E+02  0.2829E+02
    -16.028  0.6873E+01  0.2951E+02
    -15.875  0.9781E+01  0.3205E+02
    -15.723  0.1747E+02  0.3341E+02
    -15.570  0.5217E-01  0.3600E+02
    -15.418  0.7660E+00  0.3606E+02
    -15.265  0.1523E+01  0.3624E+02
    -15.113  0.2632E+01  0.3655E+02
    -14.960  0.8305E+01  0.3735E+02
    -14.807  0.2417E+02  0.4062E+02
    -14.655  0.4290E+02  0.4604E+02
    -14.502  0.3361E+02  0.5053E+02
    -14.350  0.1861E+02  0.5520E+02
    -14.197  0.0000E+00  0.5600E+02
    -14.045  0.0000E+00  0.5600E+02
    -13.892  0.0000E+00  0.5600E+02
    -13.739  0.0000E+00  0.5600E+02
    -13.587  0.0000E+00  0.5600E+02
    -13.434  0.0000E+00  0.5600E+02
    -13.282  0.0000E+00  0.5600E+02
    -13.129  0.0000E+00  0.5600E+02
    -12.977  0.0000E+00  0.5600E+02
    -12.824  0.0000E+00  0.5600E+02
    -12.671  0.0000E+00  0.5600E+02
    -12.519  0.0000E+00  0.5600E+02
    -12.366  0.0000E+00  0.5600E+02
    -12.214  0.0000E+00  0.5600E+02
    -12.061  0.0000E+00  0.5600E+02
    -11.909  0.0000E+00  0.5600E+02
    -11.756  0.0000E+00  0.5600E+02
    -11.603  0.0000E+00  0.5600E+02
    -11.451  0.0000E+00  0.5600E+02
    -11.298  0.0000E+00  0.5600E+02
    -11.146  0.0000E+00  0.5600E+02
    -10.993  0.0000E+00  0.5600E+02
    -10.841  0.0000E+00  0.5600E+02
    -10.688  0.0000E+00  0.5600E+02
    -10.535  0.0000E+00  0.5600E+02
    -10.383  0.0000E+00  0.5600E+02
    -10.230  0.0000E+00  0.5600E+02
    -10.078  0.0000E+00  0.5600E+02
     -9.925  0.0000E+00  0.5600E+02
     -9.773  0.0000E+00  0.5600E+02
     -9.620  0.0000E+00  0.5600E+02
     -9.467  0.0000E+00  0.5600E+02
     -9.315  0.0000E+00  0.5600E+02
     -9.162  0.0000E+00  0.5600E+02
     -9.010  0.0000E+00  0.5600E+02
     -8.857  0.0000E+00  0.5600E+02
     -8.705  0.0000E+00  0.5600E+02
     -8.552  0.0000E+00  0.5600E+02
     -8.399  0.0000E+00  0.5600E+02
     -8.247  0.0000E+00  0.5600E+02
     -8.094  0.0000E+00  0.5600E+02
     -7.942  0.0000E+00  0.5600E+02
     -7.789  0.0000E+00  0.5600E+02
     -7.637  0.0000E+00  0.5600E+02
     -7.484  0.0000E+00  0.5600E+02
     -7.331  0.0000E+00  0.5600E+02
     -7.179  0.0000E+00  0.5600E+02
     -7.026  0.0000E+00  0.5600E+02
     -6.874  0.0000E+00  0.5600E+02
     -6.721  0.0000E+00  0.5600E+02
     -6.569  0.0000E+00  0.5600E+02
     -6.416  0.0000E+00  0.5600E+02
     -6.263  0.0000E+00  0.5600E+02
     -6.111  0.0000E+00  0.5600E+02
     -5.958  0.0000E+00  0.5600E+02
     -5.806  0.0000E+00  0.5600E+02
     -5.653  0.0000E+00  0.5600E+02
     -5.501  0.0000E+00  0.5600E+02
     -5.348  0.0000E+00  0.5600E+02
     -5.196  0.0000E+00  0.5600E+02
     -5.043  0.0000E+00  0.5600E+02
     -4.890  0.0000E+00  0.5600E+02
     -4.738  0.0000E+00  0.5600E+02
     -4.585  0.1384E+01  0.5609E+02
     -4.433  0.1157E+02  0.5732E+02
     -4.280  0.2106E+02  0.5989E+02
     -4.128  0.1203E+02  0.6222E+02
     -3.975  0.2494E+02  0.6455E+02
     -3.822  0.1511E+02  0.6707E+02
     -3.670  0.1475E+02  0.6943E+02
     -3.517  0.2810E+02  0.7193E+02
     -3.365  0.1769E+02  0.7493E+02
     -3.212  0.1886E+02  0.7774E+02
     -3.060  0.2873E+02  0.8160E+02
     -2.907  0.2175E+02  0.8545E+02
     -2.754  0.1465E+02  0.8786E+02
     -2.602  0.1231E+02  0.9015E+02
     -2.449  0.1106E+02  0.9199E+02
     -2.297  0.1179E+02  0.9386E+02
     -2.144  0.9405E+01  0.9572E+02
     -1.992  0.1217E+02  0.9727E+02
     -1.839  0.1072E+02  0.9890E+02
     -1.686  0.1033E+02  0.1004E+03
     -1.534  0.1248E+02  0.1027E+03
     -1.381  0.2196E+02  0.1055E+03
     -1.229  0.1687E+02  0.1089E+03
     -1.076  0.1869E+02  0.1114E+03
     -0.924  0.2953E+02  0.1151E+03
     -0.771  0.1763E+02  0.1180E+03
     -0.618  0.1512E+02  0.1212E+03
     -0.466  0.1111E+02  0.1238E+03
     -0.313  0.1028E+02  0.1255E+03
     -0.161  0.5528E+01  0.1270E+03
     -0.008  0.1102E+01  0.1275E+03
      0.144  0.8886E+00  0.1276E+03
      0.297  0.8048E+00  0.1278E+03
      0.450  0.8040E+00  0.1279E+03
      0.602  0.0000E+00  0.1280E+03
      0.755  0.0000E+00  0.1280E+03
      0.907  0.0000E+00  0.1280E+03
      1.060  0.0000E+00  0.1280E+03
      1.212  0.0000E+00  0.1280E+03
      1.365  0.0000E+00  0.1280E+03
      1.518  0.0000E+00  0.1280E+03
      1.670  0.3945E+00  0.1280E+03
      1.823  0.3818E+01  0.1283E+03
      1.975  0.4217E+01  0.1290E+03
      2.128  0.3265E+01  0.1295E+03
      2.280  0.3966E+01  0.1300E+03
      2.433  0.8967E+01  0.1312E+03
      2.586  0.6684E+01  0.1323E+03
      2.738  0.7071E+01  0.1334E+03
      2.891  0.7506E+01  0.1345E+03
      3.043  0.1055E+02  0.1361E+03
      3.196  0.1101E+02  0.1377E+03
      3.348  0.1454E+02  0.1396E+03
      3.501  0.1540E+02  0.1424E+03
      3.654  0.1914E+02  0.1450E+03
      3.806  0.1182E+02  0.1472E+03
      3.959  0.4250E+01  0.1483E+03
      4.111  0.1194E+01  0.1488E+03
      4.264  0.5041E+00  0.1489E+03
      4.416  0.5119E+00  0.1490E+03
      4.569  0.5197E+00  0.1490E+03
      4.722  0.5276E+00  0.1491E+03
      4.874  0.5354E+00  0.1492E+03
      5.027  0.5433E+00  0.1493E+03
      5.179  0.5511E+00  0.1494E+03
      5.332  0.5590E+00  0.1494E+03
      5.484  0.8647E+00  0.1495E+03
      5.637  0.1080E+01  0.1497E+03
      5.790  0.1248E+01  0.1499E+03
      5.942  0.1209E+01  0.1501E+03
      6.095  0.1237E+01  0.1502E+03
      6.247  0.1312E+01  0.1504E+03
      6.400  0.1057E+01  0.1506E+03
      6.552  0.7078E+00  0.1508E+03
      6.705  0.4956E+00  0.1508E+03
      6.858  0.4489E+00  0.1509E+03
      7.010  0.4022E+00  0.1510E+03
      7.163  0.3554E+00  0.1510E+03
      7.315  0.8139E+00  0.1512E+03
      7.468  0.1751E+01  0.1514E+03
      7.620  0.1124E+01  0.1516E+03
      7.773  0.2711E+01  0.1518E+03
      7.926  0.0000E+00  0.1520E+03
      8.078  0.0000E+00  0.1520E+03
      8.231  0.0000E+00  0.1520E+03
      8.383  0.0000E+00  0.1520E+03
      8.536  0.0000E+00  0.1520E+03
      8.688  0.0000E+00  0.1520E+03
      8.841  0.0000E+00  0.1520E+03
      8.994  0.0000E+00  0.1520E+03
      9.146  0.0000E+00  0.1520E+03
      9.299  0.0000E+00  0.1520E+03
      9.451  0.0000E+00  0.1520E+03
      9.604  0.0000E+00  0.1520E+03
      9.756  0.0000E+00  0.1520E+03
      9.909  0.0000E+00  0.1520E+03
