       N       E                     dE             d eps       ncg     rms          rms(c)
DAV:   1     0.162425153657E+04    0.16243E+04   -0.56117E+04  2304   0.152E+03
DAV:   2     0.188148543282E+03   -0.14361E+04   -0.13755E+04  2664   0.398E+02
DAV:   3    -0.173422785583E+03   -0.36157E+03   -0.35060E+03  3044   0.193E+02
DAV:   4    -0.200161353834E+03   -0.26739E+02   -0.26638E+02  2928   0.601E+01
DAV:   5    -0.201751998451E+03   -0.15906E+01   -0.15899E+01  3888   0.136E+01    0.371E+01
RMM:   6    -0.161199531326E+03    0.40552E+02   -0.28442E+02  2495   0.506E+01    0.136E+01
RMM:   7    -0.157688054089E+03    0.35115E+01   -0.12715E+01  2760   0.135E+01    0.712E+00
RMM:   8    -0.156965593570E+03    0.72246E+00   -0.30914E+00  3110   0.597E+00    0.322E+00
RMM:   9    -0.156754624577E+03    0.21097E+00   -0.13072E+00  3111   0.405E+00    0.987E-01
RMM:  10    -0.156713434443E+03    0.41190E-01   -0.24773E-01  3606   0.141E+00    0.610E-01
RMM:  11    -0.156692431846E+03    0.21003E-01   -0.15199E-01  3503   0.101E+00    0.389E-01
RMM:  12    -0.156680367533E+03    0.12064E-01   -0.50874E-02  3660   0.560E-01    0.317E-01
RMM:  13    -0.156674242092E+03    0.61254E-02   -0.21759E-02  3800   0.399E-01    0.167E-01
RMM:  14    -0.156669853216E+03    0.43889E-02   -0.21576E-02  3405   0.386E-01    0.156E-01
RMM:  15    -0.156669117053E+03    0.73616E-03   -0.70183E-03  3755   0.210E-01    0.607E-02
RMM:  16    -0.156670355499E+03   -0.12384E-02   -0.48316E-03  3657   0.150E-01    0.857E-02
RMM:  17    -0.156670811444E+03   -0.45595E-03   -0.23181E-03  3395   0.129E-01    0.328E-02
RMM:  18    -0.156671435956E+03   -0.62451E-03   -0.68264E-04  3275   0.659E-02    0.217E-02
RMM:  19    -0.156672857683E+03   -0.14217E-02   -0.49529E-04  3091   0.453E-02    0.102E-02
RMM:  20    -0.156673527340E+03   -0.66966E-03   -0.25275E-04  2737   0.299E-02    0.664E-03
RMM:  21    -0.156673805423E+03   -0.27808E-03   -0.13390E-04  2547   0.229E-02    0.434E-03
RMM:  22    -0.156673849767E+03   -0.44344E-04   -0.40800E-05  2064   0.149E-02    0.240E-03
RMM:  23    -0.156673864726E+03   -0.14959E-04   -0.17561E-05  1842   0.111E-02    0.131E-03
RMM:  24    -0.156673875210E+03   -0.10484E-04   -0.13683E-05  1791   0.101E-02    0.125E-03
RMM:  25    -0.156673878859E+03   -0.36484E-05   -0.76992E-06  1638   0.837E-03
   1 F= -.15667388E+03 E0= -.15667388E+03  d E =0.000000E+00
