 vasp.5.4.4.18Apr17-6-g9f103f2a35 (build Jun 30 2017 11:15:00) complex          
  
 executed on    STALLO_VASP_5.4.4 date 2019.11.06  14:33:24
 running on    4 total cores
 distrk:  each k-point on    4 cores,    1 groups
 distr:  one band on NCORES_PER_BAND=   2 cores,    2 groups


--------------------------------------------------------------------------------------------------------


 INCAR:
 POTCAR:   PAW_PBE O 08Apr2002                    
 POTCAR:   PAW_PBE Sr_sv 07Sep2000                
 POTCAR:   PAW_PBE Ti 08Apr2002                   
 POTCAR:   PAW_PBE O 08Apr2002                    
   VRHFIN =O: s2p4                                                              
   LEXCH  = PE                                                                  
   EATOM  =   432.3788 eV,   31.7789 Ry                                         
                                                                                
   TITEL  = PAW_PBE O 08Apr2002                                                 
   LULTRA =        F    use ultrasoft PP ?                                      
   IUNSCR =        0    unscreen: 0-lin 1-nonlin 2-no                           
   RPACOR =     .000    partial core radius                                     
   POMASS =   16.000; ZVAL   =    6.000    mass and valenz                      
   RCORE  =    1.520    outmost cutoff radius                                   
   RWIGS  =    1.550; RWIGS  =     .820    wigner-seitz radius (au A)           
   ENMAX  =  400.000; ENMIN  =  300.000 eV                                      
   ICORE  =        2    local potential                                         
   LCOR   =        T    correct aug charges                                     
   LPAW   =        T    paw PP                                                  
   EAUG   =  605.392                                                            
   DEXC   =     .000                                                            
   RMAX   =    2.264    core radius for proj-oper                               
   RAUG   =    1.300    factor for augmentation sphere                          
   RDEP   =    1.550    radius for radial grids                                 
   QCUT   =   -5.520; QGAM   =   11.041    optimization parameters              
                                                                                
   Description                                                                  
     l     E      TYP  RCUT    TYP  RCUT                                        
     0   .000     23  1.200                                                     
     0  -.700     23  1.200                                                     
     1   .000     23  1.520                                                     
     1   .600     23  1.520                                                     
     2   .000      7  1.500                                                     
  local pseudopotential read in
  atomic valenz-charges read in
  non local Contribution for L=           0  read in
    real space projection operators read in
  non local Contribution for L=           0  read in
    real space projection operators read in
  non local Contribution for L=           1  read in
    real space projection operators read in
  non local Contribution for L=           1  read in
    real space projection operators read in
    PAW grid and wavefunctions read in
 
   number of l-projection  operators is LMAX  =           4
   number of lm-projection operators is LMMAX =           8
 
 POTCAR:   PAW_PBE Sr_sv 07Sep2000                
   VRHFIN =Sr: 4s4p5s                                                           
   LEXCH  = PE                                                                  
   EATOM  =   842.4562 eV,   61.9188 Ry                                         
                                                                                
   TITEL  = PAW_PBE Sr_sv 07Sep2000                                             
   LULTRA =        F    use ultrasoft PP ?                                      
   IUNSCR =        1    unscreen: 0-lin 1-nonlin 2-no                           
   RPACOR =    2.200    partial core radius                                     
   POMASS =   87.620; ZVAL   =   10.000    mass and valenz                      
   RCORE  =    2.500    outmost cutoff radius                                   
   RWIGS  =    4.040; RWIGS  =    2.138    wigner-seitz radius (au A)           
   ENMAX  =  229.282; ENMIN  =  171.961 eV                                      
   RCLOC  =    2.201    cutoff for local pot                                    
   LCOR   =        T    correct aug charges                                     
   LPAW   =        T    paw PP                                                  
   EAUG   =  366.804                                                            
   DEXC   =     .000                                                            
   RMAX   =    3.045    core radius for proj-oper                               
   RAUG   =    1.300    factor for augmentation sphere                          
   RDEP   =    2.562    radius for radial grids                                 
   QCUT   =   -4.105; QGAM   =    8.210    optimization parameters              
                                                                                
   Description                                                                  
     l     E      TYP  RCUT    TYP  RCUT                                        
     0   .000     23  2.480                                                     
     0   .000     23  2.480                                                     
     1   .000     23  2.500                                                     
     1   .000     23  2.500                                                     
     2   .000     23  2.500                                                     
     2   .000     23  2.500                                                     
  local pseudopotential read in
  partial core-charges read in
  atomic valenz-charges read in
  non local Contribution for L=           0  read in
    real space projection operators read in
  non local Contribution for L=           0  read in
    real space projection operators read in
  non local Contribution for L=           1  read in
    real space projection operators read in
  non local Contribution for L=           1  read in
    real space projection operators read in
  non local Contribution for L=           2  read in
    real space projection operators read in
  non local Contribution for L=           2  read in
    real space projection operators read in
    PAW grid and wavefunctions read in
 
   number of l-projection  operators is LMAX  =           6
   number of lm-projection operators is LMMAX =          18
 
 POTCAR:   PAW_PBE Ti 08Apr2002                   
   VRHFIN =Ti: d3 s1                                                            
   LEXCH  = PE                                                                  
   EATOM  =    94.7929 eV,    6.9671 Ry                                         
                                                                                
   TITEL  = PAW_PBE Ti 08Apr2002                                                
   LULTRA =        F    use ultrasoft PP ?                                      
   IUNSCR =        1    unscreen: 0-lin 1-nonlin 2-no                           
   RPACOR =    2.200    partial core radius                                     
   POMASS =   47.880; ZVAL   =    4.000    mass and valenz                      
   RCORE  =    2.800    outmost cutoff radius                                   
   RWIGS  =    2.500; RWIGS  =    1.323    wigner-seitz radius (au A)           
   ENMAX  =  178.330; ENMIN  =  133.747 eV                                      
   RCLOC  =    2.215    cutoff for local pot                                    
   LCOR   =        T    correct aug charges                                     
   LPAW   =        T    paw PP                                                  
   EAUG   =  328.883                                                            
   DEXC   =    -.043                                                            
   RMAX   =    3.453    core radius for proj-oper                               
   RAUG   =    1.300    factor for augmentation sphere                          
   RDEP   =    2.885    radius for radial grids                                 
   QCUT   =   -3.620; QGAM   =    7.241    optimization parameters              
                                                                                
   Description                                                                  
     l     E      TYP  RCUT    TYP  RCUT                                        
     2   .000     23  2.800                                                     
     2   .000     23  2.800                                                     
     0   .000     23  2.800                                                     
     0  1.500     23  2.800                                                     
     1  -.400     23  2.800                                                     
     3   .000      7   .000                                                     
  local pseudopotential read in
  partial core-charges read in
  atomic valenz-charges read in
  non local Contribution for L=           2  read in
    real space projection operators read in
  non local Contribution for L=           2  read in
    real space projection operators read in
  non local Contribution for L=           0  read in
    real space projection operators read in
  non local Contribution for L=           0  read in
    real space projection operators read in
  non local Contribution for L=           1  read in
    real space projection operators read in
    PAW grid and wavefunctions read in
 
   number of l-projection  operators is LMAX  =           5
   number of lm-projection operators is LMMAX =          15
 

 ----------------------------------------------------------------------------- 
|                                                                             |
|  ADVICE TO THIS USER RUNNING 'VASP/VAMP'   (HEAR YOUR MASTER'S VOICE ...):  |
|                                                                             |
|      You have a (more or less) 'large supercell' and for larger cells       |
|      it might be more efficient to use real space projection operators      |
|      So try LREAL= Auto  in the INCAR   file.                               |
|      Mind: If you want to do a very accurate calculations keep the          |
|      reciprocal projection scheme          (i.e. LREAL=.FALSE.)             |
|                                                                             |
 ----------------------------------------------------------------------------- 

 PAW_PBE O 08Apr2002                    :
 energy of atom  1       EATOM= -432.3788
 kinetic energy error for atom=    0.0224 (will be added to EATOM!!)
 PAW_PBE Sr_sv 07Sep2000                :
 energy of atom  2       EATOM= -842.4562
 kinetic energy error for atom=    0.0012 (will be added to EATOM!!)
 PAW_PBE Ti 08Apr2002                   :
 energy of atom  3       EATOM=  -94.7929
 kinetic energy error for atom=    0.0002 (will be added to EATOM!!)
 
 
 POSCAR:  O Sr Ti                                
  positions in direct lattice
  No initial velocities read in
 exchange correlation table for  LEXCH =        8
   RHO(1)=    0.500       N(1)  =     2000
   RHO(2)=  100.500       N(2)  =     4000
 


--------------------------------------------------------------------------------------------------------


 ion  position               nearest neighbor table
   1  0.500  0.500  0.234-  17 1.95  13 2.76  13 2.76  13 2.76  13 2.76
   2  0.500  0.000  0.310-  17 1.95  17 1.95  13 2.76  14 2.76  13 2.76  14 2.76
   3  0.000  0.500  0.310-  17 1.95  17 1.95  13 2.76  13 2.76  14 2.76  14 2.76
   4  0.500  0.500  0.386-  17 1.95  18 1.95  14 2.76  14 2.76  14 2.76  14 2.76
   5  0.500  0.000  0.462-  18 1.95  18 1.95  15 2.76  15 2.76  14 2.76  14 2.76
   6  0.000  0.500  0.462-  18 1.95  18 1.95  15 2.76  15 2.76  14 2.76  14 2.76
   7  0.500  0.500  0.538-  18 1.95  19 1.95  15 2.76  15 2.76  15 2.76  15 2.76
   8  0.500  0.000  0.614-  19 1.95  19 1.95  16 2.76  16 2.76  15 2.76  15 2.76
   9  0.000  0.500  0.614-  19 1.95  19 1.95  16 2.76  16 2.76  15 2.76  15 2.76
  10  0.500  0.500  0.690-  19 1.95  20 1.95  16 2.76  16 2.76  16 2.76  16 2.76
  11  0.500  0.000  0.766-  20 1.95  20 1.95  16 2.76  16 2.76
  12  0.000  0.500  0.766-  20 1.95  20 1.95  16 2.76  16 2.76
  13  0.000  0.000  0.234-   2 2.76   3 2.76   3 2.76   2 2.76   1 2.76   1 2.76   1 2.76   1 2.76
                            17 3.38  17 3.38  17 3.38  17 3.38  14 3.91
  14  0.000  0.000  0.386-   2 2.76   3 2.76   3 2.76   2 2.76   4 2.76   4 2.76   4 2.76   4 2.76
                             5 2.76   6 2.76   5 2.76   6 2.76  17 3.38  17 3.38  17 3.38  17 3.38
  15  0.000  0.000  0.538-   5 2.76   6 2.76   6 2.76   5 2.76   7 2.76   7 2.76   7 2.76   7 2.76
                             8 2.76   9 2.76   8 2.76   9 2.76  18 3.38  18 3.38  18 3.38  18 3.38
  16  0.000  0.000  0.690-   8 2.76   9 2.76  11 2.76  12 2.76   9 2.76  12 2.76   8 2.76  11 2.76
                            10 2.76  10 2.76  10 2.76  10 2.76  20 3.38  19 3.38  19 3.38  19 3.38
  17  0.500  0.500  0.310-   1 1.95   4 1.95   3 1.95   2 1.95   2 1.95   3 1.95  13 3.38  13 3.38
                            14 3.38  14 3.38  13 3.38  14 3.38  13 3.38  14 3.38
  18  0.500  0.500  0.462-   7 1.95   6 1.95   5 1.95   5 1.95   6 1.95   4 1.95  15 3.38  15 3.38
                            15 3.38  15 3.38  14 3.38  14 3.38  14 3.38  14 3.38
  19  0.500  0.500  0.614-  10 1.95   9 1.95   8 1.95   8 1.95   9 1.95   7 1.95  16 3.38  16 3.38
                            16 3.38  16 3.38  15 3.38  15 3.38  15 3.38  15 3.38
  20  0.500  0.500  0.766-  10 1.95  11 1.95  12 1.95  11 1.95  12 1.95  16 3.38  16 3.38  16 3.38
                            16 3.38
 
  LATTYP: Found a simple tetragonal cell.
 ALAT       =     3.9052680000
 C/A-ratio  =     6.5727724704
  
  Lattice vectors:
  
 A1 = (   3.9052680000,   0.0000000000,   0.0000000000)
 A2 = (   0.0000000000,   3.9052680000,   0.0000000000)
 A3 = (   0.0000000000,   0.0000000000,  25.6684380000)


Analysis of symmetry for initial positions (statically):
=====================================================================
 Subroutine PRICEL returns:
 Original cell was already a primitive cell.
 

 Routine SETGRP: Setting up the symmetry group for a 
 simple tetragonal supercell.


 Subroutine GETGRP returns: Found  8 space group operations
 (whereof  8 operations were pure point group operations)
 out of a pool of 16 trial point group operations.


The static configuration has the point symmetry C_4v.


Analysis of symmetry for dynamics (positions and initial velocities):
=====================================================================
 Subroutine PRICEL returns:
 Original cell was already a primitive cell.
 

 Routine SETGRP: Setting up the symmetry group for a 
 simple tetragonal supercell.


 Subroutine GETGRP returns: Found  8 space group operations
 (whereof  8 operations were pure point group operations)
 out of a pool of 16 trial point group operations.


The dynamic configuration has the point symmetry C_4v.


 Subroutine INISYM returns: Found  8 space group operations
 (whereof  8 operations are pure point group operations),
 and found     1 'primitive' translations

 
 
 KPOINTS: k-density: 5.0                          

Automatic generation of k-mesh.
Space group operators:
 irot       det(A)        alpha          n_x          n_y          n_z        tau_x        tau_y        tau_z
    1     1.000000     0.000000     1.000000     0.000000     0.000000     0.000000     0.000000     0.000000
    2     1.000000    90.000000     0.000000     0.000000    -1.000000     0.000000     0.000000     0.000000
    3     1.000000   180.000000     0.000000     0.000000     1.000000     0.000000     0.000000     0.000000
    4     1.000000    90.000000     0.000000     0.000000     1.000000     0.000000     0.000000     0.000000
    5    -1.000000   180.000000     0.000000     1.000000     0.000000     0.000000     0.000000     0.000000
    6    -1.000000   180.000000     0.707107     0.707107     0.000000     0.000000     0.000000     0.000000
    7    -1.000000   180.000000     1.000000     0.000000     0.000000     0.000000     0.000000     0.000000
    8    -1.000000   180.000000     0.707107    -0.707107     0.000000     0.000000     0.000000     0.000000
 
 Subroutine IBZKPT returns following result:
 ===========================================
 
 Found     15 irreducible k-points:
 
 Following reciprocal coordinates:
            Coordinates               Weight
  0.000000  0.000000  0.000000      1.000000
  0.111111  0.000000  0.000000      4.000000
  0.222222  0.000000  0.000000      4.000000
  0.333333  0.000000  0.000000      4.000000
  0.444444  0.000000  0.000000      4.000000
  0.111111  0.111111  0.000000      4.000000
  0.222222  0.111111  0.000000      8.000000
  0.333333  0.111111  0.000000      8.000000
  0.444444  0.111111  0.000000      8.000000
  0.222222  0.222222  0.000000      4.000000
  0.333333  0.222222  0.000000      8.000000
  0.444444  0.222222  0.000000      8.000000
  0.333333  0.333333  0.000000      4.000000
  0.444444  0.333333  0.000000      8.000000
  0.444444  0.444444  0.000000      4.000000
 
 Following cartesian coordinates:
            Coordinates               Weight
  0.000000  0.000000  0.000000      1.000000
  0.028452  0.000000  0.000000      4.000000
  0.056903  0.000000  0.000000      4.000000
  0.085355  0.000000  0.000000      4.000000
  0.113806  0.000000  0.000000      4.000000
  0.028452  0.028452  0.000000      4.000000
  0.056903  0.028452  0.000000      8.000000
  0.085355  0.028452  0.000000      8.000000
  0.113806  0.028452  0.000000      8.000000
  0.056903  0.056903  0.000000      4.000000
  0.085355  0.056903  0.000000      8.000000
  0.113806  0.056903  0.000000      8.000000
  0.085355  0.085355  0.000000      4.000000
  0.113806  0.085355  0.000000      8.000000
  0.113806  0.113806  0.000000      4.000000
 
 TETIRR: Found    111 inequivalent tetrahedra from      486


--------------------------------------------------------------------------------------------------------




 Dimension of arrays:
   k-points           NKPTS =     15   k-points in BZ     NKDIM =     15   number of bands    NBANDS=     76
   number of dos      NEDOS =    301   number of ions     NIONS =     20
   non local maximal  LDIM  =      6   non local SUM 2l+1 LMDIM =     18
   total plane-waves  NPLWV =  80640
   max r-space proj   IRMAX =      1   max aug-charges    IRDMAX=  14425
   dimension x,y,z NGX =    24 NGY =   24 NGZ =  140
   dimension x,y,z NGXF=    48 NGYF=   48 NGZF=  280
   support grid    NGXF=    48 NGYF=   48 NGZF=  280
   ions per type =              12   4   4
   NGX,Y,Z   is equivalent  to a cutoff of  10.22, 10.22,  9.07 a.u.
   NGXF,Y,Z  is equivalent  to a cutoff of  20.43, 20.43, 18.13 a.u.

 SYSTEM =  unknown system                          
 POSCAR =   O Sr Ti                                

 Startparameter for this run:
   NWRITE =      2    write-flag & timer
   PREC   = normal    normal or accurate (medium, high low for compatibility)
   ISTART =      0    job   : 0-new  1-cont  2-samecut
   ICHARG =      2    charge: 1-file 2-atom 10-const
   ISPIN  =      1    spin polarized calculation?
   LNONCOLLINEAR =      F non collinear calculations
   LSORBIT =      F    spin-orbit coupling
   INIWAV =      1    electr: 0-lowe 1-rand  2-diag
   LASPH  =      F    aspherical Exc in radial PAW
   METAGGA=      F    non-selfconsistent MetaGGA calc.

 Electronic Relaxation 1
   ENCUT  =  500.0 eV  36.75 Ry    6.06 a.u.   7.12  7.12 46.80*2*pi/ulx,y,z
   ENINI  =  500.0     initial cutoff
   ENAUG  =  605.4 eV  augmentation charge cutoff
   NELM   =     60;   NELMIN=  4; NELMDL= -5     # of ELM steps 
   EDIFF  = 0.1E-04   stopping-criterion for ELM
   LREAL  =      F    real-space projection
   NLSPLINE    = F    spline interpolate recip. space projectors
   LCOMPAT=      F    compatible to vasp.4.4
   GGA_COMPAT  = T    GGA compatible to vasp.4.4-vasp.4.6
   LMAXPAW     = -100 max onsite density
   LMAXMIX     =    2 max onsite mixed and CHGCAR
   VOSKOWN=      0    Vosko Wilk Nusair interpolation
   ROPT   =    0.00000   0.00000   0.00000
 Ionic relaxation
   EDIFFG = 0.1E-03   stopping-criterion for IOM
   NSW    =      0    number of steps for IOM
   NBLOCK =      1;   KBLOCK =      1    inner block; outer block 
   IBRION =     -1    ionic relax: 0-MD 1-quasi-New 2-CG
   NFREE  =      0    steps in history (QN), initial steepest desc. (CG)
   ISIF   =      2    stress and relaxation
   IWAVPR =     10    prediction:  0-non 1-charg 2-wave 3-comb
   ISYM   =      2    0-nonsym 1-usesym 2-fastsym
   LCORR  =      T    Harris-Foulkes like correction to forces

   POTIM  = 0.5000    time-step for ionic-motion
   TEIN   =    0.0    initial temperature
   TEBEG  =    0.0;   TEEND  =   0.0 temperature during run
   SMASS  =  -3.00    Nose mass-parameter (am)
   estimated Nose-frequenzy (Omega)   =  0.10E-29 period in steps =****** mass=  -0.349E-27a.u.
   SCALEE = 1.0000    scale energy and forces
   NPACO  =    256;   APACO  = 16.0  distance and # of slots for P.C.
   PSTRESS=    0.0 pullay stress

  Mass of Ions in am
   POMASS =  16.00 87.62 47.88
  Ionic Valenz
   ZVAL   =   6.00 10.00  4.00
  Atomic Wigner-Seitz radii
   RWIGS  =  -1.00 -1.00 -1.00
  virtual crystal weights 
   VCA    =   1.00  1.00  1.00
   NELECT =     128.0000    total number of electrons
   NUPDOWN=      -1.0000    fix difference up-down

 DOS related values:
   EMIN   =  10.00;   EMAX   =-10.00  energy-range for DOS
   EFERMI =   0.00
   ISMEAR =    -5;   SIGMA  =   0.20  broadening in eV -4-tet -1-fermi 0-gaus

 Electronic relaxation 2 (details)
   IALGO  =     68    algorithm
   LDIAG  =      T    sub-space diagonalisation (order eigenvalues)
   LSUBROT=      F    optimize rotation matrix (better conditioning)
   TURBO    =      0    0=normal 1=particle mesh
   IRESTART =      0    0=no restart 2=restart with 2 vectors
   NREBOOT  =      0    no. of reboots
   NMIN     =      0    reboot dimension
   EREF     =   0.00    reference energy to select bands
   IMIX   =      4    mixing-type and parameters
     AMIX     =   0.40;   BMIX     =  1.00
     AMIX_MAG =   1.60;   BMIX_MAG =  1.00
     AMIN     =   0.10
     WC   =   100.;   INIMIX=   1;  MIXPRE=   1;  MAXMIX= -45

 Intra band minimization:
   WEIMIN = 0.0000     energy-eigenvalue tresh-hold
   EBREAK =  0.33E-07  absolut break condition
   DEPER  =   0.30     relativ break condition  

   TIME   =   0.40     timestep for ELM

  volume/ion in A,a.u.               =      19.57       132.09
  Fermi-wavevector in a.u.,A,eV,Ry     =   1.127832  2.131294 17.306682  1.272005
  Thomas-Fermi vector in A             =   2.264520
 
 Write flags
   LWAVE        =      F    write WAVECAR
   LDOWNSAMPLE  =      F    k-point downsampling of WAVECAR
   LCHARG       =      T    write CHGCAR
   LVTOT        =      F    write LOCPOT, total local potential
   LVHAR        =      F    write LOCPOT, Hartree potential only
   LELF         =      F    write electronic localiz. function (ELF)
   LORBIT       =      0    0 simple, 1 ext, 2 COOP (PROOUT), +10 PAW based schemes


 Dipole corrections
   LMONO  =      F    monopole corrections only (constant potential shift)
   LDIPOL =      F    correct potential (dipole corrections)
   IDIPOL =      0    1-x, 2-y, 3-z, 4-all directions 
   EPSILON=  1.0000000 bulk dielectric constant

 Exchange correlation treatment:
   GGA     =    --    GGA type
   LEXCH   =     8    internal setting for exchange type
   VOSKOWN=      0    Vosko Wilk Nusair interpolation
   LHFCALC =     F    Hartree Fock is set to
   LHFONE  =     F    Hartree Fock one center treatment
   AEXX    =    0.0000 exact exchange contribution

 Linear response parameters
   LEPSILON=     F    determine dielectric tensor
   LRPA    =     F    only Hartree local field effects (RPA)
   LNABLA  =     F    use nabla operator in PAW spheres
   LVEL    =     F    velocity operator in full k-point grid
   LINTERFAST=   F  fast interpolation
   KINTER  =     0    interpolate to denser k-point grid
   CSHIFT  =0.1000    complex shift for real part using Kramers Kronig
   OMEGAMAX=  -1.0    maximum frequency
   DEG_THRESHOLD= 0.2000000E-02 threshold for treating states as degnerate
   RTIME   =   -0.100 relaxation time in fs
  (WPLASMAI=    0.000 imaginary part of plasma frequency in eV, 0.658/RTIME)
   DFIELD  = 0.0000000 0.0000000 0.0000000 field for delta impulse in time
 
 Orbital magnetization related:
   ORBITALMAG=     F  switch on orbital magnetization
   LCHIMAG   =     F  perturbation theory with respect to B field
   DQ        =  0.001000  dq finite difference perturbation B field
   LLRAUG    =     F  two centre corrections for induced B field



--------------------------------------------------------------------------------------------------------


 Static calculation
 charge density and potential will be updated during run
 non-spin polarized calculation
 RMM-DIIS sequential band-by-band and
  variant of blocked Davidson during initial phase
 perform sub-space diagonalisation
    before iterative eigenvector-optimisation
 modified Broyden-mixing scheme, WC =      100.0
 initial mixing is a Kerker type mixing with AMIX =  0.4000 and BMIX =      1.0000
 Hartree-type preconditioning will be used
 using additional bands           12
 reciprocal scheme for non local part
 use partial core corrections
 calculate Harris-corrections to forces 
   (improved forces if not selfconsistent)
 use gradient corrections 
 use of overlap-Matrix (Vanderbilt PP)
 Fermi weights with tetrahedron method with Bloechl corrections


--------------------------------------------------------------------------------------------------------


  energy-cutoff  :      500.00
  volume of cell :      391.47
      direct lattice vectors                 reciprocal lattice vectors
     3.905268000  0.000000000  0.000000000     0.256064373  0.000000000  0.000000000
     0.000000000  3.905268000  0.000000000     0.000000000  0.256064373  0.000000000
     0.000000000  0.000000000 25.668438000     0.000000000  0.000000000  0.038958350

  length of vectors
     3.905268000  3.905268000 25.668438000     0.256064373  0.256064373  0.038958350


 
 k-points in units of 2pi/SCALE and weight: k-density: 5.0                          
   0.00000000  0.00000000  0.00000000       0.012
   0.02845160  0.00000000  0.00000000       0.049
   0.05690319  0.00000000  0.00000000       0.049
   0.08535479  0.00000000  0.00000000       0.049
   0.11380639  0.00000000  0.00000000       0.049
   0.02845160  0.02845160  0.00000000       0.049
   0.05690319  0.02845160  0.00000000       0.099
   0.08535479  0.02845160  0.00000000       0.099
   0.11380639  0.02845160  0.00000000       0.099
   0.05690319  0.05690319  0.00000000       0.049
   0.08535479  0.05690319  0.00000000       0.099
   0.11380639  0.05690319  0.00000000       0.099
   0.08535479  0.08535479  0.00000000       0.049
   0.11380639  0.08535479  0.00000000       0.099
   0.11380639  0.11380639  0.00000000       0.049
 
 k-points in reciprocal lattice and weights: k-density: 5.0                          
   0.00000000  0.00000000  0.00000000       0.012
   0.11111111  0.00000000  0.00000000       0.049
   0.22222222  0.00000000  0.00000000       0.049
   0.33333333  0.00000000  0.00000000       0.049
   0.44444444  0.00000000  0.00000000       0.049
   0.11111111  0.11111111  0.00000000       0.049
   0.22222222  0.11111111  0.00000000       0.099
   0.33333333  0.11111111  0.00000000       0.099
   0.44444444  0.11111111  0.00000000       0.099
   0.22222222  0.22222222  0.00000000       0.049
   0.33333333  0.22222222  0.00000000       0.099
   0.44444444  0.22222222  0.00000000       0.099
   0.33333333  0.33333333  0.00000000       0.049
   0.44444444  0.33333333  0.00000000       0.099
   0.44444444  0.44444444  0.00000000       0.049
 
 position of ions in fractional coordinates (direct lattice) 
   0.50000000  0.50000000  0.23375010
   0.50000000  0.00000000  0.30982150
   0.00000000  0.50000000  0.30982150
   0.50000000  0.50000000  0.38589290
   0.50000000  0.00000000  0.46196430
   0.00000000  0.50000000  0.46196430
   0.50000000  0.50000000  0.53803570
   0.50000000  0.00000000  0.61410710
   0.00000000  0.50000000  0.61410710
   0.50000000  0.50000000  0.69017850
   0.50000000  0.00000000  0.76624990
   0.00000000  0.50000000  0.76624990
   0.00000000  0.00000000  0.23375010
   0.00000000  0.00000000  0.38589290
   0.00000000  0.00000000  0.53803570
   0.00000000  0.00000000  0.69017850
   0.50000000  0.50000000  0.30982150
   0.50000000  0.50000000  0.46196430
   0.50000000  0.50000000  0.61410710
   0.50000000  0.50000000  0.76624990
 
 position of ions in cartesian coordinates  (Angst):
   1.95263400  1.95263400  6.00000000
   1.95263400  0.00000000  7.95263400
   0.00000000  1.95263400  7.95263400
   1.95263400  1.95263400  9.90526800
   1.95263400  0.00000000 11.85790200
   0.00000000  1.95263400 11.85790200
   1.95263400  1.95263400 13.81053600
   1.95263400  0.00000000 15.76317000
   0.00000000  1.95263400 15.76317000
   1.95263400  1.95263400 17.71580400
   1.95263400  0.00000000 19.66843800
   0.00000000  1.95263400 19.66843800
   0.00000000  0.00000000  6.00000000
   0.00000000  0.00000000  9.90526800
   0.00000000  0.00000000 13.81053600
   0.00000000  0.00000000 17.71580400
   1.95263400  1.95263400  7.95263400
   1.95263400  1.95263400 11.85790200
   1.95263400  1.95263400 15.76317000
   1.95263400  1.95263400 19.66843800
 


--------------------------------------------------------------------------------------------------------


 k-point  1 :   0.0000 0.0000 0.0000  plane waves:    9877
 k-point  2 :   0.1111 0.0000 0.0000  plane waves:    9857
 k-point  3 :   0.2222 0.0000 0.0000  plane waves:    9920
 k-point  4 :   0.3333 0.0000 0.0000  plane waves:    9972
 k-point  5 :   0.4444 0.0000 0.0000  plane waves:    9950
 k-point  6 :   0.1111 0.1111 0.0000  plane waves:    9904
 k-point  7 :   0.2222 0.1111 0.0000  plane waves:    9914
 k-point  8 :   0.3333 0.1111 0.0000  plane waves:    9934
 k-point  9 :   0.4444 0.1111 0.0000  plane waves:    9959
 k-point 10 :   0.2222 0.2222 0.0000  plane waves:    9926
 k-point 11 :   0.3333 0.2222 0.0000  plane waves:    9941
 k-point 12 :   0.4444 0.2222 0.0000  plane waves:    9959
 k-point 13 :   0.3333 0.3333 0.0000  plane waves:    9926
 k-point 14 :   0.4444 0.3333 0.0000  plane waves:    9967
 k-point 15 :   0.4444 0.4444 0.0000  plane waves:    9952

 maximum and minimum number of plane-waves per node :      4997     4927

 maximum number of plane-waves:      9972
 maximum index in each direction: 
   IXMAX=    7   IYMAX=    7   IZMAX=   46
   IXMIN=   -7   IYMIN=   -7   IZMIN=  -46


 parallel 3D FFT for wavefunctions:
    minimum data exchange during FFTs selected (reduces bandwidth)
 parallel 3D FFT for charge:
    minimum data exchange during FFTs selected (reduces bandwidth)


 total amount of memory used by VASP MPI-rank0   129169. kBytes
=======================================================================

   base      :      30000. kBytes
   nonl-proj :      33877. kBytes
   fftplans  :       6668. kBytes
   grid      :      11994. kBytes
   one-center:        155. kBytes
   wavefun   :      46475. kBytes
 
     INWAV:  cpu time    0.0000: real time    0.0000
 Broyden mixing: mesh for mixing (old mesh)
   NGX = 15   NGY = 15   NGZ = 93
  (NGX  = 48   NGY  = 48   NGZ  =280)
  gives a total of  20925 points

 initial charge density was supplied:
 charge density of overlapping atoms calculated
 number of electron     128.0000000 magnetization 
 keeping initial charge density in first step


--------------------------------------------------------------------------------------------------------


 Maximum index for augmentation-charges         3446 (set IRDMAX)


--------------------------------------------------------------------------------------------------------


 First call to EWALD:  gamma=   0.242
 Maximum number of real-space cells 5x 5x 1
 Maximum number of reciprocal cells 2x 2x 8

    FEWALD:  cpu time    0.0020: real time    0.0019


--------------------------------------- Iteration      1(   1)  ---------------------------------------


    POTLOK:  cpu time    0.0960: real time    0.1233
    SETDIJ:  cpu time    0.0100: real time    0.0095
     EDDAV:  cpu time    7.5339: real time    7.5335
 BZINTS: Fermi energy: 15.598197;128.000000 electrons
         Band energy: 164.903399;  BLOECHL correction: -0.050913
       DOS:  cpu time    0.0110: real time    0.0113
    --------------------------------------------
      LOOP:  cpu time    7.6508: real time    7.6776

 eigenvalue-minimisations  :  2304
 total energy-change (2. order) : 0.1624252E+04  (-0.5611716E+04)
 number of electron     128.0000000 magnetization 
 augmentation part      128.0000000 magnetization 

 Free energy of the ion-electron system (eV)
  ---------------------------------------------------
  alpha Z        PSCENC =       451.31605171
  Ewald energy   TEWEN  =     24913.70541863
  -Hartree energ DENC   =    -33364.93616084
  -exchange      EXHF   =         0.00000000
  -V(xc)+E(xc)   XCENC  =       326.68052994
  PAW double counting   =      5334.45189010    -5139.13784255
  entropy T*S    EENTRO =         0.00000000
  eigenvalues    EBANDS =       164.90339941
  atomic energy  EATOM  =      8937.26825017
  Solvation  Ediel_sol  =         0.00000000
  ---------------------------------------------------
  free energy    TOTEN  =      1624.25153657 eV

  energy without entropy =     1624.25153657  energy(sigma->0) =     1624.25153657


--------------------------------------------------------------------------------------------------------




--------------------------------------- Iteration      1(   2)  ---------------------------------------


     EDDAV:  cpu time    8.6057: real time    8.6057
 BZINTS: Fermi energy:  4.998599;128.000000 electrons
         Band energy:***********;  BLOECHL correction: -0.077583
       DOS:  cpu time    0.0100: real time    0.0105
    --------------------------------------------
      LOOP:  cpu time    8.6157: real time    8.6161

 eigenvalue-minimisations  :  2664
 total energy-change (2. order) :-0.1436103E+04  (-0.1375507E+04)
 number of electron     128.0000000 magnetization 
 augmentation part      128.0000000 magnetization 

 Free energy of the ion-electron system (eV)
  ---------------------------------------------------
  alpha Z        PSCENC =       451.31605171
  Ewald energy   TEWEN  =     24913.70541863
  -Hartree energ DENC   =    -33364.93616084
  -exchange      EXHF   =         0.00000000
  -V(xc)+E(xc)   XCENC  =       326.68052994
  PAW double counting   =      5334.45189010    -5139.13784255
  entropy T*S    EENTRO =         0.00000000
  eigenvalues    EBANDS =     -1271.19959388
  atomic energy  EATOM  =      8937.26825017
  Solvation  Ediel_sol  =         0.00000000
  ---------------------------------------------------
  free energy    TOTEN  =       188.14854328 eV

  energy without entropy =      188.14854328  energy(sigma->0) =      188.14854328


--------------------------------------------------------------------------------------------------------




--------------------------------------- Iteration      1(   3)  ---------------------------------------


     EDDAV:  cpu time    9.5435: real time    9.5466
 BZINTS: Fermi energy: -2.402339;128.000000 electrons
         Band energy:***********;  BLOECHL correction:  0.000000
       DOS:  cpu time    0.0010: real time    0.0024
    --------------------------------------------
      LOOP:  cpu time    9.5445: real time    9.5490

 eigenvalue-minimisations  :  3044
 total energy-change (2. order) :-0.3615713E+03  (-0.3506011E+03)
 number of electron     128.0000000 magnetization 
 augmentation part      128.0000000 magnetization 

 Free energy of the ion-electron system (eV)
  ---------------------------------------------------
  alpha Z        PSCENC =       451.31605171
  Ewald energy   TEWEN  =     24913.70541863
  -Hartree energ DENC   =    -33364.93616084
  -exchange      EXHF   =         0.00000000
  -V(xc)+E(xc)   XCENC  =       326.68052994
  PAW double counting   =      5334.45189010    -5139.13784255
  entropy T*S    EENTRO =         0.00000000
  eigenvalues    EBANDS =     -1632.77092275
  atomic energy  EATOM  =      8937.26825017
  Solvation  Ediel_sol  =         0.00000000
  ---------------------------------------------------
  free energy    TOTEN  =      -173.42278558 eV

  energy without entropy =     -173.42278558  energy(sigma->0) =     -173.42278558


--------------------------------------------------------------------------------------------------------




--------------------------------------- Iteration      1(   4)  ---------------------------------------


     EDDAV:  cpu time    9.2386: real time    9.2479
 BZINTS: Fermi energy: -4.179222;128.000000 electrons
         Band energy:***********;  BLOECHL correction:  0.000000
       DOS:  cpu time    0.0020: real time    0.0019
    --------------------------------------------
      LOOP:  cpu time    9.2406: real time    9.2498

 eigenvalue-minimisations  :  2928
 total energy-change (2. order) :-0.2673857E+02  (-0.2663781E+02)
 number of electron     128.0000000 magnetization 
 augmentation part      128.0000000 magnetization 

 Free energy of the ion-electron system (eV)
  ---------------------------------------------------
  alpha Z        PSCENC =       451.31605171
  Ewald energy   TEWEN  =     24913.70541863
  -Hartree energ DENC   =    -33364.93616084
  -exchange      EXHF   =         0.00000000
  -V(xc)+E(xc)   XCENC  =       326.68052994
  PAW double counting   =      5334.45189010    -5139.13784255
  entropy T*S    EENTRO =         0.00000000
  eigenvalues    EBANDS =     -1659.50949100
  atomic energy  EATOM  =      8937.26825017
  Solvation  Ediel_sol  =         0.00000000
  ---------------------------------------------------
  free energy    TOTEN  =      -200.16135383 eV

  energy without entropy =     -200.16135383  energy(sigma->0) =     -200.16135383


--------------------------------------------------------------------------------------------------------




--------------------------------------- Iteration      1(   5)  ---------------------------------------


     EDDAV:  cpu time   11.6592: real time   11.6608
 BZINTS: Fermi energy: -4.165906;128.000000 electrons
         Band energy:***********;  BLOECHL correction:  0.000000
       DOS:  cpu time    0.0020: real time    0.0021
    CHARGE:  cpu time    0.3020: real time    0.3024
    MIXING:  cpu time    0.0040: real time    0.0031
    --------------------------------------------
      LOOP:  cpu time   11.9672: real time   11.9684

 eigenvalue-minimisations  :  3888
 total energy-change (2. order) :-0.1590645E+01  (-0.1589851E+01)
 number of electron     127.9999793 magnetization 
 augmentation part       13.6861250 magnetization 

 Broyden mixing:
  rms(total) = 0.37116E+01    rms(broyden)= 0.37111E+01
  rms(prec ) = 0.39619E+01
  weight for this iteration     100.00

 Free energy of the ion-electron system (eV)
  ---------------------------------------------------
  alpha Z        PSCENC =       451.31605171
  Ewald energy   TEWEN  =     24913.70541863
  -Hartree energ DENC   =    -33364.93616084
  -exchange      EXHF   =         0.00000000
  -V(xc)+E(xc)   XCENC  =       326.68052994
  PAW double counting   =      5334.45189010    -5139.13784255
  entropy T*S    EENTRO =         0.00000000
  eigenvalues    EBANDS =     -1661.10013561
  atomic energy  EATOM  =      8937.26825017
  Solvation  Ediel_sol  =         0.00000000
  ---------------------------------------------------
  free energy    TOTEN  =      -201.75199845 eV

  energy without entropy =     -201.75199845  energy(sigma->0) =     -201.75199845


--------------------------------------------------------------------------------------------------------




--------------------------------------- Iteration      1(   6)  ---------------------------------------


    POTLOK:  cpu time    0.1040: real time    0.1061
    SETDIJ:  cpu time    0.0100: real time    0.0104
    EDDIAG:  cpu time    0.8569: real time    0.8558
  RMM-DIIS:  cpu time    6.3480: real time    6.3470
    ORTHCH:  cpu time    0.1290: real time    0.1291
 BZINTS: Fermi energy: -0.045564;128.000000 electrons
         Band energy:***********;  BLOECHL correction: -0.026484
       DOS:  cpu time    0.0110: real time    0.0107
    CHARGE:  cpu time    0.3020: real time    0.3021
    MIXING:  cpu time    0.0040: real time    0.0034
    --------------------------------------------
      LOOP:  cpu time    7.7648: real time    7.7647

 eigenvalue-minimisations  :  2495
 total energy-change (2. order) : 0.4055247E+02  (-0.2844203E+02)
 number of electron     127.9999847 magnetization 
 augmentation part       14.2684394 magnetization 

 Broyden mixing:
  rms(total) = 0.13645E+01    rms(broyden)= 0.13634E+01
  rms(prec ) = 0.14357E+01
  weight for this iteration     100.00

 eigenvalues of (default mixing * dielectric matrix)
  average eigenvalue GAMMA=   0.7731
  0.7731

 Free energy of the ion-electron system (eV)
  ---------------------------------------------------
  alpha Z        PSCENC =       451.31605171
  Ewald energy   TEWEN  =     24913.70541863
  -Hartree energ DENC   =    -33647.39783152
  -exchange      EXHF   =         0.00000000
  -V(xc)+E(xc)   XCENC  =       346.47429737
  PAW double counting   =      5952.50146076    -5770.29240404
  entropy T*S    EENTRO =         0.00000000
  eigenvalues    EBANDS =     -1344.77477441
  atomic energy  EATOM  =      8937.26825017
  Solvation  Ediel_sol  =         0.00000000
  ---------------------------------------------------
  free energy    TOTEN  =      -161.19953133 eV

  energy without entropy =     -161.19953133  energy(sigma->0) =     -161.19953133


--------------------------------------------------------------------------------------------------------




--------------------------------------- Iteration      1(   7)  ---------------------------------------


    POTLOK:  cpu time    0.0930: real time    0.0993
    SETDIJ:  cpu time    0.0100: real time    0.0099
    EDDIAG:  cpu time    0.7959: real time    0.7955
  RMM-DIIS:  cpu time    6.9839: real time    6.9812
    ORTHCH:  cpu time    0.1210: real time    0.1215
 BZINTS: Fermi energy: -0.880380;128.000000 electrons
         Band energy:***********;  BLOECHL correction:  0.000000
       DOS:  cpu time    0.0020: real time    0.0021
    CHARGE:  cpu time    0.2900: real time    0.2901
    MIXING:  cpu time    0.0030: real time    0.0032
    --------------------------------------------
      LOOP:  cpu time    8.2987: real time    8.3029

 eigenvalue-minimisations  :  2760
 total energy-change (2. order) : 0.3511477E+01  (-0.1271512E+01)
 number of electron     127.9999843 magnetization 
 augmentation part       13.5823916 magnetization 

 Broyden mixing:
  rms(total) = 0.71195E+00    rms(broyden)= 0.71189E+00
  rms(prec ) = 0.74125E+00
  weight for this iteration     100.00

 eigenvalues of (default mixing * dielectric matrix)
  average eigenvalue GAMMA=   1.0475
  0.9155  1.1795

 Free energy of the ion-electron system (eV)
  ---------------------------------------------------
  alpha Z        PSCENC =       451.31605171
  Ewald energy   TEWEN  =     24913.70541863
  -Hartree energ DENC   =    -33658.67801459
  -exchange      EXHF   =         0.00000000
  -V(xc)+E(xc)   XCENC  =       342.83939682
  PAW double counting   =      5978.21685544    -5800.97036823
  entropy T*S    EENTRO =         0.00000000
  eigenvalues    EBANDS =     -1321.38564405
  atomic energy  EATOM  =      8937.26825017
  Solvation  Ediel_sol  =         0.00000000
  ---------------------------------------------------
  free energy    TOTEN  =      -157.68805409 eV

  energy without entropy =     -157.68805409  energy(sigma->0) =     -157.68805409


--------------------------------------------------------------------------------------------------------




--------------------------------------- Iteration      1(   8)  ---------------------------------------


    POTLOK:  cpu time    0.1010: real time    0.1015
    SETDIJ:  cpu time    0.0110: real time    0.0105
    EDDIAG:  cpu time    0.8539: real time    0.8538
  RMM-DIIS:  cpu time    7.9938: real time    7.9917
    ORTHCH:  cpu time    0.1300: real time    0.1304
 BZINTS: Fermi energy: -0.562668;128.000000 electrons
         Band energy:***********;  BLOECHL correction:  0.000000
       DOS:  cpu time    0.0020: real time    0.0021
    CHARGE:  cpu time    0.3020: real time    0.3018
    MIXING:  cpu time    0.0040: real time    0.0035
    --------------------------------------------
      LOOP:  cpu time    9.3976: real time    9.3952

 eigenvalue-minimisations  :  3110
 total energy-change (2. order) : 0.7224605E+00  (-0.3091350E+00)
 number of electron     127.9999841 magnetization 
 augmentation part       13.7591144 magnetization 

 Broyden mixing:
  rms(total) = 0.32239E+00    rms(broyden)= 0.32236E+00
  rms(prec ) = 0.34256E+00
  weight for this iteration     100.00

 eigenvalues of (default mixing * dielectric matrix)
  average eigenvalue GAMMA=   1.2740
  2.1880  0.9168  0.7171

 Free energy of the ion-electron system (eV)
  ---------------------------------------------------
  alpha Z        PSCENC =       451.31605171
  Ewald energy   TEWEN  =     24913.70541863
  -Hartree energ DENC   =    -33673.88285872
  -exchange      EXHF   =         0.00000000
  -V(xc)+E(xc)   XCENC  =       342.48961795
  PAW double counting   =      6071.64722281    -5898.50449139
  entropy T*S    EENTRO =         0.00000000
  eigenvalues    EBANDS =     -1301.00480473
  atomic energy  EATOM  =      8937.26825017
  Solvation  Ediel_sol  =         0.00000000
  ---------------------------------------------------
  free energy    TOTEN  =      -156.96559357 eV

  energy without entropy =     -156.96559357  energy(sigma->0) =     -156.96559357


--------------------------------------------------------------------------------------------------------




--------------------------------------- Iteration      1(   9)  ---------------------------------------


    POTLOK:  cpu time    0.1010: real time    0.1055
    SETDIJ:  cpu time    0.0100: real time    0.0106
    EDDIAG:  cpu time    0.8609: real time    0.8598
  RMM-DIIS:  cpu time    7.8788: real time    7.8770
    ORTHCH:  cpu time    0.1310: real time    0.1306
 BZINTS: Fermi energy: -0.083313;128.000000 electrons
         Band energy:***********;  BLOECHL correction:  0.000000
       DOS:  cpu time    0.0020: real time    0.0022
    CHARGE:  cpu time    0.3010: real time    0.3013
    MIXING:  cpu time    0.0040: real time    0.0037
    --------------------------------------------
      LOOP:  cpu time    9.2886: real time    9.2907

 eigenvalue-minimisations  :  3111
 total energy-change (2. order) : 0.2109690E+00  (-0.1307230E+00)
 number of electron     127.9999838 magnetization 
 augmentation part       13.7825160 magnetization 

 Broyden mixing:
  rms(total) = 0.98703E-01    rms(broyden)= 0.98626E-01
  rms(prec ) = 0.11732E+00
  weight for this iteration     100.00

 eigenvalues of (default mixing * dielectric matrix)
  average eigenvalue GAMMA=   1.1920
  2.2477  0.8922  0.8922  0.7358

 Free energy of the ion-electron system (eV)
  ---------------------------------------------------
  alpha Z        PSCENC =       451.31605171
  Ewald energy   TEWEN  =     24913.70541863
  -Hartree energ DENC   =    -33699.63474359
  -exchange      EXHF   =         0.00000000
  -V(xc)+E(xc)   XCENC  =       342.15150930
  PAW double counting   =      6171.37833079    -6001.96691447
  entropy T*S    EENTRO =         0.00000000
  eigenvalues    EBANDS =     -1270.97252712
  atomic energy  EATOM  =      8937.26825017
  Solvation  Ediel_sol  =         0.00000000
  ---------------------------------------------------
  free energy    TOTEN  =      -156.75462458 eV

  energy without entropy =     -156.75462458  energy(sigma->0) =     -156.75462458


--------------------------------------------------------------------------------------------------------




--------------------------------------- Iteration      1(  10)  ---------------------------------------


    POTLOK:  cpu time    0.1010: real time    0.1055
    SETDIJ:  cpu time    0.0120: real time    0.0106
    EDDIAG:  cpu time    0.8619: real time    0.8621
  RMM-DIIS:  cpu time    9.0606: real time    9.0589
    ORTHCH:  cpu time    0.1270: real time    0.1273
 BZINTS: Fermi energy: -0.004057;128.000000 electrons
         Band energy:***********;  BLOECHL correction:  0.000000
       DOS:  cpu time    0.0020: real time    0.0022
    CHARGE:  cpu time    0.2950: real time    0.2945
    MIXING:  cpu time    0.0040: real time    0.0037
    --------------------------------------------
      LOOP:  cpu time   10.4634: real time   10.4648

 eigenvalue-minimisations  :  3606
 total energy-change (2. order) : 0.4119013E-01  (-0.2477253E-01)
 number of electron     127.9999839 magnetization 
 augmentation part       13.7363922 magnetization 

 Broyden mixing:
  rms(total) = 0.61023E-01    rms(broyden)= 0.61015E-01
  rms(prec ) = 0.76326E-01
  weight for this iteration     100.00

 eigenvalues of (default mixing * dielectric matrix)
  average eigenvalue GAMMA=   1.2027
  2.1275  1.3952  1.0579  0.7683  0.6645

 Free energy of the ion-electron system (eV)
  ---------------------------------------------------
  alpha Z        PSCENC =       451.31605171
  Ewald energy   TEWEN  =     24913.70541863
  -Hartree energ DENC   =    -33718.49176316
  -exchange      EXHF   =         0.00000000
  -V(xc)+E(xc)   XCENC  =       342.52836823
  PAW double counting   =      6194.18924041    -6025.24306711
  entropy T*S    EENTRO =         0.00000000
  eigenvalues    EBANDS =     -1251.98593333
  atomic energy  EATOM  =      8937.26825017
  Solvation  Ediel_sol  =         0.00000000
  ---------------------------------------------------
  free energy    TOTEN  =      -156.71343444 eV

  energy without entropy =     -156.71343444  energy(sigma->0) =     -156.71343444


--------------------------------------------------------------------------------------------------------




--------------------------------------- Iteration      1(  11)  ---------------------------------------


    POTLOK:  cpu time    0.0990: real time    0.1034
    SETDIJ:  cpu time    0.0100: real time    0.0104
    EDDIAG:  cpu time    0.8499: real time    0.8495
  RMM-DIIS:  cpu time    8.8777: real time    8.8763
    ORTHCH:  cpu time    0.1310: real time    0.1303
 BZINTS: Fermi energy:  0.198632;128.000000 electrons
         Band energy:***********;  BLOECHL correction:  0.000000
       DOS:  cpu time    0.0020: real time    0.0022
    CHARGE:  cpu time    0.3040: real time    0.3045
    MIXING:  cpu time    0.0050: real time    0.0043
    --------------------------------------------
      LOOP:  cpu time   10.2784: real time   10.2809

 eigenvalue-minimisations  :  3503
 total energy-change (2. order) : 0.2100260E-01  (-0.1519892E-01)
 number of electron     127.9999840 magnetization 
 augmentation part       13.6708333 magnetization 

 Broyden mixing:
  rms(total) = 0.38864E-01    rms(broyden)= 0.38849E-01
  rms(prec ) = 0.51101E-01
  weight for this iteration     100.00

 eigenvalues of (default mixing * dielectric matrix)
  average eigenvalue GAMMA=   1.3033
  2.3095  2.3095  0.9009  0.9009  0.6311  0.7679

 Free energy of the ion-electron system (eV)
  ---------------------------------------------------
  alpha Z        PSCENC =       451.31605171
  Ewald energy   TEWEN  =     24913.70541863
  -Hartree energ DENC   =    -33737.80416601
  -exchange      EXHF   =         0.00000000
  -V(xc)+E(xc)   XCENC  =       342.88014238
  PAW double counting   =      6207.78821323    -6038.80840539
  entropy T*S    EENTRO =         0.00000000
  eigenvalues    EBANDS =     -1233.03793657
  atomic energy  EATOM  =      8937.26825017
  Solvation  Ediel_sol  =         0.00000000
  ---------------------------------------------------
  free energy    TOTEN  =      -156.69243185 eV

  energy without entropy =     -156.69243185  energy(sigma->0) =     -156.69243185


--------------------------------------------------------------------------------------------------------




--------------------------------------- Iteration      1(  12)  ---------------------------------------


    POTLOK:  cpu time    0.1030: real time    0.1071
    SETDIJ:  cpu time    0.0110: real time    0.0106
    EDDIAG:  cpu time    0.8639: real time    0.8647
  RMM-DIIS:  cpu time    9.1896: real time    9.1874
    ORTHCH:  cpu time    0.1310: real time    0.1307
 BZINTS: Fermi energy:  0.380533;128.000000 electrons
         Band energy:***********;  BLOECHL correction:  0.000000
       DOS:  cpu time    0.0020: real time    0.0020
    CHARGE:  cpu time    0.3030: real time    0.3026
    MIXING:  cpu time    0.0040: real time    0.0043
    --------------------------------------------
      LOOP:  cpu time   10.6074: real time   10.6093

 eigenvalue-minimisations  :  3660
 total energy-change (2. order) : 0.1206431E-01  (-0.5087422E-02)
 number of electron     127.9999839 magnetization 
 augmentation part       13.6355883 magnetization 

 Broyden mixing:
  rms(total) = 0.31748E-01    rms(broyden)= 0.31743E-01
  rms(prec ) = 0.39936E-01
  weight for this iteration     100.00

 eigenvalues of (default mixing * dielectric matrix)
  average eigenvalue GAMMA=   1.2577
  2.3092  2.3092  0.9990  0.9990  0.8274  0.7243  0.6357

 Free energy of the ion-electron system (eV)
  ---------------------------------------------------
  alpha Z        PSCENC =       451.31605171
  Ewald energy   TEWEN  =     24913.70541863
  -Hartree energ DENC   =    -33751.82671503
  -exchange      EXHF   =         0.00000000
  -V(xc)+E(xc)   XCENC  =       342.98413790
  PAW double counting   =      6212.07492108    -6042.85300599
  entropy T*S    EENTRO =         0.00000000
  eigenvalues    EBANDS =     -1219.34942601
  atomic energy  EATOM  =      8937.26825017
  Solvation  Ediel_sol  =         0.00000000
  ---------------------------------------------------
  free energy    TOTEN  =      -156.68036753 eV

  energy without entropy =     -156.68036753  energy(sigma->0) =     -156.68036753


--------------------------------------------------------------------------------------------------------




--------------------------------------- Iteration      1(  13)  ---------------------------------------


    POTLOK:  cpu time    0.1020: real time    0.1057
    SETDIJ:  cpu time    0.0100: real time    0.0105
    EDDIAG:  cpu time    0.8629: real time    0.8624
  RMM-DIIS:  cpu time    9.6615: real time    9.6595
    ORTHCH:  cpu time    0.1310: real time    0.1308
 BZINTS: Fermi energy:  0.410447;128.000000 electrons
         Band energy:***********;  BLOECHL correction:  0.000000
       DOS:  cpu time    0.0020: real time    0.0021
    CHARGE:  cpu time    0.3030: real time    0.3031
    MIXING:  cpu time    0.0050: real time    0.0045
    --------------------------------------------
      LOOP:  cpu time   11.0773: real time   11.0786

 eigenvalue-minimisations  :  3800
 total energy-change (2. order) : 0.6125441E-02  (-0.2175898E-02)
 number of electron     127.9999839 magnetization 
 augmentation part       13.6490714 magnetization 

 Broyden mixing:
  rms(total) = 0.16742E-01    rms(broyden)= 0.16739E-01
  rms(prec ) = 0.24925E-01
  weight for this iteration     100.00

 eigenvalues of (default mixing * dielectric matrix)
  average eigenvalue GAMMA=   1.4096
  2.8204  2.8204  1.4704  0.9854  0.9222  0.9222  0.6978  0.6382

 Free energy of the ion-electron system (eV)
  ---------------------------------------------------
  alpha Z        PSCENC =       451.31605171
  Ewald energy   TEWEN  =     24913.70541863
  -Hartree energ DENC   =    -33756.98136189
  -exchange      EXHF   =         0.00000000
  -V(xc)+E(xc)   XCENC  =       342.96279936
  PAW double counting   =      6212.17258806    -6042.86382333
  entropy T*S    EENTRO =         0.00000000
  eigenvalues    EBANDS =     -1214.25416480
  atomic energy  EATOM  =      8937.26825017
  Solvation  Ediel_sol  =         0.00000000
  ---------------------------------------------------
  free energy    TOTEN  =      -156.67424209 eV

  energy without entropy =     -156.67424209  energy(sigma->0) =     -156.67424209


--------------------------------------------------------------------------------------------------------




--------------------------------------- Iteration      1(  14)  ---------------------------------------


    POTLOK:  cpu time    0.1030: real time    0.1083
    SETDIJ:  cpu time    0.0110: real time    0.0106
    EDDIAG:  cpu time    0.8149: real time    0.8155
  RMM-DIIS:  cpu time    8.6037: real time    8.6018
    ORTHCH:  cpu time    0.1300: real time    0.1306
 BZINTS: Fermi energy:  0.529628;128.000000 electrons
         Band energy:***********;  BLOECHL correction:  0.000000
       DOS:  cpu time    0.0020: real time    0.0022
    CHARGE:  cpu time    0.3040: real time    0.3040
    MIXING:  cpu time    0.0060: real time    0.0048
    --------------------------------------------
      LOOP:  cpu time    9.9745: real time    9.9778

 eigenvalue-minimisations  :  3405
 total energy-change (2. order) : 0.4388876E-02  (-0.2157586E-02)
 number of electron     127.9999839 magnetization 
 augmentation part       13.6548359 magnetization 

 Broyden mixing:
  rms(total) = 0.15627E-01    rms(broyden)= 0.15619E-01
  rms(prec ) = 0.19379E-01
  weight for this iteration     100.00

 eigenvalues of (default mixing * dielectric matrix)
  average eigenvalue GAMMA=   1.4226
  3.5151  2.5818  1.4452  1.1055  1.1055  0.8849  0.8849  0.6664  0.6142

 Free energy of the ion-electron system (eV)
  ---------------------------------------------------
  alpha Z        PSCENC =       451.31605171
  Ewald energy   TEWEN  =     24913.70541863
  -Hartree energ DENC   =    -33767.95876145
  -exchange      EXHF   =         0.00000000
  -V(xc)+E(xc)   XCENC  =       342.89521522
  PAW double counting   =      6205.72270292    -6036.02679663
  entropy T*S    EENTRO =         0.00000000
  eigenvalues    EBANDS =     -1203.59193378
  atomic energy  EATOM  =      8937.26825017
  Solvation  Ediel_sol  =         0.00000000
  ---------------------------------------------------
  free energy    TOTEN  =      -156.66985322 eV

  energy without entropy =     -156.66985322  energy(sigma->0) =     -156.66985322


--------------------------------------------------------------------------------------------------------




--------------------------------------- Iteration      1(  15)  ---------------------------------------


    POTLOK:  cpu time    0.1020: real time    0.1073
    SETDIJ:  cpu time    0.0100: real time    0.0106
    EDDIAG:  cpu time    0.8659: real time    0.8659
  RMM-DIIS:  cpu time    9.5675: real time    9.5650
    ORTHCH:  cpu time    0.1300: real time    0.1305
 BZINTS: Fermi energy:  0.577988;128.000000 electrons
         Band energy:***********;  BLOECHL correction:  0.000000
       DOS:  cpu time    0.0020: real time    0.0021
    CHARGE:  cpu time    0.2890: real time    0.2883
    MIXING:  cpu time    0.0040: real time    0.0043
    --------------------------------------------
      LOOP:  cpu time   10.9703: real time   10.9741

 eigenvalue-minimisations  :  3755
 total energy-change (2. order) : 0.7361628E-03  (-0.7018301E-03)
 number of electron     127.9999839 magnetization 
 augmentation part       13.6512255 magnetization 

 Broyden mixing:
  rms(total) = 0.60701E-02    rms(broyden)= 0.60661E-02
  rms(prec ) = 0.99018E-02
  weight for this iteration     100.00

 eigenvalues of (default mixing * dielectric matrix)
  average eigenvalue GAMMA=   1.4676
  3.9665  2.3595  1.9246  1.3445  1.1250  0.9607  0.9607  0.7891  0.6417  0.6037

 Free energy of the ion-electron system (eV)
  ---------------------------------------------------
  alpha Z        PSCENC =       451.31605171
  Ewald energy   TEWEN  =     24913.70541863
  -Hartree energ DENC   =    -33774.00553777
  -exchange      EXHF   =         0.00000000
  -V(xc)+E(xc)   XCENC  =       342.96082248
  PAW double counting   =      6206.82733262    -6037.13678327
  entropy T*S    EENTRO =         0.00000000
  eigenvalues    EBANDS =     -1197.60467163
  atomic energy  EATOM  =      8937.26825017
  Solvation  Ediel_sol  =         0.00000000
  ---------------------------------------------------
  free energy    TOTEN  =      -156.66911705 eV

  energy without entropy =     -156.66911705  energy(sigma->0) =     -156.66911705


--------------------------------------------------------------------------------------------------------




--------------------------------------- Iteration      1(  16)  ---------------------------------------


    POTLOK:  cpu time    0.0910: real time    0.0935
    SETDIJ:  cpu time    0.0100: real time    0.0096
    EDDIAG:  cpu time    0.7989: real time    0.7997
  RMM-DIIS:  cpu time    8.8946: real time    8.8918
    ORTHCH:  cpu time    0.1260: real time    0.1257
 BZINTS: Fermi energy:  0.634410;128.000000 electrons
         Band energy:***********;  BLOECHL correction:  0.000000
       DOS:  cpu time    0.0010: real time    0.0022
    CHARGE:  cpu time    0.3000: real time    0.2997
    MIXING:  cpu time    0.0060: real time    0.0051
    --------------------------------------------
      LOOP:  cpu time   10.2274: real time   10.2272

 eigenvalue-minimisations  :  3657
 total energy-change (2. order) :-0.1238446E-02  (-0.4831627E-03)
 number of electron     127.9999839 magnetization 
 augmentation part       13.6448870 magnetization 

 Broyden mixing:
  rms(total) = 0.85744E-02    rms(broyden)= 0.85719E-02
  rms(prec ) = 0.10043E-01
  weight for this iteration     100.00

 eigenvalues of (default mixing * dielectric matrix)
  average eigenvalue GAMMA=   1.6298
  5.3872  2.8485  2.3499  1.3195  1.1564  1.1564  0.8731  0.8731  0.7194  0.6224
  0.6224

 Free energy of the ion-electron system (eV)
  ---------------------------------------------------
  alpha Z        PSCENC =       451.31605171
  Ewald energy   TEWEN  =     24913.70541863
  -Hartree energ DENC   =    -33780.56180427
  -exchange      EXHF   =         0.00000000
  -V(xc)+E(xc)   XCENC  =       342.98816066
  PAW double counting   =      6207.48991014    -6037.87938865
  entropy T*S    EENTRO =         0.00000000
  eigenvalues    EBANDS =     -1190.99695390
  atomic energy  EATOM  =      8937.26825017
  Solvation  Ediel_sol  =         0.00000000
  ---------------------------------------------------
  free energy    TOTEN  =      -156.67035550 eV

  energy without entropy =     -156.67035550  energy(sigma->0) =     -156.67035550


--------------------------------------------------------------------------------------------------------




--------------------------------------- Iteration      1(  17)  ---------------------------------------


    POTLOK:  cpu time    0.0970: real time    0.1025
    SETDIJ:  cpu time    0.0110: real time    0.0105
    EDDIAG:  cpu time    0.8109: real time    0.8109
  RMM-DIIS:  cpu time    6.6860: real time    6.6846
    ORTHCH:  cpu time    0.0970: real time    0.0973
 BZINTS: Fermi energy:  0.680234;128.000000 electrons
         Band energy:***********;  BLOECHL correction:  0.000000
       DOS:  cpu time    0.0020: real time    0.0019
    CHARGE:  cpu time    0.2570: real time    0.2565
    MIXING:  cpu time    0.0040: real time    0.0045
    --------------------------------------------
      LOOP:  cpu time    7.9648: real time    7.9687

 eigenvalue-minimisations  :  3395
 total energy-change (2. order) :-0.4559452E-03  (-0.2318065E-03)
 number of electron     127.9999839 magnetization 
 augmentation part       13.6412144 magnetization 

 Broyden mixing:
  rms(total) = 0.32773E-02    rms(broyden)= 0.32747E-02
  rms(prec ) = 0.41746E-02
  weight for this iteration     100.00

 eigenvalues of (default mixing * dielectric matrix)
  average eigenvalue GAMMA=   1.6091
  5.8924  2.7983  2.3623  1.1362  1.1362  1.2205  1.1400  0.8475  0.8475  0.6925
  0.6178  0.6178

 Free energy of the ion-electron system (eV)
  ---------------------------------------------------
  alpha Z        PSCENC =       451.31605171
  Ewald energy   TEWEN  =     24913.70541863
  -Hartree energ DENC   =    -33783.05197129
  -exchange      EXHF   =         0.00000000
  -V(xc)+E(xc)   XCENC  =       342.94512077
  PAW double counting   =      6205.36814681    -6035.72238761
  entropy T*S    EENTRO =         0.00000000
  eigenvalues    EBANDS =     -1188.49944063
  atomic energy  EATOM  =      8937.26825017
  Solvation  Ediel_sol  =         0.00000000
  ---------------------------------------------------
  free energy    TOTEN  =      -156.67081144 eV

  energy without entropy =     -156.67081144  energy(sigma->0) =     -156.67081144


--------------------------------------------------------------------------------------------------------




--------------------------------------- Iteration      1(  18)  ---------------------------------------


    POTLOK:  cpu time    0.0780: real time    0.0821
    SETDIJ:  cpu time    0.0100: real time    0.0093
    EDDIAG:  cpu time    0.6769: real time    0.6769
  RMM-DIIS:  cpu time    6.5050: real time    6.5032
    ORTHCH:  cpu time    0.0930: real time    0.0931
 BZINTS: Fermi energy:  0.599767;128.000000 electrons
         Band energy:***********;  BLOECHL correction:  0.000000
       DOS:  cpu time    0.0020: real time    0.0016
    CHARGE:  cpu time    0.2530: real time    0.2533
    MIXING:  cpu time    0.0050: real time    0.0046
    --------------------------------------------
      LOOP:  cpu time    7.6228: real time    7.6242

 eigenvalue-minimisations  :  3275
 total energy-change (2. order) :-0.6245117E-03  (-0.6826408E-04)
 number of electron     127.9999839 magnetization 
 augmentation part       13.6435830 magnetization 

 Broyden mixing:
  rms(total) = 0.21734E-02    rms(broyden)= 0.21725E-02
  rms(prec ) = 0.28699E-02
  weight for this iteration     100.00

 eigenvalues of (default mixing * dielectric matrix)
  average eigenvalue GAMMA=   1.6939
  6.7436  3.0617  2.1186  2.1186  1.2241  1.2241  0.9879  0.9879  0.8407  0.8407
  0.6428  0.6428  0.5873

 Free energy of the ion-electron system (eV)
  ---------------------------------------------------
  alpha Z        PSCENC =       451.31605171
  Ewald energy   TEWEN  =     24913.70541863
  -Hartree energ DENC   =    -33783.88029683
  -exchange      EXHF   =         0.00000000
  -V(xc)+E(xc)   XCENC  =       342.95743220
  PAW double counting   =      6205.66256491    -6035.99842266
  entropy T*S    EENTRO =         0.00000000
  eigenvalues    EBANDS =     -1187.70243408
  atomic energy  EATOM  =      8937.26825017
  Solvation  Ediel_sol  =         0.00000000
  ---------------------------------------------------
  free energy    TOTEN  =      -156.67143596 eV

  energy without entropy =     -156.67143596  energy(sigma->0) =     -156.67143596


--------------------------------------------------------------------------------------------------------




--------------------------------------- Iteration      1(  19)  ---------------------------------------


    POTLOK:  cpu time    0.0750: real time    0.0765
    SETDIJ:  cpu time    0.0100: real time    0.0091
    EDDIAG:  cpu time    0.6629: real time    0.6626
  RMM-DIIS:  cpu time    6.1191: real time    6.1178
    ORTHCH:  cpu time    0.0970: real time    0.0974
 BZINTS: Fermi energy:  0.624206;128.000000 electrons
         Band energy:***********;  BLOECHL correction:  0.000000
       DOS:  cpu time    0.0020: real time    0.0016
    CHARGE:  cpu time    0.2560: real time    0.2562
    MIXING:  cpu time    0.0050: real time    0.0050
    --------------------------------------------
      LOOP:  cpu time    7.2269: real time    7.2262

 eigenvalue-minimisations  :  3091
 total energy-change (2. order) :-0.1421727E-02  (-0.4952889E-04)
 number of electron     127.9999839 magnetization 
 augmentation part       13.6421726 magnetization 

 Broyden mixing:
  rms(total) = 0.10206E-02    rms(broyden)= 0.10202E-02
  rms(prec ) = 0.13124E-02
  weight for this iteration     100.00

 eigenvalues of (default mixing * dielectric matrix)
  average eigenvalue GAMMA=   1.7816
  7.4390  3.7026  2.2473  2.2473  1.5352  1.1720  1.1720  0.9650  0.9650  0.8095
  0.8095  0.6478  0.6478  0.5830

 Free energy of the ion-electron system (eV)
  ---------------------------------------------------
  alpha Z        PSCENC =       451.31605171
  Ewald energy   TEWEN  =     24913.70541863
  -Hartree energ DENC   =    -33784.24345890
  -exchange      EXHF   =         0.00000000
  -V(xc)+E(xc)   XCENC  =       342.95313953
  PAW double counting   =      6205.60742891    -6035.91437038
  entropy T*S    EENTRO =         0.00000000
  eigenvalues    EBANDS =     -1187.36531736
  atomic energy  EATOM  =      8937.26825017
  Solvation  Ediel_sol  =         0.00000000
  ---------------------------------------------------
  free energy    TOTEN  =      -156.67285768 eV

  energy without entropy =     -156.67285768  energy(sigma->0) =     -156.67285768


--------------------------------------------------------------------------------------------------------




--------------------------------------- Iteration      1(  20)  ---------------------------------------


    POTLOK:  cpu time    0.0780: real time    0.0826
    SETDIJ:  cpu time    0.0100: real time    0.0092
    EDDIAG:  cpu time    0.6759: real time    0.6766
  RMM-DIIS:  cpu time    5.4032: real time    5.4013
    ORTHCH:  cpu time    0.0970: real time    0.0972
 BZINTS: Fermi energy:  0.640079;128.000000 electrons
         Band energy:***********;  BLOECHL correction:  0.000000
       DOS:  cpu time    0.0010: real time    0.0016
    CHARGE:  cpu time    0.2560: real time    0.2559
    MIXING:  cpu time    0.0060: real time    0.0052
    --------------------------------------------
      LOOP:  cpu time    6.5270: real time    6.5297

 eigenvalue-minimisations  :  2737
 total energy-change (2. order) :-0.6696572E-03  (-0.2527546E-04)
 number of electron     127.9999839 magnetization 
 augmentation part       13.6422574 magnetization 

 Broyden mixing:
  rms(total) = 0.66413E-03    rms(broyden)= 0.66396E-03
  rms(prec ) = 0.77325E-03
  weight for this iteration     100.00

 eigenvalues of (default mixing * dielectric matrix)
  average eigenvalue GAMMA=   1.9029
  8.1056  4.4856  2.5324  2.2740  2.2740  1.1756  1.1756  1.2285  0.8912  0.8912
  0.8184  0.8184  0.6454  0.6454  0.5822

 Free energy of the ion-electron system (eV)
  ---------------------------------------------------
  alpha Z        PSCENC =       451.31605171
  Ewald energy   TEWEN  =     24913.70541863
  -Hartree energ DENC   =    -33784.26793763
  -exchange      EXHF   =         0.00000000
  -V(xc)+E(xc)   XCENC  =       342.95205811
  PAW double counting   =      6205.99922812    -6036.31512676
  entropy T*S    EENTRO =         0.00000000
  eigenvalues    EBANDS =     -1187.33146969
  atomic energy  EATOM  =      8937.26825017
  Solvation  Ediel_sol  =         0.00000000
  ---------------------------------------------------
  free energy    TOTEN  =      -156.67352734 eV

  energy without entropy =     -156.67352734  energy(sigma->0) =     -156.67352734


--------------------------------------------------------------------------------------------------------




--------------------------------------- Iteration      1(  21)  ---------------------------------------


    POTLOK:  cpu time    0.0790: real time    0.0816
    SETDIJ:  cpu time    0.0100: real time    0.0093
    EDDIAG:  cpu time    0.6749: real time    0.6759
  RMM-DIIS:  cpu time    5.0762: real time    5.0739
    ORTHCH:  cpu time    0.0960: real time    0.0968
 BZINTS: Fermi energy:  0.650770;128.000000 electrons
         Band energy:***********;  BLOECHL correction:  0.000000
       DOS:  cpu time    0.0020: real time    0.0017
    CHARGE:  cpu time    0.2550: real time    0.2555
    MIXING:  cpu time    0.0060: real time    0.0054
    --------------------------------------------
      LOOP:  cpu time    6.1991: real time    6.2001

 eigenvalue-minimisations  :  2547
 total energy-change (2. order) :-0.2780827E-03  (-0.1338955E-04)
 number of electron     127.9999839 magnetization 
 augmentation part       13.6410929 magnetization 

 Broyden mixing:
  rms(total) = 0.43359E-03    rms(broyden)= 0.43343E-03
  rms(prec ) = 0.48222E-03
  weight for this iteration     100.00

 eigenvalues of (default mixing * dielectric matrix)
  average eigenvalue GAMMA=   1.9158
  8.5873  4.6171  2.8080  2.3447  2.3447  1.3558  1.1667  1.1667  0.9563  0.9563
  0.8496  0.8496  0.7859  0.6416  0.6416  0.5809

 Free energy of the ion-electron system (eV)
  ---------------------------------------------------
  alpha Z        PSCENC =       451.31605171
  Ewald energy   TEWEN  =     24913.70541863
  -Hartree energ DENC   =    -33784.19627526
  -exchange      EXHF   =         0.00000000
  -V(xc)+E(xc)   XCENC  =       342.95269939
  PAW double counting   =      6206.10202183    -6036.41371313
  entropy T*S    EENTRO =         0.00000000
  eigenvalues    EBANDS =     -1187.40825876
  atomic energy  EATOM  =      8937.26825017
  Solvation  Ediel_sol  =         0.00000000
  ---------------------------------------------------
  free energy    TOTEN  =      -156.67380542 eV

  energy without entropy =     -156.67380542  energy(sigma->0) =     -156.67380542


--------------------------------------------------------------------------------------------------------




--------------------------------------- Iteration      1(  22)  ---------------------------------------


    POTLOK:  cpu time    0.0780: real time    0.0831
    SETDIJ:  cpu time    0.0090: real time    0.0092
    EDDIAG:  cpu time    0.6749: real time    0.6748
WARNING in EDDRMM: call to ZHEGV failed, returncode =   6  3     16
WARNING in EDDRMM: call to ZHEGV failed, returncode =   6  3     19
  RMM-DIIS:  cpu time    4.1454: real time    4.1442
    ORTHCH:  cpu time    0.0970: real time    0.0974
 BZINTS: Fermi energy:  0.660231;128.000000 electrons
         Band energy:***********;  BLOECHL correction:  0.000000
       DOS:  cpu time    0.0020: real time    0.0017
    CHARGE:  cpu time    0.2550: real time    0.2552
    MIXING:  cpu time    0.0060: real time    0.0056
    --------------------------------------------
      LOOP:  cpu time    5.2672: real time    5.2709

 eigenvalue-minimisations  :  2064
 total energy-change (2. order) :-0.4434443E-04  (-0.4079994E-05)
 number of electron     127.9999839 magnetization 
 augmentation part       13.6412099 magnetization 

 Broyden mixing:
  rms(total) = 0.23998E-03    rms(broyden)= 0.23993E-03
  rms(prec ) = 0.27502E-03
  weight for this iteration     100.00

 eigenvalues of (default mixing * dielectric matrix)
  average eigenvalue GAMMA=   1.9047
  8.2902  5.2384  2.7509  2.7509  2.0247  1.4682  1.1995  1.1995  1.2194  0.9847
  0.9847  0.8238  0.8238  0.7573  0.6406  0.6406  0.5818

 Free energy of the ion-electron system (eV)
  ---------------------------------------------------
  alpha Z        PSCENC =       451.31605171
  Ewald energy   TEWEN  =     24913.70541863
  -Hartree energ DENC   =    -33784.19519510
  -exchange      EXHF   =         0.00000000
  -V(xc)+E(xc)   XCENC  =       342.95307379
  PAW double counting   =      6206.07411216    -6036.37903364
  entropy T*S    EENTRO =         0.00000000
  eigenvalues    EBANDS =     -1187.41652749
  atomic energy  EATOM  =      8937.26825017
  Solvation  Ediel_sol  =         0.00000000
  ---------------------------------------------------
  free energy    TOTEN  =      -156.67384977 eV

  energy without entropy =     -156.67384977  energy(sigma->0) =     -156.67384977


--------------------------------------------------------------------------------------------------------




--------------------------------------- Iteration      1(  23)  ---------------------------------------


    POTLOK:  cpu time    0.0770: real time    0.0823
    SETDIJ:  cpu time    0.0100: real time    0.0092
    EDDIAG:  cpu time    0.6769: real time    0.6767
  RMM-DIIS:  cpu time    3.7584: real time    3.7578
    ORTHCH:  cpu time    0.0960: real time    0.0969
 BZINTS: Fermi energy:  0.629567;128.000000 electrons
         Band energy:***********;  BLOECHL correction:  0.000000
       DOS:  cpu time    0.0020: real time    0.0019
    CHARGE:  cpu time    0.2570: real time    0.2566
    MIXING:  cpu time    0.0060: real time    0.0057
    --------------------------------------------
      LOOP:  cpu time    4.8833: real time    4.8871

 eigenvalue-minimisations  :  1842
 total energy-change (2. order) :-0.1495870E-04  (-0.1756078E-05)
 number of electron     127.9999839 magnetization 
 augmentation part       13.6412121 magnetization 

 Broyden mixing:
  rms(total) = 0.13121E-03    rms(broyden)= 0.13118E-03
  rms(prec ) = 0.15287E-03
  weight for this iteration     100.00

 eigenvalues of (default mixing * dielectric matrix)
  average eigenvalue GAMMA=   1.9219
  8.2203  5.4976  3.1044  2.6970  2.3950  1.5376  1.5376  1.1902  1.1902  1.0342
  1.0342  0.8805  0.8358  0.8358  0.7408  0.6406  0.6406  0.5822

 Free energy of the ion-electron system (eV)
  ---------------------------------------------------
  alpha Z        PSCENC =       451.31605171
  Ewald energy   TEWEN  =     24913.70541863
  -Hartree energ DENC   =    -33784.15886106
  -exchange      EXHF   =         0.00000000
  -V(xc)+E(xc)   XCENC  =       342.95258225
  PAW double counting   =      6206.02701097    -6036.32821039
  entropy T*S    EENTRO =         0.00000000
  eigenvalues    EBANDS =     -1187.45610701
  atomic energy  EATOM  =      8937.26825017
  Solvation  Ediel_sol  =         0.00000000
  ---------------------------------------------------
  free energy    TOTEN  =      -156.67386473 eV

  energy without entropy =     -156.67386473  energy(sigma->0) =     -156.67386473


--------------------------------------------------------------------------------------------------------




--------------------------------------- Iteration      1(  24)  ---------------------------------------


    POTLOK:  cpu time    0.0760: real time    0.0808
    SETDIJ:  cpu time    0.0110: real time    0.0093
    EDDIAG:  cpu time    0.6769: real time    0.6772
  RMM-DIIS:  cpu time    3.6204: real time    3.6200
    ORTHCH:  cpu time    0.0970: real time    0.0974
 BZINTS: Fermi energy:  0.635404;128.000000 electrons
         Band energy:***********;  BLOECHL correction:  0.000000
       DOS:  cpu time    0.0020: real time    0.0019
    CHARGE:  cpu time    0.2570: real time    0.2564
    MIXING:  cpu time    0.0060: real time    0.0060
    --------------------------------------------
      LOOP:  cpu time    4.7463: real time    4.7490

 eigenvalue-minimisations  :  1791
 total energy-change (2. order) :-0.1048429E-04  (-0.1368301E-05)
[...]
     43      -3.1896      2.00000
     44      -3.0631      2.00000
     45      -3.0290      2.00000
     46      -2.8901      2.00000
     47      -2.8589      2.00000
     48      -2.6626      2.00000
     49      -2.5885      2.00000
     50      -2.3559      2.00000
     51      -1.9708      2.00000
     52      -1.6280      2.00000
     53      -1.4367      2.00000
     54      -1.2725      2.00000
     55      -1.0653      2.00000
     56      -1.0114      2.00000
     57      -0.9218      2.00000
     58      -0.8947      2.00000
     59      -0.8441      2.00000
     60      -0.8221      2.00000
     61      -0.6900      2.00000
     62      -0.5087      2.00000
     63      -0.2190      2.00000
     64      -0.0468      2.00000
     65       2.5380      0.00000
     66       2.9027      0.00000
     67       3.2759      0.00000
     68       3.4680      0.00000
     69       3.5520      0.00000
     70       3.6133      0.00000
     71       3.6560      0.00000
     72       3.6877      0.00000
     73       3.7367      0.00000
     74       3.8062      0.00000
     75       3.9553      0.00000
     76       7.8285      0.00000

 k-point    13 :       0.3333    0.3333    0.0000
  band No.  band energies     occupation 
      1     -33.7553      2.00000
      2     -32.7658      2.00000
      3     -32.6755      2.00000
      4     -32.6303      2.00000
      5     -17.2994      2.00000
      6     -17.1088      2.00000
      7     -16.9301      2.00000
      8     -16.7268      2.00000
      9     -16.6837      2.00000
     10     -16.5982      2.00000
     11     -16.4860      2.00000
     12     -16.4257      2.00000
     13     -16.4107      2.00000
     14     -16.1846      2.00000
     15     -16.0613      2.00000
     16     -15.9058      2.00000
     17     -15.7895      2.00000
     18     -15.6550      2.00000
     19     -15.0943      2.00000
     20     -14.9085      2.00000
     21     -14.8484      2.00000
     22     -14.7971      2.00000
     23     -14.6648      2.00000
     24     -14.6586      2.00000
     25     -14.5553      2.00000
     26     -14.5519      2.00000
     27     -14.4711      2.00000
     28     -14.4464      2.00000
     29      -4.3714      2.00000
     30      -4.2978      2.00000
     31      -4.1761      2.00000
     32      -4.0861      2.00000
     33      -3.9209      2.00000
     34      -3.8825      2.00000
     35      -3.8690      2.00000
     36      -3.8084      2.00000
     37      -3.7269      2.00000
     38      -3.7249      2.00000
     39      -3.6321      2.00000
     40      -3.6277      2.00000
     41      -3.5522      2.00000
     42      -3.5050      2.00000
     43      -3.4715      2.00000
     44      -3.3886      2.00000
     45      -3.3071      2.00000
     46      -3.1174      2.00000
     47      -3.0049      2.00000
     48      -2.9188      2.00000
     49      -2.7719      2.00000
     50      -2.4403      2.00000
     51      -2.1959      2.00000
     52      -1.5458      2.00000
     53      -1.4677      2.00000
     54      -1.2903      2.00000
     55      -0.9882      2.00000
     56      -0.8971      2.00000
     57      -0.7110      2.00000
     58      -0.6625      2.00000
     59      -0.5726      2.00000
     60      -0.5425      2.00000
     61      -0.4931      2.00000
     62      -0.4497      2.00000
     63      -0.2903      2.00000
     64       0.2380      2.00000
     65       2.9663      0.00000
     66       3.1871      0.00000
     67       3.2892      0.00000
     68       3.3784      0.00000
     69       3.5226      0.00000
     70       3.5399      0.00000
     71       3.5922      0.00000
     72       3.6641      0.00000
     73       3.7773      0.00000
     74       3.8340      0.00000
     75       3.8574      0.00000
     76       7.7142      0.00000

 k-point    14 :       0.4444    0.3333    0.0000
  band No.  band energies     occupation 
      1     -33.7516      2.00000
      2     -32.7614      2.00000
      3     -32.6711      2.00000
      4     -32.6259      2.00000
      5     -17.2178      2.00000
      6     -17.0135      2.00000
      7     -16.8089      2.00000
      8     -16.6717      2.00000
      9     -16.6218      2.00000
     10     -16.6000      2.00000
     11     -16.4787      2.00000
     12     -16.4573      2.00000
     13     -16.3772      2.00000
     14     -16.0433      2.00000
     15     -15.9752      2.00000
     16     -15.9065      2.00000
     17     -15.8853      2.00000
     18     -15.6292      2.00000
     19     -15.1962      2.00000
     20     -14.9464      2.00000
     21     -14.9071      2.00000
     22     -14.8151      2.00000
     23     -14.7290      2.00000
     24     -14.6500      2.00000
     25     -14.5978      2.00000
     26     -14.5306      2.00000
     27     -14.5241      2.00000
     28     -14.4449      2.00000
     29      -4.5346      2.00000
     30      -4.4356      2.00000
     31      -4.3370      2.00000
     32      -4.2753      2.00000
     33      -4.1781      2.00000
     34      -4.1005      2.00000
     35      -4.0354      2.00000
     36      -3.9726      2.00000
     37      -3.9363      2.00000
     38      -3.8685      2.00000
     39      -3.8041      2.00000
     40      -3.7599      2.00000
     41      -3.6628      2.00000
     42      -3.5638      2.00000
     43      -3.5107      2.00000
     44      -3.4623      2.00000
     45      -3.3068      2.00000
     46      -3.2279      2.00000
     47      -3.1599      2.00000
     48      -3.0311      2.00000
     49      -2.7311      2.00000
     50      -2.6156      2.00000
     51      -2.2535      2.00000
     52      -1.4959      2.00000
     53      -1.3969      2.00000
     54      -1.3397      2.00000
     55      -0.9817      2.00000
     56      -0.9244      2.00000
     57      -0.6491      2.00000
     58      -0.5545      2.00000
     59      -0.4649      2.00000
     60      -0.4314      2.00000
     61      -0.3885      2.00000
     62      -0.3511      2.00000
     63      -0.1878      2.00000
     64       0.3772      2.00000
     65       3.0724      0.00000
     66       3.3606      0.00000
     67       3.4731      0.00000
     68       3.6305      0.00000
     69       3.7127      0.00000
     70       3.7557      0.00000
     71       3.8209      0.00000
     72       3.8872      0.00000
     73       3.9698      0.00000
     74       4.0474      0.00000
     75       7.4886      0.00000
     76       7.7754      0.00000

 k-point    15 :       0.4444    0.4444    0.0000
  band No.  band energies     occupation 
      1     -33.7479      2.00000
      2     -32.7572      2.00000
      3     -32.6669      2.00000
      4     -32.6216      2.00000
      5     -17.0016      2.00000
      6     -16.8054      2.00000
      7     -16.7246      2.00000
      8     -16.6593      2.00000
      9     -16.6306      2.00000
     10     -16.6017      2.00000
     11     -16.4370      2.00000
     12     -16.4192      2.00000
     13     -16.3851      2.00000
     14     -15.9969      2.00000
     15     -15.9080      2.00000
     16     -15.8889      2.00000
     17     -15.7890      2.00000
     18     -15.6517      2.00000
     19     -15.4388      2.00000
     20     -14.9984      2.00000
     21     -14.9291      2.00000
     22     -14.9278      2.00000
     23     -14.7903      2.00000
     24     -14.7123      2.00000
     25     -14.6245      2.00000
     26     -14.5894      2.00000
     27     -14.4835      2.00000
     28     -14.4708      2.00000
     29      -4.6385      2.00000
     30      -4.5555      2.00000
     31      -4.5146      2.00000
     32      -4.4316      2.00000
     33      -4.3051      2.00000
     34      -4.2734      2.00000
     35      -4.1908      2.00000
     36      -4.1804      2.00000
     37      -4.1063      2.00000
     38      -4.0561      2.00000
     39      -3.9353      2.00000
     40      -3.8839      2.00000
     41      -3.7824      2.00000
     42      -3.7432      2.00000
     43      -3.5185      2.00000
     44      -3.4847      2.00000
     45      -3.4526      2.00000
     46      -3.4249      2.00000
     47      -3.1508      2.00000
     48      -3.1312      2.00000
     49      -2.7423      2.00000
     50      -2.6799      2.00000
     51      -2.4341      2.00000
     52      -1.4016      2.00000
     53      -1.3556      2.00000
     54      -1.3309      2.00000
     55      -0.9311      2.00000
     56      -0.9013      2.00000
     57      -0.5230      2.00000
     58      -0.4949      2.00000
     59      -0.2560      2.00000
     60      -0.2211      2.00000
     61      -0.2005      2.00000
     62      -0.1500      2.00000
     63      -0.1227      2.00000
     64       0.5893      2.00000
     65       3.4622      0.00000
     66       3.5081      0.00000
     67       3.6959      0.00000
     68       3.7377      0.00000
     69       3.9109      0.00000
     70       3.9780      0.00000
     71       4.0452      0.00000
     72       4.0696      0.00000
     73       4.1115      0.00000
     74       7.1770      0.00000
     75       7.2520      0.00000
     76       7.3247      0.00000


--------------------------------------------------------------------------------------------------------


 soft charge-density along one line, spin component           1
         0         1         2         3         4         5         6         7         8         9
 total charge-density along one line
 
 pseudopotential strength for first ion, spin component:           1
 12.657  -0.342  -0.000  -0.022   0.000   0.000   0.001  -0.000
 -0.342   0.083   0.000   0.002  -0.000  -0.000  -0.000   0.000
 -0.000   0.000  -8.947   0.000  -0.000  -0.092  -0.000   0.000
 -0.022   0.002   0.000  -8.968   0.000  -0.000  -0.089  -0.000
  0.000  -0.000  -0.000   0.000  -8.947   0.000  -0.000  -0.092
  0.000  -0.000  -0.092  -0.000   0.000   0.247   0.000  -0.000
  0.001  -0.000  -0.000  -0.089  -0.000   0.000   0.246   0.000
 -0.000   0.000   0.000  -0.000  -0.092  -0.000   0.000   0.247
 total augmentation occupancy for first ion, spin component:           1
  1.865   0.125   0.000  -0.006   0.000   0.000   0.013   0.000
  0.125   0.012   0.000   0.026  -0.000   0.000   0.005  -0.000
  0.000   0.000   1.520  -0.000   0.000   0.123   0.000   0.000
 -0.006   0.026  -0.000   1.520   0.000   0.000   0.133   0.000
  0.000  -0.000   0.000   0.000   1.520   0.000   0.000   0.123
  0.000   0.000   0.123   0.000   0.000   0.011  -0.000   0.000
  0.013   0.005   0.000   0.133   0.000  -0.000   0.013   0.000
 -0.000  -0.000   0.000   0.000   0.123   0.000   0.000   0.011


------------------------ aborting loop because EDIFF is reached ----------------------------------------


    CHARGE:  cpu time    0.2580: real time    0.2585
    FORLOC:  cpu time    0.0210: real time    0.0205
    FORNL :  cpu time    3.0175: real time    3.0170
    STRESS:  cpu time    4.8063: real time    4.8051
    FORCOR:  cpu time    0.0860: real time    0.0861
    FORHAR:  cpu time    0.0320: real time    0.0321
    MIXING:  cpu time    0.0060: real time    0.0062
    OFIELD:  cpu time    0.0000: real time    0.0000

  FORCE on cell =-STRESS in cart. coord.  units (eV):
  Direction    XX          YY          ZZ          XY          YZ          ZX
  --------------------------------------------------------------------------------------
  Alpha Z   451.31605   451.31605   451.31605
  Ewald   30025.31756 30025.31756-35136.94585     0.00000     0.00000     0.00000
  Hartree 32581.93377 32581.93377-31379.69296    -0.00000    -0.00000    -0.00000
  E(xc)    -579.82632  -579.82632  -579.32383     0.00000     0.00000     0.00000
  Local  -64348.66246-64348.66246 64783.29608    -0.00000    -0.00000    -0.00000
  n-local  -488.63545  -465.24940  -479.20225    -1.75999    -0.00004     0.00007
  augment   115.93468   115.93468   114.94083    -0.00000     0.00000     0.00000
  Kinetic  2210.82479  2257.16690  2229.85500    -9.78501     0.00002    -0.00006
  Fock        0.00000     0.00000     0.00000     0.00000     0.00000     0.00000
  -------------------------------------------------------------------------------------
  Total       3.06670     3.06670     4.24308     0.00000     0.00000     0.00000
  in kB      12.55107    12.55107    17.36563     0.00000     0.00000     0.00000
  external pressure =       14.16 kB  Pullay stress =        0.00 kB


 VOLUME and BASIS-vectors are now :
 -----------------------------------------------------------------------------
  energy-cutoff  :      500.00
  volume of cell :      391.47
      direct lattice vectors                 reciprocal lattice vectors
     3.905268000  0.000000000  0.000000000     0.256064373  0.000000000  0.000000000
     0.000000000  3.905268000  0.000000000     0.000000000  0.256064373  0.000000000
     0.000000000  0.000000000 25.668438000     0.000000000  0.000000000  0.038958350

  length of vectors
     3.905268000  3.905268000 25.668438000     0.256064373  0.256064373  0.038958350


 FORCES acting on ions
    electron-ion (+dipol)            ewald-force                    non-local-force                 convergence-correction
 -----------------------------------------------------------------------------------------------
   0.171E-12 -.197E-12 0.157E+04   -.276E-14 0.267E-14 -.158E+04   0.424E-21 0.000E+00 0.790E+01   0.186E-13 0.111E-13 0.478E-03
   0.155E-12 0.428E-13 0.112E+04   -.723E-14 -.374E-14 -.111E+04   0.424E-21 0.000E+00 -.244E+00   0.918E-14 -.413E-14 -.529E-03
   -.631E-14 0.382E-12 0.112E+04   0.548E-14 -.847E-14 -.111E+04   -.212E-21 0.000E+00 -.244E+00   -.948E-14 0.170E-13 -.529E-03
   0.158E-12 -.355E-13 0.669E+03   -.956E-14 -.300E-14 -.669E+03   -.424E-21 0.000E+00 0.675E+00   -.132E-13 -.159E-13 -.601E-03
   0.164E-12 0.127E-13 0.223E+03   -.458E-14 -.321E-14 -.223E+03   0.000E+00 -.106E-21 0.210E+00   0.290E-13 -.573E-14 -.308E-03
   -.995E-14 -.400E-13 0.223E+03   0.843E-14 -.119E-13 -.223E+03   0.000E+00 0.847E-21 0.210E+00   0.213E-14 0.739E-14 -.308E-03
   0.158E-12 -.535E-12 -.223E+03   0.148E-14 0.548E-14 0.223E+03   0.000E+00 0.000E+00 0.548E+00   -.124E-13 0.264E-14 0.309E-03
   0.142E-12 0.129E-12 -.669E+03   -.364E-14 -.423E-14 0.669E+03   -.106E-21 0.000E+00 0.407E-01   0.142E-13 0.105E-13 0.153E-03
   -.358E-14 0.546E-13 -.669E+03   0.918E-14 -.129E-13 0.669E+03   0.000E+00 0.000E+00 0.407E-01   -.318E-14 0.169E-13 0.153E-03
   0.153E-12 -.135E-12 -.112E+04   -.275E-14 -.659E-17 0.111E+04   0.000E+00 0.000E+00 0.272E+01   -.643E-14 0.487E-14 0.279E-03
   0.166E-12 -.197E-12 -.154E+04   -.662E-14 -.619E-14 0.154E+04   0.106E-21 -.424E-21 -.220E+01   -.441E-14 -.925E-14 0.192E-02
   -.175E-13 0.801E-13 -.154E+04   0.656E-14 -.517E-14 0.154E+04   0.000E+00 0.000E+00 -.220E+01   -.258E-13 -.980E-14 0.192E-02
   -.223E-14 -.640E-12 0.255E+04   0.718E-14 0.728E-15 -.255E+04   0.000E+00 0.212E-21 -.499E+01   0.104E-13 0.208E-13 0.627E-04
   -.818E-14 0.459E-13 0.111E+04   0.107E-13 0.217E-14 -.111E+04   -.424E-21 0.000E+00 0.181E-01   -.177E-13 -.767E-14 -.100E-02
   -.256E-14 -.175E-12 -.372E+03   0.231E-14 0.116E-13 0.372E+03   0.000E+00 0.000E+00 0.105E+00   -.284E-13 0.969E-14 0.156E-03
   -.119E-14 0.236E-12 -.186E+04   0.115E-13 0.210E-14 0.186E+04   0.000E+00 0.000E+00 -.810E+00   -.187E-13 -.139E-14 0.250E-02
   -.244E-14 -.165E-12 0.743E+03   -.881E-14 0.112E-13 -.744E+03   0.847E-21 0.000E+00 -.381E+00   0.414E-14 0.439E-15 -.447E-03
   0.242E-14 -.411E-13 0.148E+03   -.903E-14 0.795E-14 -.149E+03   0.000E+00 0.000E+00 -.856E-01   0.210E-15 0.264E-14 -.203E-03
   0.928E-14 -.214E-12 -.446E+03   -.935E-14 0.112E-13 0.446E+03   0.000E+00 0.761E-22 -.123E-01   -.223E-14 -.437E-14 0.812E-04
   0.562E-14 -.308E-12 -.105E+04   -.597E-14 0.907E-14 0.104E+04   0.000E+00 0.000E+00 0.144E+01   0.451E-14 0.698E-14 0.142E-02
 -----------------------------------------------------------------------------------------------
   0.123E-11 -.170E-11 -.276E+01   -.747E-14 0.527E-14 0.909E-12   0.635E-21 0.605E-21 0.275E+01   -.497E-13 0.528E-13 0.551E-02
 
 
 POSITION                                       TOTAL-FORCE (eV/Angst)
 -----------------------------------------------------------------------------------
      1.95263      1.95263      6.00000         0.000000      0.000000     -1.075623
      1.95263      0.00000      7.95263        -0.000000      0.000000     -0.003501
      0.00000      1.95263      7.95263        -0.000000      0.000000     -0.003501
      1.95263      1.95263      9.90527         0.000000      0.000000      0.379906
      1.95263      0.00000     11.85790        -0.000000      0.000000      0.067989
      0.00000      1.95263     11.85790        -0.000000      0.000000      0.067989
      1.95263      1.95263     13.81054        -0.000000     -0.000000      0.305008
      1.95263      0.00000     15.76317        -0.000000      0.000000      0.020409
      0.00000      1.95263     15.76317        -0.000000      0.000000      0.020409
      1.95263      1.95263     17.71580         0.000000      0.000000      1.064031
      1.95263      0.00000     19.66844        -0.000000     -0.000000      0.455905
      0.00000      1.95263     19.66844        -0.000000      0.000000      0.455905
      0.00000      0.00000      6.00000        -0.000000     -0.000000      1.189194
      0.00000      0.00000      9.90527        -0.000000      0.000000     -0.006668
      0.00000      0.00000     13.81054        -0.000000     -0.000000     -0.058467
      0.00000      0.00000     17.71580        -0.000000      0.000000      0.662063
      1.95263      1.95263      7.95263        -0.000000     -0.000000     -1.025781
      1.95263      1.95263     11.85790        -0.000000     -0.000000     -0.309911
      1.95263      1.95263     15.76317        -0.000000     -0.000000     -0.367743
      1.95263      1.95263     19.66844        -0.000000     -0.000000     -1.837613
 -----------------------------------------------------------------------------------
    total drift:                                0.000000     -0.000000      0.000698


--------------------------------------------------------------------------------------------------------



  FREE ENERGIE OF THE ION-ELECTRON SYSTEM (eV)
  ---------------------------------------------------
  free  energy   TOTEN  =      -156.67387886 eV

  energy  without entropy=     -156.67387886  energy(sigma->0) =     -156.67387886
 


--------------------------------------------------------------------------------------------------------


    POTLOK:  cpu time    0.0860: real time    0.0860


--------------------------------------------------------------------------------------------------------


     LOOP+:  cpu time  218.9607: real time  219.1226
    4ORBIT:  cpu time    0.0000: real time    0.0000
 BZINTS: Fermi energy:  0.640328;128.000000 electrons
         Band energy:***********;  BLOECHL correction:  0.000000

 total amount of memory used by VASP MPI-rank0   129169. kBytes
=======================================================================

   base      :      30000. kBytes
   nonl-proj :      33877. kBytes
   fftplans  :       6668. kBytes
   grid      :      11994. kBytes
   one-center:        155. kBytes
   wavefun   :      46475. kBytes
 
  
  
 General timing and accounting informations for this job:
 ========================================================
  
                  Total CPU time used (sec):      221.285
                            User time (sec):      218.003
                          System time (sec):        3.282
                         Elapsed time (sec):      222.173
  
                   Maximum memory used (kb):      132820.
                   Average memory used (kb):           0.
  
                          Minor page faults:        41354
                          Major page faults:          180
                 Voluntary context switches:         3508
