<?xml version="1.0" encoding="ISO-8859-1"?>
<modeling>
 <generator>
  <i name="program" type="string">vasp </i>
  <i name="version" type="string">5.4.4.18Apr17-6-g9f103f2a35  </i>
  <i name="subversion" type="string">(build Jun 30 2017 11:15:00) complex            parallel </i>
  <i name="platform" type="string">STALLO_VASP_5.4.4 </i>
  <i name="date" type="string">2019 11 06 </i>
  <i name="time" type="string">14:33:24 </i>
 </generator>
 <incar>
  <i type="string" name="PREC">normal    ! low/normal/accurate</i>
  <i type="string" name="ALGO"> Fast      ! Algorithm for electronic re</i>
  <i type="int" name="ISPIN">     1</i>
  <i type="int" name="NELMIN">     4</i>
  <i name="EDIFF">      0.00001000</i>
  <i type="int" name="NSW">     0</i>
  <i name="ENCUT">    500.00000000</i>
  <i type="logical" name="LREAL"> F  </i>
  <i type="int" name="ISMEAR">    -5</i>
  <i name="SIGMA">      0.20000000</i>
  <i type="logical" name="LWAVE"> F  </i>
  <v type="int" name="KPOINT_BSE">    -1     0     0     0</v>
 </incar>
 <structure name="primitive_cell" >
  <crystal>
   <varray name="basis" >
    <v>       3.90526800       0.00000000       0.00000000 </v>
    <v>       0.00000000       3.90526800       0.00000000 </v>
    <v>       0.00000000       0.00000000      25.66843800 </v>
   </varray>
   <i name="volume">    391.47238071 </i>
   <varray name="rec_basis" >
    <v>       0.25606437       0.00000000       0.00000000 </v>
    <v>       0.00000000       0.25606437       0.00000000 </v>
    <v>       0.00000000       0.00000000       0.03895835 </v>
   </varray>
  </crystal>
  <varray name="positions" >
   <v>      -0.50000000      -0.50000000       0.23375010 </v>
   <v>      -0.50000000      -0.50000000       0.30982150 </v>
   <v>      -0.50000000       0.00000000       0.30982150 </v>
   <v>       0.00000000      -0.50000000       0.30982150 </v>
   <v>       0.00000000       0.00000000       0.23375010 </v>
   <v>      -0.50000000      -0.50000000       0.38589290 </v>
   <v>       0.00000000       0.00000000       0.38589290 </v>
   <v>      -0.50000000      -0.50000000       0.46196430 </v>
   <v>      -0.50000000       0.00000000       0.46196430 </v>
   <v>       0.00000000      -0.50000000       0.46196430 </v>
   <v>      -0.50000000      -0.50000000      -0.46196430 </v>
   <v>       0.00000000       0.00000000      -0.46196430 </v>
   <v>      -0.50000000      -0.50000000      -0.38589290 </v>
   <v>      -0.50000000       0.00000000      -0.38589290 </v>
   <v>       0.00000000      -0.50000000      -0.38589290 </v>
   <v>      -0.50000000      -0.50000000      -0.30982150 </v>
   <v>      -0.50000000      -0.50000000      -0.23375010 </v>
   <v>       0.00000000       0.00000000      -0.30982150 </v>
   <v>      -0.50000000       0.00000000      -0.23375010 </v>
   <v>       0.00000000      -0.50000000      -0.23375010 </v>
  </varray>
 </structure>
 <varray name="primitive_index" >
  <v type="int" >        1 </v>
  <v type="int" >       17 </v>
  <v type="int" >        2 </v>
  <v type="int" >        3 </v>
  <v type="int" >       13 </v>
  <v type="int" >        4 </v>
  <v type="int" >       14 </v>
  <v type="int" >       18 </v>
  <v type="int" >        5 </v>
  <v type="int" >        6 </v>
  <v type="int" >        7 </v>
  <v type="int" >       15 </v>
  <v type="int" >       19 </v>
  <v type="int" >        8 </v>
  <v type="int" >        9 </v>
  <v type="int" >       10 </v>
  <v type="int" >       20 </v>
  <v type="int" >       16 </v>
  <v type="int" >       11 </v>
  <v type="int" >       12 </v>
 </varray>
 <kpoints>
  <generation param="Gamma">
   <v type="int" name="divisions">       9        9        1 </v>
   <v name="usershift">      0.00000000       0.00000000       0.00000000 </v>
   <v name="genvec1">      0.11111111       0.00000000       0.00000000 </v>
   <v name="genvec2">      0.00000000       0.11111111       0.00000000 </v>
   <v name="genvec3">      0.00000000       0.00000000       1.00000000 </v>
   <v name="shift">      0.00000000       0.00000000       0.00000000 </v>
  </generation>
  <varray name="kpointlist" >
   <v>       0.00000000       0.00000000       0.00000000 </v>
   <v>       0.11111111       0.00000000       0.00000000 </v>
   <v>       0.22222222       0.00000000       0.00000000 </v>
   <v>       0.33333333       0.00000000       0.00000000 </v>
   <v>       0.44444444       0.00000000       0.00000000 </v>
   <v>       0.11111111       0.11111111       0.00000000 </v>
   <v>       0.22222222       0.11111111       0.00000000 </v>
   <v>       0.33333333       0.11111111       0.00000000 </v>
   <v>       0.44444444       0.11111111       0.00000000 </v>
   <v>       0.22222222       0.22222222       0.00000000 </v>
   <v>       0.33333333       0.22222222       0.00000000 </v>
   <v>       0.44444444       0.22222222       0.00000000 </v>
   <v>       0.33333333       0.33333333       0.00000000 </v>
   <v>       0.44444444       0.33333333       0.00000000 </v>
   <v>       0.44444444       0.44444444       0.00000000 </v>
  </varray>
  <varray name="weights" >
   <v>       0.01234568 </v>
   <v>       0.04938272 </v>
   <v>       0.04938272 </v>
   <v>       0.04938272 </v>
   <v>       0.04938272 </v>
   <v>       0.04938272 </v>
   <v>       0.09876543 </v>
   <v>       0.09876543 </v>
   <v>       0.09876543 </v>
   <v>       0.04938272 </v>
   <v>       0.09876543 </v>
   <v>       0.09876543 </v>
   <v>       0.04938272 </v>
   <v>       0.09876543 </v>
   <v>       0.04938272 </v>
  </varray>
  <varray name="tetrahedronlist"  type="int" >
   <v type="int" >        4        1        1        2        6 </v>
   <v type="int" >        4        1        2        2        6 </v>
   <v type="int" >        4        1        2        6        6 </v>
   <v type="int" >        4        2        2        3        7 </v>
   <v type="int" >        4        2        2        6        7 </v>
   <v type="int" >        4        2        6        6        7 </v>
   <v type="int" >        4        2        3        3        7 </v>
   <v type="int" >        4        2        3        7        7 </v>
   <v type="int" >        4        2        6        7        7 </v>
   <v type="int" >        4        3        3        4        8 </v>
   <v type="int" >        4        3        3        7        8 </v>
   <v type="int" >        4        3        7        7        8 </v>
   <v type="int" >        4        3        4        4        8 </v>
   <v type="int" >        4        3        4        8        8 </v>
   <v type="int" >        4        3        7        8        8 </v>
   <v type="int" >        4        4        4        5        9 </v>
   <v type="int" >        4        4        4        8        9 </v>
   <v type="int" >        4        4        8        8        9 </v>
   <v type="int" >        4        4        5        5        9 </v>
   <v type="int" >        4        4        5        9        9 </v>
   <v type="int" >        4        4        8        9        9 </v>
   <v type="int" >        8        5        5        5        9 </v>
   <v type="int" >        8        5        5        9        9 </v>
   <v type="int" >        8        5        9        9        9 </v>
   <v type="int" >        4        4        5        5        8 </v>
   <v type="int" >        4        5        5        8        9 </v>
   <v type="int" >        4        5        8        9        9 </v>
   <v type="int" >        4        4        4        5        8 </v>
   <v type="int" >        4        4        5        8        8 </v>
   <v type="int" >        4        5        8        8        9 </v>
   <v type="int" >        4        3        4        4        7 </v>
   <v type="int" >        4        4        4        7        8 </v>
   <v type="int" >        4        4        7        8        8 </v>
   <v type="int" >        4        3        3        4        7 </v>
   <v type="int" >        4        3        4        7        7 </v>
   <v type="int" >        4        4        7        7        8 </v>
   <v type="int" >        4        2        3        3        6 </v>
   <v type="int" >        4        3        3        6        7 </v>
   <v type="int" >        4        3        6        7        7 </v>
   <v type="int" >        4        2        2        3        6 </v>
   <v type="int" >        4        2        3        6        6 </v>
   <v type="int" >        4        3        6        6        7 </v>
   <v type="int" >        4        1        2        2        2 </v>
   <v type="int" >        4        2        2        2        6 </v>
   <v type="int" >        2        2        2        6        6 </v>
   <v type="int" >        2        1        1        2        2 </v>
   <v type="int" >        4        6        6        7       10 </v>
   <v type="int" >        4        6        7        7       10 </v>
   <v type="int" >        4        6        7       10       10 </v>
   <v type="int" >        4        7        7        8       11 </v>
   <v type="int" >        4        7        7       10       11 </v>
   <v type="int" >        4        7       10       10       11 </v>
   <v type="int" >        4        7        8        8       11 </v>
   <v type="int" >        4        7        8       11       11 </v>
   <v type="int" >        4        7       10       11       11 </v>
   <v type="int" >        4        8        8        9       12 </v>
   <v type="int" >        4        8        8       11       12 </v>
   <v type="int" >        4        8       11       11       12 </v>
   <v type="int" >        4        8        9        9       12 </v>
   <v type="int" >        4        8        9       12       12 </v>
   <v type="int" >        4        8       11       12       12 </v>
   <v type="int" >        8        9        9        9       12 </v>
   <v type="int" >        8        9        9       12       12 </v>
   <v type="int" >        8        9       12       12       12 </v>
   <v type="int" >        4        8        9        9       11 </v>
   <v type="int" >        4        9        9       11       12 </v>
   <v type="int" >        4        9       11       12       12 </v>
   <v type="int" >        4        8        8        9       11 </v>
   <v type="int" >        4        8        9       11       11 </v>
   <v type="int" >        4        9       11       11       12 </v>
   <v type="int" >        4        7        8        8       10 </v>
   <v type="int" >        4        8        8       10       11 </v>
   <v type="int" >        4        8       10       11       11 </v>
   <v type="int" >        4        7        7        8       10 </v>
   <v type="int" >        4        7        8       10       10 </v>
   <v type="int" >        4        8       10       10       11 </v>
   <v type="int" >        4        6        7        7        7 </v>
   <v type="int" >        4        7        7        7       10 </v>
   <v type="int" >        2        7        7       10       10 </v>
   <v type="int" >        2        6        6        7        7 </v>
   <v type="int" >        4       10       10       11       13 </v>
   <v type="int" >        4       10       11       11       13 </v>
   <v type="int" >        4       10       11       13       13 </v>
   <v type="int" >        4       11       11       12       14 </v>
   <v type="int" >        4       11       11       13       14 </v>
   <v type="int" >        4       11       13       13       14 </v>
   <v type="int" >        4       11       12       12       14 </v>
   <v type="int" >        4       11       12       14       14 </v>
   <v type="int" >        4       11       13       14       14 </v>
   <v type="int" >        8       12       12       12       14 </v>
   <v type="int" >        8       12       12       14       14 </v>
   <v type="int" >        8       12       14       14       14 </v>
   <v type="int" >        4       11       12       12       13 </v>
   <v type="int" >        4       12       12       13       14 </v>
   <v type="int" >        4       12       13       14       14 </v>
   <v type="int" >        4       11       11       12       13 </v>
   <v type="int" >        4       11       12       13       13 </v>
   <v type="int" >        4       12       13       13       14 </v>
   <v type="int" >        4       10       11       11       11 </v>
   <v type="int" >        4       11       11       11       13 </v>
   <v type="int" >        2       11       11       13       13 </v>
   <v type="int" >        2       10       10       11       11 </v>
   <v type="int" >        4       13       13       14       15 </v>
   <v type="int" >        4       13       14       14       15 </v>
   <v type="int" >        4       13       14       15       15 </v>
   <v type="int" >       12       14       14       14       15 </v>
   <v type="int" >       10       14       14       15       15 </v>
   <v type="int" >        8       14       15       15       15 </v>
   <v type="int" >        4       13       14       14       14 </v>
   <v type="int" >        2       13       13       14       14 </v>
   <v type="int" >        6       15       15       15       15 </v>
  </varray>
  <i name="volumeweight">      0.00205761 </i>
 </kpoints>
 <parameters>
  <separator name="general" >
   <i type="string" name="SYSTEM">unknown system</i>
   <i type="logical" name="LCOMPAT"> F  </i>
  </separator>
  <separator name="electronic" >
   <i type="string" name="PREC">normal</i>
   <i name="ENMAX">    500.00000000</i>
   <i name="ENAUG">    605.39200000</i>
   <i name="EDIFF">      0.00001000</i>
   <i type="int" name="IALGO">    68</i>
   <i type="int" name="IWAVPR">    10</i>
   <i type="int" name="NBANDS">    76</i>
   <i name="NELECT">    128.00000000</i>
   <i type="int" name="TURBO">     0</i>
   <i type="int" name="IRESTART">     0</i>
   <i type="int" name="NREBOOT">     0</i>
   <i type="int" name="NMIN">     0</i>
   <i name="EREF">      0.00000000</i>
   <separator name="electronic smearing" >
    <i type="int" name="ISMEAR">    -5</i>
    <i name="SIGMA">      0.20000000</i>
    <i name="KSPACING">      0.50000000</i>
    <i type="logical" name="KGAMMA"> T  </i>
   </separator>
   <separator name="electronic projectors" >
    <i type="logical" name="LREAL"> F  </i>
    <v name="ROPT">      0.00000000      0.00000000      0.00000000</v>
    <i type="int" name="LMAXPAW">  -100</i>
    <i type="int" name="LMAXMIX">     2</i>
    <i type="logical" name="NLSPLINE"> F  </i>
   </separator>
   <separator name="electronic startup" >
    <i type="int" name="ISTART">     0</i>
    <i type="int" name="ICHARG">     2</i>
    <i type="int" name="INIWAV">     1</i>
   </separator>
   <separator name="electronic spin" >
    <i type="int" name="ISPIN">     1</i>
    <i type="logical" name="LNONCOLLINEAR"> F  </i>
    <v name="MAGMOM">      1.00000000      1.00000000      1.00000000      1.00000000      1.00000000      1.00000000      1.00000000      1.00000000      1.00000000      1.00000000      1.00000000      1.00000000      1.00000000      1.00000000      1.00000000      1.00000000      1.00000000      1.00000000      1.00000000      1.00000000
</v>
    <i name="NUPDOWN">     -1.00000000</i>
    <i type="logical" name="LSORBIT"> F  </i>
    <v name="SAXIS">      0.00000000      0.00000000      1.00000000</v>
    <i type="logical" name="LSPIRAL"> F  </i>
    <v name="QSPIRAL">      0.00000000      0.00000000      0.00000000</v>
    <i type="logical" name="LZEROZ"> F  </i>
   </separator>
   <separator name="electronic exchange-correlation" >
    <i type="logical" name="LASPH"> F  </i>
    <i type="logical" name="LMETAGGA"> F  </i>
   </separator>
   <separator name="electronic convergence" >
    <i type="int" name="NELM">    60</i>
    <i type="int" name="NELMDL">    -5</i>
    <i type="int" name="NELMIN">     4</i>
    <i name="ENINI">    500.00000000</i>
    <separator name="electronic convergence detail" >
     <i type="logical" name="LDIAG"> T  </i>
     <i type="logical" name="LSUBROT"> F  </i>
     <i name="WEIMIN">      0.00000000</i>
     <i name="EBREAK">      0.00000003</i>
     <i name="DEPER">      0.30000000</i>
     <i type="int" name="NRMM">     4</i>
     <i name="TIME">      0.40000000</i>
    </separator>
   </separator>
   <separator name="electronic mixer" >
    <i name="AMIX">      0.40000000</i>
    <i name="BMIX">      1.00000000</i>
    <i name="AMIN">      0.10000000</i>
    <i name="AMIX_MAG">      1.60000000</i>
    <i name="BMIX_MAG">      1.00000000</i>
    <separator name="electronic mixer details" >
     <i type="int" name="IMIX">     4</i>
     <i type="logical" name="MIXFIRST"> F  </i>
     <i type="int" name="MAXMIX">   -45</i>
     <i name="WC">    100.00000000</i>
     <i type="int" name="INIMIX">     1</i>
     <i type="int" name="MIXPRE">     1</i>
     <i type="int" name="MREMOVE">     5</i>
    </separator>
   </separator>
   <separator name="electronic dipolcorrection" >
    <i type="logical" name="LDIPOL"> F  </i>
    <i type="logical" name="LMONO"> F  </i>
    <i type="int" name="IDIPOL">     0</i>
    <i name="EPSILON">      1.00000000</i>
    <v name="DIPOL">   -100.00000000   -100.00000000   -100.00000000</v>
    <i name="EFIELD">      0.00000000</i>
   </separator>
  </separator>
  <separator name="grids" >
   <i type="int" name="NGX">    24</i>
   <i type="int" name="NGY">    24</i>
   <i type="int" name="NGZ">   140</i>
   <i type="int" name="NGXF">    48</i>
   <i type="int" name="NGYF">    48</i>
   <i type="int" name="NGZF">   280</i>
   <i type="logical" name="ADDGRID"> F  </i>
  </separator>
  <separator name="ionic" >
   <i type="int" name="NSW">     0</i>
   <i type="int" name="IBRION">    -1</i>
   <i type="int" name="MDALGO">     0</i>
   <i type="int" name="ISIF">     2</i>
   <i name="PSTRESS">      0.00000000</i>
   <i name="EDIFFG">      0.00010000</i>
   <i type="int" name="NFREE">     0</i>
   <i name="POTIM">      0.50000000</i>
   <i name="SMASS">     -3.00000000</i>
   <i name="SCALEE">      1.00000000</i>
  </separator>
  <separator name="ionic md" >
   <i name="TEBEG">      0.00010000</i>
   <i name="TEEND">      0.00010000</i>
   <i type="int" name="NBLOCK">     1</i>
   <i type="int" name="KBLOCK">     1</i>
   <i type="int" name="NPACO">   256</i>
   <i name="APACO">     16.00000000</i>
  </separator>
  <separator name="symmetry" >
   <i type="int" name="ISYM">     2</i>
   <i name="SYMPREC">      0.00001000</i>
  </separator>
  <separator name="dos" >
   <i type="int" name="LORBIT">     0</i>
   <v name="RWIGS">     -1.00000000     -1.00000000     -1.00000000</v>
   <i type="int" name="NEDOS">   301</i>
   <i name="EMIN">     10.00000000</i>
   <i name="EMAX">    -10.00000000</i>
   <i name="EFERMI">      0.00000000</i>
  </separator>
  <separator name="writing" >
   <i type="int" name="NWRITE">     2</i>
   <i type="logical" name="LWAVE"> F  </i>
   <i type="logical" name="LDOWNSAMPLE"> F  </i>
   <i type="logical" name="LCHARG"> T  </i>
   <i type="logical" name="LPARD"> F  </i>
   <i type="logical" name="LVTOT"> F  </i>
   <i type="logical" name="LVHAR"> F  </i>
   <i type="logical" name="LELF"> F  </i>
   <i type="logical" name="LOPTICS"> F  </i>
   <v name="STM">      0.00000000      0.00000000      0.00000000      0.00000000      0.00000000      0.00000000      0.00000000</v>
  </separator>
  <separator name="performance" >
   <i type="int" name="NPAR">     2</i>
   <i type="int" name="NSIM">     4</i>
   <i type="int" name="NBLK">    -1</i>
   <i type="logical" name="LPLANE"> T  </i>
   <i type="logical" name="LSCALAPACK"> T  </i>
   <i type="logical" name="LSCAAWARE"> F  </i>
   <i type="logical" name="LSCALU"> F  </i>
   <i type="logical" name="LASYNC"> F  </i>
   <i type="logical" name="LORBITALREAL"> F  </i>
  </separator>
  <separator name="miscellaneous" >
   <i type="int" name="IDIOT">     3</i>
   <i type="int" name="ISPECIAL">     0</i>
   <i type="logical" name="LMUSIC"> F  </i>
   <v name="POMASS">     16.00000000     87.62000000     47.88000000</v>
   <v name="DARWINR">      0.00000000      0.00000000      0.00000000</v>
   <v name="DARWINV">      1.00000000      1.00000000      1.00000000</v>
   <i type="logical" name="LCORR"> T  </i>
  </separator>
  <i type="logical" name="GGA_COMPAT"> T  </i>
  <i type="logical" name="LBERRY"> F  </i>
  <i type="int" name="ICORELEVEL">     0</i>
  <i type="logical" name="LDAU"> F  </i>
  <i type="int" name="I_CONSTRAINED_M">     0</i>
  <separator name="electronic exchange-correlation" >
   <i type="string" name="GGA">--</i>
   <i type="int" name="VOSKOWN">     0</i>
   <i type="logical" name="LHFCALC"> F  </i>
   <i type="string" name="PRECFOCK"></i>
   <i type="logical" name="LSYMGRAD"> F  </i>
   <i type="logical" name="LHFONE"> F  </i>
   <i type="logical" name="LRHFCALC"> F  </i>
   <i type="logical" name="LTHOMAS"> F  </i>
   <i type="logical" name="LMODELHF"> F  </i>
   <i name="ENCUT4O">     -1.00000000</i>
   <i type="int" name="EXXOEP">     0</i>
   <i type="int" name="FOURORBIT">     0</i>
   <i name="AEXX">      0.00000000</i>
   <i name="HFALPHA">      0.00000000</i>
   <i name="MCALPHA">      0.00000000</i>
   <i name="ALDAX">      1.00000000</i>
   <i name="AGGAX">      1.00000000</i>
   <i name="ALDAC">      1.00000000</i>
   <i name="AGGAC">      1.00000000</i>
   <i type="int" name="NKREDX">     1</i>
   <i type="int" name="NKREDY">     1</i>
   <i type="int" name="NKREDZ">     1</i>
   <i type="logical" name="SHIFTRED"> F  </i>
   <i type="logical" name="ODDONLY"> F  </i>
   <i type="logical" name="EVENONLY"> F  </i>
   <i type="int" name="LMAXFOCK">     0</i>
   <i type="int" name="NMAXFOCKAE">     0</i>
   <i type="logical" name="LFOCKAEDFT"> F  </i>
   <i name="HFSCREEN">      0.00000000</i>
   <i name="HFSCREENC">      0.00000000</i>
   <i type="int" name="NBANDSGWLOW">     0</i>
  </separator>
  <separator name="vdW DFT" >
   <i type="logical" name="LUSE_VDW"> F  </i>
   <i name="Zab_VDW">     -0.84910000</i>
   <i name="PARAM1">      0.12340000</i>
   <i name="PARAM2">      1.00000000</i>
   <i name="PARAM3">      0.00000000</i>
  </separator>
  <separator name="model GW" >
   <i type="int" name="MODEL_GW">     0</i>
   <i name="MODEL_EPS0">     11.74417142</i>
   <i name="MODEL_ALPHA">      1.00000000</i>
  </separator>
  <separator name="linear response parameters" >
   <i type="logical" name="LEPSILON"> F  </i>
   <i type="logical" name="LRPA"> F  </i>
   <i type="logical" name="LNABLA"> F  </i>
   <i type="logical" name="LVEL"> F  </i>
   <i type="int" name="KINTER">     0</i>
   <i name="CSHIFT">      0.10000000</i>
   <i name="OMEGAMAX">     -1.00000000</i>
   <i name="DEG_THRESHOLD">      0.00200000</i>
   <i name="RTIME">     -0.10000000</i>
   <i name="WPLASMAI">      0.00000000</i>
   <v name="DFIELD">      0.00000000      0.00000000      0.00000000</v>
   <v name="WPLASMA">      0.00000000      0.00000000      0.00000000      0.00000000      0.00000000      0.00000000      0.00000000      0.00000000      0.00000000</v>
  </separator>
  <separator name="orbital magnetization" >
   <i type="logical" name="NUCIND"> F  </i>
   <v name="MAGPOS">      0.00000000      0.00000000      0.00000000</v>
   <i type="logical" name="LNICSALL"> T  </i>
   <i type="logical" name="ORBITALMAG"> F  </i>
   <i type="logical" name="LMAGBLOCH"> F  </i>
   <i type="logical" name="LCHIMAG"> F  </i>
   <i type="logical" name="LGAUGE"> T  </i>
   <i type="int" name="MAGATOM">     0</i>
   <v name="MAGDIPOL">      0.00000000      0.00000000      0.00000000</v>
   <v name="AVECCONST">      0.00000000      0.00000000      0.00000000</v>
  </separator>
  <separator name="response functions" >
   <i type="logical" name="LADDER"> F  </i>
   <i type="logical" name="LRPAFORCE"> F  </i>
   <i type="logical" name="LFXC"> F  </i>
   <i type="logical" name="LHARTREE"> T  </i>
   <i type="int" name="IBSE">     0</i>
   <v type="int" name="KPOINT">    -1     0     0     0</v>
   <i type="logical" name="LTCTE"> F  </i>
   <i type="logical" name="LTETE"> F  </i>
   <i type="logical" name="LTRIPLET"> F  </i>
   <i type="logical" name="LFXCEPS"> F  </i>
   <i type="logical" name="LFXHEG"> F  </i>
   <i type="int" name="NATURALO">     2</i>
   <i type="logical" name="L2ORDER"> F  </i>
   <i type="logical" name="LMP2LT"> F  </i>
   <i type="logical" name="LUSEW"> F  </i>
   <i name="ENCUTGW">     -2.00000000</i>
   <i name="ENCUTGWSOFT">     -2.00000000</i>
   <i name="ENCUTLF">     -1.00000000</i>
   <i type="int" name="LMAXMP2">    -1</i>
   <i name="SCISSOR">      0.00000000</i>
   <i type="int" name="NOMEGA">     0</i>
   <i type="int" name="NOMEGAR">     0</i>
   <i type="int" name="NBANDSGW">    -1</i>
   <i type="int" name="NBANDSO">    -1</i>
   <i type="int" name="NBANDSV">    -1</i>
   <i type="int" name="NELM">     1</i>
   <i type="int" name="NELMHF">     1</i>
   <i type="int" name="DIM">     3</i>
   <i type="int" name="ANTIRES">     0</i>
   <i name="OMEGAMAX">    -30.00000000</i>
   <i name="OMEGAMIN">    -30.00000000</i>
   <i name="OMEGATL">   -200.00000000</i>
   <i type="int" name="OMEGAGRID">   140</i>
   <i name="CSHIFT">     -0.10000000</i>
   <i type="logical" name="SELFENERGY"> F  </i>
   <i type="logical" name="LSPECTRAL"> F  </i>
   <i type="logical" name="LSPECTRALGW"> F  </i>
   <i type="logical" name="LSINGLES"> F  </i>
   <i type="logical" name="LFERMIGW"> F  </i>
   <i type="logical" name="ODDONLYGW"> F  </i>
   <i type="logical" name="EVENONLYGW"> F  </i>
   <i type="int" name="NKREDLFX">     1</i>
   <i type="int" name="NKREDLFY">     1</i>
   <i type="int" name="NKREDLFZ">     1</i>
   <i type="int" name="MAXMEM">  2800</i>
   <i type="int" name="TELESCOPE">     0</i>
   <i type="int" name="TAUPAR">     1</i>
   <i type="int" name="OMEGAPAR">    -1</i>
   <i name="LAMBDA">      1.00000000</i>
  </separator>
  <separator name="External order field" >
   <i name="OFIELD_KAPPA">      0.00000000</i>
   <v name="OFIELD_K">      0.00000000      0.00000000      0.00000000</v>
   <i name="OFIELD_Q6_NEAR">      0.00000000</i>
   <i name="OFIELD_Q6_FAR">      0.00000000</i>
   <i name="OFIELD_A">      0.00000000</i>
  </separator>
 </parameters>
 <atominfo>
  <atoms>      20 </atoms>
  <types>       3 </types>
  <array name="atoms" >
   <dimension dim="1">ion</dimension>
   <field type="string">element</field>
   <field type="int">atomtype</field>
   <set>
    <rc><c>O </c><c>   1</c></rc>
    <rc><c>O </c><c>   1</c></rc>
    <rc><c>O </c><c>   1</c></rc>
    <rc><c>O </c><c>   1</c></rc>
    <rc><c>O </c><c>   1</c></rc>
    <rc><c>O </c><c>   1</c></rc>
    <rc><c>O </c><c>   1</c></rc>
    <rc><c>O </c><c>   1</c></rc>
    <rc><c>O </c><c>   1</c></rc>
    <rc><c>O </c><c>   1</c></rc>
    <rc><c>O </c><c>   1</c></rc>
    <rc><c>O </c><c>   1</c></rc>
    <rc><c>Sr</c><c>   2</c></rc>
    <rc><c>Sr</c><c>   2</c></rc>
    <rc><c>Sr</c><c>   2</c></rc>
    <rc><c>Sr</c><c>   2</c></rc>
    <rc><c>Ti</c><c>   3</c></rc>
    <rc><c>Ti</c><c>   3</c></rc>
    <rc><c>Ti</c><c>   3</c></rc>
    <rc><c>Ti</c><c>   3</c></rc>
   </set>
  </array>
  <array name="atomtypes" >
   <dimension dim="1">type</dimension>
   <field type="int">atomspertype</field>
   <field type="string">element</field>
   <field>mass</field>
   <field>valence</field>
   <field type="string">pseudopotential</field>
   <set>
    <rc><c>  12</c><c>O </c><c>     16.00000000</c><c>      6.00000000</c><c> PAW_PBE O 08Apr2002                    </c></rc>
    <rc><c>   4</c><c>Sr</c><c>     87.62000000</c><c>     10.00000000</c><c> PAW_PBE Sr_sv 07Sep2000                </c></rc>
    <rc><c>   4</c><c>Ti</c><c>     47.88000000</c><c>      4.00000000</c><c> PAW_PBE Ti 08Apr2002                   </c></rc>
   </set>
  </array>
 </atominfo>
 <structure name="initialpos" >
  <crystal>
   <varray name="basis" >
    <v>       3.90526800       0.00000000       0.00000000 </v>
    <v>       0.00000000       3.90526800       0.00000000 </v>
    <v>       0.00000000       0.00000000      25.66843800 </v>
   </varray>
   <i name="volume">    391.47238071 </i>
   <varray name="rec_basis" >
    <v>       0.25606437       0.00000000       0.00000000 </v>
    <v>       0.00000000       0.25606437       0.00000000 </v>
    <v>       0.00000000       0.00000000       0.03895835 </v>
   </varray>
  </crystal>
  <varray name="positions" >
   <v>       0.50000000       0.50000000       0.23375010 </v>
   <v>       0.50000000       0.00000000       0.30982150 </v>
   <v>       0.00000000       0.50000000       0.30982150 </v>
   <v>       0.50000000       0.50000000       0.38589290 </v>
   <v>       0.50000000       0.00000000       0.46196430 </v>
   <v>       0.00000000       0.50000000       0.46196430 </v>
   <v>       0.50000000       0.50000000       0.53803570 </v>
   <v>       0.50000000       0.00000000       0.61410710 </v>
   <v>       0.00000000       0.50000000       0.61410710 </v>
   <v>       0.50000000       0.50000000       0.69017850 </v>
   <v>       0.50000000       0.00000000       0.76624990 </v>
   <v>       0.00000000       0.50000000       0.76624990 </v>
   <v>       0.00000000       0.00000000       0.23375010 </v>
   <v>       0.00000000       0.00000000       0.38589290 </v>
   <v>       0.00000000       0.00000000       0.53803570 </v>
   <v>       0.00000000       0.00000000       0.69017850 </v>
   <v>       0.50000000       0.50000000       0.30982150 </v>
   <v>       0.50000000       0.50000000       0.46196430 </v>
   <v>       0.50000000       0.50000000       0.61410710 </v>
   <v>       0.50000000       0.50000000       0.76624990 </v>
  </varray>
 </structure>
 <calculation>
  <scstep>
   <time name="dav">    7.53    7.53</time>
   <time name="total">    7.65    7.68</time>
   <energy>
    <i name="alphaZ">    451.31605171 </i>
    <i name="ewald">  24913.70541863 </i>
    <i name="hartreedc"> -33364.93616084 </i>
    <i name="XCdc">    326.68052994 </i>
    <i name="pawpsdc">   5334.45189010 </i>
    <i name="pawaedc">  -5139.13784255 </i>
    <i name="eentropy">      0.00000000 </i>
    <i name="bandstr">    164.90339941 </i>
    <i name="atom">   8937.26825017 </i>
    <i name="e_fr_energy">   1624.25153657 </i>
    <i name="e_wo_entrp">   1624.25153657 </i>
    <i name="e_0_energy">   1624.25153657 </i>
   </energy>
  </scstep>
  <scstep>
   <time name="dav">    8.61    8.61</time>
   <time name="total">    8.62    8.62</time>
   <energy>
    <i name="e_fr_energy">    188.14854328 </i>
    <i name="e_wo_entrp">    188.14854328 </i>
    <i name="e_0_energy">    188.14854328 </i>
   </energy>
  </scstep>
  <scstep>
   <time name="dav">    9.54    9.55</time>
   <time name="total">    9.54    9.55</time>
   <energy>
    <i name="e_fr_energy">   -173.42278558 </i>
    <i name="e_wo_entrp">   -173.42278558 </i>
    <i name="e_0_energy">   -173.42278558 </i>
   </energy>
  </scstep>
  <scstep>
   <time name="dav">    9.24    9.25</time>
   <time name="total">    9.24    9.25</time>
   <energy>
    <i name="e_fr_energy">   -200.16135383 </i>
    <i name="e_wo_entrp">   -200.16135383 </i>
    <i name="e_0_energy">   -200.16135383 </i>
   </energy>
  </scstep>
  <scstep>
   <time name="dav">   11.66   11.66</time>
   <time name="total">   11.97   11.97</time>
   <energy>
    <i name="e_fr_energy">   -201.75199845 </i>
    <i name="e_wo_entrp">   -201.75199845 </i>
    <i name="e_0_energy">   -201.75199845 </i>
   </energy>
  </scstep>
  <scstep>
   <time name="diag">    0.86    0.86</time>
   <time name="diis">    6.35    6.35</time>
   <time name="orth">    0.13    0.13</time>
   <time name="total">    7.76    7.76</time>
   <energy>
    <i name="e_fr_energy">   -161.19953133 </i>
    <i name="e_wo_entrp">   -161.19953133 </i>
    <i name="e_0_energy">   -161.19953133 </i>
   </energy>
  </scstep>
  <scstep>
   <time name="diag">    0.80    0.80</time>
   <time name="diis">    6.98    6.98</time>
   <time name="orth">    0.12    0.12</time>
   <time name="total">    8.30    8.30</time>
   <energy>
    <i name="e_fr_energy">   -157.68805409 </i>
    <i name="e_wo_entrp">   -157.68805409 </i>
    <i name="e_0_energy">   -157.68805409 </i>
   </energy>
  </scstep>
  <scstep>
   <time name="diag">    0.85    0.85</time>
   <time name="diis">    7.99    7.99</time>
   <time name="orth">    0.13    0.13</time>
   <time name="total">    9.40    9.40</time>
   <energy>
    <i name="e_fr_energy">   -156.96559357 </i>
    <i name="e_wo_entrp">   -156.96559357 </i>
    <i name="e_0_energy">   -156.96559357 </i>
   </energy>
  </scstep>
  <scstep>
   <time name="diag">    0.86    0.86</time>
   <time name="diis">    7.88    7.88</time>
   <time name="orth">    0.13    0.13</time>
   <time name="total">    9.29    9.29</time>
   <energy>
    <i name="e_fr_energy">   -156.75462458 </i>
    <i name="e_wo_entrp">   -156.75462458 </i>
    <i name="e_0_energy">   -156.75462458 </i>
   </energy>
  </scstep>
  <scstep>
   <time name="diag">    0.86    0.86</time>
   <time name="diis">    9.06    9.06</time>
   <time name="orth">    0.13    0.13</time>
   <time name="total">   10.46   10.46</time>
   <energy>
    <i name="e_fr_energy">   -156.71343444 </i>
    <i name="e_wo_entrp">   -156.71343444 </i>
    <i name="e_0_energy">   -156.71343444 </i>
   </energy>
  </scstep>
  <scstep>
   <time name="diag">    0.85    0.85</time>
   <time name="diis">    8.88    8.88</time>
   <time name="orth">    0.13    0.13</time>
   <time name="total">   10.28   10.28</time>
   <energy>
    <i name="e_fr_energy">   -156.69243185 </i>
    <i name="e_wo_entrp">   -156.69243185 </i>
    <i name="e_0_energy">   -156.69243185 </i>
   </energy>
  </scstep>
  <scstep>
   <time name="diag">    0.86    0.86</time>
   <time name="diis">    9.19    9.19</time>
   <time name="orth">    0.13    0.13</time>
   <time name="total">   10.61   10.61</time>
   <energy>
    <i name="e_fr_energy">   -156.68036753 </i>
    <i name="e_wo_entrp">   -156.68036753 </i>
    <i name="e_0_energy">   -156.68036753 </i>
   </energy>
  </scstep>
  <scstep>
   <time name="diag">    0.86    0.86</time>
   <time name="diis">    9.66    9.66</time>
   <time name="orth">    0.13    0.13</time>
   <time name="total">   11.08   11.08</time>
   <energy>
    <i name="e_fr_energy">   -156.67424209 </i>
    <i name="e_wo_entrp">   -156.67424209 </i>
    <i name="e_0_energy">   -156.67424209 </i>
   </energy>
  </scstep>
  <scstep>
   <time name="diag">    0.81    0.82</time>
   <time name="diis">    8.60    8.60</time>
   <time name="orth">    0.13    0.13</time>
   <time name="total">    9.97    9.98</time>
   <energy>
    <i name="e_fr_energy">   -156.66985322 </i>
    <i name="e_wo_entrp">   -156.66985322 </i>
    <i name="e_0_energy">   -156.66985322 </i>
   </energy>
  </scstep>
  <scstep>
   <time name="diag">    0.87    0.87</time>
   <time name="diis">    9.57    9.56</time>
   <time name="orth">    0.13    0.13</time>
   <time name="total">   10.97   10.97</time>
   <energy>
    <i name="e_fr_energy">   -156.66911705 </i>
    <i name="e_wo_entrp">   -156.66911705 </i>
    <i name="e_0_energy">   -156.66911705 </i>
   </energy>
  </scstep>
  <scstep>
   <time name="diag">    0.80    0.80</time>
   <time name="diis">    8.89    8.89</time>
   <time name="orth">    0.13    0.13</time>
   <time name="total">   10.23   10.23</time>
   <energy>
    <i name="e_fr_energy">   -156.67035550 </i>
    <i name="e_wo_entrp">   -156.67035550 </i>
    <i name="e_0_energy">   -156.67035550 </i>
   </energy>
  </scstep>
  <scstep>
   <time name="diag">    0.81    0.81</time>
   <time name="diis">    6.69    6.68</time>
   <time name="orth">    0.10    0.10</time>
   <time name="total">    7.96    7.97</time>
   <energy>
    <i name="e_fr_energy">   -156.67081144 </i>
    <i name="e_wo_entrp">   -156.67081144 </i>
    <i name="e_0_energy">   -156.67081144 </i>
   </energy>
  </scstep>
  <scstep>
   <time name="diag">    0.68    0.68</time>
   <time name="diis">    6.51    6.50</time>
   <time name="orth">    0.09    0.09</time>
   <time name="total">    7.62    7.62</time>
   <energy>
    <i name="e_fr_energy">   -156.67143596 </i>
    <i name="e_wo_entrp">   -156.67143596 </i>
    <i name="e_0_energy">   -156.67143596 </i>
   </energy>
  </scstep>
  <scstep>
   <time name="diag">    0.66    0.66</time>
   <time name="diis">    6.12    6.12</time>
   <time name="orth">    0.10    0.10</time>
   <time name="total">    7.23    7.23</time>
   <energy>
    <i name="e_fr_energy">   -156.67285768 </i>
    <i name="e_wo_entrp">   -156.67285768 </i>
    <i name="e_0_energy">   -156.67285768 </i>
   </energy>
  </scstep>
  <scstep>
   <time name="diag">    0.68    0.68</time>
   <time name="diis">    5.40    5.40</time>
   <time name="orth">    0.10    0.10</time>
   <time name="total">    6.53    6.53</time>
   <energy>
    <i name="e_fr_energy">   -156.67352734 </i>
    <i name="e_wo_entrp">   -156.67352734 </i>
    <i name="e_0_energy">   -156.67352734 </i>
   </energy>
  </scstep>
  <scstep>
   <time name="diag">    0.67    0.68</time>
   <time name="diis">    5.08    5.07</time>
   <time name="orth">    0.10    0.10</time>
   <time name="total">    6.20    6.20</time>
   <energy>
    <i name="e_fr_energy">   -156.67380542 </i>
    <i name="e_wo_entrp">   -156.67380542 </i>
    <i name="e_0_energy">   -156.67380542 </i>
   </energy>
  </scstep>
  <scstep>
   <time name="diag">    0.67    0.67</time>
   <time name="diis">    4.15    4.14</time>
   <time name="orth">    0.10    0.10</time>
   <time name="total">    5.27    5.27</time>
   <energy>
    <i name="e_fr_energy">   -156.67384977 </i>
    <i name="e_wo_entrp">   -156.67384977 </i>
    <i name="e_0_energy">   -156.67384977 </i>
   </energy>
  </scstep>
  <scstep>
   <time name="diag">    0.68    0.68</time>
   <time name="diis">    3.76    3.76</time>
   <time name="orth">    0.10    0.10</time>
   <time name="total">    4.88    4.89</time>
   <energy>
    <i name="e_fr_energy">   -156.67386473 </i>
    <i name="e_wo_entrp">   -156.67386473 </i>
    <i name="e_0_energy">   -156.67386473 </i>
   </energy>
  </scstep>
  <scstep>
   <time name="diag">    0.68    0.68</time>
   <time name="diis">    3.62    3.62</time>
   <time name="orth">    0.10    0.10</time>
   <time name="total">    4.75    4.75</time>
   <energy>
    <i name="e_fr_energy">   -156.67387521 </i>
    <i name="e_wo_entrp">   -156.67387521 </i>
    <i name="e_0_energy">   -156.67387521 </i>
   </energy>
  </scstep>
  <scstep>
   <time name="diag">    0.68    0.68</time>
   <time name="diis">    3.46    3.46</time>
   <time name="orth">    0.10    0.10</time>
   <time name="total">    4.33    4.33</time>
   <energy>
    <i name="alphaZ">    451.31605171 </i>
    <i name="ewald">  24913.70541863 </i>
    <i name="hartreedc"> -33784.13155479 </i>
    <i name="XCdc">    342.95230068 </i>
    <i name="pawpsdc">   6206.02814783 </i>
    <i name="pawaedc">  -6036.32855441 </i>
    <i name="eentropy">      0.00000000 </i>
    <i name="bandstr">  -1187.48393868 </i>
    <i name="atom">   8937.26825017 </i>
    <i name="e_fr_energy">   -156.67387886 </i>
    <i name="e_wo_entrp">   -156.67387886 </i>
    <i name="e_0_energy">   -156.67387886 </i>
   </energy>
  </scstep>
  <structure>
   <crystal>
    <varray name="basis" >
     <v>       3.90526800       0.00000000       0.00000000 </v>
     <v>       0.00000000       3.90526800       0.00000000 </v>
     <v>       0.00000000       0.00000000      25.66843800 </v>
    </varray>
    <i name="volume">    391.47238071 </i>
    <varray name="rec_basis" >
     <v>       0.25606437       0.00000000       0.00000000 </v>
     <v>       0.00000000       0.25606437       0.00000000 </v>
     <v>       0.00000000       0.00000000       0.03895835 </v>
    </varray>
   </crystal>
   <varray name="positions" >
    <v>       0.50000000       0.50000000       0.23375010 </v>
    <v>       0.50000000       0.00000000       0.30982150 </v>
    <v>       0.00000000       0.50000000       0.30982150 </v>
    <v>       0.50000000       0.50000000       0.38589290 </v>
    <v>       0.50000000       0.00000000       0.46196430 </v>
    <v>       0.00000000       0.50000000       0.46196430 </v>
    <v>       0.50000000       0.50000000       0.53803570 </v>
    <v>       0.50000000       0.00000000       0.61410710 </v>
    <v>       0.00000000       0.50000000       0.61410710 </v>
    <v>       0.50000000       0.50000000       0.69017850 </v>
    <v>       0.50000000       0.00000000       0.76624990 </v>
    <v>       0.00000000       0.50000000       0.76624990 </v>
    <v>       0.00000000       0.00000000       0.23375010 </v>
    <v>       0.00000000       0.00000000       0.38589290 </v>
    <v>       0.00000000       0.00000000       0.53803570 </v>
    <v>       0.00000000       0.00000000       0.69017850 </v>
    <v>       0.50000000       0.50000000       0.30982150 </v>
    <v>       0.50000000       0.50000000       0.46196430 </v>
    <v>       0.50000000       0.50000000       0.61410710 </v>
    <v>       0.50000000       0.50000000       0.76624990 </v>
   </varray>
  </structure>
  <varray name="forces" >
   <v>       0.00000000       0.00000000      -1.07562264 </v>
   <v>      -0.00000000       0.00000000      -0.00350125 </v>
   <v>      -0.00000000       0.00000000      -0.00350125 </v>
   <v>       0.00000000       0.00000000       0.37990606 </v>
   <v>      -0.00000000       0.00000000       0.06798878 </v>
   <v>      -0.00000000       0.00000000       0.06798878 </v>
   <v>      -0.00000000      -0.00000000       0.30500757 </v>
   <v>      -0.00000000       0.00000000       0.02040940 </v>
   <v>      -0.00000000       0.00000000       0.02040940 </v>
   <v>       0.00000000       0.00000000       1.06403135 </v>
   <v>      -0.00000000      -0.00000000       0.45590477 </v>
   <v>      -0.00000000       0.00000000       0.45590477 </v>
   <v>      -0.00000000      -0.00000000       1.18919384 </v>
   <v>      -0.00000000       0.00000000      -0.00666804 </v>
   <v>      -0.00000000      -0.00000000      -0.05846659 </v>
   <v>      -0.00000000       0.00000000       0.66206278 </v>
   <v>      -0.00000000      -0.00000000      -1.02578113 </v>
   <v>      -0.00000000      -0.00000000      -0.30991114 </v>
   <v>      -0.00000000      -0.00000000      -0.36774273 </v>
   <v>      -0.00000000      -0.00000000      -1.83761273 </v>
  </varray>
  <varray name="stress" >
   <v>      12.55107118       0.00000000       0.00000000 </v>
   <v>       0.00000000      12.55107118       0.00000000 </v>
   <v>       0.00000000       0.00000000      17.36563315 </v>
  </varray>
  <energy>
   <i name="e_fr_energy">   -156.67387886 </i>
   <i name="e_wo_entrp">   -156.67387886 </i>
   <i name="e_0_energy">      0.00000000 </i>
  </energy>
  <time name="totalsc">  218.96  219.12</time>
  <eigenvalues>
   <array>
    <dimension dim="1">band</dimension>
    <dimension dim="2">kpoint</dimension>
    <dimension dim="3">spin</dimension>
    <field>eigene</field>
    <field>occ</field>
    <set>
     <set comment="spin 1">
      <set comment="kpoint 1">
       <r>  -33.7817    1.0000 </r>
       <r>  -32.7971    1.0000 </r>
       <r>  -32.7064    1.0000 </r>
       <r>  -32.6616    1.0000 </r>
       <r>  -17.7127    1.0000 </r>
       <r>  -17.6262    1.0000 </r>
       <r>  -17.5206    1.0000 </r>
       <r>  -17.0507    1.0000 </r>
       <r>  -16.5682    1.0000 </r>
       <r>  -16.5204    1.0000 </r>
       <r>  -16.4949    1.0000 </r>
       <r>  -16.4664    1.0000 </r>
       <r>  -16.4182    1.0000 </r>
       <r>  -16.3748    1.0000 </r>
       <r>  -15.9520    1.0000 </r>
       <r>  -15.7470    1.0000 </r>
       <r>  -15.6977    1.0000 </r>
       <r>  -15.6977    1.0000 </r>
       <r>  -15.6004    1.0000 </r>
       <r>  -14.8516    1.0000 </r>
       <r>  -14.8516    1.0000 </r>
       <r>  -14.7545    1.0000 </r>
       <r>  -14.7545    1.0000 </r>
       <r>  -14.7321    1.0000 </r>
       <r>  -14.7321    1.0000 </r>
       <r>  -14.6983    1.0000 </r>
       <r>  -14.4051    1.0000 </r>
       <r>  -14.2669    1.0000 </r>
       <r>   -4.2631    1.0000 </r>
       <r>   -3.7171    1.0000 </r>
       <r>   -3.1792    1.0000 </r>
       <r>   -3.0079    1.0000 </r>
       <r>   -3.0079    1.0000 </r>
       <r>   -2.9075    1.0000 </r>
       <r>   -2.9075    1.0000 </r>
       <r>   -2.8392    1.0000 </r>
       <r>   -2.8392    1.0000 </r>
       <r>   -2.5462    1.0000 </r>
       <r>   -2.5462    1.0000 </r>
       <r>   -2.5215    1.0000 </r>
       <r>   -2.2671    1.0000 </r>
       <r>   -2.1644    1.0000 </r>
       <r>   -2.1644    1.0000 </r>
       <r>   -1.9497    1.0000 </r>
       <r>   -1.8402    1.0000 </r>
       <r>   -1.7790    1.0000 </r>
       <r>   -1.7790    1.0000 </r>
       <r>   -1.6997    1.0000 </r>
       <r>   -1.4482    1.0000 </r>
       <r>   -1.4482    1.0000 </r>
       <r>   -1.3697    1.0000 </r>
       <r>   -1.3494    1.0000 </r>
       <r>   -1.0701    1.0000 </r>
       <r>   -1.0701    1.0000 </r>
       <r>   -0.8559    1.0000 </r>
       <r>   -0.7463    1.0000 </r>
       <r>   -0.7463    1.0000 </r>
       <r>   -0.6442    1.0000 </r>
       <r>   -0.5960    1.0000 </r>
       <r>   -0.5960    1.0000 </r>
       <r>   -0.3659    1.0000 </r>
       <r>   -0.3659    1.0000 </r>
       <r>   -0.0607    1.0000 </r>
       <r>   -0.0607    1.0000 </r>
       <r>    1.6090    0.0000 </r>
       <r>    1.7167    0.0000 </r>
       <r>    1.7167    0.0000 </r>
       <r>    1.7512    0.0000 </r>
       <r>    1.8857    0.0000 </r>
       <r>    1.9938    0.0000 </r>
       <r>    2.2910    0.0000 </r>
       <r>    2.2919    0.0000 </r>
       <r>    2.3242    0.0000 </r>
       <r>    3.0181    0.0000 </r>
       <r>    5.4662    0.0000 </r>
       <r>    5.5521    0.0000 </r>
      </set>
      <set comment="kpoint 2">
       <r>  -33.7796    1.0000 </r>
       <r>  -32.7946    1.0000 </r>
       <r>  -32.7039    1.0000 </r>
       <r>  -32.6591    1.0000 </r>
       <r>  -17.6631    1.0000 </r>
       <r>  -17.5873    1.0000 </r>
       <r>  -17.5076    1.0000 </r>
       <r>  -17.0476    1.0000 </r>
       <r>  -16.5748    1.0000 </r>
       <r>  -16.5420    1.0000 </r>
       <r>  -16.4883    1.0000 </r>
       <r>  -16.4681    1.0000 </r>
       <r>  -16.4436    1.0000 </r>
       <r>  -16.3999    1.0000 </r>
       <r>  -15.9770    1.0000 </r>
       <r>  -15.9481    1.0000 </r>
       <r>  -15.7078    1.0000 </r>
       <r>  -15.6928    1.0000 </r>
       <r>  -15.3385    1.0000 </r>
       <r>  -14.8456    1.0000 </r>
       <r>  -14.7856    1.0000 </r>
       <r>  -14.7484    1.0000 </r>
       <r>  -14.7257    1.0000 </r>
       <r>  -14.7244    1.0000 </r>
       <r>  -14.6801    1.0000 </r>
       <r>  -14.6559    1.0000 </r>
       <r>  -14.4174    1.0000 </r>
       <r>  -14.2895    1.0000 </r>
       <r>   -4.2709    1.0000 </r>
       <r>   -3.7451    1.0000 </r>
       <r>   -3.2760    1.0000 </r>
       <r>   -3.1389    1.0000 </r>
       <r>   -3.1254    1.0000 </r>
       <r>   -3.0408    1.0000 </r>
       <r>   -3.0136    1.0000 </r>
       <r>   -2.9204    1.0000 </r>
       <r>   -2.9133    1.0000 </r>
       <r>   -2.8421    1.0000 </r>
       <r>   -2.6874    1.0000 </r>
       <r>   -2.5881    1.0000 </r>
       <r>   -2.4083    1.0000 </r>
       <r>   -2.2176    1.0000 </r>
       <r>   -2.1936    1.0000 </r>
       <r>   -2.0548    1.0000 </r>
       <r>   -1.9342    1.0000 </r>
       <r>   -1.8359    1.0000 </r>
       <r>   -1.6901    1.0000 </r>
       <r>   -1.5477    1.0000 </r>
       <r>   -1.4760    1.0000 </r>
       <r>   -1.4398    1.0000 </r>
       <r>   -1.3594    1.0000 </r>
       <r>   -1.2356    1.0000 </r>
       <r>   -1.2333    1.0000 </r>
       <r>   -1.0683    1.0000 </r>
       <r>   -1.0235    1.0000 </r>
       <r>   -0.9128    1.0000 </r>
       <r>   -0.9006    1.0000 </r>
       <r>   -0.8917    1.0000 </r>
       <r>   -0.7606    1.0000 </r>
       <r>   -0.7347    1.0000 </r>
       <r>   -0.5088    1.0000 </r>
       <r>   -0.4513    1.0000 </r>
       <r>   -0.3283    1.0000 </r>
       <r>   -0.2677    1.0000 </r>
       <r>    1.7265    0.0000 </r>
       <r>    1.8861    0.0000 </r>
       <r>    1.9518    0.0000 </r>
       <r>    2.0230    0.0000 </r>
       <r>    2.1472    0.0000 </r>
       <r>    2.2777    0.0000 </r>
       <r>    2.3046    0.0000 </r>
       <r>    2.3589    0.0000 </r>
       <r>    2.4691    0.0000 </r>
       <r>    3.0068    0.0000 </r>
       <r>    5.5275    0.0000 </r>
       <r>    5.7454    0.0000 </r>
      </set>
      <set comment="kpoint 3">
       <r>  -33.7742    1.0000 </r>
       <r>  -32.7881    1.0000 </r>
       <r>  -32.6975    1.0000 </r>
       <r>  -32.6526    1.0000 </r>
       <r>  -17.5902    1.0000 </r>
       <r>  -17.4779    1.0000 </r>
       <r>  -17.4699    1.0000 </r>
       <r>  -17.0481    1.0000 </r>
       <r>  -16.6256    1.0000 </r>
       <r>  -16.5740    1.0000 </r>
       <r>  -16.5477    1.0000 </r>
       <r>  -16.4736    1.0000 </r>
       <r>  -16.4249    1.0000 </r>
       <r>  -16.4058    1.0000 </r>
       <r>  -16.1570    1.0000 </r>
       <r>  -15.9301    1.0000 </r>
       <r>  -15.7090    1.0000 </r>
       <r>  -15.6803    1.0000 </r>
       <r>  -15.0521    1.0000 </r>
       <r>  -14.8303    1.0000 </r>
       <r>  -14.7327    1.0000 </r>
       <r>  -14.7155    1.0000 </r>
       <r>  -14.7096    1.0000 </r>
       <r>  -14.6491    1.0000 </r>
       <r>  -14.5287    1.0000 </r>
       <r>  -14.5279    1.0000 </r>
       <r>  -14.4448    1.0000 </r>
       <r>  -14.3386    1.0000 </r>
       <r>   -4.2927    1.0000 </r>
       <r>   -3.9240    1.0000 </r>
       <r>   -3.6517    1.0000 </r>
       <r>   -3.6429    1.0000 </r>
       <r>   -3.4981    1.0000 </r>
       <r>   -3.3468    1.0000 </r>
       <r>   -3.2320    1.0000 </r>
       <r>   -3.0866    1.0000 </r>
       <r>   -3.0262    1.0000 </r>
       <r>   -2.9284    1.0000 </r>
       <r>   -2.8778    1.0000 </r>
       <r>   -2.8475    1.0000 </r>
       <r>   -2.6993    1.0000 </r>
       <r>   -2.5866    1.0000 </r>
       <r>   -2.3644    1.0000 </r>
       <r>   -2.2275    1.0000 </r>
       <r>   -2.0111    1.0000 </r>
       <r>   -1.9709    1.0000 </r>
       <r>   -1.8838    1.0000 </r>
       <r>   -1.7510    1.0000 </r>
       <r>   -1.6331    1.0000 </r>
       <r>   -1.6033    1.0000 </r>
       <r>   -1.5328    1.0000 </r>
       <r>   -1.4620    1.0000 </r>
       <r>   -1.4064    1.0000 </r>
       <r>   -1.3150    1.0000 </r>
       <r>   -1.2316    1.0000 </r>
       <r>   -1.1976    1.0000 </r>
       <r>   -0.9766    1.0000 </r>
       <r>   -0.9763    1.0000 </r>
       <r>   -0.8333    1.0000 </r>
       <r>   -0.7528    1.0000 </r>
       <r>   -0.7180    1.0000 </r>
       <r>   -0.6568    1.0000 </r>
       <r>   -0.5801    1.0000 </r>
       <r>   -0.4842    1.0000 </r>
       <r>    1.7589    0.0000 </r>
       <r>    2.3077    0.0000 </r>
       <r>    2.4866    0.0000 </r>
       <r>    2.4909    0.0000 </r>
       <r>    2.6017    0.0000 </r>
       <r>    2.7264    0.0000 </r>
       <r>    2.7281    0.0000 </r>
       <r>    2.8731    0.0000 </r>
       <r>    2.9614    0.0000 </r>
       <r>    3.2804    0.0000 </r>
       <r>    6.3285    0.0000 </r>
       <r>    6.4598    0.0000 </r>
      </set>
      <set comment="kpoint 4">
       <r>  -33.7680    1.0000 </r>
       <r>  -32.7807    1.0000 </r>
       <r>  -32.6903    1.0000 </r>
       <r>  -32.6452    1.0000 </r>
       <r>  -17.6268    1.0000 </r>
       <r>  -17.4514    1.0000 </r>
       <r>  -17.2956    1.0000 </r>
       <r>  -17.0222    1.0000 </r>
       <r>  -16.6980    1.0000 </r>
       <r>  -16.6234    1.0000 </r>
       <r>  -16.5553    1.0000 </r>
       <r>  -16.5210    1.0000 </r>
       <r>  -16.4268    1.0000 </r>
       <r>  -16.3008    1.0000 </r>
       <r>  -16.2117    1.0000 </r>
       <r>  -15.9027    1.0000 </r>
       <r>  -15.6923    1.0000 </r>
       <r>  -15.6661    1.0000 </r>
       <r>  -14.8388    1.0000 </r>
       <r>  -14.8128    1.0000 </r>
       <r>  -14.7148    1.0000 </r>
       <r>  -14.7092    1.0000 </r>
       <r>  -14.6911    1.0000 </r>
       <r>  -14.5320    1.0000 </r>
       <r>  -14.4696    1.0000 </r>
       <r>  -14.4028    1.0000 </r>
       <r>  -14.3737    1.0000 </r>
       <r>  -14.3628    1.0000 </r>
       <r>   -4.3521    1.0000 </r>
       <r>   -4.3151    1.0000 </r>
       <r>   -4.0825    1.0000 </r>
       <r>   -4.0269    1.0000 </r>
       <r>   -3.9075    1.0000 </r>
       <r>   -3.8043    1.0000 </r>
       <r>   -3.6210    1.0000 </r>
       <r>   -3.5327    1.0000 </r>
       <r>   -3.2104    1.0000 </r>
       <r>   -3.0442    1.0000 </r>
       <r>   -3.0319    1.0000 </r>
       <r>   -2.9491    1.0000 </r>
       <r>   -2.8563    1.0000 </r>
       <r>   -2.8119    1.0000 </r>
       <r>   -2.5579    1.0000 </r>
       <r>   -2.3911    1.0000 </r>
       <r>   -2.2899    1.0000 </r>
       <r>   -2.2816    1.0000 </r>
       <r>   -1.9668    1.0000 </r>
       <r>   -1.9621    1.0000 </r>
       <r>   -1.8676    1.0000 </r>
       <r>   -1.8615    1.0000 </r>
       <r>   -1.7427    1.0000 </r>
       <r>   -1.6446    1.0000 </r>
       <r>   -1.5581    1.0000 </r>
       <r>   -1.5013    1.0000 </r>
       <r>   -1.3707    1.0000 </r>
       <r>   -1.2856    1.0000 </r>
       <r>   -1.1873    1.0000 </r>
       <r>   -1.0354    1.0000 </r>
       <r>   -0.9258    1.0000 </r>
       <r>   -0.9195    1.0000 </r>
       <r>   -0.7091    1.0000 </r>
       <r>   -0.7073    1.0000 </r>
       <r>   -0.5596    1.0000 </r>
       <r>   -0.3559    1.0000 </r>
       <r>    1.7973    0.0000 </r>
       <r>    2.3468    0.0000 </r>
       <r>    2.9210    0.0000 </r>
       <r>    3.0194    0.0000 </r>
       <r>    3.0581    0.0000 </r>
       <r>    3.1448    0.0000 </r>
       <r>    3.1878    0.0000 </r>
       <r>    3.2732    0.0000 </r>
       <r>    3.2974    0.0000 </r>
       <r>    3.3947    0.0000 </r>
       <r>    3.4206    0.0000 </r>
       <r>    3.4516    0.0000 </r>
      </set>
      <set comment="kpoint 5">
       <r>  -33.7640    1.0000 </r>
       <r>  -32.7759    1.0000 </r>
       <r>  -32.6855    1.0000 </r>
       <r>  -32.6404    1.0000 </r>
       <r>  -17.6792    1.0000 </r>
       <r>  -17.4650    1.0000 </r>
       <r>  -17.2116    1.0000 </r>
       <r>  -16.9172    1.0000 </r>
       <r>  -16.7253    1.0000 </r>
       <r>  -16.6733    1.0000 </r>
       <r>  -16.5885    1.0000 </r>
       <r>  -16.4820    1.0000 </r>
       <r>  -16.4344    1.0000 </r>
       <r>  -16.2438    1.0000 </r>
       <r>  -16.2311    1.0000 </r>
       <r>  -15.8801    1.0000 </r>
       <r>  -15.6666    1.0000 </r>
       <r>  -15.6568    1.0000 </r>
       <r>  -14.8013    1.0000 </r>
       <r>  -14.7263    1.0000 </r>
       <r>  -14.7037    1.0000 </r>
       <r>  -14.7031    1.0000 </r>
       <r>  -14.6790    1.0000 </r>
       <r>  -14.5020    1.0000 </r>
       <r>  -14.4380    1.0000 </r>
       <r>  -14.3917    1.0000 </r>
       <r>  -14.3178    1.0000 </r>
       <r>  -14.2725    1.0000 </r>
       <r>   -4.5567    1.0000 </r>
       <r>   -4.5199    1.0000 </r>
       <r>   -4.3907    1.0000 </r>
       <r>   -4.2858    1.0000 </r>
       <r>   -4.1937    1.0000 </r>
       <r>   -4.1136    1.0000 </r>
       <r>   -3.9800    1.0000 </r>
       <r>   -3.6457    1.0000 </r>
       <r>   -3.4573    1.0000 </r>
       <r>   -3.1080    1.0000 </r>
       <r>   -3.0277    1.0000 </r>
       <r>   -2.9718    1.0000 </r>
       <r>   -2.8797    1.0000 </r>
       <r>   -2.8398    1.0000 </r>
       <r>   -2.6964    1.0000 </r>
       <r>   -2.6710    1.0000 </r>
       <r>   -2.4780    1.0000 </r>
       <r>   -2.3245    1.0000 </r>
       <r>   -2.1823    1.0000 </r>
       <r>   -2.1714    1.0000 </r>
       <r>   -1.9794    1.0000 </r>
       <r>   -1.8868    1.0000 </r>
       <r>   -1.7336    1.0000 </r>
       <r>   -1.6912    1.0000 </r>
       <r>   -1.6565    1.0000 </r>
       <r>   -1.6213    1.0000 </r>
       <r>   -1.3637    1.0000 </r>
       <r>   -1.3204    1.0000 </r>
       <r>   -1.2679    1.0000 </r>
       <r>   -1.1429    1.0000 </r>
       <r>   -1.0470    1.0000 </r>
       <r>   -0.9665    1.0000 </r>
       <r>   -0.7740    1.0000 </r>
       <r>   -0.7342    1.0000 </r>
       <r>   -0.5154    1.0000 </r>
       <r>   -0.2327    1.0000 </r>
       <r>    1.8229    0.0000 </r>
       <r>    2.3683    0.0000 </r>
       <r>    2.9383    0.0000 </r>
       <r>    3.4043    0.0000 </r>
       <r>    3.4200    0.0000 </r>
       <r>    3.4659    0.0000 </r>
       <r>    3.5333    0.0000 </r>
       <r>    3.5905    0.0000 </r>
       <r>    3.6375    0.0000 </r>
       <r>    3.6500    0.0000 </r>
       <r>    3.7542    0.0000 </r>
       <r>    7.3870    0.0000 </r>
      </set>
      <set comment="kpoint 6">
       <r>  -33.7775    1.0000 </r>
       <r>  -32.7920    1.0000 </r>
       <r>  -32.7014    1.0000 </r>
       <r>  -32.6566    1.0000 </r>
       <r>  -17.6180    1.0000 </r>
       <r>  -17.5451    1.0000 </r>
       <r>  -17.4870    1.0000 </r>
       <r>  -17.0377    1.0000 </r>
       <r>  -16.5800    1.0000 </r>
       <r>  -16.5544    1.0000 </r>
       <r>  -16.4833    1.0000 </r>
       <r>  -16.4660    1.0000 </r>
       <r>  -16.4389    1.0000 </r>
       <r>  -16.4340    1.0000 </r>
       <r>  -16.0814    1.0000 </r>
       <r>  -15.9465    1.0000 </r>
       <r>  -15.7089    1.0000 </r>
       <r>  -15.6860    1.0000 </r>
       <r>  -15.2280    1.0000 </r>
       <r>  -14.8423    1.0000 </r>
       <r>  -14.7471    1.0000 </r>
       <r>  -14.7417    1.0000 </r>
       <r>  -14.7288    1.0000 </r>
       <r>  -14.7192    1.0000 </r>
       <r>  -14.6252    1.0000 </r>
       <r>  -14.6054    1.0000 </r>
       <r>  -14.4286    1.0000 </r>
       <r>  -14.3140    1.0000 </r>
       <r>   -4.2778    1.0000 </r>
       <r>   -3.7788    1.0000 </r>
       <r>   -3.3882    1.0000 </r>
       <r>   -3.2572    1.0000 </r>
       <r>   -3.2252    1.0000 </r>
       <r>   -3.1096    1.0000 </r>
       <r>   -3.0592    1.0000 </r>
       <r>   -2.9849    1.0000 </r>
       <r>   -2.9765    1.0000 </r>
       <r>   -2.9130    1.0000 </r>
       <r>   -2.8227    1.0000 </r>
       <r>   -2.7594    1.0000 </r>
       <r>   -2.5516    1.0000 </r>
       <r>   -2.4344    1.0000 </r>
       <r>   -2.2508    1.0000 </r>
       <r>   -2.1598    1.0000 </r>
       <r>   -1.9060    1.0000 </r>
       <r>   -1.9012    1.0000 </r>
       <r>   -1.6537    1.0000 </r>
       <r>   -1.6103    1.0000 </r>
       <r>   -1.5538    1.0000 </r>
       <r>   -1.4781    1.0000 </r>
       <r>   -1.3779    1.0000 </r>
       <r>   -1.3290    1.0000 </r>
       <r>   -1.1590    1.0000 </r>
       <r>   -1.1575    1.0000 </r>
       <r>   -1.1171    1.0000 </r>
       <r>   -1.0182    1.0000 </r>
       <r>   -0.9790    1.0000 </r>
       <r>   -0.9158    1.0000 </r>
       <r>   -0.8905    1.0000 </r>
       <r>   -0.7917    1.0000 </r>
       <r>   -0.7324    1.0000 </r>
       <r>   -0.6141    1.0000 </r>
       <r>   -0.5205    1.0000 </r>
       <r>   -0.2389    1.0000 </r>
       <r>    1.9018    0.0000 </r>
       <r>    2.0202    0.0000 </r>
       <r>    2.0817    0.0000 </r>
       <r>    2.2194    0.0000 </r>
       <r>    2.3241    0.0000 </r>
       <r>    2.3925    0.0000 </r>
       <r>    2.4451    0.0000 </r>
       <r>    2.4762    0.0000 </r>
       <r>    2.5851    0.0000 </r>
       <r>    3.0317    0.0000 </r>
       <r>    5.9737    0.0000 </r>
       <r>    6.0313    0.0000 </r>
      </set>
      <set comment="kpoint 7">
       <r>  -33.7721    1.0000 </r>
       <r>  -32.7857    1.0000 </r>
       <r>  -32.6951    1.0000 </r>
       <r>  -32.6502    1.0000 </r>
       <r>  -17.5544    1.0000 </r>
       <r>  -17.4380    1.0000 </r>
       <r>  -17.4170    1.0000 </r>
       <r>  -17.0212    1.0000 </r>
       <r>  -16.6127    1.0000 </r>
       <r>  -16.5666    1.0000 </r>
       <r>  -16.5525    1.0000 </r>
       <r>  -16.4666    1.0000 </r>
       <r>  -16.4475    1.0000 </r>
       <r>  -16.3753    1.0000 </r>
       <r>  -16.2038    1.0000 </r>
       <r>  -15.9331    1.0000 </r>
       <r>  -15.7276    1.0000 </r>
       <r>  -15.6631    1.0000 </r>
       <r>  -15.0322    1.0000 </r>
       <r>  -14.8367    1.0000 </r>
       <r>  -14.7489    1.0000 </r>
       <r>  -14.7259    1.0000 </r>
       <r>  -14.6940    1.0000 </r>
       <r>  -14.6366    1.0000 </r>
       <r>  -14.5136    1.0000 </r>
       <r>  -14.5073    1.0000 </r>
       <r>  -14.4488    1.0000 </r>
       <r>  -14.3663    1.0000 </r>
       <r>   -4.2970    1.0000 </r>
       <r>   -3.9474    1.0000 </r>
       <r>   -3.7004    1.0000 </r>
       <r>   -3.6588    1.0000 </r>
       <r>   -3.5269    1.0000 </r>
       <r>   -3.3710    1.0000 </r>
       <r>   -3.2359    1.0000 </r>
       <r>   -3.1352    1.0000 </r>
       <r>   -3.0852    1.0000 </r>
       <r>   -3.0549    1.0000 </r>
       <r>   -3.0090    1.0000 </r>
       <r>   -2.9078    1.0000 </r>
       <r>   -2.8519    1.0000 </r>
       <r>   -2.6739    1.0000 </r>
       <r>   -2.5627    1.0000 </r>
       <r>   -2.3860    1.0000 </r>
       <r>   -2.2396    1.0000 </r>
       <r>   -2.1409    1.0000 </r>
       <r>   -2.0027    1.0000 </r>
       <r>   -1.9303    1.0000 </r>
       <r>   -1.8281    1.0000 </r>
       <r>   -1.6900    1.0000 </r>
       <r>   -1.4691    1.0000 </r>
       <r>   -1.3852    1.0000 </r>
       <r>   -1.3017    1.0000 </r>
       <r>   -1.2818    1.0000 </r>
       <r>   -1.1986    1.0000 </r>
       <r>   -1.1446    1.0000 </r>
       <r>   -1.0973    1.0000 </r>
       <r>   -1.0802    1.0000 </r>
       <r>   -0.9127    1.0000 </r>
       <r>   -0.8272    1.0000 </r>
       <r>   -0.7940    1.0000 </r>
       <r>   -0.6812    1.0000 </r>
       <r>   -0.5174    1.0000 </r>
       <r>   -0.3835    1.0000 </r>
       <r>    1.9748    0.0000 </r>
       <r>    2.4293    0.0000 </r>
       <r>    2.5130    0.0000 </r>
       <r>    2.5815    0.0000 </r>
       <r>    2.7005    0.0000 </r>
       <r>    2.7654    0.0000 </r>
       <r>    2.8309    0.0000 </r>
       <r>    2.9765    0.0000 </r>
       <r>    3.0346    0.0000 </r>
       <r>    3.4211    0.0000 </r>
       <r>    6.4235    0.0000 </r>
       <r>    6.6101    0.0000 </r>
      </set>
      <set comment="kpoint 8">
       <r>  -33.7660    1.0000 </r>
       <r>  -32.7784    1.0000 </r>
       <r>  -32.6880    1.0000 </r>
       <r>  -32.6429    1.0000 </r>
       <r>  -17.5763    1.0000 </r>
       <r>  -17.3998    1.0000 </r>
       <r>  -17.2422    1.0000 </r>
       <r>  -16.9804    1.0000 </r>
       <r>  -16.6709    1.0000 </r>
       <r>  -16.5981    1.0000 </r>
       <r>  -16.5410    1.0000 </r>
       <r>  -16.5316    1.0000 </r>
       <r>  -16.4322    1.0000 </r>
       <r>  -16.2666    1.0000 </r>
       <r>  -16.2160    1.0000 </r>
       <r>  -15.9103    1.0000 </r>
       <r>  -15.7551    1.0000 </r>
       <r>  -15.6269    1.0000 </r>
       <r>  -14.8742    1.0000 </r>
       <r>  -14.8253    1.0000 </r>
       <r>  -14.7676    1.0000 </r>
       <r>  -14.7029    1.0000 </r>
       <r>  -14.6532    1.0000 </r>
       <r>  -14.5663    1.0000 </r>
       <r>  -14.4816    1.0000 </r>
       <r>  -14.4223    1.0000 </r>
       <r>  -14.3937    1.0000 </r>
       <r>  -14.3816    1.0000 </r>
       <r>   -4.3475    1.0000 </r>
       <r>   -4.2727    1.0000 </r>
       <r>   -4.0910    1.0000 </r>
       <r>   -4.0329    1.0000 </r>
       <r>   -3.9067    1.0000 </r>
       <r>   -3.7803    1.0000 </r>
       <r>   -3.6179    1.0000 </r>
       <r>   -3.5227    1.0000 </r>
       <r>   -3.2847    1.0000 </r>
       <r>   -3.1629    1.0000 </r>
       <r>   -3.1147    1.0000 </r>
       <r>   -3.0737    1.0000 </r>
       <r>   -2.9930    1.0000 </r>
       <r>   -2.9675    1.0000 </r>
       <r>   -2.8151    1.0000 </r>
       <r>   -2.7225    1.0000 </r>
       <r>   -2.4669    1.0000 </r>
       <r>   -2.3752    1.0000 </r>
       <r>   -2.2629    1.0000 </r>
       <r>   -2.1462    1.0000 </r>
       <r>   -2.0026    1.0000 </r>
       <r>   -1.7689    1.0000 </r>
       <r>   -1.6260    1.0000 </r>
       <r>   -1.5786    1.0000 </r>
       <r>   -1.3996    1.0000 </r>
       <r>   -1.3670    1.0000 </r>
       <r>   -1.3475    1.0000 </r>
       <r>   -1.2829    1.0000 </r>
       <r>   -1.2458    1.0000 </r>
       <r>   -1.1541    1.0000 </r>
       <r>   -0.9643    1.0000 </r>
       <r>   -0.8837    1.0000 </r>
       <r>   -0.7093    1.0000 </r>
       <r>   -0.6136    1.0000 </r>
       <r>   -0.4982    1.0000 </r>
       <r>   -0.3591    1.0000 </r>
       <r>    2.0145    0.0000 </r>
       <r>    2.4874    0.0000 </r>
       <r>    2.9925    0.0000 </r>
       <r>    3.0994    0.0000 </r>
       <r>    3.1174    0.0000 </r>
       <r>    3.2317    0.0000 </r>
       <r>    3.2937    0.0000 </r>
       <r>    3.3607    0.0000 </r>
       <r>    3.4458    0.0000 </r>
       <r>    3.4763    0.0000 </r>
       <r>    3.6609    0.0000 </r>
       <r>    7.2928    0.0000 </r>
      </set>
      <set comment="kpoint 9">
       <r>  -33.7621    1.0000 </r>
       <r>  -32.7736    1.0000 </r>
       <r>  -32.6833    1.0000 </r>
       <r>  -32.6382    1.0000 </r>
       <r>  -17.6187    1.0000 </r>
       <r>  -17.4054    1.0000 </r>
       <r>  -17.1563    1.0000 </r>
       <r>  -16.8692    1.0000 </r>
       <r>  -16.6934    1.0000 </r>
       <r>  -16.6544    1.0000 </r>
       <r>  -16.5646    1.0000 </r>
       <r>  -16.4744    1.0000 </r>
       <r>  -16.4456    1.0000 </r>
       <r>  -16.2127    1.0000 </r>
       <r>  -16.1904    1.0000 </r>
       <r>  -15.8936    1.0000 </r>
       <r>  -15.7695    1.0000 </r>
       <r>  -15.5996    1.0000 </r>
       <r>  -14.8209    1.0000 </r>
       <r>  -14.7914    1.0000 </r>
       <r>  -14.7792    1.0000 </r>
       <r>  -14.6857    1.0000 </r>
       <r>  -14.6243    1.0000 </r>
       <r>  -14.5264    1.0000 </r>
       <r>  -14.4853    1.0000 </r>
       <r>  -14.4284    1.0000 </r>
       <r>  -14.3563    1.0000 </r>
       <r>  -14.3057    1.0000 </r>
       <r>   -4.5202    1.0000 </r>
       <r>   -4.4680    1.0000 </r>
       <r>   -4.3898    1.0000 </r>
       <r>   -4.2878    1.0000 </r>
       <r>   -4.1895    1.0000 </r>
       <r>   -4.0649    1.0000 </r>
       <r>   -3.9711    1.0000 </r>
       <r>   -3.6445    1.0000 </r>
       <r>   -3.4820    1.0000 </r>
       <r>   -3.1926    1.0000 </r>
       <r>   -3.1720    1.0000 </r>
       <r>   -3.1095    1.0000 </r>
       <r>   -3.0864    1.0000 </r>
       <r>   -3.0375    1.0000 </r>
       <r>   -2.9949    1.0000 </r>
       <r>   -2.9328    1.0000 </r>
       <r>   -2.5975    1.0000 </r>
       <r>   -2.5395    1.0000 </r>
       <r>   -2.3417    1.0000 </r>
       <r>   -2.2122    1.0000 </r>
       <r>   -2.0499    1.0000 </r>
       <r>   -1.7662    1.0000 </r>
       <r>   -1.7462    1.0000 </r>
       <r>   -1.5958    1.0000 </r>
       <r>   -1.4944    1.0000 </r>
       <r>   -1.4518    1.0000 </r>
       <r>   -1.3997    1.0000 </r>
       <r>   -1.3448    1.0000 </r>
       <r>   -1.3052    1.0000 </r>
       <r>   -1.1381    1.0000 </r>
       <r>   -1.0098    1.0000 </r>
       <r>   -0.9969    1.0000 </r>
       <r>   -0.7365    1.0000 </r>
       <r>   -0.6807    1.0000 </r>
       <r>   -0.4885    1.0000 </r>
       <r>   -0.2264    1.0000 </r>
       <r>    2.0390    0.0000 </r>
       <r>    2.5161    0.0000 </r>
       <r>    3.0249    0.0000 </r>
       <r>    3.4396    0.0000 </r>
       <r>    3.4784    0.0000 </r>
       <r>    3.4792    0.0000 </r>
       <r>    3.5687    0.0000 </r>
       <r>    3.6282    0.0000 </r>
       <r>    3.6791    0.0000 </r>
       <r>    3.7745    0.0000 </r>
       <r>    3.8594    0.0000 </r>
       <r>    7.6770    0.0000 </r>
      </set>
      <set comment="kpoint 10">
       <r>  -33.7669    1.0000 </r>
       <r>  -32.7795    1.0000 </r>
       <r>  -32.6891    1.0000 </r>
       <r>  -32.6440    1.0000 </r>
       <r>  -17.4824    1.0000 </r>
       <r>  -17.3447    1.0000 </r>
       <r>  -17.2738    1.0000 </r>
       <r>  -16.9575    1.0000 </r>
       <r>  -16.6233    1.0000 </r>
       <r>  -16.5683    1.0000 </r>
       <r>  -16.5412    1.0000 </r>
       <r>  -16.4795    1.0000 </r>
       <r>  -16.4362    1.0000 </r>
       <r>  -16.2872    1.0000 </r>
       <r>  -16.2738    1.0000 </r>
       <r>  -15.9295    1.0000 </r>
       <r>  -15.7298    1.0000 </r>
       <r>  -15.6662    1.0000 </r>
       <r>  -14.9932    1.0000 </r>
       <r>  -14.8683    1.0000 </r>
       <r>  -14.7603    1.0000 </r>
       <r>  -14.7061    1.0000 </r>
       <r>  -14.6618    1.0000 </r>
       <r>  -14.6528    1.0000 </r>
       <r>  -14.5096    1.0000 </r>
       <r>  -14.4805    1.0000 </r>
       <r>  -14.4380    1.0000 </r>
       <r>  -14.4168    1.0000 </r>
       <r>   -4.3089    1.0000 </r>
       <r>   -4.0412    1.0000 </r>
       <r>   -3.8562    1.0000 </r>
       <r>   -3.7960    1.0000 </r>
       <r>   -3.5882    1.0000 </r>
       <r>   -3.4606    1.0000 </r>
       <r>   -3.3817    1.0000 </r>
       <r>   -3.3603    1.0000 </r>
       <r>   -3.2729    1.0000 </r>
       <r>   -3.2659    1.0000 </r>
       <r>   -3.1529    1.0000 </r>
       <r>   -3.0628    1.0000 </r>
       <r>   -3.0094    1.0000 </r>
       <r>   -2.9145    1.0000 </r>
       <r>   -2.7921    1.0000 </r>
       <r>   -2.7784    1.0000 </r>
       <r>   -2.7077    1.0000 </r>
       <r>   -2.5519    1.0000 </r>
       <r>   -2.5104    1.0000 </r>
       <r>   -2.4809    1.0000 </r>
       <r>   -2.0107    1.0000 </r>
       <r>   -1.9813    1.0000 </r>
       <r>   -1.9257    1.0000 </r>
       <r>   -1.5720    1.0000 </r>
       <r>   -1.3703    1.0000 </r>
       <r>   -1.1282    1.0000 </r>
       <r>   -1.1003    1.0000 </r>
       <r>   -1.0503    1.0000 </r>
       <r>   -0.9866    1.0000 </r>
       <r>   -0.9808    1.0000 </r>
       <r>   -0.8906    1.0000 </r>
       <r>   -0.7787    1.0000 </r>
       <r>   -0.7273    1.0000 </r>
       <r>   -0.5964    1.0000 </r>
       <r>   -0.5592    1.0000 </r>
       <r>   -0.1690    1.0000 </r>
       <r>    2.3876    0.0000 </r>
       <r>    2.6370    0.0000 </r>
       <r>    2.7514    0.0000 </r>
       <r>    2.8640    0.0000 </r>
       <r>    2.8785    0.0000 </r>
       <r>    2.9980    0.0000 </r>
       <r>    3.0337    0.0000 </r>
       <r>    3.1566    0.0000 </r>
       <r>    3.1936    0.0000 </r>
       <r>    3.2568    0.0000 </r>
       <r>    3.5040    0.0000 </r>
       <r>    3.5725    0.0000 </r>
      </set>
      <set comment="kpoint 11">
       <r>  -33.7610    1.0000 </r>
       <r>  -32.7725    1.0000 </r>
       <r>  -32.6821    1.0000 </r>
       <r>  -32.6370    1.0000 </r>
       <r>  -17.4460    1.0000 </r>
       <r>  -17.2655    1.0000 </r>
       <r>  -17.1015    1.0000 </r>
       <r>  -16.8698    1.0000 </r>
       <r>  -16.6234    1.0000 </r>
       <r>  -16.6082    1.0000 </r>
       <r>  -16.5263    1.0000 </r>
       <r>  -16.4879    1.0000 </r>
       <r>  -16.4244    1.0000 </r>
       <r>  -16.2265    1.0000 </r>
       <r>  -16.1730    1.0000 </r>
       <r>  -15.9160    1.0000 </r>
       <r>  -15.7852    1.0000 </r>
       <r>  -15.6324    1.0000 </r>
       <r>  -14.9685    1.0000 </r>
       <r>  -14.8798    1.0000 </r>
       <r>  -14.8044    1.0000 </r>
       <r>  -14.6973    1.0000 </r>
       <r>  -14.6482    1.0000 </r>
       <r>  -14.6117    1.0000 </r>
       <r>  -14.5637    1.0000 </r>
       <r>  -14.4699    1.0000 </r>
       <r>  -14.4298    1.0000 </r>
       <r>  -14.4188    1.0000 </r>
       <r>   -4.3452    1.0000 </r>
       <r>   -4.2125    1.0000 </r>
       <r>   -4.0963    1.0000 </r>
       <r>   -4.0699    1.0000 </r>
       <r>   -3.8899    1.0000 </r>
       <r>   -3.7358    1.0000 </r>
       <r>   -3.6650    1.0000 </r>
       <r>   -3.5503    1.0000 </r>
       <r>   -3.5098    1.0000 </r>
       <r>   -3.4420    1.0000 </r>
       <r>   -3.4095    1.0000 </r>
       <r>   -3.3456    1.0000 </r>
       <r>   -3.2646    1.0000 </r>
       <r>   -3.2086    1.0000 </r>
       <r>   -3.1027    1.0000 </r>
       <r>   -2.9871    1.0000 </r>
       <r>   -2.9308    1.0000 </r>
       <r>   -2.8762    1.0000 </r>
       <r>   -2.7967    1.0000 </r>
       <r>   -2.5828    1.0000 </r>
       <r>   -2.3953    1.0000 </r>
       <r>   -2.2819    1.0000 </r>
       <r>   -1.9775    1.0000 </r>
       <r>   -1.6024    1.0000 </r>
       <r>   -1.4587    1.0000 </r>
       <r>   -1.2151    1.0000 </r>
       <r>   -1.0308    1.0000 </r>
       <r>   -1.0130    1.0000 </r>
       <r>   -0.9494    1.0000 </r>
       <r>   -0.9089    1.0000 </r>
       <r>   -0.8358    1.0000 </r>
       <r>   -0.7849    1.0000 </r>
       <r>   -0.6527    1.0000 </r>
       <r>   -0.5557    1.0000 </r>
       <r>   -0.3542    1.0000 </r>
       <r>   -0.0727    1.0000 </r>
       <r>    2.5081    0.0000 </r>
       <r>    2.8635    0.0000 </r>
       <r>    3.0942    0.0000 </r>
       <r>    3.2314    0.0000 </r>
       <r>    3.2599    0.0000 </r>
       <r>    3.2982    0.0000 </r>
       <r>    3.3951    0.0000 </r>
       <r>    3.4432    0.0000 </r>
       <r>    3.5302    0.0000 </r>
       <r>    3.5915    0.0000 </r>
       <r>    3.6566    0.0000 </r>
       <r>    3.8058    0.0000 </r>
      </set>
      <set comment="kpoint 12">
       <r>  -33.7571    1.0000 </r>
       <r>  -32.7679    1.0000 </r>
       <r>  -32.6776    1.0000 </r>
       <r>  -32.6324    1.0000 </r>
       <r>  -17.4512    1.0000 </r>
       <r>  -17.2408    1.0000 </r>
       <r>  -17.0063    1.0000 </r>
       <r>  -16.7434    1.0000 </r>
       <r>  -16.6373    1.0000 </r>
       <r>  -16.6095    1.0000 </r>
       <r>  -16.5306    1.0000 </r>
       <r>  -16.5026    1.0000 </r>
       <r>  -16.4050    1.0000 </r>
       <r>  -16.1310    1.0000 </r>
       <r>  -16.0869    1.0000 </r>
       <r>  -15.9123    1.0000 </r>
       <r>  -15.8687    1.0000 </r>
       <r>  -15.5973    1.0000 </r>
       <r>  -14.9573    1.0000 </r>
       <r>  -14.8950    1.0000 </r>
       <r>  -14.8464    1.0000 </r>
       <r>  -14.6710    1.0000 </r>
       <r>  -14.6169    1.0000 </r>
       <r>  -14.5979    1.0000 </r>
       <r>  -14.5832    1.0000 </r>
       <r>  -14.5059    1.0000 </r>
       <r>  -14.4484    1.0000 </r>
       <r>  -14.3802    1.0000 </r>
       <r>   -4.5156    1.0000 </r>
       <r>   -4.4044    1.0000 </r>
       <r>   -4.3031    1.0000 </r>
       <r>   -4.2410    1.0000 </r>
       <r>   -4.1730    1.0000 </r>
       <r>   -4.0110    1.0000 </r>
       <r>   -3.9231    1.0000 </r>
       <r>   -3.8473    1.0000 </r>
       <r>   -3.6603    1.0000 </r>
       <r>   -3.6081    1.0000 </r>
       <r>   -3.4383    1.0000 </r>
       <r>   -3.4107    1.0000 </r>
       <r>   -3.3760    1.0000 </r>
       <r>   -3.3309    1.0000 </r>
       <r>   -3.1896    1.0000 </r>
       <r>   -3.0631    1.0000 </r>
       <r>   -3.0290    1.0000 </r>
       <r>   -2.8901    1.0000 </r>
       <r>   -2.8589    1.0000 </r>
       <r>   -2.6626    1.0000 </r>
       <r>   -2.5885    1.0000 </r>
       <r>   -2.3559    1.0000 </r>
       <r>   -1.9708    1.0000 </r>
       <r>   -1.6280    1.0000 </r>
       <r>   -1.4367    1.0000 </r>
       <r>   -1.2725    1.0000 </r>
       <r>   -1.0653    1.0000 </r>
       <r>   -1.0114    1.0000 </r>
       <r>   -0.9218    1.0000 </r>
       <r>   -0.8947    1.0000 </r>
       <r>   -0.8441    1.0000 </r>
       <r>   -0.8221    1.0000 </r>
       <r>   -0.6900    1.0000 </r>
       <r>   -0.5087    1.0000 </r>
       <r>   -0.2190    1.0000 </r>
       <r>   -0.0468    1.0000 </r>
       <r>    2.5380    0.0000 </r>
       <r>    2.9027    0.0000 </r>
       <r>    3.2759    0.0000 </r>
       <r>    3.4680    0.0000 </r>
       <r>    3.5520    0.0000 </r>
       <r>    3.6133    0.0000 </r>
       <r>    3.6560    0.0000 </r>
       <r>    3.6877    0.0000 </r>
       <r>    3.7367    0.0000 </r>
       <r>    3.8062    0.0000 </r>
       <r>    3.9553    0.0000 </r>
       <r>    7.8285    0.0000 </r>
      </set>
      <set comment="kpoint 13">
       <r>  -33.7553    1.0000 </r>
       <r>  -32.7658    1.0000 </r>
       <r>  -32.6755    1.0000 </r>
       <r>  -32.6303    1.0000 </r>
       <r>  -17.2994    1.0000 </r>
       <r>  -17.1088    1.0000 </r>
       <r>  -16.9301    1.0000 </r>
       <r>  -16.7268    1.0000 </r>
       <r>  -16.6837    1.0000 </r>
       <r>  -16.5982    1.0000 </r>
       <r>  -16.4860    1.0000 </r>
       <r>  -16.4257    1.0000 </r>
       <r>  -16.4107    1.0000 </r>
       <r>  -16.1846    1.0000 </r>
       <r>  -16.0613    1.0000 </r>
       <r>  -15.9058    1.0000 </r>
       <r>  -15.7895    1.0000 </r>
       <r>  -15.6550    1.0000 </r>
       <r>  -15.0943    1.0000 </r>
       <r>  -14.9085    1.0000 </r>
       <r>  -14.8484    1.0000 </r>
       <r>  -14.7971    1.0000 </r>
       <r>  -14.6648    1.0000 </r>
       <r>  -14.6586    1.0000 </r>
       <r>  -14.5553    1.0000 </r>
       <r>  -14.5519    1.0000 </r>
       <r>  -14.4711    1.0000 </r>
       <r>  -14.4464    1.0000 </r>
       <r>   -4.3714    1.0000 </r>
       <r>   -4.2978    1.0000 </r>
       <r>   -4.1761    1.0000 </r>
       <r>   -4.0861    1.0000 </r>
       <r>   -3.9209    1.0000 </r>
       <r>   -3.8825    1.0000 </r>
       <r>   -3.8690    1.0000 </r>
       <r>   -3.8084    1.0000 </r>
       <r>   -3.7269    1.0000 </r>
       <r>   -3.7249    1.0000 </r>
       <r>   -3.6321    1.0000 </r>
       <r>   -3.6277    1.0000 </r>
       <r>   -3.5522    1.0000 </r>
       <r>   -3.5050    1.0000 </r>
       <r>   -3.4715    1.0000 </r>
       <r>   -3.3886    1.0000 </r>
       <r>   -3.3071    1.0000 </r>
       <r>   -3.1174    1.0000 </r>
       <r>   -3.0049    1.0000 </r>
       <r>   -2.9188    1.0000 </r>
       <r>   -2.7719    1.0000 </r>
       <r>   -2.4403    1.0000 </r>
       <r>   -2.1959    1.0000 </r>
       <r>   -1.5458    1.0000 </r>
       <r>   -1.4677    1.0000 </r>
       <r>   -1.2903    1.0000 </r>
       <r>   -0.9882    1.0000 </r>
       <r>   -0.8971    1.0000 </r>
       <r>   -0.7110    1.0000 </r>
       <r>   -0.6625    1.0000 </r>
       <r>   -0.5726    1.0000 </r>
       <r>   -0.5425    1.0000 </r>
       <r>   -0.4931    1.0000 </r>
       <r>   -0.4497    1.0000 </r>
       <r>   -0.2903    1.0000 </r>
       <r>    0.2380    1.0000 </r>
       <r>    2.9663    0.0000 </r>
       <r>    3.1871    0.0000 </r>
       <r>    3.2892    0.0000 </r>
       <r>    3.3784    0.0000 </r>
       <r>    3.5226    0.0000 </r>
       <r>    3.5399    0.0000 </r>
       <r>    3.5922    0.0000 </r>
       <r>    3.6641    0.0000 </r>
       <r>    3.7773    0.0000 </r>
       <r>    3.8340    0.0000 </r>
       <r>    3.8574    0.0000 </r>
       <r>    7.7142    0.0000 </r>
      </set>
      <set comment="kpoint 14">
       <r>  -33.7516    1.0000 </r>
       <r>  -32.7614    1.0000 </r>
       <r>  -32.6711    1.0000 </r>
       <r>  -32.6259    1.0000 </r>
       <r>  -17.2178    1.0000 </r>
       <r>  -17.0135    1.0000 </r>
       <r>  -16.8089    1.0000 </r>
       <r>  -16.6717    1.0000 </r>
       <r>  -16.6218    1.0000 </r>
       <r>  -16.6000    1.0000 </r>
       <r>  -16.4787    1.0000 </r>
       <r>  -16.4573    1.0000 </r>
       <r>  -16.3772    1.0000 </r>
       <r>  -16.0433    1.0000 </r>
       <r>  -15.9752    1.0000 </r>
[...]
      </set>
      <set comment="kpoint 15">
       <r>  -33.7479    1.0000 </r>
       <r>  -32.7572    1.0000 </r>
       <r>  -32.6669    1.0000 </r>
       <r>  -32.6216    1.0000 </r>
       <r>  -17.0016    1.0000 </r>
       <r>  -16.8054    1.0000 </r>
       <r>  -16.7246    1.0000 </r>
       <r>  -16.6593    1.0000 </r>
       <r>  -16.6306    1.0000 </r>
       <r>  -16.6017    1.0000 </r>
       <r>  -16.4370    1.0000 </r>
       <r>  -16.4192    1.0000 </r>
       <r>  -16.3851    1.0000 </r>
       <r>  -15.9969    1.0000 </r>
       <r>  -15.9080    1.0000 </r>
       <r>  -15.8889    1.0000 </r>
       <r>  -15.7890    1.0000 </r>
       <r>  -15.6517    1.0000 </r>
       <r>  -15.4388    1.0000 </r>
       <r>  -14.9984    1.0000 </r>
       <r>  -14.9291    1.0000 </r>
       <r>  -14.9278    1.0000 </r>
       <r>  -14.7903    1.0000 </r>
       <r>  -14.7123    1.0000 </r>
       <r>  -14.6245    1.0000 </r>
       <r>  -14.5894    1.0000 </r>
       <r>  -14.4835    1.0000 </r>
       <r>  -14.4708    1.0000 </r>
       <r>   -4.6385    1.0000 </r>
       <r>   -4.5555    1.0000 </r>
       <r>   -4.5146    1.0000 </r>
       <r>   -4.4316    1.0000 </r>
       <r>   -4.3051    1.0000 </r>
       <r>   -4.2734    1.0000 </r>
       <r>   -4.1908    1.0000 </r>
       <r>   -4.1804    1.0000 </r>
       <r>   -4.1063    1.0000 </r>
       <r>   -4.0561    1.0000 </r>
       <r>   -3.9353    1.0000 </r>
       <r>   -3.8839    1.0000 </r>
       <r>   -3.7824    1.0000 </r>
       <r>   -3.7432    1.0000 </r>
       <r>   -3.5185    1.0000 </r>
       <r>   -3.4847    1.0000 </r>
       <r>   -3.4526    1.0000 </r>
       <r>   -3.4249    1.0000 </r>
       <r>   -3.1508    1.0000 </r>
       <r>   -3.1312    1.0000 </r>
       <r>   -2.7423    1.0000 </r>
       <r>   -2.6799    1.0000 </r>
       <r>   -2.4341    1.0000 </r>
       <r>   -1.4016    1.0000 </r>
       <r>   -1.3556    1.0000 </r>
       <r>   -1.3309    1.0000 </r>
       <r>   -0.9311    1.0000 </r>
       <r>   -0.9013    1.0000 </r>
       <r>   -0.5230    1.0000 </r>
       <r>   -0.4949    1.0000 </r>
       <r>   -0.2560    1.0000 </r>
       <r>   -0.2211    1.0000 </r>
       <r>   -0.2005    1.0000 </r>
       <r>   -0.1500    1.0000 </r>
       <r>   -0.1227    1.0000 </r>
       <r>    0.5893    1.0000 </r>
       <r>    3.4622    0.0000 </r>
       <r>    3.5081    0.0000 </r>
       <r>    3.6959    0.0000 </r>
       <r>    3.7377    0.0000 </r>
       <r>    3.9109    0.0000 </r>
       <r>    3.9780    0.0000 </r>
       <r>    4.0452    0.0000 </r>
       <r>    4.0696    0.0000 </r>
       <r>    4.1115    0.0000 </r>
       <r>    7.1770    0.0000 </r>
       <r>    7.2520    0.0000 </r>
       <r>    7.3247    0.0000 </r>
      </set>
     </set>
    </set>
   </array>
  </eigenvalues>
  <separator name="orbital magnetization" >
   <v name="MAGDIPOLOUT">      0.00000000      0.00000000      0.00000000</v>
  </separator>
  <dos>
   <i name="efermi">      0.64032839 </i>
   <total>
    <array>
     <dimension dim="1">gridpoints</dimension>
     <dimension dim="2">spin</dimension>
     <field>energy</field>
     <field>total</field>
     <field>integrated</field>
     <set>
      <set comment="spin 1">
       <r>   -35.8622     0.0000     0.0000 </r>
       <r>   -35.7097     0.0000     0.0000 </r>
       <r>   -35.5571     0.0000     0.0000 </r>
       <r>   -35.4045     0.0000     0.0000 </r>
       <r>   -35.2519     0.0000     0.0000 </r>
       <r>   -35.0994     0.0000     0.0000 </r>
       <r>   -34.9468     0.0000     0.0000 </r>
       <r>   -34.7942     0.0000     0.0000 </r>
       <r>   -34.6417     0.0000     0.0000 </r>
       <r>   -34.4891     0.0000     0.0000 </r>
       <r>   -34.3365     0.0000     0.0000 </r>
       <r>   -34.1840     0.0000     0.0000 </r>
       <r>   -34.0314     0.0000     0.0000 </r>
       <r>   -33.8788     0.0000     0.0000 </r>
       <r>   -33.7262     0.0000     2.0000 </r>
       <r>   -33.5737     0.0000     2.0000 </r>
       <r>   -33.4211     0.0000     2.0000 </r>
       <r>   -33.2685     0.0000     2.0000 </r>
       <r>   -33.1160     0.0000     2.0000 </r>
       <r>   -32.9634     0.0000     2.0000 </r>
       <r>   -32.8108     0.0000     2.0000 </r>
       <r>   -32.6582    36.3452     6.0810 </r>
       <r>   -32.5057     0.0000     8.0000 </r>
       <r>   -32.3531     0.0000     8.0000 </r>
       <r>   -32.2005     0.0000     8.0000 </r>
       <r>   -32.0480     0.0000     8.0000 </r>
       <r>   -31.8954     0.0000     8.0000 </r>
       <r>   -31.7428     0.0000     8.0000 </r>
       <r>   -31.5902     0.0000     8.0000 </r>
       <r>   -31.4377     0.0000     8.0000 </r>
       <r>   -31.2851     0.0000     8.0000 </r>
       <r>   -31.1325     0.0000     8.0000 </r>
       <r>   -30.9800     0.0000     8.0000 </r>
       <r>   -30.8274     0.0000     8.0000 </r>
       <r>   -30.6748     0.0000     8.0000 </r>
       <r>   -30.5223     0.0000     8.0000 </r>
       <r>   -30.3697     0.0000     8.0000 </r>
       <r>   -30.2171     0.0000     8.0000 </r>
       <r>   -30.0645     0.0000     8.0000 </r>
       <r>   -29.9120     0.0000     8.0000 </r>
       <r>   -29.7594     0.0000     8.0000 </r>
       <r>   -29.6068     0.0000     8.0000 </r>
       <r>   -29.4543     0.0000     8.0000 </r>
       <r>   -29.3017     0.0000     8.0000 </r>
       <r>   -29.1491     0.0000     8.0000 </r>
       <r>   -28.9965     0.0000     8.0000 </r>
       <r>   -28.8440     0.0000     8.0000 </r>
       <r>   -28.6914     0.0000     8.0000 </r>
       <r>   -28.5388     0.0000     8.0000 </r>
       <r>   -28.3863     0.0000     8.0000 </r>
       <r>   -28.2337     0.0000     8.0000 </r>
       <r>   -28.0811     0.0000     8.0000 </r>
       <r>   -27.9286     0.0000     8.0000 </r>
       <r>   -27.7760     0.0000     8.0000 </r>
       <r>   -27.6234     0.0000     8.0000 </r>
       <r>   -27.4708     0.0000     8.0000 </r>
       <r>   -27.3183     0.0000     8.0000 </r>
       <r>   -27.1657     0.0000     8.0000 </r>
       <r>   -27.0131     0.0000     8.0000 </r>
       <r>   -26.8606     0.0000     8.0000 </r>
       <r>   -26.7080     0.0000     8.0000 </r>
       <r>   -26.5554     0.0000     8.0000 </r>
       <r>   -26.4028     0.0000     8.0000 </r>
       <r>   -26.2503     0.0000     8.0000 </r>
       <r>   -26.0977     0.0000     8.0000 </r>
       <r>   -25.9451     0.0000     8.0000 </r>
       <r>   -25.7926     0.0000     8.0000 </r>
       <r>   -25.6400     0.0000     8.0000 </r>
       <r>   -25.4874     0.0000     8.0000 </r>
       <r>   -25.3348     0.0000     8.0000 </r>
       <r>   -25.1823     0.0000     8.0000 </r>
       <r>   -25.0297     0.0000     8.0000 </r>
       <r>   -24.8771     0.0000     8.0000 </r>
       <r>   -24.7246     0.0000     8.0000 </r>
       <r>   -24.5720     0.0000     8.0000 </r>
       <r>   -24.4194     0.0000     8.0000 </r>
       <r>   -24.2669     0.0000     8.0000 </r>
       <r>   -24.1143     0.0000     8.0000 </r>
       <r>   -23.9617     0.0000     8.0000 </r>
       <r>   -23.8091     0.0000     8.0000 </r>
       <r>   -23.6566     0.0000     8.0000 </r>
       <r>   -23.5040     0.0000     8.0000 </r>
       <r>   -23.3514     0.0000     8.0000 </r>
       <r>   -23.1989     0.0000     8.0000 </r>
       <r>   -23.0463     0.0000     8.0000 </r>
       <r>   -22.8937     0.0000     8.0000 </r>
       <r>   -22.7411     0.0000     8.0000 </r>
       <r>   -22.5886     0.0000     8.0000 </r>
       <r>   -22.4360     0.0000     8.0000 </r>
       <r>   -22.2834     0.0000     8.0000 </r>
       <r>   -22.1309     0.0000     8.0000 </r>
       <r>   -21.9783     0.0000     8.0000 </r>
       <r>   -21.8257     0.0000     8.0000 </r>
       <r>   -21.6731     0.0000     8.0000 </r>
       <r>   -21.5206     0.0000     8.0000 </r>
       <r>   -21.3680     0.0000     8.0000 </r>
       <r>   -21.2154     0.0000     8.0000 </r>
       <r>   -21.0629     0.0000     8.0000 </r>
       <r>   -20.9103     0.0000     8.0000 </r>
       <r>   -20.7577     0.0000     8.0000 </r>
       <r>   -20.6052     0.0000     8.0000 </r>
       <r>   -20.4526     0.0000     8.0000 </r>
       <r>   -20.3000     0.0000     8.0000 </r>
       <r>   -20.1474     0.0000     8.0000 </r>
       <r>   -19.9949     0.0000     8.0000 </r>
       <r>   -19.8423     0.0000     8.0000 </r>
       <r>   -19.6897     0.0000     8.0000 </r>
       <r>   -19.5372     0.0000     8.0000 </r>
       <r>   -19.3846     0.0000     8.0000 </r>
       <r>   -19.2320     0.0000     8.0000 </r>
       <r>   -19.0794     0.0000     8.0000 </r>
       <r>   -18.9269     0.0000     8.0000 </r>
       <r>   -18.7743     0.0000     8.0000 </r>
       <r>   -18.6217     0.0000     8.0000 </r>
       <r>   -18.4692     0.0000     8.0000 </r>
       <r>   -18.3166     0.0000     8.0000 </r>
       <r>   -18.1640     0.0000     8.0000 </r>
       <r>   -18.0115     0.0000     8.0000 </r>
       <r>   -17.8589     0.0000     8.0000 </r>
       <r>   -17.7063     0.2614     8.0008 </r>
       <r>   -17.5537     7.2262     9.0786 </r>
       <r>   -17.4012     9.1351    10.8293 </r>
       <r>   -17.2486     7.2143    11.9608 </r>
       <r>   -17.0960     4.6506    12.9474 </r>
       <r>   -16.9435     6.7398    14.3611 </r>
       <r>   -16.7909     4.7674    15.3287 </r>
       <r>   -16.6383    28.5682    17.1906 </r>
       <r>   -16.4857    50.1432    22.4736 </r>
       <r>   -16.3332     3.5008    26.5078 </r>
       <r>   -16.1806    14.0763    28.2859 </r>
       <r>   -16.0280     6.8727    29.5053 </r>
       <r>   -15.8755     9.7806    32.0547 </r>
       <r>   -15.7229    17.4722    33.4064 </r>
       <r>   -15.5703     0.0522    36.0008 </r>
       <r>   -15.4177     0.7660    36.0626 </r>
       <r>   -15.2652     1.5227    36.2394 </r>
       <r>   -15.1126     2.6316    36.5502 </r>
       <r>   -14.9600     8.3047    37.3519 </r>
       <r>   -14.8075    24.1655    40.6180 </r>
       <r>   -14.6549    42.9046    46.0401 </r>
       <r>   -14.5023    33.6090    50.5316 </r>
       <r>   -14.3498    18.6149    55.2049 </r>
       <r>   -14.1972     0.0000    56.0000 </r>
       <r>   -14.0446     0.0000    56.0000 </r>
       <r>   -13.8920     0.0000    56.0000 </r>
       <r>   -13.7395     0.0000    56.0000 </r>
       <r>   -13.5869     0.0000    56.0000 </r>
       <r>   -13.4343     0.0000    56.0000 </r>
       <r>   -13.2818     0.0000    56.0000 </r>
       <r>   -13.1292     0.0000    56.0000 </r>
       <r>   -12.9766     0.0000    56.0000 </r>
       <r>   -12.8240     0.0000    56.0000 </r>
       <r>   -12.6715     0.0000    56.0000 </r>
       <r>   -12.5189     0.0000    56.0000 </r>
       <r>   -12.3663     0.0000    56.0000 </r>
       <r>   -12.2138     0.0000    56.0000 </r>
       <r>   -12.0612     0.0000    56.0000 </r>
       <r>   -11.9086     0.0000    56.0000 </r>
       <r>   -11.7560     0.0000    56.0000 </r>
       <r>   -11.6035     0.0000    56.0000 </r>
       <r>   -11.4509     0.0000    56.0000 </r>
       <r>   -11.2983     0.0000    56.0000 </r>
       <r>   -11.1458     0.0000    56.0000 </r>
       <r>   -10.9932     0.0000    56.0000 </r>
       <r>   -10.8406     0.0000    56.0000 </r>
       <r>   -10.6881     0.0000    56.0000 </r>
       <r>   -10.5355     0.0000    56.0000 </r>
       <r>   -10.3829     0.0000    56.0000 </r>
       <r>   -10.2303     0.0000    56.0000 </r>
       <r>   -10.0778     0.0000    56.0000 </r>
       <r>    -9.9252     0.0000    56.0000 </r>
       <r>    -9.7726     0.0000    56.0000 </r>
       <r>    -9.6201     0.0000    56.0000 </r>
       <r>    -9.4675     0.0000    56.0000 </r>
       <r>    -9.3149     0.0000    56.0000 </r>
       <r>    -9.1623     0.0000    56.0000 </r>
       <r>    -9.0098     0.0000    56.0000 </r>
       <r>    -8.8572     0.0000    56.0000 </r>
       <r>    -8.7046     0.0000    56.0000 </r>
       <r>    -8.5521     0.0000    56.0000 </r>
       <r>    -8.3995     0.0000    56.0000 </r>
       <r>    -8.2469     0.0000    56.0000 </r>
       <r>    -8.0943     0.0000    56.0000 </r>
       <r>    -7.9418     0.0000    56.0000 </r>
       <r>    -7.7892     0.0000    56.0000 </r>
       <r>    -7.6366     0.0000    56.0000 </r>
       <r>    -7.4841     0.0000    56.0000 </r>
       <r>    -7.3315     0.0000    56.0000 </r>
       <r>    -7.1789     0.0000    56.0000 </r>
       <r>    -7.0264     0.0000    56.0000 </r>
       <r>    -6.8738     0.0000    56.0000 </r>
       <r>    -6.7212     0.0000    56.0000 </r>
       <r>    -6.5686     0.0000    56.0000 </r>
       <r>    -6.4161     0.0000    56.0000 </r>
       <r>    -6.2635     0.0000    56.0000 </r>
       <r>    -6.1109     0.0000    56.0000 </r>
       <r>    -5.9584     0.0000    56.0000 </r>
       <r>    -5.8058     0.0000    56.0000 </r>
       <r>    -5.6532     0.0000    56.0000 </r>
       <r>    -5.5006     0.0000    56.0000 </r>
       <r>    -5.3481     0.0000    56.0000 </r>
       <r>    -5.1955     0.0000    56.0000 </r>
       <r>    -5.0429     0.0000    56.0000 </r>
       <r>    -4.8904     0.0000    56.0000 </r>
       <r>    -4.7378     0.0000    56.0000 </r>
       <r>    -4.5852     1.3836    56.0869 </r>
       <r>    -4.4327    11.5689    57.3166 </r>
       <r>    -4.2801    21.0576    59.8930 </r>
       <r>    -4.1275    12.0323    62.2184 </r>
       <r>    -3.9749    24.9423    64.5457 </r>
       <r>    -3.8224    15.1065    67.0653 </r>
       <r>    -3.6698    14.7477    69.4289 </r>
       <r>    -3.5172    28.1001    71.9270 </r>
       <r>    -3.3647    17.6911    74.9264 </r>
       <r>    -3.2121    18.8586    77.7438 </r>
       <r>    -3.0595    28.7329    81.5982 </r>
       <r>    -2.9069    21.7521    85.4455 </r>
       <r>    -2.7544    14.6504    87.8565 </r>
       <r>    -2.6018    12.3090    90.1497 </r>
       <r>    -2.4492    11.0625    91.9882 </r>
       <r>    -2.2967    11.7943    93.8627 </r>
       <r>    -2.1441     9.4054    95.7206 </r>
       <r>    -1.9915    12.1689    97.2708 </r>
       <r>    -1.8389    10.7217    98.8987 </r>
       <r>    -1.6864    10.3264   100.4388 </r>
       <r>    -1.5338    12.4840   102.7000 </r>
       <r>    -1.3812    21.9559   105.5029 </r>
       <r>    -1.2287    16.8712   108.8830 </r>
       <r>    -1.0761    18.6887   111.4489 </r>
       <r>    -0.9235    29.5284   115.1339 </r>
       <r>    -0.7710    17.6349   118.0199 </r>
       <r>    -0.6184    15.1168   121.1630 </r>
       <r>    -0.4658    11.1071   123.7907 </r>
       <r>    -0.3132    10.2798   125.4917 </r>
       <r>    -0.1607     5.5281   127.0462 </r>
       <r>    -0.0081     1.1025   127.4800 </r>
       <r>     0.1445     0.8886   127.6319 </r>
       <r>     0.2970     0.8048   127.7550 </r>
       <r>     0.4496     0.8040   127.8866 </r>
       <r>     0.6022     0.0000   128.0000 </r>
       <r>     0.7548     0.0000   128.0000 </r>
       <r>     0.9073     0.0000   128.0000 </r>
       <r>     1.0599     0.0000   128.0000 </r>
       <r>     1.2125     0.0000   128.0000 </r>
       <r>     1.3650     0.0000   128.0000 </r>
       <r>     1.5176     0.0000   128.0000 </r>
       <r>     1.6702     0.3945   128.0121 </r>
       <r>     1.8228     3.8179   128.2578 </r>
       <r>     1.9753     4.2168   128.9503 </r>
       <r>     2.1279     3.2648   129.4707 </r>
       <r>     2.2805     3.9656   130.0090 </r>
       <r>     2.4330     8.9671   131.1511 </r>
       <r>     2.5856     6.6838   132.3220 </r>
       <r>     2.7382     7.0707   133.3632 </r>
       <r>     2.8907     7.5056   134.4747 </r>
       <r>     3.0433    10.5459   136.1139 </r>
       <r>     3.1959    11.0117   137.7257 </r>
       <r>     3.3485    14.5361   139.6351 </r>
       <r>     3.5010    15.4018   142.4274 </r>
       <r>     3.6536    19.1408   144.9744 </r>
       <r>     3.8062    11.8173   147.1515 </r>
       <r>     3.9587     4.2502   148.2738 </r>
       <r>     4.1113     1.1943   148.7727 </r>
       <r>     4.2639     0.5041   148.8738 </r>
       <r>     4.4165     0.5119   148.9513 </r>
       <r>     4.5690     0.5197   149.0300 </r>
       <r>     4.7216     0.5276   149.1099 </r>
       <r>     4.8742     0.5354   149.1910 </r>
       <r>     5.0267     0.5433   149.2732 </r>
       <r>     5.1793     0.5511   149.3567 </r>
       <r>     5.3319     0.5590   149.4414 </r>
       <r>     5.4845     0.8647   149.5300 </r>
       <r>     5.6370     1.0802   149.6869 </r>
       <r>     5.7896     1.2480   149.8736 </r>
       <r>     5.9422     1.2093   150.0611 </r>
       <r>     6.0947     1.2373   150.2459 </r>
       <r>     6.2473     1.3115   150.4404 </r>
       <r>     6.3999     1.0565   150.6344 </r>
       <r>     6.5524     0.7078   150.7602 </r>
       <r>     6.7050     0.4956   150.8470 </r>
       <r>     6.8576     0.4489   150.9191 </r>
       <r>     7.0102     0.4022   150.9840 </r>
       <r>     7.1627     0.3554   151.0418 </r>
       <r>     7.3153     0.8139   151.1663 </r>
       <r>     7.4679     1.7513   151.4123 </r>
       <r>     7.6204     1.1236   151.5956 </r>
       <r>     7.7730     2.7111   151.8342 </r>
       <r>     7.9256     0.0000   152.0000 </r>
       <r>     8.0782     0.0000   152.0000 </r>
       <r>     8.2307     0.0000   152.0000 </r>
       <r>     8.3833     0.0000   152.0000 </r>
       <r>     8.5359     0.0000   152.0000 </r>
       <r>     8.6884     0.0000   152.0000 </r>
       <r>     8.8410     0.0000   152.0000 </r>
       <r>     8.9936     0.0000   152.0000 </r>
       <r>     9.1461     0.0000   152.0000 </r>
       <r>     9.2987     0.0000   152.0000 </r>
       <r>     9.4513     0.0000   152.0000 </r>
       <r>     9.6039     0.0000   152.0000 </r>
       <r>     9.7564     0.0000   152.0000 </r>
       <r>     9.9090     0.0000   152.0000 </r>
      </set>
     </set>
    </array>
   </total>
  </dos>
 </calculation>
 <structure name="finalpos" >
  <crystal>
   <varray name="basis" >
    <v>       3.90526800       0.00000000       0.00000000 </v>
    <v>       0.00000000       3.90526800       0.00000000 </v>
    <v>       0.00000000       0.00000000      25.66843800 </v>
   </varray>
   <i name="volume">    391.47238071 </i>
   <varray name="rec_basis" >
    <v>       0.25606437       0.00000000       0.00000000 </v>
    <v>       0.00000000       0.25606437       0.00000000 </v>
    <v>       0.00000000       0.00000000       0.03895835 </v>
   </varray>
  </crystal>
  <varray name="positions" >
   <v>       0.50000000       0.50000000       0.23375010 </v>
   <v>       0.50000000       0.00000000       0.30982150 </v>
   <v>       0.00000000       0.50000000       0.30982150 </v>
   <v>       0.50000000       0.50000000       0.38589290 </v>
   <v>       0.50000000       0.00000000       0.46196430 </v>
   <v>       0.00000000       0.50000000       0.46196430 </v>
   <v>       0.50000000       0.50000000       0.53803570 </v>
   <v>       0.50000000       0.00000000       0.61410710 </v>
   <v>       0.00000000       0.50000000       0.61410710 </v>
   <v>       0.50000000       0.50000000       0.69017850 </v>
   <v>       0.50000000       0.00000000       0.76624990 </v>
   <v>       0.00000000       0.50000000       0.76624990 </v>
   <v>       0.00000000       0.00000000       0.23375010 </v>
   <v>       0.00000000       0.00000000       0.38589290 </v>
   <v>       0.00000000       0.00000000       0.53803570 </v>
   <v>       0.00000000       0.00000000       0.69017850 </v>
   <v>       0.50000000       0.50000000       0.30982150 </v>
   <v>       0.50000000       0.50000000       0.46196430 </v>
   <v>       0.50000000       0.50000000       0.61410710 </v>
   <v>       0.50000000       0.50000000       0.76624990 </v>
  </varray>
 </structure>
</modeling>
