unknown system                          
   1.00000000000000     
     5.431010    0.000000    0.000000
     0.000000    5.431010    0.000000
     0.000000    0.000000   10.791010
   Si
    10
Direct
  0.000000  0.000000  0.000000
  0.499999  0.499999  0.000000
  0.250000  0.250000  0.125822
  0.750000  0.750000  0.125822
  0.000000  0.499999  0.251645
  0.499999  0.000000  0.251645
  0.250000  0.750000  0.377468
  0.750000  0.250000  0.377468
  0.000000  0.000000  0.503290
  0.499999  0.499999  0.503290
 
   48   48   84
 -56.639     -44.492     -11.844      31.481      73.483      104.25      118.78      117.61      105.43      88.657    
  72.035      57.104      44.512      34.392      26.542      20.594      16.148      12.841      10.387      8.5727    
  7.2495      6.3130      5.6921      5.3390      5.2245      5.3390      5.6921      6.3130      7.2495      8.5727    
  10.387      12.841      16.148      20.594      26.542      34.392      44.512      57.104      72.035      88.657    
  105.43      117.61      118.78      104.25      73.483      31.481     -11.844     -44.492     -44.492     -32.709    
 -1.0839      41.110      82.138      112.05      125.70      123.57      110.47      92.973      75.738      60.255    
  47.166      36.604      28.368      22.090      17.367      13.830      11.186      9.2155      7.7607      6.7110    
  5.9894      5.5431      5.3390      5.3635      5.6227      6.1412      6.9611      8.1467      9.7929      12.038    
  15.082      19.194      24.721      32.048      41.535      53.386      67.489      83.241      99.252      111.32    
  113.56      101.54      74.483      36.652     -2.9969     -33.231     -11.844     -1.0839      26.770      63.626    
  98.956      123.72      133.32      128.43      113.85      95.850      78.369      62.685      49.399      38.627    
  30.170      23.673      18.742      15.019      12.210      10.095      8.5152      7.3542      6.5312      5.9894    
  5.6921      5.6227      5.7837      6.1950      6.8930      7.9341      9.4028      11.424      14.177      17.912    
  22.947      29.644      38.346      49.264      62.327      77.025      92.244      104.77      109.55      102.59    
  82.803      53.356      21.561     -2.9969      31.481      41.110      63.626      92.463      118.97      135.78    
  139.38      130.90      114.94      96.982      79.735      64.278      51.140      40.421      31.932      25.346    
  20.293      16.435      13.492      11.251      9.5529      8.2818      7.3542      6.7110      6.3130      6.1412    
  6.1950      6.4902      7.0574      7.9450      9.2260      11.010      13.454      16.779      21.271      27.260    
  35.064      44.904      56.762      70.252      84.528      97.543      105.34      104.47      93.639      74.815    
  53.356      36.652      73.483      82.138      98.956      118.97      135.71      143.88      141.37      129.81    
  113.43      96.197      79.736      64.968      52.350      41.967      33.655      27.126      22.051      18.123    
  15.087      12.741      10.934      9.5529      8.5152      7.7607      7.2495      6.9611      6.8930      7.0574    
  7.4798      8.2006      9.2816      10.815      12.935      15.832      19.751      24.982      31.816      40.474    
  50.996      63.130      76.255      89.244      99.489      104.17      101.91      93.639      82.803      74.483    
  104.25      112.05      123.72      135.78      143.88      144.78      137.77      124.83      109.39      93.523    
  78.393      64.768      53.033      43.270      35.353      29.042      24.061      20.144      17.065      14.643    
  12.741      11.251      10.095      9.2155      8.5727      8.1467      7.9341      7.9450      8.2006      8.7348    
  9.5981      10.866      12.650      15.106      18.439      22.893      28.723      36.143      45.240      55.884    
  67.662      79.883      91.292      99.832      104.17      104.47      102.59      101.54      118.78      125.70    
  133.32      139.38      141.37      137.77      128.91      116.76      103.14      89.194      75.860      63.764    
  53.236      44.361      37.056      31.137      26.383      22.574      19.520      17.065      15.087      13.492    
  12.210      11.186      10.387      9.7929      9.4028      9.2260      9.2816      9.5981      10.217      11.199    
  12.632      14.640      17.386      21.067      25.899      32.073      39.706      48.766      59.010      69.983    
  81.073      91.292      99.489      105.34      109.55      113.56      117.61      123.57      128.43      130.90    
  129.81      124.83      116.76      106.60      95.246      83.602      72.388      62.109      53.047      45.297    
  38.816      33.473      29.097      25.516      22.574      20.144      18.123      16.435      15.019      13.830    
  12.841      12.038      11.424      11.010      10.815      10.866      11.199      11.861      12.919      14.469    
  16.633      19.565      23.433      28.402      34.595      42.042      50.629      60.080      69.983      79.883    
  89.244      97.543      104.77      111.32      105.43      110.47      113.85      114.94      113.43      109.39    
  103.14      95.246      86.387      77.217      68.288      59.998      52.590      46.164      40.706      36.129    
  32.305      29.097      26.383      24.061      22.051      20.293      18.742      17.367      16.148      15.082    
  14.177      13.454      12.935      12.650      12.632      12.919      13.564      14.634      16.219      18.428    
  21.388      25.228      30.061      35.947      42.853      50.629      59.010      67.662      76.255      84.528    
  92.244      99.252      88.657      92.973      95.850      96.982      96.197      93.523      89.194      83.602    
  77.217      70.508      63.880      57.647      52.010      47.066      42.820      39.208      36.129      33.473    
  31.137      29.042      27.126      25.346      23.673      22.090      20.594      19.194      17.912      16.779    
  15.832      15.106      14.640      14.469      14.634      15.184      16.177      17.686      19.797      22.604    
  26.197      30.642      35.947      42.042      48.766      55.884      63.130      70.252      77.025      83.241    
  72.035      75.738      78.369      79.735      79.736      78.393      75.860      72.388      68.288      63.880    
  59.459      55.262      51.455      48.120      45.260      42.820      40.706      38.816      37.056      35.353    
  33.655      31.932      30.170      28.368      26.542      24.721      22.947      21.271      19.751      18.439    
  17.386      16.633      16.219      16.177      16.542      17.355      18.668      20.539      23.031      26.197    
  30.061      34.595      39.706      45.240      50.996      56.762      62.327      67.489      57.104      60.255    
  62.685      64.278      64.968      64.768      63.764      62.109      59.998      57.647      55.262      53.025    
  51.060      49.429      48.120      47.066      46.164      45.297      44.361      43.270      41.967      40.421    
  38.627      36.604      34.392      32.048      29.644      27.260      24.982      22.893      21.067      19.565    
  18.428      17.686      17.355      17.452      17.996      19.014      20.539      22.604      25.228      28.402    
  32.073      36.143      40.474      44.904      49.264      53.386      44.512      47.166      49.399      51.140    
  52.350      53.033      53.236      53.047      52.590      52.010      51.455      51.060      50.917      51.060    
  51.455      52.010      52.590      53.047      53.236      53.033      52.350      51.140      49.399      47.166    
  44.512      41.535      38.346      35.064      31.816      28.723      25.899      23.433      21.388      19.797    
  18.668      17.996      17.774      17.996      18.668      19.797      21.388      23.433      25.899      28.723    
  31.816      35.064      38.346      41.535      34.392      36.604      38.627      40.421      41.967      43.270    
  44.361      45.297      46.164      47.066      48.120      49.429      51.060      53.025      55.262      57.647    
  59.998      62.109      63.764      64.768      64.968      64.278      62.685      60.255      57.104      53.386    
  49.264      44.904      40.474      36.143      32.073      28.402      25.228      22.604      20.539      19.014    
  17.996      17.452      17.355      17.686      18.428      19.565      21.067      22.893      24.982      27.260    
  29.644      32.048      26.542      28.368      30.170      31.932      33.655      35.353      37.056      38.816    
  40.706      42.820      45.260      48.120      51.455      55.262      59.459      63.880      68.288      72.388    
  75.860      78.393      79.736      79.735      78.369      75.738      72.035      67.489      62.327      56.762    
  50.996      45.240      39.706      34.595      30.061      26.197      23.031      20.539      18.668      17.355    
  16.542      16.177      16.219      16.633      17.386      18.439      19.751      21.271      22.947      24.721    
  20.594      22.090      23.673      25.346      27.126      29.042      31.137      33.473      36.129      39.208    
  42.820      47.066      52.010      57.647      63.880      70.508      77.217      83.602      89.194      93.523    
  96.197      96.982      95.850      92.973      88.657      83.241      77.025      70.252      63.130      55.884    
  48.766      42.042      35.947      30.642      26.197      22.604      19.797      17.686      16.177      15.184    
  14.634      14.469      14.640      15.106      15.832      16.779      17.912      19.194      16.148      17.367    
  18.742      20.293      22.051      24.061      26.383      29.097      32.305      36.129      40.706      46.164    
  52.590      59.998      68.288      77.217      86.387      95.246      103.14      109.39      113.43      114.94    
  113.85      110.47      105.43      99.252      92.244      84.528      76.255      67.662      59.010      50.629    
  42.853      35.947      30.061      25.228      21.388      18.428      16.219      14.634      13.564      12.919    
  12.632      12.650      12.935      13.454      14.177      15.082      12.841      13.830      15.019      16.435    
  18.123      20.144      22.574      25.516      29.097      33.473      38.816      45.297      53.047      62.109    
  72.388      83.602      95.246      106.60      116.76      124.83      129.81      130.90      128.43      123.57    
  117.61      111.32      104.77      97.543      89.244      79.883      69.983      60.080      50.629      42.042    
  34.595      28.402      23.433      19.565      16.633      14.469      12.919      11.861      11.199      10.866    
  10.815      11.010      11.424      12.038      10.387      11.186      12.210      13.492      15.087      17.065    
  19.520      22.574      26.383      31.137      37.056      44.361      53.236      63.764      75.860      89.194    
  103.14      116.76      128.91      137.77      141.37      139.38      133.32      125.70      118.78      113.55    
  109.55      105.34      99.489      91.292      81.073      69.983      59.010      48.766      39.706      32.073    
  25.899      21.067      17.386      14.640      12.632      11.199      10.217      9.5981      9.2816      9.2260    
  9.4028      9.7929      8.5727      9.2155      10.095      11.251      12.741      14.643      17.065      20.144    
  24.061      29.042      35.353      43.270      53.033      64.768      78.393      93.523      109.39      124.83    
  137.77      144.78      143.88      135.78      123.72      112.04      104.24      101.53      102.59      104.47    
  104.17      99.832      91.292      79.883      67.662      55.884      45.240      36.143      28.723      22.893    
  18.439      15.106      12.650      10.866      9.5981      8.7348      8.2006      7.9450      7.9341      8.1467    
  7.2495      7.7607      8.5152      9.5529      10.934      12.741      15.087      18.123      22.051      27.126    
  33.655      41.967      52.350      64.968      79.736      96.197      113.43      129.81      141.37      143.88    
  135.71      118.97      98.955      82.136      73.482      74.482      82.803      93.639      101.91      104.17    
  99.489      89.244      76.255      63.130      50.996      40.474      31.816      24.982      19.751      15.832    
  12.935      10.815      9.2816      8.2006      7.4798      7.0574      6.8930      6.9611      6.3130      6.7110    
  7.3542      8.2818      9.5529      11.251      13.492      16.435      20.293      25.346      31.932      40.421    
  51.140      64.278      79.735      96.982      114.94      130.90      139.38      135.78      118.97      92.461    
  63.624      41.108      31.479      36.651      53.355      74.815      93.639      104.47      105.34      97.543    
  84.528      70.252      56.762      44.904      35.064      27.260      21.271      16.779      13.454      11.010    
  9.2260      7.9450      7.0574      6.4902      6.1950      6.1412      5.6921      5.9894      6.5312      7.3542    
  8.5152      10.095      12.210      15.019      18.742      23.673      30.170      38.627      49.399      62.685    
  78.369      95.850      113.85      128.43      133.32      123.72      98.955      63.624      26.768     -1.0857    
 -11.846     -2.9975      21.561      53.356      82.804      102.59      109.55      104.77      92.244      77.025    
  62.327      49.264      38.346      29.644      22.947      17.912      14.177      11.424      9.4028      7.9341    
  6.8930      6.1950      5.7837      5.6227      5.3390      5.5431      5.9894      6.7110      7.7607      9.2155    
  11.186      13.830      17.367      22.090      28.368      36.604      47.166      60.255      75.738      92.973    
  110.47      123.57      125.70      112.04      82.136      41.108     -1.0857     -32.710     -44.493     -33.231    
 -2.9964      36.652      74.484      101.54      113.56      111.32      99.252      83.241      67.489      53.386    
  41.535      32.048      24.721      19.194      15.082      12.038      9.7929      8.1467      6.9611      6.1412    
  5.6227      5.3635      5.2245      5.3390      5.6921      6.3130      7.2495      8.5727      10.387      12.841    
  16.148      20.594      26.542      34.392      44.512      57.104      72.035      88.657      105.43      117.61    
  118.78      104.24      73.482      31.479     -11.846     -44.493     -56.639     -44.491     -11.843      31.482    
  73.485      104.25      118.78      117.61      105.43      88.657      72.035      57.104      44.512      34.392    
  26.542      20.594      16.148      12.841      10.387      8.5727      7.2495      6.3130      5.6921      5.3390    
  5.3390      5.3635      5.6227      6.1412      6.9611      8.1467      9.7929      12.038      15.082      19.194    
  24.721      32.048      41.535      53.386      67.489      83.241      99.252      111.32      113.55      101.53    
  74.482      36.651     -2.9975     -33.231     -44.491     -32.707     -1.0820      41.112      82.139      112.05    
  125.70      123.57      110.47      92.973      75.738      60.255      47.166      36.604      28.368      22.090    
  17.367      13.830      11.186      9.2155      7.7607      6.7110      5.9894      5.5431      5.6921      5.6227    
  5.7837      6.1950      6.8930      7.9341      9.4028      11.424      14.177      17.912      22.947      29.644    
  38.346      49.264      62.327      77.025      92.244      104.77      109.55      102.59      82.803      53.355    
  21.561     -2.9964     -11.843     -1.0820      26.773      63.629      98.958      123.72      133.32      128.43    
  113.85      95.850      78.369      62.685      49.399      38.627      30.170      23.673      18.742      15.019    
  12.210      10.095      8.5152      7.3542      6.5312      5.9894      6.3130      6.1412      6.1950      6.4902    
  7.0574      7.9450      9.2260      11.010      13.454      16.779      21.271      27.260      35.064      44.904    
  56.762      70.252      84.528      97.543      105.34      104.47      93.639      74.815      53.356      36.652    
  31.482      41.112      63.629      92.465      118.97      135.78      139.38      130.90      114.94      96.982    
  79.735      64.278      51.140      40.421      31.932      25.346      20.293      16.435      13.492      11.251    
  9.5529      8.2818      7.3542      6.7110      7.2495      6.9611      6.8930      7.0574      7.4798      8.2006    
  9.2816      10.815      12.935      15.832      19.751      24.982      31.816      40.474      50.996      63.130    
  76.255      89.244      99.489      104.17      101.91      93.639      82.804      74.484      73.485      82.139    
  98.958      118.97      135.72      143.88      141.37      129.81      113.43      96.197      79.736      64.968    
  52.350      41.967      33.655      27.126      22.051      18.123      15.087      12.741      10.934      9.5529    
  8.5152      7.7607      8.5727      8.1467      7.9341      7.9450      8.2006      8.7348      9.5981      10.866    
  12.650      15.106      18.439      22.893      28.723      36.143      45.240      55.884      67.662      79.883    
  91.292      99.832      104.17      104.47      102.59      101.54      104.25      112.05      123.72      135.78    
  143.88      144.78      137.77      124.83      109.39      93.523      78.393      64.768      53.033      43.270    
  35.353      29.042      24.061      20.144      17.065      14.643      12.741      11.251      10.095      9.2155    
  10.387      9.7929      9.4028      9.2260      9.2816      9.5981      10.217      11.199      12.632      14.640    
  17.386      21.067      25.899      32.073      39.706      48.766      59.010      69.983      81.073      91.292    
  99.489      105.34      109.55      113.56      118.78      125.70      133.32      139.38      141.37      137.77    
  128.91      116.76      103.14      89.194      75.860      63.764      53.236      44.361      37.056      31.137    
  26.383      22.574      19.520      17.065      15.087      13.492      12.210      11.186      12.841      12.038    
  11.424      11.010      10.815      10.866      11.199      11.861      12.919      14.469      16.633      19.565    
  23.433      28.402      34.595      42.042      50.629      60.080      69.983      79.883      89.244      97.543    
  104.77      111.32      117.61      123.57      128.43      130.90      129.81      124.83      116.76      106.60    
  95.246      83.602      72.388      62.109      53.047      45.297      38.816      33.473      29.097      25.516    
  22.574      20.144      18.123      16.435      15.019      13.830      16.148      15.082      14.177      13.454    
  12.935      12.650      12.632      12.919      13.564      14.634      16.219      18.428      21.388      25.228    
  30.061      35.947      42.853      50.629      59.010      67.662      76.255      84.528      92.244      99.252    
  105.43      110.47      113.85      114.94      113.43      109.39      103.14      95.246      86.387      77.217    
  68.288      59.998      52.590      46.164      40.706      36.129      32.305      29.097      26.383      24.061    
  22.051      20.293      18.742      17.367      20.594      19.194      17.912      16.779      15.832      15.106    
  14.640      14.469      14.634      15.184      16.177      17.686      19.797      22.604      26.197      30.642    
  35.947      42.042      48.766      55.884      63.130      70.252      77.025      83.241      88.657      92.973    
  95.850      96.982      96.197      93.523      89.194      83.602      77.217      70.508      63.880      57.647    
  52.010      47.066      42.820      39.208      36.129      33.473      31.137      29.042      27.126      25.346    
  23.673      22.090      26.542      24.721      22.947      21.271      19.751      18.439      17.386      16.633    
  16.219      16.177      16.542      17.355      18.668      20.539      23.031      26.197      30.061      34.595    
  39.706      45.240      50.996      56.762      62.327      67.489      72.035      75.738      78.369      79.735    
  79.736      78.393      75.860      72.388      68.288      63.880      59.459      55.262      51.455      48.120    
  45.260      42.820      40.706      38.816      37.056      35.353      33.655      31.932      30.170      28.368    
  34.392      32.048      29.644      27.260      24.982      22.893      21.067      19.565      18.428      17.686    
  17.355      17.452      17.996      19.014      20.539      22.604      25.228      28.402      32.073      36.143    
  40.474      44.904      49.264      53.386      57.104      60.255      62.685      64.278      64.968      64.768    
  63.764      62.109      59.998      57.647      55.262      53.025      51.060      49.429      48.120      47.066    
  46.164      45.297      44.361      43.270      41.967      40.421      38.627      36.604      44.512      41.535    
  38.346      35.064      31.816      28.723      25.899      23.433      21.388      19.797      18.668      17.996    
  17.774      17.996      18.668      19.797      21.388      23.433      25.899      28.723      31.816      35.064    
  38.346      41.535      44.512      47.166      49.399      51.140      52.350      53.033      53.236      53.047    
  52.590      52.010      51.455      51.060      50.917      51.060      51.455      52.010      52.590      53.047    
  53.236      53.033      52.350      51.140      49.399      47.166      57.104      53.386      49.264      44.904    
  40.474      36.143      32.073      28.402      25.228      22.604      20.539      19.014      17.996      17.452    
  17.355      17.686      18.428      19.565      21.067      22.893      24.982      27.260      29.644      32.048    
  34.392      36.604      38.627      40.421      41.967      43.270      44.361      45.297      46.164      47.066    
  48.120      49.429      51.060      53.025      55.262      57.647      59.998      62.109      63.764      64.768    
  64.968      64.278      62.685      60.255      72.035      67.489      62.327      56.762      50.996      45.240    
  39.706      34.595      30.061      26.197      23.031      20.539      18.668      17.355      16.542      16.177    
  16.219      16.633      17.386      18.439      19.751      21.271      22.947      24.721      26.542      28.368    
  30.170      31.932      33.655      35.353      37.056      38.816      40.706      42.820      45.260      48.120    
  51.455      55.262      59.459      63.880      68.288      72.388      75.860      78.393      79.736      79.735    
  78.369      75.738      88.657      83.241      77.025      70.252      63.130      55.884      48.766      42.042    
  35.947      30.642      26.197      22.604      19.797      17.686      16.177      15.184      14.634      14.469    
  14.640      15.106      15.832      16.779      17.912      19.194      20.594      22.090      23.673      25.346    
  27.126      29.042      31.137      33.473      36.129      39.208      42.820      47.066      52.010      57.647    
  63.880      70.508      77.217      83.602      89.194      93.523      96.197      96.982      95.850      92.973    
  105.43      99.252      92.244      84.528      76.255      67.662      59.010      50.629      42.853      35.947    
  30.061      25.228      21.388      18.428      16.219      14.634      13.564      12.919      12.632      12.650    
  12.935      13.454      14.177      15.082      16.148      17.367      18.742      20.293      22.051      24.061    
  26.383      29.097      32.305      36.129      40.706      46.164      52.590      59.998      68.288      77.217    
  86.387      95.246      103.14      109.39      113.43      114.94      113.85      110.47      117.61      111.32    
  104.77      97.543      89.244      79.883      69.983      60.080      50.629      42.042      34.595      28.402    
  23.433      19.565      16.633      14.469      12.919      11.861      11.199      10.866      10.815      11.010    
  11.424      12.038      12.841      13.830      15.019      16.435      18.123      20.144      22.574      25.516    
  29.097      33.473      38.816      45.297      53.047      62.109      72.388      83.602      95.246      106.60    
  116.76      124.83      129.81      130.90      128.43      123.57      118.78      113.56      109.55      105.34    
  99.489      91.292      81.073      69.983      59.010      48.766      39.706      32.073      25.899      21.067    
  17.386      14.640      12.632      11.199      10.217      9.5981      9.2816      9.2260      9.4028      9.7929    
  10.387      11.186      12.210      13.492      15.087      17.065      19.520      22.574      26.383      31.137    
  37.056      44.361      53.236      63.764      75.860      89.194      103.14      116.76      128.91      137.77    
  141.37      139.38      133.32      125.70      104.25      101.54      102.59      104.47      104.17      99.832    
  91.292      79.883      67.662      55.884      45.240      36.143      28.723      22.893      18.439      15.106    
  12.650      10.866      9.5981      8.7348      8.2006      7.9450      7.9341      8.1467      8.5727      9.2155    
  10.095      11.251      12.741      14.643      17.065      20.144      24.061      29.042      35.353      43.270    
  53.033      64.768      78.393      93.523      109.39      124.83      137.77      144.78      143.88      135.78    
  123.72      112.05      73.483      74.483      82.803      93.639      101.91      104.17      99.489      89.244    
  76.255      63.130      50.996      40.474      31.816      24.982      19.751      15.832      12.935      10.815    
  9.2816      8.2006      7.4798      7.0574      6.8930      6.9611      7.2495      7.7607      8.5152      9.5529    
  10.934      12.741      15.087      18.123      22.051      27.126      33.655      41.967      52.350      64.968    
  79.736      96.197      113.43      129.81      141.37      143.88      135.71      118.97      98.956      82.138    
  31.481      36.652      53.356      74.815      93.639      104.47      105.34      97.543      84.528      70.252    
  56.762      44.904      35.064      27.260      21.271      16.779      13.454      11.010      9.2260      7.9450    
  7.0574      6.4902      6.1950      6.1412      6.3130      6.7110      7.3542      8.2818      9.5529      11.251    
  13.492      16.435      20.293      25.346      31.932      40.421      51.140      64.278      79.735      96.982    
  114.94      130.90      139.38      135.78      118.97      92.463      63.626      41.110     -11.844     -2.9969    
  21.561      53.356      82.803      102.59      109.55      104.77      92.244      77.025      62.327      49.264    
  38.346      29.644      22.947      17.912      14.177      11.424      9.4028      7.9341      6.8930      6.1950    
  5.7837      5.6227      5.6921      5.9894      6.5312      7.3542      8.5152      10.095      12.210      15.019    
  18.742      23.673      30.170      38.627      49.399      62.685      78.369      95.850      113.85      128.43    
  133.32      123.72      98.956      63.626      26.770     -1.0839     -44.492     -33.231     -2.9969      36.652    
  74.483      101.54      113.56      111.32      99.252      83.241      67.489      53.386      41.535      32.048    
  24.721      19.194      15.082      12.038      9.7929      8.1467      6.9611      6.1412      5.6227      5.3635    
  5.3390      5.5431      5.9894      6.7110      7.7607      9.2155      11.186      13.830      17.367      22.090    
  28.368      36.604      47.166      60.255      75.738      92.973      110.47      123.57      125.70      112.05    
  82.138      41.110     -1.0839     -32.709     -41.164     -29.631      1.2949      42.136      81.398      109.70    
  122.47      120.37      107.98      91.391      74.927      60.030      47.346      37.032      28.924      22.699    
  17.986      14.444      11.792      9.8165      8.3647      7.3294      6.6380      6.2426      6.1141      6.2426    
  6.6380      7.3294      8.3647      9.8165      11.792      14.444      17.986      22.699      28.924      37.032    
  47.346      60.030      74.927      91.391      107.98      120.37      122.47      109.70      81.398      42.136    
  1.2949     -29.631     -29.631     -17.159      13.842      54.278      92.889      120.35      132.05      128.73    
  115.15      97.568      80.240      64.559      51.167      40.219      31.553      24.848      19.731      15.853    
  12.923      10.717      9.0723      7.8712      7.0327      6.5015      6.2426      6.2409      6.5017      7.0478    
  7.9199      9.1811      10.927      13.296      16.485      20.756      26.435      33.876      43.394      55.158    
  69.029      84.400      99.956      111.88      114.61      103.93      79.059      44.010      7.3360     -20.233    
  1.2949      13.842      42.121      78.070      111.58      134.23      142.01      135.93      120.75      102.47    
  84.654      68.540      54.726      43.358      34.285      27.196      21.731      17.544      14.347      11.912    
  10.070      8.6975      7.7057      7.0327      6.6380      6.5017      6.6239      7.0221      7.7298      8.8004    