unknown system                          
   1.00000000000000     
     5.431010    0.000000    0.000000
     0.000000    5.431010    0.000000
     0.000000    0.000000   10.791010
   Si
    10
Direct
  0.000000  0.000000  0.000000
  0.499999  0.499999  0.000000
  0.250000  0.250000  0.125822
  0.750000  0.750000  0.125822
  0.000000  0.499999  0.251645
  0.499999  0.000000  0.251645
  0.250000  0.750000  0.377468
  0.750000  0.250000  0.377468
  0.000000  0.000000  0.503290
  0.499999  0.499999  0.503290
 
   48   48   84
 -.56638521981E+02 -.44491844496E+02 -.11844455007E+02 0.31480500649E+02 0.73483372268E+02
 0.10424579286E+03 0.11877576054E+03 0.11760653321E+03 0.10542701377E+03 0.88657164066E+02
 0.72035132519E+02 0.57104200914E+02 0.44512173178E+02 0.34392319487E+02 0.26541823499E+02
 0.20594276536E+02 0.16147657026E+02 0.12840884496E+02 0.10386538353E+02 0.85726906122E+01
 0.72494669759E+01 0.63130001446E+01 0.56921212311E+01 0.53389550999E+01 0.52245451218E+01
 0.53389550778E+01 0.56921211872E+01 0.63130000796E+01 0.72494668906E+01 0.85726905076E+01
 0.10386538231E+02 0.12840884357E+02 0.16147656873E+02 0.20594276372E+02 0.26541823325E+02
 0.34392319307E+02 0.44512172994E+02 0.57104200730E+02 0.72035132338E+02 0.88657163891E+02
 0.10542701360E+03 0.11760653306E+03 0.11877576040E+03 0.10424579274E+03 0.73483372170E+02
 0.31480500574E+02 -.11844455058E+02 -.44491844522E+02 -.44491844496E+02 -.32708818574E+02
 -.10838556784E+01 0.41110339956E+02 0.82137667958E+02 0.11204595525E+03 0.12569689370E+03
 0.12357245633E+03 0.11047176610E+03 0.92973430613E+02 0.75738239714E+02 0.60254502602E+02
 0.47165699898E+02 0.36604122732E+02 0.28367860786E+02 0.22090309197E+02 0.17366534010E+02
 0.13829989337E+02 0.11186188737E+02 0.92155298450E+01 0.77606630192E+01 0.67109542456E+01
 0.59893643863E+01 0.55430617831E+01 0.53389550880E+01 0.53634502514E+01 0.56226974051E+01
 0.61411538384E+01 0.69611001001E+01 0.81466837053E+01 0.97928878474E+01 0.12038429562E+02
 0.15081652146E+02 0.19194279925E+02 0.24720804413E+02 0.32048466829E+02 0.41535010565E+02
 0.53386105850E+02 0.67488943937E+02 0.83240753868E+02 0.99251778862E+02 0.11131822528E+03
 0.11355539989E+03 0.10153514372E+03 0.74482579084E+02 0.36651511010E+02 -.29969388416E+01
 -.33230576139E+02 -.11844455007E+02 -.10838556784E+01 0.26770406441E+02 0.63626300206E+02
 0.98956433320E+02 0.12372277030E+03 0.13331741458E+03 0.12843426266E+03 0.11384656439E+03
 0.95849597713E+02 0.78368587219E+02 0.62685471326E+02 0.49399220538E+02 0.38626726749E+02
 0.30169744788E+02 0.23672952037E+02 0.18742380841E+02 0.15018595040E+02 0.12209784058E+02
 0.10095464540E+02 0.85151950106E+01 0.73542297924E+01 0.65312216442E+01 0.59893643732E+01
 0.56921212066E+01 0.56226974142E+01 0.57836673939E+01 0.61949635893E+01 0.68929742083E+01
 0.79340728549E+01 0.94028121168E+01 0.11423918403E+02 0.14177414172E+02 0.17912199369E+02
 0.22946839170E+02 0.29643849193E+02 0.38345610630E+02 0.49263783158E+02 0.62327354859E+02
 0.77025242317E+02 0.92243779125E+02 0.10476715722E+03 0.10955032268E+03 0.10258588504E+03
 0.82803183992E+02 0.53355605957E+02 0.21561426249E+02 -.29969388163E+01 0.31480500649E+02
 0.41110339956E+02 0.63626300206E+02 0.92463209455E+02 0.11897150310E+03 0.13577861739E+03
 0.13937918209E+03 0.13090059582E+03 0.11494273990E+03 0.96981664564E+02 0.79735072069E+02
 0.64277694455E+02 0.51140296719E+02 0.40420570785E+02 0.31932453243E+02 0.25346033526E+02
 0.20293313268E+02 0.16435101395E+02 0.13492443954E+02 0.11251248656E+02 0.95529038350E+01
 0.82817585913E+01 0.73542297780E+01 0.67109542186E+01 0.63130001070E+01 0.61411538552E+01
 0.61949635968E+01 0.64901843657E+01 0.70574141424E+01 0.79449613575E+01 0.92260391719E+01
 0.11009506945E+02 0.13453690505E+02 0.16779273444E+02 0.21271465307E+02 0.27259661872E+02
 0.35064351804E+02 0.44903548275E+02 0.56761760103E+02 0.70251771586E+02 0.84527534381E+02
 0.97542673223E+02 0.10534105164E+03 0.10447114586E+03 0.93639279941E+02 0.74815366862E+02
 0.53355605982E+02 0.36651511060E+02 0.73483372268E+02 0.82137667958E+02 0.98956433320E+02
 0.11897150310E+03 0.13571444415E+03 0.14387842479E+03 0.14136646034E+03 0.12980738429E+03
 0.11343223577E+03 0.96197141713E+02 0.79735736764E+02 0.64968181088E+02 0.52350494575E+02
 0.41966787542E+02 0.33655319349E+02 0.27126047534E+02 0.22051020335E+02 0.18123445610E+02
 0.15086858449E+02 0.12740789342E+02 0.10933730023E+02 0.95529038186E+01 0.85151949801E+01
 0.77606629769E+01 0.72494669240E+01 0.69611001225E+01 0.68929742212E+01 0.70574141477E+01
 0.74798006232E+01 0.82006421134E+01 0.92816281715E+01 0.10814913236E+02 0.12935234093E+02
 0.15831599459E+02 0.19750552396E+02 0.24981514217E+02 0.31815977100E+02 0.40473631844E+02
 0.50996026614E+02 0.63130454479E+02 0.76255139644E+02 0.89244017980E+02 0.99489427586E+02
 0.10417129042E+03 0.10191042638E+03 0.93639279965E+02 0.82803184040E+02 0.74482579157E+02
 0.10424579286E+03 0.11204595525E+03 0.12372277030E+03 0.13577861739E+03 0.14387842479E+03
 0.14478300805E+03 0.13777031129E+03 0.12483327920E+03 0.10938787993E+03 0.93522913214E+02
 0.78393441459E+02 0.64767792614E+02 0.53033086446E+02 0.43270029347E+02 0.35352647910E+02
 0.29042034855E+02 0.24060746349E+02 0.20143648815E+02 0.17064632802E+02 0.14643373002E+02
 0.12740789324E+02 0.11251248621E+02 0.10095464491E+02 0.92155297854E+01 0.85726905440E+01
 0.81466837304E+01 0.79340728704E+01 0.79449613656E+01 0.82006421161E+01 0.87347549073E+01
 0.95981047027E+01 0.10866405139E+02 0.12650463705E+02 0.15106251784E+02 0.18438783503E+02
 0.22892702944E+02 0.28723435762E+02 0.36143093855E+02 0.45239611899E+02 0.55883706984E+02
 0.67661679022E+02 0.79883069419E+02 0.91292050388E+02 0.99832342908E+02 0.10417129044E+03
 0.10447114591E+03 0.10258588511E+03 0.10153514381E+03 0.11877576054E+03 0.12569689370E+03
 0.13331741458E+03 0.13937918209E+03 0.14136646034E+03 0.13777031129E+03 0.12891088724E+03
 0.11676376774E+03 0.10313781091E+03 0.89193564920E+02 0.75859819749E+02 0.63764031668E+02
 0.53235652255E+02 0.44360850473E+02 0.37055706582E+02 0.31137273950E+02 0.26383070735E+02
 0.22574222394E+02 0.19519816037E+02 0.17064632781E+02 0.15086858409E+02 0.13492443898E+02
 0.12209783990E+02 0.11186188658E+02 0.10386538266E+02 0.97928878718E+01 0.94028121318E+01
 0.92260391796E+01 0.92816281742E+01 0.95981047028E+01 0.10216964915E+02 0.11198876664E+02
 0.12631893806E+02 0.14639690612E+02 0.17385560926E+02 0.21067306154E+02 0.25898746682E+02
 0.32073263648E+02 0.39706484223E+02 0.48765543353E+02 0.59010146380E+02 0.69983113359E+02
 0.81073312549E+02 0.91292050408E+02 0.99489427629E+02 0.10534105170E+03 0.10955032277E+03
 0.11355540001E+03 0.11760653321E+03 0.12357245633E+03 0.12843426266E+03 0.13090059582E+03
 0.12980738429E+03 0.12483327920E+03 0.11676376774E+03 0.10659547850E+03 0.95245900099E+02
 0.83601652202E+02 0.72387981546E+02 0.62109033136E+02 0.53047127169E+02 0.45297175791E+02
 0.38815765892E+02 0.33472604362E+02 0.29097356613E+02 0.25516221649E+02 0.22574222371E+02
 0.20143648771E+02 0.18123445547E+02 0.16435101317E+02 0.15018594949E+02 0.13829989237E+02
 0.12840884389E+02 0.12038429582E+02 0.11423918414E+02 0.11009506950E+02 0.10814913235E+02
 0.10866405136E+02 0.11198876662E+02 0.11860517688E+02 0.12919184114E+02 0.14468856187E+02
 0.16633438565E+02 0.19564869045E+02 0.23432747090E+02 0.28402009463E+02 0.34595261548E+02
 0.42042025176E+02 0.50629396240E+02 0.60080054289E+02 0.69983113378E+02 0.79883069459E+02
 0.89244018041E+02 0.97542673307E+02 0.10476715732E+03 0.11131822541E+03 0.10542701377E+03
 0.11047176610E+03 0.11384656439E+03 0.11494273990E+03 0.11343223577E+03 0.10938787993E+03
 0.10313781091E+03 0.95245900099E+02 0.86386574446E+02 0.77217120988E+02 0.68287870211E+02
 0.59998344051E+02 0.52590226204E+02 0.46163596917E+02 0.40706194943E+02 0.36129367924E+02
 0.32305070627E+02 0.29097356588E+02 0.26383070687E+02 0.24060746281E+02 0.22051020249E+02
 0.20293313166E+02 0.18742380728E+02 0.17366533888E+02 0.16147656899E+02 0.15081652161E+02
 0.14177414177E+02 0.13453690503E+02 0.12935234088E+02 0.12650463697E+02 0.12631893798E+02
 0.12919184109E+02 0.13563847886E+02 0.14634244291E+02 0.16219166005E+02 0.18428299428E+02
 0.21387759740E+02 0.25228078880E+02 0.30061393214E+02 0.35947169651E+02 0.42853384621E+02
 0.50629396257E+02 0.59010146416E+02 0.67661679079E+02 0.76255139722E+02 0.84527534481E+02
 0.92243779246E+02 0.99251779006E+02 0.88657164066E+02 0.92973430613E+02 0.95849597713E+02
 0.96981664564E+02 0.96197141713E+02 0.93522913214E+02 0.89193564920E+02 0.83601652202E+02
 0.77217120988E+02 0.70507747860E+02 0.63880287690E+02 0.57646506537E+02 0.52009629486E+02
 0.47066131723E+02 0.42820175785E+02 0.39208295136E+02 0.36129367897E+02 0.33472604311E+02
 0.31137273876E+02 0.29042034761E+02 0.27126047423E+02 0.25346033400E+02 0.23672951901E+02
 0.22090309055E+02 0.20594276390E+02 0.19194279933E+02 0.17912199367E+02 0.16779273435E+02
 0.15831599446E+02 0.15106251768E+02 0.14639690596E+02 0.14468856174E+02 0.14634244284E+02
 0.15183830367E+02 0.16176740562E+02 0.17685637710E+02 0.19796505141E+02 0.22603700975E+02
 0.26197452806E+02 0.30642030420E+02 0.35947169667E+02 0.42042025209E+02 0.48765543404E+02
 0.55883707055E+02 0.63130454570E+02 0.70251771699E+02 0.77025242451E+02 0.83240754022E+02
 0.72035132519E+02 0.75738239714E+02 0.78368587219E+02 0.79735072069E+02 0.79735736764E+02
 0.78393441459E+02 0.75859819749E+02 0.72387981546E+02 0.68287870211E+02 0.63880287690E+02
 0.59458928896E+02 0.55262344240E+02 0.51455196636E+02 0.48119827595E+02 0.45260460314E+02
 0.42820175756E+02 0.40706194888E+02 0.38815765813E+02 0.37055706481E+02 0.35352647789E+02
 0.33655319212E+02 0.31932453095E+02 0.30169744631E+02 0.28367860623E+02 0.26541823334E+02
 0.24720804411E+02 0.22946839159E+02 0.21271465289E+02 0.19750552373E+02 0.18438783478E+02
 0.17385560901E+02 0.16633438543E+02 0.16219165989E+02 0.16176740553E+02 0.16541627765E+02
 0.17355163793E+02 0.18667746663E+02 0.20538792924E+02 0.23031044147E+02 0.26197452820E+02
 0.30061393243E+02 0.34595261594E+02 0.39706484287E+02 0.45239611982E+02 0.50996026717E+02
 0.56761760225E+02 0.62327355002E+02 0.67488944100E+02 0.57104200914E+02 0.60254502602E+02
 0.62685471326E+02 0.64277694455E+02 0.64968181088E+02 0.64767792614E+02 0.63764031668E+02
 0.62109033136E+02 0.59998344051E+02 0.57646506537E+02 0.55262344240E+02 0.53024648128E+02
 0.51060149652E+02 0.49428527494E+02 0.48119827566E+02 0.47066131666E+02 0.46163596834E+02
 0.45297175683E+02 0.44360850345E+02 0.43270029200E+02 0.41966787381E+02 0.40420570614E+02
 0.38626726572E+02 0.36604122551E+02 0.34392319306E+02 0.32048466817E+02 0.29643849171E+02
 0.27259661843E+02 0.24981514183E+02 0.22892702908E+02 0.21067306119E+02 0.19564869013E+02
 0.18428299401E+02 0.17685637690E+02 0.17355163782E+02 0.17452319796E+02 0.17996307068E+02
 0.19013969870E+02 0.20538792937E+02 0.22603701001E+02 0.25228078922E+02 0.28402009521E+02
 0.32073263723E+02 0.36143093948E+02 0.40473631955E+02 0.44903548404E+02 0.49263783307E+02
 0.53386106017E+02 0.44512173178E+02 0.47165699898E+02 0.49399220538E+02 0.51140296719E+02
 0.52350494575E+02 0.53033086446E+02 0.53235652255E+02 0.53047127169E+02 0.52590226204E+02
 0.52009629486E+02 0.51455196636E+02 0.51060149652E+02 0.50917332892E+02 0.51060149623E+02
 0.51455196577E+02 0.52009629400E+02 0.52590226092E+02 0.53047127035E+02 0.53235652101E+02
 0.53033086275E+02 0.52350494392E+02 0.51140296527E+02 0.49399220341E+02 0.47165699698E+02
 0.44512172980E+02 0.41535010539E+02 0.38345610595E+02 0.35064351762E+02 0.31815977054E+02
 0.28723435715E+02 0.25898746635E+02 0.23432747046E+02 0.21387759701E+02 0.19796505110E+02
 0.18667746641E+02 0.17996307057E+02 0.17773752475E+02 0.17996307080E+02 0.18667746687E+02
 0.19796505179E+02 0.21387759791E+02 0.23432747156E+02 0.25898746765E+02 0.28723435862E+02
 0.31815977217E+02 0.35064351938E+02 0.38345610781E+02 0.41535010733E+02 0.34392319487E+02
 0.36604122732E+02 0.38626726749E+02 0.40420570785E+02 0.41966787542E+02 0.43270029347E+02
 0.44360850473E+02 0.45297175791E+02 0.46163596917E+02 0.47066131723E+02 0.48119827595E+02
 0.49428527494E+02 0.51060149623E+02 0.53024648069E+02 0.55262344153E+02 0.57646506423E+02
 0.59998343912E+02 0.62109032976E+02 0.63764031489E+02 0.64767792421E+02 0.64968180884E+02
 0.64277694244E+02 0.62685471111E+02 0.60254502386E+02 0.57104200701E+02 0.53386105810E+02
 0.49263783109E+02 0.44903548219E+02 0.40473631785E+02 0.36143093795E+02 0.32073263589E+02
 0.28402009407E+02 0.25228078830E+02 0.22603700931E+02 0.20538792890E+02 0.19013969846E+02
 0.17996307068E+02 0.17452319818E+02 0.17355163827E+02 0.17685637756E+02 0.18428299487E+02
 0.19564869119E+02 0.21067306242E+02 0.22892703048E+02 0.24981514337E+02 0.27259662008E+02
 0.29643849344E+02 0.32048466995E+02 0.26541823499E+02 0.28367860786E+02 0.30169744788E+02
 0.31932453243E+02 0.33655319349E+02 0.35352647910E+02 0.37055706582E+02 0.38815765892E+02
 0.40706194943E+02 0.42820175785E+02 0.45260460314E+02 0.48119827566E+02 0.51455196577E+02
 0.55262344153E+02 0.59458928781E+02 0.63880287549E+02 0.68287870047E+02 0.72387981363E+02
 0.75859819550E+02 0.78393441247E+02 0.79735736543E+02 0.79735071841E+02 0.78368586988E+02
 0.75738239484E+02 0.72035132293E+02 0.67488943882E+02 0.62327354795E+02 0.56761760033E+02
 0.50996026541E+02 0.45239611825E+02 0.39706484150E+02 0.34595261479E+02 0.30061393150E+02
 0.26197452750E+02 0.23031044100E+02 0.20538792901E+02 0.18667746662E+02 0.17355163814E+02
 0.16541627808E+02 0.16176740616E+02 0.16219166072E+02 0.16633438644E+02 0.17385561018E+02
 0.18438783609E+02 0.19750552516E+02 0.21271465441E+02 0.22946839318E+02 0.24720804575E+02
 0.20594276536E+02 0.22090309197E+02 0.23672952037E+02 0.25346033526E+02 0.27126047534E+02
 0.29042034855E+02 0.31137273950E+02 0.33472604362E+02 0.36129367924E+02 0.39208295136E+02
 0.42820175756E+02 0.47066131666E+02 0.52009629400E+02 0.57646506423E+02 0.63880287549E+02
 0.70507747696E+02 0.77217120803E+02 0.83601651999E+02 0.89193564702E+02 0.93522912985E+02
 0.96197141475E+02 0.96981664322E+02 0.95849597470E+02 0.92973430373E+02 0.88657163832E+02
 0.83240753798E+02 0.77025242239E+02 0.70251771503E+02 0.63130454392E+02 0.55883706897E+02
 0.48765543267E+02 0.42042025094E+02 0.35947169575E+02 0.30642030351E+02 0.26197452761E+02
 0.22603700952E+02 0.19796505141E+02 0.17685637731E+02 0.16176740603E+02 0.15183830427E+02
 0.14634244362E+02 0.14468856268E+02 0.14639690705E+02 0.15106251889E+02 0.15831599577E+02
 0.16779273574E+02 0.17912199511E+02 0.19194280080E+02 0.16147657026E+02 0.17366534010E+02
 0.18742380841E+02 0.20293313268E+02 0.22051020335E+02 0.24060746349E+02 0.26383070735E+02
 0.29097356613E+02 0.32305070627E+02 0.36129367897E+02 0.40706194888E+02 0.46163596834E+02
 0.52590226092E+02 0.59998343912E+02 0.68287870047E+02 0.77217120803E+02 0.86386574241E+02
 0.95245899878E+02 0.10313781068E+03 0.10938787969E+03 0.11343223552E+03 0.11494273469E+03
 0.11384653522E+03 0.11047171763E+03 0.10542696488E+03 0.99251745704E+02 0.92243765380E+02
 0.84527532666E+02 0.76255139545E+02 0.67661678922E+02 0.59010146281E+02 0.50629396145E+02
 0.42853384532E+02 0.35947169586E+02 0.30061393171E+02 0.25228078860E+02 0.21387759741E+02
 0.18428299449E+02 0.16219166046E+02 0.14634244349E+02 0.13563847959E+02 0.12919184196E+02
 0.12631893897E+02 0.12650463807E+02 0.12935234206E+02 0.13453690628E+02 0.14177414306E+02
 0.15081652290E+02 0.12840884496E+02 0.13829989337E+02 0.15018595040E+02 0.16435101395E+02
 0.18123445610E+02 0.20143648815E+02 0.22574222394E+02 0.25516221649E+02 0.29097356588E+02
 0.33472604311E+02 0.38815765813E+02 0.45297175683E+02 0.53047127035E+02 0.62109032976E+02
 0.72387981363E+02 0.83601651999E+02 0.95245899878E+02 0.10659547826E+03 0.11676376749E+03
 0.12483327612E+03 0.12980731639E+03 0.13090041742E+03 0.12843398950E+03 0.12357214756E+03
 0.11760625598E+03 0.11131802398E+03 0.10476704116E+03 0.97542624088E+02 0.89244006065E+02
 0.79883069014E+02 0.69983113248E+02 0.60080054182E+02 0.50629396157E+02 0.42042025115E+02
 0.34595261510E+02 0.28402009447E+02 0.23432747094E+02 0.19564869068E+02 0.16633438605E+02
 0.14468856242E+02 0.12919184183E+02 0.11860517769E+02 0.11198876753E+02 0.10866405236E+02
 0.10814913341E+02 0.11009507060E+02 0.11423918526E+02 0.12038429693E+02 0.10386538353E+02
 0.11186188737E+02 0.12209784058E+02 0.13492443954E+02 0.15086858449E+02 0.17064632802E+02
 0.19519816037E+02 0.22574222371E+02 0.26383070687E+02 0.31137273876E+02 0.37055706481E+02
 0.44360850345E+02 0.53235652101E+02 0.63764031489E+02 0.75859819550E+02 0.89193564702E+02
 0.10313781068E+03 0.11676376749E+03 0.12891087709E+03 0.13777017418E+03 0.14136609476E+03
 0.13937858023E+03 0.13331666214E+03 0.12569612617E+03 0.11877510360E+03 0.11355492569E+03
 0.10955003808E+03 0.10534091598E+03 0.99489381922E+02 0.91292042823E+02 0.81073312426E+02
 0.69983113260E+02 0.59010146303E+02 0.48765543300E+02 0.39706484191E+02 0.32073263637E+02
 0.25898746690E+02 0.21067306179E+02 0.17385560967E+02 0.14639690666E+02 0.12631893871E+02
 0.11198876739E+02 0.10216964998E+02 0.95981047921E+01 0.92816282677E+01 0.92260392749E+01
 0.94028122266E+01 0.97928879637E+01 0.85726906122E+01 0.92155298450E+01 0.10095464540E+02
 0.11251248656E+02 0.12740789342E+02 0.14643373002E+02 0.17064632781E+02 0.20143648771E+02
 0.24060746281E+02 0.29042034761E+02 0.35352647789E+02 0.43270029200E+02 0.53033086275E+02
 0.64767792421E+02 0.78393441247E+02 0.93522912985E+02 0.10938787969E+03 0.12483327612E+03
 0.13777017418E+03 0.14478255745E+03 0.14387757728E+03 0.13577742829E+03 0.12372141190E+03
 0.11204464538E+03 0.10424471287E+03 0.10153438494E+03 0.10258544105E+03 0.10447094286E+03
 0.10417123108E+03 0.99832342773E+02 0.91292057715E+02 0.79883069621E+02 0.67661678955E+02
 0.55883706939E+02 0.45239611875E+02 0.36143093851E+02 0.28723435775E+02 0.22892702973E+02
 0.18438783545E+02 0.15106251838E+02 0.12650463768E+02 0.10866405209E+02 0.95981047785E+01
 0.87347549870E+01 0.82006421979E+01 0.79449614472E+01 0.79340729497E+01 0.81466838052E+01
 0.72494669759E+01 0.77606630192E+01 0.85151950106E+01 0.95529038350E+01 0.10933730023E+02
 0.12740789324E+02 0.15086858409E+02 0.18123445547E+02 0.22051020249E+02 0.27126047423E+02
 0.33655319212E+02 0.41966787381E+02 0.52350494392E+02 0.64968180884E+02 0.79735736543E+02
 0.96197141475E+02 0.11343223552E+03 0.12980731639E+03 0.14136609476E+03 0.14387757728E+03
 0.13571307147E+03 0.11896973337E+03 0.98954521877E+02 0.82135902500E+02 0.73481974376E+02
 0.74481645545E+02 0.82802684739E+02 0.93639100682E+02 0.10191042623E+03 0.10417134950E+03
 0.99489473024E+02 0.89244029703E+02 0.76255139588E+02 0.63130454444E+02 0.50996026599E+02
 0.40473631847E+02 0.31815977119E+02 0.24981514250E+02 0.19750552441E+02 0.15831599513E+02
 0.12935234154E+02 0.10814913301E+02 0.92816282406E+01 0.82006421842E+01 0.74798006940E+01
 0.70574142168E+01 0.68929742866E+01 0.69611001821E+01 0.63130001446E+01 0.67109542456E+01
 0.73542297924E+01 0.82817585913E+01 0.95529038186E+01 0.11251248621E+02 0.13492443898E+02
 0.16435101317E+02 0.20293313166E+02 0.25346033400E+02 0.31932453095E+02 0.40420570614E+02
 0.51140296527E+02 0.64277694244E+02 0.79735071841E+02 0.96981664322E+02 0.11494273469E+03
 0.13090041742E+03 0.13937858023E+03 0.13577742829E+03 0.11896973337E+03 0.92461051342E+02
 0.63624069891E+02 0.41108368292E+02 0.31479026651E+02 0.36650622031E+02 0.53355240575E+02
 0.74815366718E+02 0.93639458936E+02 0.10447134862E+03 0.10534118708E+03 0.97542722183E+02
 0.84527535957E+02 0.70251771564E+02 0.56761760099E+02 0.44903548287E+02 0.35064351829E+02
 0.27259661910E+02 0.21271465354E+02 0.16779273498E+02 0.13453690564E+02 0.11009507007E+02
 0.92260392347E+01 0.79449614199E+01 0.70574142030E+01 0.64901844233E+01 0.61949636498E+01
 0.61411539015E+01 0.56921212311E+01 0.59893643863E+01 0.65312216442E+01 0.73542297780E+01
 0.85151949801E+01 0.10095464491E+02 0.12209783990E+02 0.15018594949E+02 0.18742380728E+02
 0.23672951901E+02 0.30169744631E+02 0.38626726572E+02 0.49399220341E+02 0.62685471111E+02
 0.78368586988E+02 0.95849597470E+02 0.11384653522E+03 0.12843398950E+03 0.13331666214E+03
 0.12372141190E+03 0.98954521877E+02 0.63624069891E+02 0.26768201850E+02 -.10856923160E+01
 -.11845690485E+02 -.29975078638E+01 0.21561426108E+02 0.53355971077E+02 0.82803683004E+02
 0.10258632882E+03 0.10955060710E+03 0.10476727311E+03 0.92243792747E+02 0.77025242308E+02
 0.62327354867E+02 0.49263783180E+02 0.38345610663E+02 0.29643849235E+02 0.22946839220E+02
 0.17912199425E+02 0.14177414230E+02 0.11423918461E+02 0.94028121737E+01 0.79340729091E+01
 0.68929742593E+01 0.61949636363E+01 0.57836674355E+01 0.56226974483E+01 0.53389550999E+01
 0.55430617831E+01 0.59893643732E+01 0.67109542186E+01 0.77606629769E+01 0.92155297854E+01
 0.11186188658E+02 0.13829989237E+02 0.17366533888E+02 0.22090309055E+02 0.28367860623E+02
 0.36604122551E+02 0.47165699698E+02 0.60254502386E+02 0.75738239484E+02 0.92973430373E+02
 0.11047171763E+03 0.12357214756E+03 0.12569612617E+03 0.11204464538E+03 0.82135902500E+02
 0.41108368292E+02 -.10856923160E+01 -.32710194163E+02 -.44492549713E+02 -.33230576276E+02
 -.29963700727E+01 0.36652399753E+02 0.74483512405E+02 0.10153590230E+03 0.11355587393E+03
 0.11131842644E+03 0.99251811921E+02 0.83240753873E+02 0.67488943958E+02 0.53386105882E+02
 0.41535010605E+02 0.32048466877E+02 0.24720804466E+02 0.19194279982E+02 0.15081652203E+02
 0.12038429617E+02 0.97928878985E+01 0.81466837520E+01 0.69611001420E+01 0.61411538753E+01
 0.56226974357E+01 0.53634502738E+01 0.52245451218E+01 0.53389550880E+01 0.56921212066E+01
 0.63130001070E+01 0.72494669240E+01 0.85726905440E+01 0.10386538266E+02 0.12840884389E+02
 0.16147656899E+02 0.20594276390E+02 0.26541823334E+02 0.34392319306E+02 0.44512172980E+02
 0.57104200701E+02 0.72035132293E+02 0.88657163832E+02 0.10542696488E+03 0.11760625598E+03
 0.11877510360E+03 0.10424471287E+03 0.73481974376E+02 0.31479026651E+02 -.11845690485E+02
 -.44492549713E+02 -.56638522116E+02 -.44491139577E+02 -.11843219859E+02 0.31481974282E+02
 0.73484769766E+02 0.10424687243E+03 0.11877641704E+03 0.11760681002E+03 0.10542706225E+03
 0.88657163910E+02 0.72035132370E+02 0.57104200772E+02 0.44512173043E+02 0.34392319360E+02
 0.26541823381E+02 0.20594276429E+02 0.16147656928E+02 0.12840884409E+02 0.10386538276E+02
 0.85726905471E+01 0.72494669240E+01 0.63130001067E+01 0.56921212071E+01 0.53389550886E+01
 0.53389550778E+01 0.53634502514E+01 0.56226974142E+01 0.61411538552E+01 0.69611001225E+01
 0.81466837304E+01 0.97928878718E+01 0.12038429582E+02 0.15081652161E+02 0.19194279933E+02
 0.24720804411E+02 0.32048466817E+02 0.41535010539E+02 0.53386105810E+02 0.67488943882E+02
 0.83240753798E+02 0.99251745704E+02 0.11131802398E+03 0.11355492569E+03 0.10153438494E+03
 0.74481645545E+02 0.36650622031E+02 -.29975078638E+01 -.33230576276E+02 -.44491139577E+02
 -.32707443312E+02 -.10820194033E+01 0.41112311223E+02 0.82139432991E+02 0.11204726467E+03
 0.12569766078E+03 0.12357276465E+03 0.11047181414E+03 0.92973430451E+02 0.75738239559E+02
 0.60254502453E+02 0.47165699755E+02 0.36604122597E+02 0.28367860660E+02 0.22090309081E+02
 0.17366533903E+02 0.13829989239E+02 0.11186188649E+02 0.92155297691E+01 0.77606629565E+01
 0.67109541971E+01 0.59893643518E+01 0.55430617615E+01 0.56921211872E+01 0.56226974051E+01
 0.57836673939E+01 0.61949635968E+01 0.68929742212E+01 0.79340728704E+01 0.94028121318E+01
 0.11423918414E+02 0.14177414177E+02 0.17912199367E+02 0.22946839159E+02 0.29643849171E+02
 0.38345610595E+02 0.49263783109E+02 0.62327354795E+02 0.77025242239E+02 0.92243765380E+02
 0.10476704116E+03 0.10955003808E+03 0.10258544105E+03 0.82802684739E+02 0.53355240575E+02
 0.21561426108E+02 -.29963700727E+01 -.11843219859E+02 -.10820194033E+01 0.26772610634E+02
 0.63628530090E+02 0.98958344307E+02 0.12372412824E+03 0.13331816655E+03 0.12843453538E+03
 0.11384659313E+03 0.95849597546E+02 0.78368587058E+02 0.62685471171E+02 0.49399220389E+02
 0.38626726608E+02 0.30169744655E+02 0.23672951912E+02 0.18742380725E+02 0.15018594933E+02
 0.12209783962E+02 0.10095464455E+02 0.85151949387E+01 0.73542297346E+01 0.65312216003E+01
 0.59893643423E+01 0.63130000796E+01 0.61411538384E+01 0.61949635893E+01 0.64901843657E+01
 0.70574141477E+01 0.79449613656E+01 0.92260391796E+01 0.11009506950E+02 0.13453690503E+02
 0.16779273435E+02 0.21271465289E+02 0.27259661843E+02 0.35064351762E+02 0.44903548219E+02
 0.56761760033E+02 0.70251771503E+02 0.84527532666E+02 0.97542624088E+02 0.10534091598E+03
 0.10447094286E+03 0.93639100682E+02 0.74815366718E+02 0.53355971077E+02 0.36652399753E+02
 0.31481974282E+02 0.41112311223E+02 0.63628530090E+02 0.92465367107E+02 0.11897327235E+03
 0.13577980601E+03 0.13937978347E+03 0.13090077377E+03 0.11494274469E+03 0.96981664394E+02
 0.79735071904E+02 0.64277694295E+02 0.51140296565E+02 0.40420570638E+02 0.31932453103E+02
 0.25346033393E+02 0.20293313144E+02 0.16435101280E+02 0.13492443849E+02 0.11251248563E+02
 0.95529037556E+01 0.82817585255E+01 0.73542297259E+01 0.67109541794E+01 0.72494668906E+01
 0.69611001001E+01 0.68929742083E+01 0.70574141424E+01 0.74798006232E+01 0.82006421161E+01
 0.92816281742E+01 0.10814913235E+02 0.12935234088E+02 0.15831599446E+02 0.19750552373E+02
 0.24981514183E+02 0.31815977054E+02 0.40473631785E+02 0.50996026541E+02 0.63130454392E+02
 0.76255139545E+02 0.89244006065E+02 0.99489381922E+02 0.10417123108E+03 0.10191042623E+03
 0.93639458936E+02 0.82803683004E+02 0.74483512405E+02 0.73484769766E+02 0.82139432991E+02
 0.98958344307E+02 0.11897327235E+03 0.13571581633E+03 0.14387927181E+03 0.14136682544E+03
 0.12980745174E+03 0.11343223559E+03 0.96197141539E+02 0.79735736595E+02 0.64968180924E+02
 0.52350494417E+02 0.41966787389E+02 0.33655319203E+02 0.27126047395E+02 0.22051020205E+02
 0.18123445489E+02 0.15086858339E+02 0.12740789245E+02 0.10933729938E+02 0.95529037469E+01
 0.85151949217E+01 0.77606629314E+01 0.85726905076E+01 0.81466837053E+01 0.79340728549E+01
 0.79449613575E+01 0.82006421134E+01 0.87347549073E+01 0.95981047028E+01 0.10866405136E+02
 0.12650463697E+02 0.15106251768E+02 0.18438783478E+02 0.22892702908E+02 0.28723435715E+02
 0.36143093795E+02 0.45239611825E+02 0.55883706897E+02 0.67661678922E+02 0.79883069014E+02
 0.91292042823E+02 0.99832342773E+02 0.10417134950E+03 0.10447134862E+03 0.10258632882E+03
 0.10153590230E+03 0.10424687243E+03 0.11204726467E+03 0.12372412824E+03 0.13577980601E+03
 0.14387927181E+03 0.14478345818E+03 0.13777044794E+03 0.12483328185E+03 0.10938787975E+03
 0.93522913038E+02 0.78393441288E+02 0.64767792447E+02 0.53033086284E+02 0.43270029191E+02
 0.35352647760E+02 0.29042034712E+02 0.24060746215E+02 0.20143648690E+02 0.17064632688E+02
 0.14643372901E+02 0.12740789235E+02 0.11251248546E+02 0.10095464430E+02 0.92155297367E+01
 0.10386538231E+02 0.97928878474E+01 0.94028121168E+01 0.92260391719E+01 0.92816281715E+01
 0.95981047027E+01 0.10216964915E+02 0.11198876662E+02 0.12631893798E+02 0.14639690596E+02
 0.17385560901E+02 0.21067306119E+02 0.25898746635E+02 0.32073263589E+02 0.39706484150E+02
 0.48765543267E+02 0.59010146281E+02 0.69983113248E+02 0.81073312426E+02 0.91292057715E+02
 0.99489473024E+02 0.10534118708E+03 0.10955060710E+03 0.11355587393E+03 0.11877641704E+03
 0.12569766078E+03 0.13331816655E+03 0.13937978347E+03 0.14136682544E+03 0.13777044794E+03
 0.12891089694E+03 0.11676376755E+03 0.10313781073E+03 0.89193564743E+02 0.75859819576E+02
 0.63764031499E+02 0.53235652091E+02 0.44360850315E+02 0.37055706429E+02 0.31137273804E+02
 0.26383070598E+02 0.22574222267E+02 0.19519815922E+02 0.17064632678E+02 0.15086858320E+02
 0.13492443822E+02 0.12209783928E+02 0.11186188609E+02 0.12840884357E+02 0.12038429562E+02
 0.11423918403E+02 0.11009506945E+02 0.10814913236E+02 0.10866405139E+02 0.11198876664E+02
 0.11860517688E+02 0.12919184109E+02 0.14468856174E+02 0.16633438543E+02 0.19564869013E+02
 0.23432747046E+02 0.28402009407E+02 0.34595261479E+02 0.42042025094E+02 0.50629396145E+02
 0.60080054182E+02 0.69983113260E+02 0.79883069621E+02 0.89244029703E+02 0.97542722183E+02
 0.10476727311E+03 0.11131842644E+03 0.11760681002E+03 0.12357276465E+03 0.12843453538E+03
 0.13090077377E+03 0.12980745174E+03 0.12483328185E+03 0.11676376755E+03 0.10659547832E+03
 0.95245899920E+02 0.83601652026E+02 0.72387981373E+02 0.62109032966E+02 0.53047127004E+02
 0.45297175631E+02 0.38815765738E+02 0.33472604216E+02 0.29097356475E+02 0.25516221522E+02
 0.22574222256E+02 0.20143648669E+02 0.18123445460E+02 0.16435101244E+02 0.15018594890E+02
 0.13829989192E+02 0.16147656873E+02 0.15081652146E+02 0.14177414172E+02 0.13453690505E+02
 0.12935234093E+02 0.12650463705E+02 0.12631893806E+02 0.12919184114E+02 0.13563847886E+02
 0.14634244284E+02 0.16219165989E+02 0.18428299401E+02 0.21387759701E+02 0.25228078830E+02
 0.30061393150E+02 0.35947169575E+02 0.42853384532E+02 0.50629396157E+02 0.59010146303E+02
 0.67661678955E+02 0.76255139588E+02 0.84527535957E+02 0.92243792747E+02 0.99251811921E+02
 0.10542706225E+03 0.11047181414E+03 0.11384659313E+03 0.11494274469E+03 0.11343223559E+03
 0.10938787975E+03 0.10313781073E+03 0.95245899920E+02 0.86386574268E+02 0.77217120813E+02
 0.68287870038E+02 0.59998343881E+02 0.52590226039E+02 0.46163596757E+02 0.40706194790E+02
 0.36129367778E+02 0.32305070492E+02 0.29097356464E+02 0.26383070576E+02 0.24060746183E+02
 0.22051020166E+02 0.20293313098E+02 0.18742380675E+02 0.17366533849E+02 0.20594276372E+02
 0.19194279925E+02 0.17912199369E+02 0.16779273444E+02 0.15831599459E+02 0.15106251784E+02
 0.14639690612E+02 0.14468856187E+02 0.14634244291E+02 0.15183830367E+02 0.16176740553E+02
 0.17685637690E+02 0.19796505110E+02 0.22603700931E+02 0.26197452750E+02 0.30642030351E+02
 0.35947169586E+02 0.42042025115E+02 0.48765543300E+02 0.55883706939E+02 0.63130454444E+02
 0.70251771564E+02 0.77025242308E+02 0.83240753873E+02 0.88657163910E+02 0.92973430451E+02
 0.95849597546E+02 0.96981664394E+02 0.96197141539E+02 0.93522913038E+02 0.89193564743E+02