   10   10    1    1
  0.3182902E+02  0.5431010E-09  0.5431010E-09  0.1079101E-08  0.5000000E-15
  1.000000000000000E-004
  CAR 
 unknown system                          
     40      6     26
 
  0.0000000E+00  0.0000000E+00  0.0000000E+00  0.4000000E-01
    1       -9.576612   1.000000
    2       -7.952348   1.000000
    3       -5.977253   1.000000
    4       -5.831542   1.000000
    5       -5.831419   1.000000
    6       -5.606836   1.000000
    7       -5.026336   1.000000
    8       -4.846949   1.000000
    9       -2.624516   1.000000
   10       -1.507001   1.000000
   11       -1.401991   1.000000
   12       -1.401934   1.000000
   13       -0.519220   1.000000
   14       -0.519200   1.000000
   15        0.372347   1.000000
   16        0.452859   1.000000
   17        0.835635   1.000000
   18        0.835643   1.000000
   19        1.088292   1.000000
   20        1.088381   1.000000
   21        1.563652   0.559837
   22        2.229390   0.000000
   23        3.064870   0.000000
   24        3.169403   0.000000
   25        3.791428   0.000000
   26        3.818102   0.000000
 
  0.2000000E+00  0.0000000E+00  0.0000000E+00  0.1600000E+00
    1       -9.409474   1.000000
    2       -7.812818   1.000000
    3       -7.056475   1.000000
    4       -6.179374   1.000000
    5       -5.544732   1.000000
    6       -5.443975   1.000000
    7       -4.566233   1.000000
    8       -4.195777   1.000000
    9       -2.802784   1.000000
   10       -1.795378   1.000000
   11       -1.581575   1.000000
   12       -1.045157   1.000000
   13       -0.845867   1.000000
   14       -0.804588   1.000000
   15       -0.246479   1.000000
   16        0.357567   1.000000
   17        0.621251   1.000000
   18        1.089250   1.000000
   19        1.275858   0.999988
   20        1.346802   0.999353
   21        1.497233   0.862111
   22        2.034098   0.000000
   23        3.257874   0.000000
   24        3.666137   0.000000
   25        3.908596   0.000000
   26        4.024731   0.000000
 
  0.4000000E+00  0.0000000E+00  0.0000000E+00  0.1600000E+00
    1       -8.914600   1.000000
    2       -8.113555   1.000000
    3       -7.412671   1.000000
    4       -6.818299   1.000000
    5       -5.417344   1.000000
    6       -5.364675   1.000000
    7       -4.005672   1.000000
    8       -3.341316   1.000000
    9       -2.882360   1.000000
   10       -1.794277   1.000000
   11       -1.775166   1.000000
   12       -1.677308   1.000000
   13       -1.390133   1.000000
   14       -1.252678   1.000000
   15       -0.359962   1.000000
   16       -0.138517   1.000000
   17        1.096260   1.000000
   18        1.220386   1.000000
   19        1.399411   0.993306
   20        1.422669   0.983998
   21        1.573195   0.506219
   22        2.263172   0.000000
   23        2.470479   0.000000
   24        3.418061   0.000000
   25        4.545577   0.000000
   26        5.069399   0.000000
 
  0.2000000E+00  0.2000000E+00  0.0000000E+00  0.1600000E+00
    1       -9.246602   1.000000
    2       -7.691665   1.000000
    3       -7.172073   1.000000
    4       -6.814281   1.000000
    5       -5.520588   1.000000
    6       -5.187964   1.000000
    7       -4.638109   1.000000
    8       -3.757594   1.000000
    9       -3.134849   1.000000
   10       -1.704752   1.000000
   11       -1.685959   1.000000
   12       -1.339126   1.000000
   13       -0.897168   1.000000
   14       -0.850815   1.000000
   15       -0.278062   1.000000
   16        0.888418   1.000000
   17        0.923749   1.000000
   18        0.953306   1.000000
   19        1.183708   1.000000
   20        1.199818   1.000000
   21        1.593416   0.393436
   22        2.092095   0.000000
   23        2.955249   0.000000
   24        3.642389   0.000000
   25        3.912801   0.000000
   26        4.376266   0.000000
 
  0.4000000E+00  0.2000000E+00  0.0000000E+00  0.3200000E+00
    1       -8.767056   1.000000
    2       -8.007704   1.000000
    3       -7.373375   1.000000
    4       -7.039965   1.000000
    5       -5.509053   1.000000
    6       -5.470176   1.000000
    7       -4.140751   1.000000
    8       -3.687154   1.000000
    9       -3.189999   1.000000
   10       -2.534252   1.000000
   11       -1.274499   1.000000
   12       -1.160479   1.000000
   13       -1.132511   1.000000
   14       -0.510257   1.000000
   15       -0.392520   1.000000
   16        0.404060   1.000000
   17        0.766027   1.000000
   18        0.766661   1.000000
   19        1.389785   0.995465
   20        1.559242   0.584304
   21        1.743755   0.008277
   22        2.355249   0.000000
   23        2.850714   0.000000
   24        3.648548   0.000000
   25        4.545810   0.000000
   26        4.742338   0.000000
 
  0.4000000E+00  0.4000000E+00  0.0000000E+00  0.1600000E+00
    1       -8.348724   1.000000
    2       -7.860064   1.000000
    3       -7.504828   1.000000
    4       -7.387463   1.000000
    5       -5.635742   1.000000
    6       -5.547296   1.000000
    7       -4.390252   1.000000
    8       -4.130310   1.000000
    9       -3.280300   1.000000
   10       -3.157190   1.000000
   11       -1.127265   1.000000
   12       -1.073694   1.000000
   13       -0.030427   1.000000
   14        0.011229   1.000000
   15        0.318840   1.000000
   16        0.325683   1.000000
   17        0.696548   1.000000
   18        0.907718   1.000000
   19        1.468487   0.932723
   20        1.734504   0.011736
   21        1.804434   0.000568
   22        1.806416   0.000514
   23        3.670548   0.000000
   24        4.085219   0.000000
   25        4.163431   0.000000
   26        4.474083   0.000000
