unknown system                          
   1.00000000000000     
     5.431010    0.000000    0.000000
     0.000000    5.431010    0.000000
     0.000000    0.000000   10.791010
   Si
    10
Direct
  0.000000  0.000000  0.000000
  0.499999  0.499999  0.000000
  0.250000  0.250000  0.125822
  0.750000  0.750000  0.125822
  0.000000  0.499999  0.251645
  0.499999  0.000000  0.251645
  0.250000  0.750000  0.377468
  0.750000  0.250000  0.377468
  0.000000  0.000000  0.503290
  0.499999  0.499999  0.503290
 
   24   24   42
 0.12456     0.21320     0.47552     0.69218     0.76220     0.72299     0.58699     0.38966     0.20399     0.88551E-01
 0.38605E-01 0.21072E-01 0.16922E-01 0.21081E-01 0.38590E-01 0.88610E-01 0.20391     0.38977     0.58693     0.72302    
 0.76219     0.69219     0.47552     0.21320     0.21320     0.36710     0.62412     0.77259     0.80582     0.75232    
 0.61206     0.41402     0.22818     0.10919     0.52771E-01 0.29463E-01 0.21081E-01 0.21575E-01 0.33722E-01 0.73122E-01
 0.17273     0.34886     0.54713     0.68910     0.73173     0.66307     0.46802     0.25834     0.47552     0.62412    
 0.77182     0.83678     0.83229     0.75879     0.60862     0.41162     0.23888     0.13267     0.79400E-01 0.52735E-01
 0.38590E-01 0.33722E-01 0.40603E-01 0.69798E-01 0.14801     0.30233     0.49792     0.65399     0.72056     0.69354    
 0.58487     0.46802     0.69218     0.77259     0.83678     0.85466     0.82178     0.72700     0.56896     0.38888    
 0.25033     0.17169     0.13272     0.10922     0.88610E-01 0.73122E-01 0.69798E-01 0.86335E-01 0.13960     0.25694    
 0.43323     0.60048     0.69941     0.72225     0.69353     0.66306     0.76220     0.80582     0.83229     0.82178    
 0.76349     0.65144     0.50350     0.37006     0.28707     0.25030     0.23885     0.22810     0.20391     0.17273    
 0.14801     0.13960     0.15920     0.22610     0.35397     0.51036     0.63422     0.69944     0.72057     0.73174    
 0.72299     0.75232     0.75879     0.72700     0.65144     0.54379     0.44134     0.38159     0.37008     0.38889    
 0.41167     0.41409     0.38977     0.34886     0.30233     0.25694     0.22610     0.23063     0.28642     0.39162    
 0.51031     0.60045     0.65395     0.68908     0.58699     0.61206     0.60862     0.56896     0.50350     0.44134    
 0.41581     0.44134     0.50349     0.56894     0.60859     0.61201     0.58693     0.54713     0.49792     0.43323    
 0.35397     0.28642     0.26083     0.28644     0.35399     0.43329     0.49798     0.54721     0.38966     0.41402    
 0.41162     0.38888     0.37006     0.38159     0.44134     0.54380     0.65145     0.72702     0.75881     0.75234    
 0.72302     0.68910     0.65399     0.60048     0.51036     0.39162     0.28644     0.23062     0.22608     0.25690    
 0.30224     0.34877     0.20399     0.22818     0.23888     0.25033     0.28707     0.37008     0.50349     0.65145    
 0.76348     0.82177     0.83228     0.80581     0.76219     0.73173     0.72056     0.69941     0.63422     0.51031    
 0.35399     0.22608     0.15921     0.13962     0.14805     0.17282     0.88551E-01 0.10919     0.13267     0.17169    
 0.25030     0.38889     0.56894     0.72702     0.82177     0.85466     0.83678     0.77259     0.69219     0.66307    
 0.69354     0.72225     0.69944     0.60045     0.43329     0.25690     0.13962     0.86314E-01 0.69779E-01 0.73089E-01
 0.38605E-01 0.52771E-01 0.79400E-01 0.13272     0.23885     0.41167     0.60859     0.75881     0.83228     0.83678    
 0.77182     0.62412     0.47552     0.46802     0.58487     0.69353     0.72057     0.65395     0.49798     0.30224    
 0.14805     0.69779E-01 0.40618E-01 0.33735E-01 0.21072E-01 0.29463E-01 0.52735E-01 0.10922     0.22810     0.41409    
 0.61201     0.75234     0.80581     0.77259     0.62412     0.36710     0.21320     0.25834     0.46802     0.66306    
 0.73174     0.68908     0.54721     0.34877     0.17282     0.73089E-01 0.33735E-01 0.21567E-01 0.16922E-01 0.21081E-01
 0.38590E-01 0.88610E-01 0.20391     0.38977     0.58693     0.72302     0.76219     0.69219     0.47552     0.21320    
 0.12456     0.21320     0.47552     0.69218     0.76220     0.72299     0.58699     0.38966     0.20399     0.88551E-01
 0.38605E-01 0.21072E-01 0.21081E-01 0.21575E-01 0.33722E-01 0.73122E-01 0.17273     0.34886     0.54713     0.68910    
 0.73173     0.66307     0.46802     0.25834     0.21320     0.36710     0.62412     0.77259     0.80582     0.75232    
 0.61206     0.41402     0.22818     0.10919     0.52771E-01 0.29463E-01 0.38590E-01 0.33722E-01 0.40603E-01 0.69798E-01
 0.14801     0.30233     0.49792     0.65399     0.72056     0.69354     0.58487     0.46802     0.47552     0.62412    
 0.77182     0.83678     0.83229     0.75879     0.60862     0.41162     0.23888     0.13267     0.79400E-01 0.52735E-01
 0.88610E-01 0.73122E-01 0.69798E-01 0.86335E-01 0.13960     0.25694     0.43323     0.60048     0.69941     0.72225    
 0.69353     0.66306     0.69218     0.77259     0.83678     0.85466     0.82178     0.72700     0.56896     0.38888    
 0.25033     0.17169     0.13272     0.10922     0.20391     0.17273     0.14801     0.13960     0.15920     0.22610    
 0.35397     0.51036     0.63422     0.69944     0.72057     0.73174     0.76220     0.80582     0.83229     0.82178    
 0.76349     0.65144     0.50350     0.37006     0.28707     0.25030     0.23885     0.22810     0.38977     0.34886    
 0.30233     0.25694     0.22610     0.23063     0.28642     0.39162     0.51031     0.60045     0.65395     0.68908    
 0.72299     0.75232     0.75879     0.72700     0.65144     0.54379     0.44134     0.38159     0.37008     0.38889    
 0.41167     0.41409     0.58693     0.54713     0.49792     0.43323     0.35397     0.28642     0.26083     0.28644    
 0.35399     0.43329     0.49798     0.54721     0.58699     0.61206     0.60862     0.56896     0.50350     0.44134    
 0.41581     0.44134     0.50349     0.56894     0.60859     0.61201     0.72302     0.68910     0.65399     0.60048    
 0.51036     0.39162     0.28644     0.23062     0.22608     0.25690     0.30224     0.34877     0.38966     0.41402    
 0.41162     0.38888     0.37006     0.38159     0.44134     0.54380     0.65145     0.72702     0.75881     0.75234    
 0.76219     0.73173     0.72056     0.69941     0.63422     0.51031     0.35399     0.22608     0.15921     0.13962    
 0.14805     0.17282     0.20399     0.22818     0.23888     0.25033     0.28707     0.37008     0.50349     0.65145    
 0.76348     0.82177     0.83228     0.80581     0.69219     0.66307     0.69354     0.72225     0.69944     0.60045    
 0.43329     0.25690     0.13962     0.86314E-01 0.69779E-01 0.73089E-01 0.88551E-01 0.10919     0.13267     0.17169    
 0.25030     0.38889     0.56894     0.72702     0.82177     0.85466     0.83678     0.77259     0.47552     0.46802    
 0.58487     0.69353     0.72057     0.65395     0.49798     0.30224     0.14805     0.69779E-01 0.40618E-01 0.33735E-01
 0.38605E-01 0.52771E-01 0.79400E-01 0.13272     0.23885     0.41167     0.60859     0.75881     0.83228     0.83678    
 0.77182     0.62412     0.21320     0.25834     0.46802     0.66306     0.73174     0.68908     0.54721     0.34877    
 0.17282     0.73089E-01 0.33735E-01 0.21567E-01 0.21072E-01 0.29463E-01 0.52735E-01 0.10922     0.22810     0.41409    
 0.61201     0.75234     0.80581     0.77259     0.62412     0.36710     0.12723     0.22376     0.50191     0.71132    
 0.76875     0.72192     0.59090     0.40855     0.23113     0.11208     0.53556E-01 0.30162E-01 0.24190E-01 0.30166E-01
 0.53553E-01 0.11211     0.23112     0.40859     0.59089     0.72193     0.76875     0.71132     0.50191     0.22376    
 0.22376     0.45575     0.72388     0.83233     0.84257     0.78440     0.65771     0.47650     0.29070     0.15749    
 0.83552E-01 0.46655E-01 0.30166E-01 0.27132E-01 0.38545E-01 0.77235E-01 0.16963     0.32717     0.50611     0.64152    
 0.68258     0.59967     0.39197     0.21586     0.50191     0.72388     0.85474     0.89155     0.87692     0.81443    
 0.69381     0.51767     0.33786     0.20837     0.13055     0.83531E-01 0.53553E-01 0.38545E-01 0.39534E-01 0.62244E-01
 0.12616     0.25315     0.42039     0.56268     0.62164     0.57553     0.45755     0.39197     0.71132     0.83233    
 0.89155     0.90144     0.87647     0.81301     0.69550     0.53178     0.38070     0.27645     0.20840     0.15749    
 0.11211     0.77235E-01 0.62244E-01 0.70275E-01 0.11003     0.20074     0.34179     0.48456     0.57421     0.59309    
 0.57552     0.59967     0.76875     0.84257     0.87692     0.87647     0.84662     0.77801     0.66038     0.52924    
 0.43640     0.38067     0.33786     0.29066     0.23112     0.16963     0.12616     0.11003     0.12342     0.17519    
 0.27381     0.39759     0.50424     0.57424     0.62164     0.68259     0.72192     0.78440     0.81443     0.81301    
 0.77801     0.70120     0.60386     0.54152     0.52925     0.53179     0.51770     0.47652     0.40859     0.32717    
 0.25315     0.20074     0.17519     0.18121     0.22512     0.30440     0.39754     0.48455     0.56265     0.64152    
 0.59090     0.65771     0.69381     0.69550     0.66038     0.60386     0.57463     0.60385     0.66037     0.69549    
 0.69381     0.65769     0.59089     0.50611     0.42039     0.34179     0.27381     0.22512     0.20735     0.22514    
 0.27382     0.34185     0.42040     0.50614     0.40855     0.47650     0.51767     0.53178     0.52924     0.54152    
 0.60385     0.70121     0.77802     0.81301     0.81444     0.78440     0.72193     0.64152     0.56268     0.48456    
 0.39759     0.30440     0.22514     0.18120     0.17517     0.20072     0.25310     0.32716     0.23113     0.29070    
 0.33786     0.38070     0.43640     0.52925     0.66037     0.77802     0.84661     0.87647     0.87691     0.84257    
 0.76875     0.68258     0.62164     0.57421     0.50424     0.39754     0.27382     0.17517     0.12343     0.11004    
 0.12617     0.16967     0.11208     0.15749     0.20837     0.27645     0.38067     0.53179     0.69549     0.81301    
 0.87647     0.90144     0.89155     0.83233     0.71132     0.59967     0.57553     0.59309     0.57424     0.48455    
 0.34185     0.20072     0.11004     0.70266E-01 0.62236E-01 0.77230E-01 0.53556E-01 0.83552E-01 0.13055     0.20840    
 0.33786     0.51770     0.69381     0.81444     0.87691     0.89155     0.85474     0.72388     0.50191     0.39197    
 0.45755     0.57552     0.62164     0.56265     0.42040     0.25310     0.12617     0.62236E-01 0.39538E-01 0.38550E-01
 0.30162E-01 0.46655E-01 0.83531E-01 0.15749     0.29066     0.47652     0.65769     0.78440     0.84257     0.83233    
 0.72388     0.45574     0.22376     0.21586     0.39197     0.59967     0.68259     0.64152     0.50614     0.32716    
 0.16967     0.77230E-01 0.38550E-01 0.27131E-01 0.24190E-01 0.30166E-01 0.53553E-01 0.11211     0.23112     0.40859    
 0.59089     0.72193     0.76875     0.71132     0.50191     0.22376     0.12723     0.22376     0.50191     0.71132    
 0.76875     0.72192     0.59090     0.40855     0.23113     0.11208     0.53556E-01 0.30162E-01 0.30166E-01 0.27132E-01
 0.38545E-01 0.77235E-01 0.16963     0.32717     0.50611     0.64152     0.68258     0.59967     0.39197     0.21586    
 0.22376     0.45575     0.72388     0.83233     0.84257     0.78440     0.65771     0.47650     0.29070     0.15749    
 0.83552E-01 0.46655E-01 0.53553E-01 0.38545E-01 0.39534E-01 0.62244E-01 0.12616     0.25315     0.42039     0.56268    
 0.62164     0.57553     0.45755     0.39197     0.50191     0.72388     0.85474     0.89155     0.87692     0.81443    
 0.69381     0.51767     0.33786     0.20837     0.13055     0.83531E-01 0.11211     0.77235E-01 0.62244E-01 0.70275E-01
 0.11003     0.20074     0.34179     0.48456     0.57421     0.59309     0.57552     0.59967     0.71132     0.83233    
 0.89155     0.90144     0.87647     0.81301     0.69550     0.53178     0.38070     0.27645     0.20840     0.15749    
 0.23112     0.16963     0.12616     0.11003     0.12342     0.17519     0.27381     0.39759     0.50424     0.57424    
 0.62164     0.68259     0.76875     0.84257     0.87692     0.87647     0.84662     0.77801     0.66038     0.52924    
 0.43640     0.38067     0.33786     0.29066     0.40859     0.32717     0.25315     0.20074     0.17519     0.18121    
 0.22512     0.30440     0.39754     0.48455     0.56265     0.64152     0.72192     0.78440     0.81443     0.81301    
 0.77801     0.70120     0.60386     0.54152     0.52925     0.53179     0.51770     0.47652     0.59089     0.50611    
 0.42039     0.34179     0.27381     0.22512     0.20735     0.22514     0.27382     0.34185     0.42040     0.50614    
 0.59090     0.65771     0.69381     0.69550     0.66038     0.60386     0.57463     0.60385     0.66037     0.69549    
 0.69381     0.65769     0.72193     0.64152     0.56268     0.48456     0.39759     0.30440     0.22514     0.18120    
 0.17517     0.20072     0.25310     0.32716     0.40855     0.47650     0.51767     0.53178     0.52924     0.54152    
 0.60385     0.70121     0.77802     0.81301     0.81444     0.78440     0.76875     0.68258     0.62164     0.57421    
 0.50424     0.39754     0.27382     0.17517     0.12343     0.11004     0.12617     0.16967     0.23113     0.29070    
 0.33786     0.38070     0.43640     0.52925     0.66037     0.77802     0.84661     0.87647     0.87691     0.84257    
 0.71132     0.59967     0.57553     0.59309     0.57424     0.48455     0.34185     0.20072     0.11004     0.70266E-01
 0.62236E-01 0.77230E-01 0.11208     0.15749     0.20837     0.27645     0.38067     0.53179     0.69549     0.81301    
 0.87647     0.90144     0.89155     0.83233     0.50191     0.39197     0.45755     0.57552     0.62164     0.56265    
 0.42040     0.25310     0.12617     0.62236E-01 0.39538E-01 0.38550E-01 0.53556E-01 0.83552E-01 0.13055     0.20840    
 0.33786     0.51770     0.69381     0.81444     0.87691     0.89155     0.85474     0.72388     0.22376     0.21586    
 0.39197     0.59967     0.68259     0.64152     0.50614     0.32716     0.16967     0.77230E-01 0.38550E-01 0.27131E-01
 0.30162E-01 0.46655E-01 0.83531E-01 0.15749     0.29066     0.47652     0.65769     0.78440     0.84257     0.83233    
 0.72388     0.45574     0.31049     0.41601     0.63328     0.76297     0.78214     0.72092     0.59602     0.42837    
 0.26335     0.14609     0.80186E-01 0.49964E-01 0.41629E-01 0.49960E-01 0.80194E-01 0.14609     0.26339     0.42837    
 0.59605     0.72092     0.78215     0.76297     0.63328     0.41601     0.41601     0.64307     0.81834     0.87453    
 0.86532     0.80737     0.69776     0.53600     0.36074     0.22244     0.13181     0.78023E-01 0.49960E-01 0.41283E-01
 0.51333E-01 0.89047E-01 0.17265     0.31055     0.46985     0.59858     0.65620     0.61338     0.47665     0.36069    
 0.63328     0.81834     0.90105     0.91804     0.90193     0.85559     0.76175     0.60876     0.44106     0.30563    
 0.20526     0.13182     0.80194E-01 0.51333E-01 0.44707E-01 0.60608E-01 0.11041     0.21021     0.34657     0.47104    
 0.53783     0.52462     0.46786     0.47665     0.76297     0.87453     0.91804     0.92514     0.91235     0.87258    
 0.77755     0.62641     0.48803     0.39010     0.30564     0.22241     0.14609     0.89047E-01 0.60608E-01 0.58736E-01
 0.83857E-01 0.14731     0.25132     0.36385     0.44777     0.49130     0.52461     0.61338     0.78214     0.86532    
 0.90193     0.91235     0.90147     0.85060     0.73405     0.59638     0.52038     0.48801     0.44108     0.36073    
 0.26339     0.17265     0.11041     0.83857E-01 0.87513E-01 0.12140     0.18974     0.27921     0.36631     0.44780    
 0.53782     0.65620     0.72092     0.80737     0.85559     0.87258     0.85060     0.76938     0.64698     0.57936    
 0.59639     0.62641     0.60877     0.53597     0.42837     0.31055     0.21021     0.14731     0.12140     0.12453    
 0.15480     0.20949     0.27916     0.36386     0.47102     0.59860     0.59602     0.69776     0.76175     0.77755    
 0.73405     0.64698     0.59795     0.64698     0.73405     0.77754     0.76176     0.69776     0.59605     0.46985    
 0.34657     0.25132     0.18974     0.15480     0.14303     0.15482     0.18975     0.25136     0.34655     0.46986    
 0.42837     0.53600     0.60876     0.62641     0.59638     0.57936     0.64698     0.76938     0.85060     0.87258    
 0.85559     0.80737     0.72092     0.59858     0.47104     0.36385     0.27921     0.20949     0.15482     0.12453    
 0.12139     0.14731     0.21019     0.31059     0.26335     0.36074     0.44106     0.48803     0.52038     0.59639    
 0.73405     0.85060     0.90147     0.91235     0.90193     0.86532     0.78215     0.65620     0.53783     0.44777    
 0.36631     0.27916     0.18975     0.12139     0.87517E-01 0.83864E-01 0.11040     0.17265     0.14609     0.22244    
 0.30563     0.39010     0.48801     0.62641     0.77754     0.87258     0.91235     0.92514     0.91804     0.87453    
 0.76297     0.61338     0.52462     0.49130     0.44780     0.36386     0.25136     0.14731     0.83864E-01 0.58735E-01
 0.60606E-01 0.89058E-01 0.80186E-01 0.13181     0.20526     0.30564     0.44108     0.60877     0.76176     0.85559    
 0.90193     0.91804     0.90105     0.81834     0.63328     0.47665     0.46786     0.52461     0.53782     0.47102    
 0.34655     0.21019     0.11040     0.60606E-01 0.44707E-01 0.51331E-01 0.49964E-01 0.78023E-01 0.13182     0.22241    
 0.36073     0.53597     0.69776     0.80737     0.86532     0.87453     0.81834     0.64307     0.41601     0.36069    
 0.47665     0.61338     0.65620     0.59860     0.46986     0.31059     0.17265     0.89058E-01 0.51331E-01 0.41284E-01
 0.41629E-01 0.49960E-01 0.80194E-01 0.14609     0.26339     0.42837     0.59605     0.72092     0.78215     0.76297    
 0.63328     0.41601     0.31049     0.41601     0.63328     0.76297     0.78214     0.72092     0.59602     0.42837    
 0.26335     0.14609     0.80186E-01 0.49964E-01 0.49960E-01 0.41283E-01 0.51333E-01 0.89047E-01 0.17265     0.31055    
 0.46985     0.59858     0.65620     0.61338     0.47665     0.36069     0.41601     0.64307     0.81834     0.87453    
 0.86532     0.80737     0.69776     0.53600     0.36074     0.22244     0.13181     0.78023E-01 0.80194E-01 0.51333E-01
 0.44707E-01 0.60608E-01 0.11041     0.21021     0.34657     0.47104     0.53783     0.52462     0.46786     0.47665    
 0.63328     0.81834     0.90105     0.91804     0.90193     0.85559     0.76175     0.60876     0.44106     0.30563    
 0.20526     0.13182     0.14609     0.89047E-01 0.60608E-01 0.58736E-01 0.83857E-01 0.14731     0.25132     0.36385    
 0.44777     0.49130     0.52461     0.61338     0.76297     0.87453     0.91804     0.92514     0.91235     0.87258    
 0.77755     0.62641     0.48803     0.39010     0.30564     0.22241     0.26339     0.17265     0.11041     0.83857E-01
 0.87513E-01 0.12140     0.18974     0.27921     0.36631     0.44780     0.53782     0.65620     0.78214     0.86532    
 0.90193     0.91235     0.90147     0.85060     0.73405     0.59638     0.52038     0.48801     0.44108     0.36073    
 0.42837     0.31055     0.21021     0.14731     0.12140     0.12453     0.15480     0.20949     0.27916     0.36386    
 0.47102     0.59860     0.72092     0.80737     0.85559     0.87258     0.85060     0.76938     0.64698     0.57936    
 0.59639     0.62641     0.60877     0.53597     0.59605     0.46985     0.34657     0.25132     0.18974     0.15480    
 0.14303     0.15482     0.18975     0.25136     0.34655     0.46986     0.59602     0.69776     0.76175     0.77755    
 0.73405     0.64698     0.59795     0.64698     0.73405     0.77754     0.76176     0.69776     0.72092     0.59858    
 0.47104     0.36385     0.27921     0.20949     0.15482     0.12453     0.12139     0.14731     0.21019     0.31059    
 0.42837     0.53600     0.60876     0.62641     0.59638     0.57936     0.64698     0.76938     0.85060     0.87258    
 0.85559     0.80737     0.78215     0.65620     0.53783     0.44777     0.36631     0.27916     0.18975     0.12139    
 0.87517E-01 0.83864E-01 0.11040     0.17265     0.26335     0.36074     0.44106     0.48803     0.52038     0.59639    
 0.73405     0.85060     0.90147     0.91235     0.90193     0.86532     0.76297     0.61338     0.52462     0.49130    
 0.44780     0.36386     0.25136     0.14731     0.83864E-01 0.58735E-01 0.60606E-01 0.89058E-01 0.14609     0.22244    
 0.30563     0.39010     0.48801     0.62641     0.77754     0.87258     0.91235     0.92514     0.91804     0.87453    
 0.63328     0.47665     0.46786     0.52461     0.53782     0.47102     0.34655     0.21019     0.11040     0.60606E-01
 0.44707E-01 0.51331E-01 0.80186E-01 0.13181     0.20526     0.30564     0.44108     0.60877     0.76176     0.85559    
 0.90193     0.91804     0.90105     0.81834     0.41601     0.36069     0.47665     0.61338     0.65620     0.59860    
 0.46986     0.31059     0.17265     0.89058E-01 0.51331E-01 0.41284E-01 0.49964E-01 0.78023E-01 0.13182     0.22241    
 0.36073     0.53597     0.69776     0.80737     0.86532     0.87453     0.81834     0.64307     0.50588     0.57295    
 0.69660     0.76510     0.76056     0.69915     0.58967     0.44684     0.30966     0.20458     0.13372     0.95050E-01
 0.83344E-01 0.95040E-01 0.13373     0.20456     0.30969     0.44682     0.58970     0.69914     0.76057     0.76510    
 0.69660     0.57295     0.57295     0.72576     0.83555     0.87019     0.85761     0.80903     0.71629     0.58140    
 0.44045     0.31863     0.21772     0.14182     0.95040E-01 0.75997E-01 0.82565E-01 0.11758     0.18805     0.29919    
 0.43234     0.54456     0.60835     0.60831     0.55117     0.50758     0.69660     0.83555     0.89926     0.91480    
 0.90595     0.86983     0.78448     0.65178     0.52471     0.42155     0.31988     0.21775     0.13373     0.82565E-01
 0.63720E-01 0.71256E-01 0.10698     0.17989     0.28421     0.38407     0.45096     0.47887     0.49050     0.55116    
 0.76510     0.87019     0.91480     0.92942     0.92473     0.88635     0.78092     0.62932     0.53031     0.48346    
 0.42155     0.31860     0.20456     0.11758     0.71256E-01 0.58016E-01 0.69814E-01 0.10965     0.17991     0.26070    
 0.33173     0.39752     0.47887     0.60832     0.76056     0.85761     0.90595     0.92473     0.91492     0.85057    
 0.69090     0.52998     0.49704     0.53030     0.52472     0.44045     0.30969     0.18805     0.10698     0.69814E-01
 0.63827E-01 0.81507E-01 0.12305     0.18159     0.24775     0.33175     0.45095     0.60835     0.69915     0.80903    
 0.86983     0.88635     0.85057     0.72318     0.52855     0.45313     0.52998     0.62932     0.65178     0.58138    
 0.44682     0.29919     0.17989     0.10965     0.81507E-01 0.79526E-01 0.96670E-01 0.13078     0.18157     0.26071    
 0.38406     0.54459     0.58967     0.71629     0.78448     0.78092     0.69090     0.52855     0.44022     0.52854    
 0.69090     0.78092     0.78448     0.71629     0.58970     0.43234     0.28421     0.17991     0.12305     0.96670E-01
 0.88779E-01 0.96676E-01 0.12305     0.17992     0.28419     0.43233     0.44684     0.58140     0.65178     0.62932    
 0.52998     0.45313     0.52854     0.72319     0.85058     0.88635     0.86984     0.80902     0.69914     0.54456    
 0.38407     0.26070     0.18159     0.13078     0.96676E-01 0.79527E-01 0.81502E-01 0.10965     0.17988     0.29923    
 0.30966     0.44045     0.52471     0.53031     0.49704     0.52998     0.69090     0.85058     0.91492     0.92473    
 0.90595     0.85761     0.76057     0.60835     0.45096     0.33173     0.24775     0.18157     0.12305     0.81502E-01
 0.63826E-01 0.69818E-01 0.10697     0.18804     0.20458     0.31863     0.42155     0.48346     0.53030     0.62932    
 0.78092     0.88635     0.92473     0.92942     0.91480     0.87018     0.76510     0.60831     0.47887     0.39752    
 0.33175     0.26071     0.17992     0.10965     0.69818E-01 0.58016E-01 0.71256E-01 0.11759     0.13372     0.21772    
 0.31988     0.42155     0.52472     0.65178     0.78448     0.86984     0.90595     0.91480     0.89926     0.83555    
 0.69660     0.55117     0.49050     0.47887     0.45095     0.38406     0.28419     0.17988     0.10697     0.71256E-01
 0.63721E-01 0.82560E-01 0.95050E-01 0.14182     0.21775     0.31860     0.44045     0.58138     0.71629     0.80902    
 0.85761     0.87018     0.83555     0.72577     0.57295     0.50758     0.55116     0.60832     0.60835     0.54459    
 0.43233     0.29923     0.18804     0.11759     0.82560E-01 0.75994E-01 0.83344E-01 0.95040E-01 0.13373     0.20456    
 0.30969     0.44682     0.58970     0.69914     0.76057     0.76510     0.69660     0.57295     0.50588     0.57295    
 0.69660     0.76510     0.76056     0.69915     0.58967     0.44684     0.30966     0.20458     0.13372     0.95050E-01
 0.95040E-01 0.75997E-01 0.82565E-01 0.11758     0.18805     0.29919     0.43234     0.54456     0.60835     0.60831    
 0.55117     0.50758     0.57295     0.72576     0.83555     0.87019     0.85761     0.80903     0.71629     0.58140    
 0.44045     0.31863     0.21772     0.14182     0.13373     0.82565E-01 0.63720E-01 0.71256E-01 0.10698     0.17989    
 0.28421     0.38407     0.45096     0.47887     0.49050     0.55116     0.69660     0.83555     0.89926     0.91480    
 0.90595     0.86983     0.78448     0.65178     0.52471     0.42155     0.31988     0.21775     0.20456     0.11758    
 0.71256E-01 0.58016E-01 0.69814E-01 0.10965     0.17991     0.26070     0.33173     0.39752     0.47887     0.60832    
 0.76510     0.87019     0.91480     0.92942     0.92473     0.88635     0.78092     0.62932     0.53031     0.48346    
 0.42155     0.31860     0.30969     0.18805     0.10698     0.69814E-01 0.63827E-01 0.81507E-01 0.12305     0.18159    
 0.24775     0.33175     0.45095     0.60835     0.76056     0.85761     0.90595     0.92473     0.91492     0.85057    
 0.69090     0.52998     0.49704     0.53030     0.52472     0.44045     0.44682     0.29919     0.17989     0.10965    
 0.81507E-01 0.79526E-01 0.96670E-01 0.13078     0.18157     0.26071     0.38406     0.54459     0.69915     0.80903    
 0.86983     0.88635     0.85057     0.72318     0.52855     0.45313     0.52998     0.62932     0.65178     0.58138    
 0.58970     0.43234     0.28421     0.17991     0.12305     0.96670E-01 0.88779E-01 0.96676E-01 0.12305     0.17992    
 0.28419     0.43233     0.58967     0.71629     0.78448     0.78092     0.69090     0.52855     0.44022     0.52854    
 0.69090     0.78092     0.78448     0.71629     0.69914     0.54456     0.38407     0.26070     0.18159     0.13078    
 0.96676E-01 0.79527E-01 0.81502E-01 0.10965     0.17988     0.29923     0.44684     0.58140     0.65178     0.62932    
 0.52998     0.45313     0.52854     0.72319     0.85058     0.88635     0.86984     0.80902     0.76057     0.60835    
 0.45096     0.33173     0.24775     0.18157     0.12305     0.81502E-01 0.63826E-01 0.69818E-01 0.10697     0.18804    
 0.30966     0.44045     0.52471     0.53031     0.49704     0.52998     0.69090     0.85058     0.91492     0.92473    
 0.90595     0.85761     0.76510     0.60831     0.47887     0.39752     0.33175     0.26071     0.17992     0.10965    
 0.69818E-01 0.58016E-01 0.71256E-01 0.11759     0.20458     0.31863     0.42155     0.48346     0.53030     0.62932    
 0.78092     0.88635     0.92473     0.92942     0.91480     0.87018     0.69660     0.55117     0.49050     0.47887    
 0.45095     0.38406     0.28419     0.17988     0.10697     0.71256E-01 0.63721E-01 0.82560E-01 0.13372     0.21772    
 0.31988     0.42155     0.52472     0.65178     0.78448     0.86984     0.90595     0.91480     0.89926     0.83555    
 0.57295     0.50758     0.55116     0.60832     0.60835     0.54459     0.43233     0.29923     0.18804     0.11759    
 0.82560E-01 0.75994E-01 0.95050E-01 0.14182     0.21775     0.31860     0.44045     0.58138     0.71629     0.80902    
 0.85761     0.87018     0.83555     0.72577     0.54825     0.58546     0.65784     0.70271     0.69946     0.65099    
 0.56615     0.46988     0.38446     0.30854     0.23952     0.19105     0.17435     0.19105     0.23952     0.30853    
 0.38448     0.46987     0.56616     0.65098     0.69946     0.70271     0.65784     0.58546     0.58546     0.69760    
 0.78726     0.82530     0.82189     0.78017     0.70152     0.61111     0.53387     0.45802     0.36479     0.26587    
 0.19105     0.15412     0.15265     0.18052     0.23070     0.30175     0.39075     0.47406     0.52422     0.53537    
 0.52102     0.52191     0.65784     0.78726     0.86047     0.88869     0.88471     0.84154     0.75300     0.65870    
 0.60368     0.56220     0.48560     0.36480     0.23952     0.15265     0.11185     0.10562     0.12494     0.16821    
 0.23350     0.30209     0.35259     0.38988     0.43530     0.52101     0.70271     0.82530     0.88869     0.91225    
 0.90190     0.83921     0.70529     0.58493     0.56520     0.58685     0.56220     0.45801     0.30853     0.18052    
 0.10562     0.75070E-01 0.72608E-01 0.91431E-01 0.13049     0.18071     0.23152     0.29394     0.38988     0.53538    
 0.69946     0.82189     0.88471     0.90190     0.87300     0.75372     0.52680     0.40085     0.45554     0.56520    
 0.60369     0.53388     0.38448     0.23070     0.12494     0.72608E-01 0.55721E-01 0.59669E-01 0.79871E-01 0.11332    
 0.15907     0.23152     0.35258     0.52422     0.65099     0.78017     0.84154     0.83921     0.75372     0.51956    