 vasp.5.4.1 05Feb16 (build Mar 02 2016 14:09:44) complex                        
  
 executed on   Abel-impi-ifc-cuda date 2019.10.04  09:37:06
 running on    4 total cores
 distrk:  each k-point on    4 cores,    1 groups
 distr:  one band on NCORES_PER_BAND=   2 cores,    2 groups


--------------------------------------------------------------------------------------------------------


 INCAR:
 POTCAR:   PAW_PBE Si 05Jan2001                   
 POTCAR:   PAW_PBE Si 05Jan2001                   
   VRHFIN =Si: s2p2                                                             
   LEXCH  = PE                                                                  
   EATOM  =   103.0669 eV,    7.5752 Ry                                         
                                                                                
   TITEL  = PAW_PBE Si 05Jan2001                                                
   LULTRA =        F    use ultrasoft PP ?                                      
   IUNSCR =        1    unscreen: 0-lin 1-nonlin 2-no                           
   RPACOR =    1.500    partial core radius                                     
   POMASS =   28.085; ZVAL   =    4.000    mass and valenz                      
   RCORE  =    1.900    outmost cutoff radius                                   
   RWIGS  =    2.480; RWIGS  =    1.312    wigner-seitz radius (au A)           
   ENMAX  =  245.345; ENMIN  =  184.009 eV                                      
   ICORE  =        2    local potential                                         
   LCOR   =        T    correct aug charges                                     
   LPAW   =        T    paw PP                                                  
   EAUG   =  322.069                                                            
   DEXC   =    -.007                                                            
   RMAX   =    2.944    core radius for proj-oper                               
   RAUG   =    1.300    factor for augmentation sphere                          
   RDEP   =    1.993    radius for radial grids                                 
   QCUT   =   -4.246; QGAM   =    8.493    optimization parameters              
                                                                                
   Description                                                                  
     l     E      TYP  RCUT    TYP  RCUT                                        
     0   .000     23  1.900                                                     
     0   .000     23  1.900                                                     
     1   .000     23  1.900                                                     
     1   .000     23  1.900                                                     
     2   .000      7  1.900                                                     
  local pseudopotential read in
  partial core-charges read in
  atomic valenz-charges read in
  non local Contribution for L=           0  read in
    real space projection operators read in
  non local Contribution for L=           0  read in
    real space projection operators read in
  non local Contribution for L=           1  read in
    real space projection operators read in
  non local Contribution for L=           1  read in
    real space projection operators read in
    PAW grid and wavefunctions read in
 
   number of l-projection  operators is LMAX  =           4
   number of lm-projection operators is LMMAX =           8
 
 Optimization of the real space projectors (new method)

 maximal supplied QI-value         = 19.84
 optimisation between [QCUT,QGAM] = [  7.94, 16.07] = [ 17.64, 72.34] Ry 
 Optimized for a Real-space Cutoff    1.55 Angstroem

   l    n(q)    QCUT    max X(q) W(low)/X(q) W(high)/X(q)  e(spline) 
   0      7     7.937     8.708    0.25E-04    0.20E-04    0.11E-07
   0      7     7.937   106.241    0.95E-04    0.31E-03    0.13E-06
   1      7     7.937     5.901    0.19E-04    0.32E-04    0.50E-07
   1      7     7.937    73.241    0.39E-03    0.64E-03    0.12E-06
 PAW_PBE Si 05Jan2001                   :
 energy of atom  1       EATOM= -103.0669
 kinetic energy error for atom=    0.0052 (will be added to EATOM!!)
 
 
 POSCAR: Si_bulk_icsd_60385                      
  positions in cartesian coordinates
  No initial velocities read in
 exchange correlation table for  LEXCH =        8
   RHO(1)=    0.500       N(1)  =     2000
   RHO(2)=  100.500       N(2)  =     4000
 


--------------------------------------------------------------------------------------------------------


 ion  position               nearest neighbor table
   1  0.000  0.000  0.000-   3 2.35   4 2.35
   2  0.500  0.500  0.000-   3 2.35   4 2.35
   3  0.250  0.250  0.126-   2 2.35   1 2.35   5 2.35   6 2.35
   4  0.750  0.750  0.126-   1 2.35   5 2.35   6 2.35   2 2.35
   5  0.000  0.500  0.252-   3 2.35   8 2.35   4 2.35   7 2.35
   6  0.500  0.000  0.252-   3 2.35   7 2.35   4 2.35   8 2.35
   7  0.250  0.750  0.377-   9 2.35   6 2.35  10 2.35   5 2.35
   8  0.750  0.250  0.377-   9 2.35   5 2.35  10 2.35   6 2.35
   9  0.000  0.000  0.503-   7 2.35   8 2.35
  10  0.500  0.500  0.503-   7 2.35   8 2.35
 
  LATTYP: Found a simple tetragonal cell.
 ALAT       =     5.4310100000
 C/A-ratio  =     1.9869250839
  
  Lattice vectors:
  
 A1 = (   5.4310100000,   0.0000000000,   0.0000000000)
 A2 = (   0.0000000000,   5.4310100000,   0.0000000000)
 A3 = (   0.0000000000,   0.0000000000,  10.7910100000)


Analysis of symmetry for initial positions (statically):
=====================================================================
 Subroutine PRICEL returns following result:
 
  LATTYP: Found a simple tetragonal cell.
 ALAT       =     3.8403039997
 C/A-ratio  =     2.8099364011
  
  Lattice vectors:
  
 A1 = (   2.7155050000,  -2.7155050000,   0.0000000000)
 A2 = (  -2.7155050000,  -2.7155050000,   0.0000000000)
 A3 = (   0.0000000000,   0.0000000000, -10.7910100000)
 
   2 primitive cells build up your supercell.
 

 Routine SETGRP: Setting up the symmetry group for a 
 simple tetragonal supercell.


 Subroutine GETGRP returns: Found  8 space group operations
 (whereof  4 operations were pure point group operations)
 out of a pool of 16 trial point group operations.


The static configuration has the point symmetry C_2v.
 The point group associated with its full space group is D_2d.


Analysis of symmetry for dynamics (positions and initial velocities):
=====================================================================
 Subroutine PRICEL returns following result:
 
  LATTYP: Found a simple tetragonal cell.
 ALAT       =     3.8403039997
 C/A-ratio  =     2.8099364011
  
  Lattice vectors:
  
 A1 = (   2.7155050000,  -2.7155050000,   0.0000000000)
 A2 = (  -2.7155050000,  -2.7155050000,   0.0000000000)
 A3 = (   0.0000000000,   0.0000000000, -10.7910100000)
 
   2 primitive cells build up your supercell.
 

 Routine SETGRP: Setting up the symmetry group for a 
 simple tetragonal supercell.


 Subroutine GETGRP returns: Found  8 space group operations
 (whereof  4 operations were pure point group operations)
 out of a pool of 16 trial point group operations.


The dynamic configuration has the point symmetry C_2v.
 The point group associated with its full space group is D_2d.


 Subroutine INISYM returns: Found  8 space group operations
 (whereof  4 operations are pure point group operations),
 and found     2 'primitive' translations

 
 
 KPOINTS: Automatic                               

Automatic generation of k-mesh.
Space group operators:
 irot       det(A)        alpha          n_x          n_y          n_z        tau_x        tau_y        tau_z
    1     1.000000     0.000000     1.000000     0.000000     0.000000     0.000000     0.000000     0.000000
    2     1.000000   180.000000     0.000000     0.000000     1.000000     0.000000     0.000000     0.000000
    3    -1.000000   180.000000     0.707107     0.707107     0.000000     0.000000     0.000000     0.000000
    4    -1.000000   180.000000     0.707107    -0.707107     0.000000     0.000000     0.000000     0.000000
    5    -1.000000    90.000000     0.000000     0.000000    -1.000000     0.000000     0.000000    -0.496710
    6    -1.000000    90.000000     0.000000     0.000000     1.000000     0.000000     0.000000    -0.496710
    7     1.000000   180.000000     0.000000     1.000000     0.000000     0.000000     0.000000    -0.496710
    8     1.000000   180.000000     1.000000     0.000000     0.000000     0.000000     0.000000    -0.496710
 
 Subroutine IBZKPT returns following result:
 ===========================================
 
 Found      6 irreducible k-points:
 
 Following reciprocal coordinates:
            Coordinates               Weight
  0.000000  0.000000  0.000000      1.000000
  0.200000  0.000000  0.000000      4.000000
  0.400000  0.000000  0.000000      4.000000
  0.200000  0.200000  0.000000      4.000000
  0.400000  0.200000  0.000000      8.000000
  0.400000  0.400000  0.000000      4.000000
 
 Following cartesian coordinates:
            Coordinates               Weight
  0.000000  0.000000  0.000000      1.000000
  0.036826  0.000000  0.000000      4.000000
  0.073651  0.000000  0.000000      4.000000
  0.036826  0.036826  0.000000      4.000000
  0.073651  0.036826  0.000000      8.000000
  0.073651  0.073651  0.000000      4.000000
 


--------------------------------------------------------------------------------------------------------




 Dimension of arrays:
   k-points           NKPTS =      6   k-points in BZ     NKDIM =      6   number of bands    NBANDS=     26
   number of dos      NEDOS =   2401   number of ions     NIONS =     10
   non local maximal  LDIM  =      4   non local SUM 2l+1 LMDIM =      8
   total plane-waves  NPLWV =  24192
   max r-space proj   IRMAX =   1239   max aug-charges    IRDMAX=   2740
   dimension x,y,z NGX =    24 NGY =   24 NGZ =   42
   dimension x,y,z NGXF=    48 NGYF=   48 NGZF=   84
   support grid    NGXF=    48 NGYF=   48 NGZF=   84
   ions per type =              10
 NGX,Y,Z   is equivalent  to a cutoff of   7.35,  7.35,  6.47 a.u.
 NGXF,Y,Z  is equivalent  to a cutoff of  14.69, 14.69, 12.94 a.u.


 I would recommend the setting:
   dimension x,y,z NGX =    21 NGY =   21 NGZ =   42
 SYSTEM =  unknown system                          
 POSCAR =  Si_bulk_icsd_60385                      

 Startparameter for this run:
   NWRITE =      2    write-flag & timer
   PREC   = normal    normal or accurate (medium, high low for compatibility)
   ISTART =      0    job   : 0-new  1-cont  2-samecut
   ICHARG =      2    charge: 1-file 2-atom 10-const
   ISPIN  =      1    spin polarized calculation?
   LNONCOLLINEAR =      F non collinear calculations
   LSORBIT =      F    spin-orbit coupling
   INIWAV =      1    electr: 0-lowe 1-rand  2-diag
   LASPH  =      F    aspherical Exc in radial PAW
   METAGGA=      F    non-selfconsistent MetaGGA calc.

 Electronic Relaxation 1
   ENCUT  =  250.0 eV  18.37 Ry    4.29 a.u.   7.00  7.00 13.91*2*pi/ulx,y,z
   ENINI  =  250.0     initial cutoff
   ENAUG  =  322.1 eV  augmentation charge cutoff
   NELM   =     60;   NELMIN=  4; NELMDL= -5     # of ELM steps 
   EDIFF  = 0.1E-05   stopping-criterion for ELM
   LREAL  =      T    real-space projection
   NLSPLINE    = F    spline interpolate recip. space projectors
   LCOMPAT=      F    compatible to vasp.4.4
   GGA_COMPAT  = T    GGA compatible to vasp.4.4-vasp.4.6
   LMAXPAW     = -100 max onsite density
   LMAXMIX     =    2 max onsite mixed and CHGCAR
   VOSKOWN=      0    Vosko Wilk Nusair interpolation
   ROPT   =   -0.00050
 Ionic relaxation
   EDIFFG = 0.1E-04   stopping-criterion for IOM
   NSW    =      0    number of steps for IOM
   NBLOCK =      1;   KBLOCK =      1    inner block; outer block 
   IBRION =     -1    ionic relax: 0-MD 1-quasi-New 2-CG
   NFREE  =      0    steps in history (QN), initial steepest desc. (CG)
   ISIF   =      2    stress and relaxation
   IWAVPR =     10    prediction:  0-non 1-charg 2-wave 3-comb
   ISYM   =      2    0-nonsym 1-usesym 2-fastsym
   LCORR  =      T    Harris-Foulkes like correction to forces

   POTIM  = 0.5000    time-step for ionic-motion
   TEIN   =    0.0    initial temperature
   TEBEG  =    0.0;   TEEND  =   0.0 temperature during run
   SMASS  =  -3.00    Nose mass-parameter (am)
   estimated Nose-frequenzy (Omega)   =  0.10E-29 period in steps =****** mass=  -0.674E-27a.u.
   SCALEE = 1.0000    scale energy and forces
   NPACO  =    256;   APACO  = 16.0  distance and # of slots for P.C.
   PSTRESS=    0.0 pullay stress

  Mass of Ions in am
   POMASS =  28.09
  Ionic Valenz
   ZVAL   =   4.00
  Atomic Wigner-Seitz radii
   RWIGS  =  -1.00
  virtual crystal weights 
   VCA    =   1.00
   NELECT =      40.0000    total number of electrons
   NUPDOWN=      -1.0000    fix difference up-down

 DOS related values:
   EMIN   = -17.00;   EMAX   =  7.00  energy-range for DOS
   EFERMI =   0.00
   ISMEAR =     0;   SIGMA  =   0.10  broadening in eV -4-tet -1-fermi 0-gaus

 Electronic relaxation 2 (details)
   IALGO  =     68    algorithm
   LDIAG  =      T    sub-space diagonalisation (order eigenvalues)
   LSUBROT=      F    optimize rotation matrix (better conditioning)
   TURBO    =      0    0=normal 1=particle mesh
   IRESTART =      0    0=no restart 2=restart with 2 vectors
   NREBOOT  =      0    no. of reboots
   NMIN     =      0    reboot dimension
   EREF     =   0.00    reference energy to select bands
   IMIX   =      4    mixing-type and parameters
     AMIX     =   0.40;   BMIX     =  1.00
     AMIX_MAG =   1.60;   BMIX_MAG =  1.00
     AMIN     =   0.10
     WC   =   100.;   INIMIX=   1;  MIXPRE=   1;  MAXMIX= -45

 Intra band minimization:
   WEIMIN = 0.0000     energy-eigenvalue tresh-hold
   EBREAK =  0.96E-08  absolut break condition
   DEPER  =   0.30     relativ break condition  

   TIME   =   0.40     timestep for ELM

  volume/ion in A,a.u.               =      31.83       214.79
  Fermi-wavevector in a.u.,A,eV,Ry     =   0.820012  1.549599  9.148833  0.672420
  Thomas-Fermi vector in A             =   1.930919
 
 Write flags
   LWAVE  =      F    write WAVECAR
   LCHARG =      T    write CHGCAR
   LVTOT  =      F    write LOCPOT, total local potential
   LVHAR  =      F    write LOCPOT, Hartree potential only
   LELF   =      T    write electronic localiz. function (ELF)
   LORBIT =     11    0 simple, 1 ext, 2 COOP (PROOUT)


 Dipole corrections
   LMONO  =      F    monopole corrections only (constant potential shift)
   LDIPOL =      F    correct potential (dipole corrections)
   IDIPOL =      0    1-x, 2-y, 3-z, 4-all directions 
   EPSILON=  1.0000000 bulk dielectric constant

 Exchange correlation treatment:
   GGA     =    --    GGA type
   LEXCH   =     8    internal setting for exchange type
   VOSKOWN=      0    Vosko Wilk Nusair interpolation
   LHFCALC =     F    Hartree Fock is set to
   LHFONE  =     F    Hartree Fock one center treatment
   AEXX    =    0.0000 exact exchange contribution

 Linear response parameters
   LEPSILON=     F    determine dielectric tensor
   LRPA    =     F    only Hartree local field effects (RPA)
   LNABLA  =     F    use nabla operator in PAW spheres
   LVEL    =     F    velocity operator in full k-point grid
   LINTERFAST=   F  fast interpolation
   KINTER  =     0    interpolate to denser k-point grid
   CSHIFT  =0.1000    complex shift for real part using Kramers Kronig
   OMEGAMAX=  -1.0    maximum frequency
   DEG_THRESHOLD= 0.2000000E-02 threshold for treating states as degnerate
   RTIME   =    0.100 relaxation time in fs

 Orbital magnetization related:
   ORBITALMAG=     F  switch on orbital magnetization
   LCHIMAG   =     F  perturbation theory with respect to B field
   DQ        =  0.001000  dq finite difference perturbation B field



--------------------------------------------------------------------------------------------------------


 Static calculation
 charge density and potential will be updated during run
 non-spin polarized calculation
 RMM-DIIS sequential band-by-band and
  variant of blocked Davidson during initial phase
 perform sub-space diagonalisation
    before iterative eigenvector-optimisation
 modified Broyden-mixing scheme, WC =      100.0
 initial mixing is a Kerker type mixing with AMIX =  0.4000 and BMIX =      1.0000
 Hartree-type preconditioning will be used
 using additional bands            6
 real space projection scheme for non local part
 use partial core corrections
 calculate Harris-corrections to forces 
   (improved forces if not selfconsistent)
 use gradient corrections 
 use of overlap-Matrix (Vanderbilt PP)
 Gauss-broadening in eV      SIGMA  =   0.10


--------------------------------------------------------------------------------------------------------


  energy-cutoff  :      250.00
  volume of cell :      318.29
      direct lattice vectors                 reciprocal lattice vectors
     5.431010000  0.000000000  0.000000000     0.184127814  0.000000000  0.000000000
     0.000000000  5.431010000  0.000000000     0.000000000  0.184127814  0.000000000
     0.000000000  0.000000000 10.791010000     0.000000000  0.000000000  0.092669732

  length of vectors
     5.431010000  5.431010000 10.791010000     0.184127814  0.184127814  0.092669732


 
 k-points in units of 2pi/SCALE and weight: Automatic                               
   0.00000000  0.00000000  0.00000000       0.040
   0.03682556  0.00000000  0.00000000       0.160
   0.07365113  0.00000000  0.00000000       0.160
   0.03682556  0.03682556  0.00000000       0.160
   0.07365113  0.03682556  0.00000000       0.320
   0.07365113  0.07365113  0.00000000       0.160
 
 k-points in reciprocal lattice and weights: Automatic                               
   0.00000000  0.00000000  0.00000000       0.040
   0.20000000  0.00000000  0.00000000       0.160
   0.40000000  0.00000000  0.00000000       0.160
   0.20000000  0.20000000  0.00000000       0.160
   0.40000000  0.20000000  0.00000000       0.320
   0.40000000  0.40000000  0.00000000       0.160
 
 position of ions in fractional coordinates (direct lattice) 
   0.00000000  0.00000000  0.00000000
   0.49999908  0.49999908  0.00000000
   0.24999954  0.24999954  0.12582233
   0.75000046  0.75000046  0.12582233
   0.00000000  0.49999908  0.25164466
   0.49999908  0.00000000  0.25164466
   0.24999954  0.75000046  0.37746791
   0.75000046  0.24999954  0.37746791
   0.00000000  0.00000000  0.50329024
   0.49999908  0.49999908  0.50329024
 
 position of ions in cartesian coordinates  (Angst):
   0.00000000  0.00000000  0.00000000
   2.71550000  2.71550000  0.00000000
   1.35775000  1.35775000  1.35775000
   4.07326000  4.07326000  1.35775000
   0.00000000  2.71550000  2.71550000
   2.71550000  0.00000000  2.71550000
   1.35775000  4.07326000  4.07326000
   4.07326000  1.35775000  4.07326000
   0.00000000  0.00000000  5.43101000
   2.71550000  2.71550000  5.43101000
 


--------------------------------------------------------------------------------------------------------


 k-point  1 :   0.0000 0.0000 0.0000  plane waves:    2791
 k-point  2 :   0.2000 0.0000 0.0000  plane waves:    2846
 k-point  3 :   0.4000 0.0000 0.0000  plane waves:    2860
 k-point  4 :   0.2000 0.2000 0.0000  plane waves:    2862
 k-point  5 :   0.4000 0.2000 0.0000  plane waves:    2861
 k-point  6 :   0.4000 0.4000 0.0000  plane waves:    2860

 maximum and minimum number of plane-waves per node :      1436     1394

 maximum number of plane-waves:      2862
 maximum index in each direction: 
   IXMAX=    7   IYMAX=    7   IZMAX=   13
   IXMIN=   -7   IYMIN=   -7   IZMIN=  -13

 WARNING: aliasing errors must be expected set NGX to  30 to avoid them
 WARNING: aliasing errors must be expected set NGY to  30 to avoid them
 WARNING: aliasing errors must be expected set NGZ to  54 to avoid them
 aliasing errors are usually negligible using standard VASP settings
 and one can safely disregard these warnings

 real space projection operators:
  total allocation   :        722.38 KBytes
  max/ min on nodes  :        365.88        356.50


 parallel 3D FFT for wavefunctions:
    minimum data exchange during FFTs selected (reduces bandwidth)
 parallel 3D FFT for charge:
    minimum data exchange during FFTs selected (reduces bandwidth)


 total amount of memory used by VASP on root node    37376. kBytes
========================================================================

   base      :      30000. kBytes
   nonlr-proj:        655. kBytes
   fftplans  :       2027. kBytes
   grid      :       2847. kBytes
   one-center:         15. kBytes
   wavefun   :       1832. kBytes
 
     INWAV:  cpu time    0.0010: real time    0.0001
 Broyden mixing: mesh for mixing (old mesh)
   NGX = 15   NGY = 15   NGZ = 27
  (NGX  = 48   NGY  = 48   NGZ  = 84)
  gives a total of   6075 points

 initial charge density was supplied:
 charge density of overlapping atoms calculated
 number of electron      40.0000000 magnetization 
 keeping initial charge density in first step


--------------------------------------------------------------------------------------------------------


 Maximum index for non-local projection operator          596
 Maximum index for augmentation-charges          618 (set IRDMAX)


--------------------------------------------------------------------------------------------------------


 First call to EWALD:  gamma=   0.260
 Maximum number of real-space cells 3x 3x 2
 Maximum number of reciprocal cells 2x 2x 4

 FEWALD executed in parallel
    FEWALD:  cpu time    0.0010: real time    0.0016


----------------------------------------- Iteration    1(   1)  ---------------------------------------


    POTLOK:  cpu time    0.0260: real time    0.0268
    SETDIJ:  cpu time    0.0040: real time    0.0051
     EDDAV:  cpu time    0.1650: real time    0.1675
       DOS:  cpu time    0.0010: real time    0.0013
    --------------------------------------------
      LOOP:  cpu time    0.2000: real time    0.2171

 eigenvalue-minimisations  :   312
 total energy-change (2. order) : 0.8018628E+02  (-0.9510774E+03)
 number of electron      40.0000000 magnetization 
 augmentation part       40.0000000 magnetization 

 Free energy of the ion-electron system (eV)
  ---------------------------------------------------
  alpha Z        PSCENC =        10.57622128
  Ewald energy   TEWEN  =      -472.65011114
  -Hartree energ DENC   =      -559.94328221
  -exchange      EXHF   =         0.00000000
  -V(xc)+E(xc)   XCENC  =       -96.53397278
  PAW double counting   =       329.77604058     -153.84263392
  entropy T*S    EENTRO =        -0.02546980
  eigenvalues    EBANDS =        -7.78801034
  atomic energy  EATOM  =      1030.61749613
  Solvation  Ediel_sol  =         0.00000000
  ---------------------------------------------------
  free energy    TOTEN  =        80.18627780 eV

  energy without entropy =       80.21174760  energy(sigma->0) =       80.19901270


--------------------------------------------------------------------------------------------------------




----------------------------------------- Iteration    1(   2)  ---------------------------------------


     EDDAV:  cpu time    0.1940: real time    0.1963
       DOS:  cpu time    0.0010: real time    0.0011
    --------------------------------------------
      LOOP:  cpu time    0.1960: real time    0.2024

 eigenvalue-minimisations  :   388
 total energy-change (2. order) :-0.1198798E+03  (-0.1173063E+03)
 number of electron      40.0000000 magnetization 
 augmentation part       40.0000000 magnetization 

 Free energy of the ion-electron system (eV)
  ---------------------------------------------------
  alpha Z        PSCENC =        10.57622128
  Ewald energy   TEWEN  =      -472.65011114
  -Hartree energ DENC   =      -559.94328221
  -exchange      EXHF   =         0.00000000
  -V(xc)+E(xc)   XCENC  =       -96.53397278
  PAW double counting   =       329.77604058     -153.84263392
  entropy T*S    EENTRO =        -0.03433304
  eigenvalues    EBANDS =      -127.65898294
  atomic energy  EATOM  =      1030.61749613
  Solvation  Ediel_sol  =         0.00000000
  ---------------------------------------------------
  free energy    TOTEN  =       -39.69355804 eV

  energy without entropy =      -39.65922499  energy(sigma->0) =      -39.67639151


--------------------------------------------------------------------------------------------------------




----------------------------------------- Iteration    1(   3)  ---------------------------------------


     EDDAV:  cpu time    0.2050: real time    0.2054
       DOS:  cpu time    0.0010: real time    0.0011
    --------------------------------------------
      LOOP:  cpu time    0.2070: real time    0.2106

 eigenvalue-minimisations  :   400
 total energy-change (2. order) :-0.7749642E+01  (-0.7644726E+01)
 number of electron      40.0000000 magnetization 
 augmentation part       40.0000000 magnetization 

 Free energy of the ion-electron system (eV)
  ---------------------------------------------------
  alpha Z        PSCENC =        10.57622128
  Ewald energy   TEWEN  =      -472.65011114
  -Hartree energ DENC   =      -559.94328221
  -exchange      EXHF   =         0.00000000
  -V(xc)+E(xc)   XCENC  =       -96.53397278
  PAW double counting   =       329.77604058     -153.84263392
  entropy T*S    EENTRO =        -0.04162177
  eigenvalues    EBANDS =      -135.40133608
  atomic energy  EATOM  =      1030.61749613
  Solvation  Ediel_sol  =         0.00000000
  ---------------------------------------------------
  free energy    TOTEN  =       -47.44319991 eV

  energy without entropy =      -47.40157813  energy(sigma->0) =      -47.42238902


--------------------------------------------------------------------------------------------------------




----------------------------------------- Iteration    1(   4)  ---------------------------------------


     EDDAV:  cpu time    0.2240: real time    0.2247
       DOS:  cpu time    0.0010: real time    0.0011
    --------------------------------------------
      LOOP:  cpu time    0.2260: real time    0.2311

 eigenvalue-minimisations  :   456
 total energy-change (2. order) :-0.2086998E+00  (-0.2083320E+00)
 number of electron      40.0000000 magnetization 
 augmentation part       40.0000000 magnetization 

 Free energy of the ion-electron system (eV)
  ---------------------------------------------------
  alpha Z        PSCENC =        10.57622128
  Ewald energy   TEWEN  =      -472.65011114
  -Hartree energ DENC   =      -559.94328221
  -exchange      EXHF   =         0.00000000
  -V(xc)+E(xc)   XCENC  =       -96.53397278
  PAW double counting   =       329.77604058     -153.84263392
  entropy T*S    EENTRO =        -0.04142601
  eigenvalues    EBANDS =      -135.61023161
  atomic energy  EATOM  =      1030.61749613
  Solvation  Ediel_sol  =         0.00000000
  ---------------------------------------------------
  free energy    TOTEN  =       -47.65189967 eV

  energy without entropy =      -47.61047366  energy(sigma->0) =      -47.63118667


--------------------------------------------------------------------------------------------------------




----------------------------------------- Iteration    1(   5)  ---------------------------------------


     EDDAV:  cpu time    0.2250: real time    0.2246
       DOS:  cpu time    0.0010: real time    0.0011
    CHARGE:  cpu time    0.0160: real time    0.0160
    MIXING:  cpu time    0.0000: real time    0.0010
    --------------------------------------------
      LOOP:  cpu time    0.2430: real time    0.2478

 eigenvalue-minimisations  :   448
 total energy-change (2. order) :-0.5143311E-02  (-0.5138993E-02)
 number of electron      40.0000078 magnetization 
 augmentation part       -2.4665818 magnetization 

 Broyden mixing:
  rms(total) = 0.59783E+00    rms(broyden)= 0.59778E+00
  rms(prec ) = 0.88897E+00
  weight for this iteration     100.00

 Free energy of the ion-electron system (eV)
  ---------------------------------------------------
  alpha Z        PSCENC =        10.57622128
  Ewald energy   TEWEN  =      -472.65011114
  -Hartree energ DENC   =      -559.94328221
  -exchange      EXHF   =         0.00000000
  -V(xc)+E(xc)   XCENC  =       -96.53397278
  PAW double counting   =       329.77604058     -153.84263392
  entropy T*S    EENTRO =        -0.04142858
  eigenvalues    EBANDS =      -135.61537235
  atomic energy  EATOM  =      1030.61749613
  Solvation  Ediel_sol  =         0.00000000
  ---------------------------------------------------
  free energy    TOTEN  =       -47.65704298 eV

  energy without entropy =      -47.61561440  energy(sigma->0) =      -47.63632869


--------------------------------------------------------------------------------------------------------




----------------------------------------- Iteration    1(   6)  ---------------------------------------


    POTLOK:  cpu time    0.0240: real time    0.0247
    SETDIJ:  cpu time    0.0050: real time    0.0040
    EDDIAG:  cpu time    0.0290: real time    0.0300
  RMM-DIIS:  cpu time    0.1090: real time    0.1091
    ORTHCH:  cpu time    0.0040: real time    0.0040
       DOS:  cpu time    0.0010: real time    0.0011
    CHARGE:  cpu time    0.0160: real time    0.0157
    MIXING:  cpu time    0.0010: real time    0.0011
    --------------------------------------------
      LOOP:  cpu time    0.1900: real time    0.1951

 eigenvalue-minimisations  :   328
 total energy-change (2. order) : 0.1018453E+01  (-0.2019619E+00)
 number of electron      40.0000079 magnetization 
 augmentation part       -2.4365276 magnetization 

 Broyden mixing:
  rms(total) = 0.32762E+00    rms(broyden)= 0.32762E+00
  rms(prec ) = 0.44649E+00
  weight for this iteration     100.00

 eigenvalues of (default mixing * dielectric matrix)
  average eigenvalue GAMMA=   2.0568
  2.0568

 Free energy of the ion-electron system (eV)
  ---------------------------------------------------
  alpha Z        PSCENC =        10.57622128
  Ewald energy   TEWEN  =      -472.65011114
  -Hartree energ DENC   =      -571.78058961
  -exchange      EXHF   =         0.00000000
  -V(xc)+E(xc)   XCENC  =       -95.64958719
  PAW double counting   =       346.14579323     -170.63192693
  entropy T*S    EENTRO =        -0.05296692
  eigenvalues    EBANDS =      -123.21291907
  atomic energy  EATOM  =      1030.61749613
  Solvation  Ediel_sol  =         0.00000000
  ---------------------------------------------------
  free energy    TOTEN  =       -46.63859022 eV

  energy without entropy =      -46.58562331  energy(sigma->0) =      -46.61210676


--------------------------------------------------------------------------------------------------------




----------------------------------------- Iteration    1(   7)  ---------------------------------------


    POTLOK:  cpu time    0.0250: real time    0.0248
    SETDIJ:  cpu time    0.0040: real time    0.0040
    EDDIAG:  cpu time    0.0300: real time    0.0294
  RMM-DIIS:  cpu time    0.1150: real time    0.1155
    ORTHCH:  cpu time    0.0040: real time    0.0040
       DOS:  cpu time    0.0010: real time    0.0011
    CHARGE:  cpu time    0.0150: real time    0.0157
    MIXING:  cpu time    0.0020: real time    0.0009
    --------------------------------------------
      LOOP:  cpu time    0.1960: real time    0.2004

 eigenvalue-minimisations  :   341
 total energy-change (2. order) : 0.2070118E+00  (-0.1318827E+00)
 number of electron      40.0000079 magnetization 
 augmentation part       -2.4113277 magnetization 

 Broyden mixing:
  rms(total) = 0.94761E-01    rms(broyden)= 0.94758E-01
  rms(prec ) = 0.13196E+00
  weight for this iteration     100.00

 eigenvalues of (default mixing * dielectric matrix)
  average eigenvalue GAMMA=   1.9380
  1.5449  2.3312

 Free energy of the ion-electron system (eV)
  ---------------------------------------------------
  alpha Z        PSCENC =        10.57622128
  Ewald energy   TEWEN  =      -472.65011114
  -Hartree energ DENC   =      -582.78339594
  -exchange      EXHF   =         0.00000000
  -V(xc)+E(xc)   XCENC  =       -94.58648784
  PAW double counting   =       361.29833919     -186.15309788
  entropy T*S    EENTRO =        -0.04868080
  eigenvalues    EBANDS =      -112.70186146
  atomic energy  EATOM  =      1030.61749613
  Solvation  Ediel_sol  =         0.00000000
  ---------------------------------------------------
  free energy    TOTEN  =       -46.43157847 eV

  energy without entropy =      -46.38289767  energy(sigma->0) =      -46.40723807


--------------------------------------------------------------------------------------------------------




----------------------------------------- Iteration    1(   8)  ---------------------------------------


    POTLOK:  cpu time    0.0250: real time    0.0246
    SETDIJ:  cpu time    0.0040: real time    0.0040
    EDDIAG:  cpu time    0.0290: real time    0.0295
  RMM-DIIS:  cpu time    0.1170: real time    0.1165
    ORTHCH:  cpu time    0.0040: real time    0.0040
       DOS:  cpu time    0.0010: real time    0.0011
    CHARGE:  cpu time    0.0160: real time    0.0157
    MIXING:  cpu time    0.0010: real time    0.0010
    --------------------------------------------
      LOOP:  cpu time    0.1970: real time    0.2004

 eigenvalue-minimisations  :   349
 total energy-change (2. order) : 0.8417510E-02  (-0.1302168E-01)
 number of electron      40.0000079 magnetization 
 augmentation part       -2.4057019 magnetization 

 Broyden mixing:
  rms(total) = 0.23228E-01    rms(broyden)= 0.23227E-01
  rms(prec ) = 0.37439E-01
  weight for this iteration     100.00

 eigenvalues of (default mixing * dielectric matrix)
  average eigenvalue GAMMA=   1.9521
  2.6538  1.6012  1.6012

 Free energy of the ion-electron system (eV)
  ---------------------------------------------------
  alpha Z        PSCENC =        10.57622128
  Ewald energy   TEWEN  =      -472.65011114
  -Hartree energ DENC   =      -584.94165277
  -exchange      EXHF   =         0.00000000
  -V(xc)+E(xc)   XCENC  =       -94.17896128
  PAW double counting   =       363.66397649     -188.56096354
  entropy T*S    EENTRO =        -0.04949228
  eigenvalues    EBANDS =      -110.89967385
  atomic energy  EATOM  =      1030.61749613
  Solvation  Ediel_sol  =         0.00000000
  ---------------------------------------------------
  free energy    TOTEN  =       -46.42316096 eV

  energy without entropy =      -46.37366868  energy(sigma->0) =      -46.39841482


--------------------------------------------------------------------------------------------------------




----------------------------------------- Iteration    1(   9)  ---------------------------------------


    POTLOK:  cpu time    0.0240: real time    0.0245
    SETDIJ:  cpu time    0.0050: real time    0.0040
    EDDIAG:  cpu time    0.0290: real time    0.0294
  RMM-DIIS:  cpu time    0.1260: real time    0.1258
    ORTHCH:  cpu time    0.0040: real time    0.0040
       DOS:  cpu time    0.0010: real time    0.0011
    CHARGE:  cpu time    0.0150: real time    0.0157
    MIXING:  cpu time    0.0020: real time    0.0009
    --------------------------------------------
      LOOP:  cpu time    0.2060: real time    0.2098

 eigenvalue-minimisations  :   383
 total energy-change (2. order) :-0.3492173E-02  (-0.2185315E-02)
 number of electron      40.0000079 magnetization 
 augmentation part       -2.4048422 magnetization 

 Broyden mixing:
  rms(total) = 0.12568E-01    rms(broyden)= 0.12568E-01
  rms(prec ) = 0.21768E-01
  weight for this iteration     100.00

 eigenvalues of (default mixing * dielectric matrix)
  average eigenvalue GAMMA=   1.7507
  2.4346  2.2104  0.9627  1.3951

 Free energy of the ion-electron system (eV)
  ---------------------------------------------------
  alpha Z        PSCENC =        10.57622128
  Ewald energy   TEWEN  =      -472.65011114
  -Hartree energ DENC   =      -586.00336673
  -exchange      EXHF   =         0.00000000
  -V(xc)+E(xc)   XCENC  =       -94.08302148
  PAW double counting   =       363.60556502     -188.49857097
  entropy T*S    EENTRO =        -0.04890235
  eigenvalues    EBANDS =      -109.94196289
  atomic energy  EATOM  =      1030.61749613
  Solvation  Ediel_sol  =         0.00000000
  ---------------------------------------------------
  free energy    TOTEN  =       -46.42665313 eV

  energy without entropy =      -46.37775078  energy(sigma->0) =      -46.40220196


--------------------------------------------------------------------------------------------------------




----------------------------------------- Iteration    1(  10)  ---------------------------------------


    POTLOK:  cpu time    0.0240: real time    0.0245
    SETDIJ:  cpu time    0.0050: real time    0.0040
    EDDIAG:  cpu time    0.0290: real time    0.0294
  RMM-DIIS:  cpu time    0.1210: real time    0.1205
    ORTHCH:  cpu time    0.0040: real time    0.0040
       DOS:  cpu time    0.0000: real time    0.0011
    CHARGE:  cpu time    0.0160: real time    0.0157
    MIXING:  cpu time    0.0010: real time    0.0009
    --------------------------------------------
      LOOP:  cpu time    0.2000: real time    0.2053

 eigenvalue-minimisations  :   353
 total energy-change (2. order) :-0.5875945E-03  (-0.3895143E-03)
 number of electron      40.0000078 magnetization 
 augmentation part       -2.4057564 magnetization 

 Broyden mixing:
  rms(total) = 0.41170E-02    rms(broyden)= 0.41168E-02
  rms(prec ) = 0.76539E-02
  weight for this iteration     100.00

 eigenvalues of (default mixing * dielectric matrix)
  average eigenvalue GAMMA=   1.8978
  2.9307  2.4312  1.5957  1.5957  0.9357

 Free energy of the ion-electron system (eV)
  ---------------------------------------------------
  alpha Z        PSCENC =        10.57622128
  Ewald energy   TEWEN  =      -472.65011114
  -Hartree energ DENC   =      -585.72755842
  -exchange      EXHF   =         0.00000000
  -V(xc)+E(xc)   XCENC  =       -94.09297826
  PAW double counting   =       362.72560778     -187.59611698
  entropy T*S    EENTRO =        -0.04932220
  eigenvalues    EBANDS =      -110.23047891
  atomic energy  EATOM  =      1030.61749613
  Solvation  Ediel_sol  =         0.00000000
  ---------------------------------------------------
  free energy    TOTEN  =       -46.42724073 eV

  energy without entropy =      -46.37791853  energy(sigma->0) =      -46.40257963


--------------------------------------------------------------------------------------------------------




----------------------------------------- Iteration    1(  11)  ---------------------------------------


    POTLOK:  cpu time    0.0240: real time    0.0247
    SETDIJ:  cpu time    0.0050: real time    0.0040
    EDDIAG:  cpu time    0.0290: real time    0.0295
  RMM-DIIS:  cpu time    0.1200: real time    0.1196
    ORTHCH:  cpu time    0.0040: real time    0.0040
       DOS:  cpu time    0.0000: real time    0.0011
    CHARGE:  cpu time    0.0160: real time    0.0156
    MIXING:  cpu time    0.0010: real time    0.0010
    --------------------------------------------
      LOOP:  cpu time    0.2000: real time    0.2042

 eigenvalue-minimisations  :   357
 total energy-change (2. order) :-0.6330595E-03  (-0.1146383E-03)
 number of electron      40.0000078 magnetization 
 augmentation part       -2.4057906 magnetization 

 Broyden mixing:
  rms(total) = 0.25214E-02    rms(broyden)= 0.25213E-02
  rms(prec ) = 0.62943E-02
  weight for this iteration     100.00

 eigenvalues of (default mixing * dielectric matrix)
  average eigenvalue GAMMA=   1.8518
  2.9338  2.5795  1.8678  0.9845  1.3725  1.3725

 Free energy of the ion-electron system (eV)
  ---------------------------------------------------
  alpha Z        PSCENC =        10.57622128
  Ewald energy   TEWEN  =      -472.65011114
  -Hartree energ DENC   =      -585.94567133
  -exchange      EXHF   =         0.00000000
  -V(xc)+E(xc)   XCENC  =       -94.07593087
  PAW double counting   =       362.55448610     -187.42241881
  entropy T*S    EENTRO =        -0.04939229
  eigenvalues    EBANDS =      -110.03255285
  atomic energy  EATOM  =      1030.61749613
  Solvation  Ediel_sol  =         0.00000000
  ---------------------------------------------------
  free energy    TOTEN  =       -46.42787379 eV

  energy without entropy =      -46.37848150  energy(sigma->0) =      -46.40317764


--------------------------------------------------------------------------------------------------------




----------------------------------------- Iteration    1(  12)  ---------------------------------------


    POTLOK:  cpu time    0.0240: real time    0.0245
    SETDIJ:  cpu time    0.0040: real time    0.0040
    EDDIAG:  cpu time    0.0300: real time    0.0295
  RMM-DIIS:  cpu time    0.1220: real time    0.1223
    ORTHCH:  cpu time    0.0040: real time    0.0040
       DOS:  cpu time    0.0010: real time    0.0011
    CHARGE:  cpu time    0.0160: real time    0.0156
    MIXING:  cpu time    0.0010: real time    0.0010
    --------------------------------------------
      LOOP:  cpu time    0.2030: real time    0.2068

 eigenvalue-minimisations  :   363
 total energy-change (2. order) : 0.1843636E-04  (-0.3026415E-04)
 number of electron      40.0000078 magnetization 
 augmentation part       -2.4057363 magnetization 

 Broyden mixing:
  rms(total) = 0.10632E-02    rms(broyden)= 0.10631E-02
  rms(prec ) = 0.19434E-02
  weight for this iteration     100.00

 eigenvalues of (default mixing * dielectric matrix)
  average eigenvalue GAMMA=   2.0040
  3.8113  2.7116  2.1469  2.1469  1.2127  0.9992  0.9992

 Free energy of the ion-electron system (eV)
  ---------------------------------------------------
  alpha Z        PSCENC =        10.57622128
  Ewald energy   TEWEN  =      -472.65011114
  -Hartree energ DENC   =      -586.06177740
  -exchange      EXHF   =         0.00000000
  -V(xc)+E(xc)   XCENC  =       -94.07499915
  PAW double counting   =       362.53525618     -187.40327720
  entropy T*S    EENTRO =        -0.04933670
  eigenvalues    EBANDS =      -109.91732735
  atomic energy  EATOM  =      1030.61749613
  Solvation  Ediel_sol  =         0.00000000
  ---------------------------------------------------
  free energy    TOTEN  =       -46.42785535 eV

  energy without entropy =      -46.37851865  energy(sigma->0) =      -46.40318700


--------------------------------------------------------------------------------------------------------




----------------------------------------- Iteration    1(  13)  ---------------------------------------


    POTLOK:  cpu time    0.0250: real time    0.0246
    SETDIJ:  cpu time    0.0040: real time    0.0040
    EDDIAG:  cpu time    0.0290: real time    0.0294
  RMM-DIIS:  cpu time    0.1190: real time    0.1189
    ORTHCH:  cpu time    0.0040: real time    0.0040
       DOS:  cpu time    0.0010: real time    0.0011
    CHARGE:  cpu time    0.0160: real time    0.0156
    MIXING:  cpu time    0.0010: real time    0.0011
    --------------------------------------------
      LOOP:  cpu time    0.1990: real time    0.2044

 eigenvalue-minimisations  :   359
 total energy-change (2. order) :-0.2413191E-04  (-0.1295140E-04)
 number of electron      40.0000078 magnetization 
 augmentation part       -2.4055573 magnetization 

 Broyden mixing:
  rms(total) = 0.67372E-03    rms(broyden)= 0.67369E-03
  rms(prec ) = 0.11317E-02
  weight for this iteration     100.00

 eigenvalues of (default mixing * dielectric matrix)
  average eigenvalue GAMMA=   1.8738
  3.7730  2.4545  2.4545  1.4815  1.4815  0.9699  1.1877  1.1877

 Free energy of the ion-electron system (eV)
  ---------------------------------------------------
  alpha Z        PSCENC =        10.57622128
  Ewald energy   TEWEN  =      -472.65011114
  -Hartree energ DENC   =      -586.15927732
  -exchange      EXHF   =         0.00000000
  -V(xc)+E(xc)   XCENC  =       -94.07148000
  PAW double counting   =       362.56658196     -187.43556549
  entropy T*S    EENTRO =        -0.04933866
  eigenvalues    EBANDS =      -109.82240624
  atomic energy  EATOM  =      1030.61749613
  Solvation  Ediel_sol  =         0.00000000
  ---------------------------------------------------
  free energy    TOTEN  =       -46.42787948 eV

  energy without entropy =      -46.37854083  energy(sigma->0) =      -46.40321015


--------------------------------------------------------------------------------------------------------




----------------------------------------- Iteration    1(  14)  ---------------------------------------


    POTLOK:  cpu time    0.0240: real time    0.0245
    SETDIJ:  cpu time    0.0040: real time    0.0040
    EDDIAG:  cpu time    0.0290: real time    0.0294
  RMM-DIIS:  cpu time    0.1270: real time    0.1264
    ORTHCH:  cpu time    0.0040: real time    0.0040
       DOS:  cpu time    0.0010: real time    0.0011
    CHARGE:  cpu time    0.0150: real time    0.0156
    MIXING:  cpu time    0.0020: real time    0.0011
    --------------------------------------------
      LOOP:  cpu time    0.2070: real time    0.2111

 eigenvalue-minimisations  :   382
 total energy-change (2. order) : 0.1243969E-05  (-0.2952951E-05)
 number of electron      40.0000078 magnetization 
 augmentation part       -2.4054987 magnetization 

 Broyden mixing:
  rms(total) = 0.37206E-03    rms(broyden)= 0.37204E-03
  rms(prec ) = 0.77614E-03
  weight for this iteration     100.00

 eigenvalues of (default mixing * dielectric matrix)
  average eigenvalue GAMMA=   1.9240
  4.2221  2.5949  2.2373  2.2373  1.5632  1.3115  1.3115  0.9543  0.8834

 Free energy of the ion-electron system (eV)
  ---------------------------------------------------
  alpha Z        PSCENC =        10.57622128
  Ewald energy   TEWEN  =      -472.65011114
  -Hartree energ DENC   =      -586.16353692
  -exchange      EXHF   =         0.00000000
  -V(xc)+E(xc)   XCENC  =       -94.07082078
  PAW double counting   =       362.58456110     -187.45406280
  entropy T*S    EENTRO =        -0.04932817
  eigenvalues    EBANDS =      -109.81829694
  atomic energy  EATOM  =      1030.61749613
  Solvation  Ediel_sol  =         0.00000000
  ---------------------------------------------------
  free energy    TOTEN  =       -46.42787824 eV

  energy without entropy =      -46.37855006  energy(sigma->0) =      -46.40321415


--------------------------------------------------------------------------------------------------------




----------------------------------------- Iteration    1(  15)  ---------------------------------------


    POTLOK:  cpu time    0.0240: real time    0.0245
    SETDIJ:  cpu time    0.0050: real time    0.0040
    EDDIAG:  cpu time    0.0290: real time    0.0294
  RMM-DIIS:  cpu time    0.0960: real time    0.0952
    ORTHCH:  cpu time    0.0030: real time    0.0040
       DOS:  cpu time    0.0010: real time    0.0011
    --------------------------------------------
      LOOP:  cpu time    0.1580: real time    0.1628

 eigenvalue-minimisations  :   265
 total energy-change (2. order) : 0.9781606E-06  (-0.3288157E-06)
 number of electron      40.0000078 magnetization 
 augmentation part       -2.4054987 magnetization 

 Free energy of the ion-electron system (eV)
  ---------------------------------------------------
  alpha Z        PSCENC =        10.57622128
  Ewald energy   TEWEN  =      -472.65011114
  -Hartree energ DENC   =      -586.14913969
  -exchange      EXHF   =         0.00000000
  -V(xc)+E(xc)   XCENC  =       -94.07110701
  PAW double counting   =       362.57384272     -187.44294063
  entropy T*S    EENTRO =        -0.04932443
  eigenvalues    EBANDS =      -109.83281448
  atomic energy  EATOM  =      1030.61749613
  Solvation  Ediel_sol  =         0.00000000
  ---------------------------------------------------
  free energy    TOTEN  =       -46.42787726 eV

  energy without entropy =      -46.37855283  energy(sigma->0) =      -46.40321504


--------------------------------------------------------------------------------------------------------




 average (electrostatic) potential at core
  the test charge radii are     0.9892
  (the norm of the test charge is              1.0000)
       1 -87.5701       2 -87.5700       3 -87.2433       4 -87.2431       5 -87.5422
       6 -87.5422       7 -87.2431       8 -87.2431       9 -87.5701      10 -87.5700
 
 
 
 E-fermi :   1.5743     XC(G=0):  -7.2109     alpha+bet : -7.5354


 k-point     1 :       0.0000    0.0000    0.0000
  band No.  band energies     occupation 
      1      -9.5766      2.00000
      2      -7.9523      2.00000
      3      -5.9773      2.00000
      4      -5.8315      2.00000
      5      -5.8314      2.00000
      6      -5.6068      2.00000
      7      -5.0263      2.00000
      8      -4.8469      2.00000
      9      -2.6245      2.00000
     10      -1.5070      2.00000
     11      -1.4020      2.00000
     12      -1.4019      2.00000
     13      -0.5192      2.00000
     14      -0.5192      2.00000
     15       0.3723      2.00000
     16       0.4529      2.00000
     17       0.8356      2.00000
     18       0.8356      2.00000
     19       1.0883      2.00000
     20       1.0884      2.00000
     21       1.5637      1.11967
     22       2.2294      0.00000
     23       3.0649      0.00000
     24       3.1694      0.00000
     25       3.7914      0.00000
     26       3.8181      0.00000

 k-point     2 :       0.2000    0.0000    0.0000
  band No.  band energies     occupation 
      1      -9.4095      2.00000
      2      -7.8128      2.00000
      3      -7.0565      2.00000
      4      -6.1794      2.00000
      5      -5.5447      2.00000
      6      -5.4440      2.00000
      7      -4.5662      2.00000
      8      -4.1958      2.00000
      9      -2.8028      2.00000
     10      -1.7954      2.00000
     11      -1.5816      2.00000
     12      -1.0452      2.00000
     13      -0.8459      2.00000
     14      -0.8046      2.00000
     15      -0.2465      2.00000
     16       0.3576      2.00000
     17       0.6213      2.00000
     18       1.0892      2.00000
     19       1.2759      1.99998
     20       1.3468      1.99871
     21       1.4972      1.72422
     22       2.0341      0.00000
     23       3.2579      0.00000
     24       3.6661      0.00000
     25       3.9086      0.00000
     26       4.0247      0.00000

 k-point     3 :       0.4000    0.0000    0.0000
  band No.  band energies     occupation 
      1      -8.9146      2.00000
      2      -8.1136      2.00000
      3      -7.4127      2.00000
      4      -6.8183      2.00000
      5      -5.4173      2.00000
      6      -5.3647      2.00000
      7      -4.0057      2.00000
      8      -3.3413      2.00000
      9      -2.8824      2.00000
     10      -1.7943      2.00000
     11      -1.7752      2.00000
     12      -1.6773      2.00000
     13      -1.3901      2.00000
     14      -1.2527      2.00000
     15      -0.3600      2.00000
     16      -0.1385      2.00000
     17       1.0963      2.00000
     18       1.2204      2.00000
     19       1.3994      1.98661
     20       1.4227      1.96800
     21       1.5732      1.01244
     22       2.2632      0.00000
     23       2.4705      0.00000
     24       3.4181      0.00000
     25       4.5456      0.00000
     26       5.0694      0.00000

 k-point     4 :       0.2000    0.2000    0.0000
  band No.  band energies     occupation 
      1      -9.2466      2.00000
      2      -7.6917      2.00000
      3      -7.1721      2.00000
      4      -6.8143      2.00000
      5      -5.5206      2.00000
      6      -5.1880      2.00000
      7      -4.6381      2.00000
      8      -3.7576      2.00000
      9      -3.1348      2.00000
     10      -1.7048      2.00000
     11      -1.6860      2.00000
     12      -1.3391      2.00000
     13      -0.8972      2.00000
     14      -0.8508      2.00000
     15      -0.2781      2.00000
     16       0.8884      2.00000
     17       0.9237      2.00000
     18       0.9533      2.00000
     19       1.1837      2.00000
     20       1.1998      2.00000
     21       1.5934      0.78687
     22       2.0921      0.00000
     23       2.9552      0.00000
     24       3.6424      0.00000
     25       3.9128      0.00000
     26       4.3763      0.00000

 k-point     5 :       0.4000    0.2000    0.0000
  band No.  band energies     occupation 
      1      -8.7671      2.00000
      2      -8.0077      2.00000
      3      -7.3734      2.00000
      4      -7.0400      2.00000
      5      -5.5091      2.00000
      6      -5.4702      2.00000
      7      -4.1408      2.00000
      8      -3.6872      2.00000
      9      -3.1900      2.00000
     10      -2.5343      2.00000
     11      -1.2745      2.00000
     12      -1.1605      2.00000
     13      -1.1325      2.00000
     14      -0.5103      2.00000
     15      -0.3925      2.00000
     16       0.4041      2.00000
     17       0.7660      2.00000
     18       0.7667      2.00000
     19       1.3898      1.99093
     20       1.5592      1.16861
     21       1.7438      0.01655
     22       2.3552      0.00000
     23       2.8507      0.00000
     24       3.6485      0.00000
     25       4.5458      0.00000
     26       4.7423      0.00000

 k-point     6 :       0.4000    0.4000    0.0000
  band No.  band energies     occupation 
      1      -8.3487      2.00000
      2      -7.8601      2.00000
      3      -7.5048      2.00000
      4      -7.3875      2.00000
      5      -5.6357      2.00000
      6      -5.5473      2.00000
      7      -4.3903      2.00000
      8      -4.1303      2.00000
      9      -3.2803      2.00000
     10      -3.1572      2.00000
     11      -1.1273      2.00000
     12      -1.0737      2.00000
     13      -0.0304      2.00000
     14       0.0112      2.00000
     15       0.3188      2.00000
     16       0.3257      2.00000
     17       0.6965      2.00000
     18       0.9077      2.00000
     19       1.4685      1.86545
     20       1.7345      0.02347
     21       1.8044      0.00114
     22       1.8064      0.00103
     23       3.6705      0.00000
     24       4.0852      0.00000
     25       4.1634      0.00000
     26       4.4741      0.00000


--------------------------------------------------------------------------------------------------------


 soft charge-density along one line, spin component           1
         0         1         2         3         4         5         6         7         8         9
 total charge-density along one line
 
 pseudopotential strength for first ion, spin component:           1
 18.893   0.003   0.000   0.003   0.000  -0.000   0.000  -0.000
  0.003   0.006  -0.000   0.000  -0.000   0.000  -0.000   0.000
  0.000  -0.000   4.242   0.000  -0.002  -0.002  -0.000   0.000
  0.003   0.000   0.000   4.241   0.000  -0.000  -0.002  -0.000
  0.000  -0.000  -0.002   0.000   4.242   0.000  -0.000  -0.002
 -0.000   0.000  -0.002  -0.000   0.000   0.005   0.000   0.000
  0.000  -0.000  -0.000  -0.002  -0.000   0.000   0.005   0.000
 -0.000   0.000   0.000  -0.000  -0.002   0.000   0.000   0.005
 total augmentation occupancy for first ion, spin component:           1
  1.780  -0.367   0.000  -0.177   0.000   0.000  -0.094   0.000
 -0.367   0.544   0.000  -0.458   0.000   0.000   0.287   0.000
  0.000   0.000   0.765   0.000   0.242  -0.382   0.000  -0.193
 -0.177  -0.458   0.000   0.902   0.000   0.000  -0.371   0.000
  0.000   0.000   0.242   0.000   0.765  -0.193   0.000  -0.382
  0.000   0.000  -0.382   0.000  -0.193   0.229   0.000   0.151
 -0.094   0.287   0.000  -0.371   0.000   0.000   0.199   0.000
  0.000   0.000  -0.193   0.000  -0.382   0.151   0.000   0.229


------------------------ aborting loop because EDIFF is reached ----------------------------------------


 


 total charge     
 
# of ion     s       p       d       tot
----------------------------------------
  1        0.866   0.738   0.000   1.604
  2        0.866   0.738   0.000   1.604
  3        0.771   0.921   0.000   1.692
  4        0.771   0.921   0.000   1.692
  5        0.777   0.900   0.000   1.677
  6        0.777   0.900   0.000   1.677
  7        0.766   0.941   0.000   1.707
  8        0.766   0.941   0.000   1.707
  9        0.862   0.723   0.000   1.585
 10        0.862   0.723   0.000   1.585
------------------------------------------------
tot        8.082   8.446   0.000  16.529
 
    CHARGE:  cpu time    0.0150: real time    0.0151
    FORLOC:  cpu time    0.0020: real time    0.0028
    FORNL :  cpu time    0.0560: real time    0.0552
    STRESS:  cpu time    0.1690: real time    0.1684
    FORCOR:  cpu time    0.0270: real time    0.0271
    FORHAR:  cpu time    0.0050: real time    0.0059
    MIXING:  cpu time    0.0020: real time    0.0012
    OFIELD:  cpu time    0.0000: real time    0.0000

  FORCE on cell =-STRESS in cart. coord.  units (eV):
  Direction    XX          YY          ZZ          XY          YZ          ZX
  --------------------------------------------------------------------------------------
  Alpha Z    10.57622    10.57622    10.57622
  Ewald     241.08497   241.08497  -954.82244    -0.00082    -0.00080    -0.00080
  Hartree   527.11422   527.11422  -468.10258     0.00004     0.00002     0.00002
  E(xc)    -122.86085  -122.86085  -122.98157     0.00001     0.00001     0.00001
  Local   -1260.06233 -1260.06233   933.15592     0.00036     0.00041     0.00041
  n-local   395.07540   394.26643   389.54109    -3.71533    -0.00025    -0.00027
  augment   -61.23595   -61.23595   -61.00612     0.00001    -0.00000    -0.00000
  Kinetic   262.83943   273.60289   273.34863    -4.36168     0.00002    -0.00000
  Fock        0.00000     0.00000     0.00000     0.00000     0.00000     0.00000
  -------------------------------------------------------------------------------------
  Total      -2.49164    -2.49164    -0.29087    -0.00000     0.00000     0.00000
  in kB     -12.54215   -12.54215    -1.46413    -0.00000     0.00000     0.00000
  external pressure =       -8.85 kB  Pullay stress =        0.00 kB


 VOLUME and BASIS-vectors are now :
 -----------------------------------------------------------------------------
  energy-cutoff  :      250.00
  volume of cell :      318.29
      direct lattice vectors                 reciprocal lattice vectors
     5.431010000  0.000000000  0.000000000     0.184127814  0.000000000  0.000000000
     0.000000000  5.431010000  0.000000000     0.000000000  0.184127814  0.000000000
     0.000000000  0.000000000 10.791010000     0.000000000  0.000000000  0.092669732

  length of vectors
     5.431010000  5.431010000 10.791010000     0.184127814  0.184127814  0.092669732


 FORCES acting on ions
    electron-ion (+dipol)            ewald-force                    non-local-force                 convergence-correction
 -----------------------------------------------------------------------------------------------
   -.568E-05 -.568E-05 0.128E+03   -.920E-04 -.920E-04 -.129E+03   0.000E+00 0.000E+00 0.126E+01   0.124E-06 0.124E-06 0.305E-02
   0.161E-03 0.161E-03 0.128E+03   0.301E-03 0.301E-03 -.129E+03   -.339E-20 -.508E-20 0.126E+01   -.893E-07 -.893E-07 0.305E-02
   0.122E-03 0.122E-03 0.684E+02   0.900E-04 0.900E-04 -.689E+02   0.000E+00 0.000E+00 0.293E+00   -.637E-07 -.637E-07 0.528E-02
   -.129E-03 -.129E-03 0.684E+02   -.212E-03 -.212E-03 -.689E+02   0.000E+00 0.000E+00 0.293E+00   0.538E-07 0.538E-07 0.528E-02
   -.722E-05 0.257E-03 0.646E-03   -.121E-03 0.241E-03 0.654E-04   0.000E+00 -.847E-21 0.000E+00   0.134E-06 -.969E-07 -.176E-04
   0.257E-03 -.722E-05 0.646E-03   0.241E-03 -.121E-03 0.654E-04   0.000E+00 0.000E+00 0.000E+00   -.969E-07 0.134E-06 -.176E-04
   0.122E-03 -.129E-03 -.684E+02   0.921E-04 -.210E-03 0.689E+02   0.000E+00 0.000E+00 -.293E+00   -.617E-07 0.557E-07 -.530E-02
   -.129E-03 0.122E-03 -.684E+02   -.210E-03 0.921E-04 0.689E+02   0.000E+00 0.000E+00 -.293E+00   0.557E-07 -.617E-07 -.530E-02
   -.564E-05 -.564E-05 -.128E+03   -.920E-04 -.920E-04 0.129E+03   0.000E+00 0.000E+00 -.126E+01   0.117E-06 0.117E-06 -.305E-02
   0.631E-03 0.631E-03 -.128E+03   0.366E-05 0.366E-05 0.129E+03   0.678E-20 -.296E-20 -.126E+01   -.842E-07 -.842E-07 -.305E-02
 -----------------------------------------------------------------------------------------------
   0.102E-02 0.102E-02 0.152E-02   0.255E-14 0.123E-14 0.000E+00   0.339E-20 -.889E-20 0.000E+00   0.889E-07 0.889E-07 -.819E-04
 
 
 POSITION                                       TOTAL-FORCE (eV/Angst)
 -----------------------------------------------------------------------------------
      0.00000      0.00000      0.00000         0.000000      0.000000      0.074082
      2.71550      2.71550      0.00000        -0.000000     -0.000000      0.074082
      1.35775      1.35775      1.35775         0.000000      0.000000     -0.217132
      4.07326      4.07326      1.35775         0.000000      0.000000     -0.217132
      0.00000      2.71550      2.71550         0.000000      0.000000     -0.000000
      2.71550      0.00000      2.71550        -0.000000      0.000000     -0.000000
      1.35775      4.07326      4.07326         0.000000      0.000000      0.217132
      4.07326      1.35775      4.07326         0.000000      0.000000      0.217132
      0.00000      0.00000      5.43101        -0.000000     -0.000000     -0.074082
      2.71550      2.71550      5.43101        -0.000000     -0.000000     -0.074082
 -----------------------------------------------------------------------------------
    total drift:                                0.001016      0.001016      0.001442


--------------------------------------------------------------------------------------------------------



  FREE ENERGIE OF THE ION-ELECTRON SYSTEM (eV)
  ---------------------------------------------------
  free  energy   TOTEN  =       -46.42787726 eV

  energy  without entropy=      -46.37855283  energy(sigma->0) =      -46.40321504
 


--------------------------------------------------------------------------------------------------------


    POTLOK:  cpu time    0.0290: real time    0.0290


--------------------------------------------------------------------------------------------------------


     LOOP+:  cpu time    3.5125: real time    3.7581
    4ORBIT:  cpu time    0.0000: real time    0.0000
 


 total charge     
 
# of ion     s       p       d       tot
----------------------------------------
  1        0.866   0.738   0.000   1.604
  2        0.866   0.738   0.000   1.604
  3        0.771   0.921   0.000   1.692
  4        0.771   0.921   0.000   1.692
  5        0.777   0.900   0.000   1.677
  6        0.777   0.900   0.000   1.677
  7        0.766   0.941   0.000   1.707
  8        0.766   0.941   0.000   1.707
  9        0.862   0.723   0.000   1.585
 10        0.862   0.723   0.000   1.585
------------------------------------------------
tot        8.082   8.446   0.000  16.529
 

 total amount of memory used by VASP on root node    37376. kBytes
========================================================================

   base      :      30000. kBytes
   nonlr-proj:        655. kBytes
   fftplans  :       2027. kBytes
   grid      :       2847. kBytes
   one-center:         15. kBytes
   wavefun   :       1832. kBytes
 
  
  
 General timing and accounting informations for this job:
 ========================================================
  
                  Total CPU time used (sec):        4.724
                            User time (sec):        4.614
                          System time (sec):        0.110
                         Elapsed time (sec):        6.595
  
                   Maximum memory used (kb):       36964.
                   Average memory used (kb):           0.
  
                          Minor page faults:         9266
                          Major page faults:          202
                 Voluntary context switches:         2043
