Starting job 28277400 ("jobname") on c15-30 at Fri Oct 4 09:37:05 CEST 2019
 running on    4 total cores
 distrk:  each k-point on    4 cores,    1 groups
 distr:  one band on    2 cores,    2 groups
 using from now: INCAR     
 vasp.5.4.1 05Feb16 (build Mar 02 2016 14:09:44) complex                        
  
 POSCAR found type information on POSCAR  Si
 POSCAR found :  1 types and      10 ions
 LDA part: xc-table for Pade appr. of Perdew
 POSCAR, INCAR and KPOINTS ok, starting setup
 WARNING: small aliasing (wrap around) errors must be expected
 FFT: planning ...
 WAVECAR not read
 entering main loop
       N       E                     dE             d eps       ncg     rms          rms(c)
DAV:   1     0.801862777997E+02    0.80186E+02   -0.95108E+03   312   0.664E+02
DAV:   2    -0.396935580355E+02   -0.11988E+03   -0.11731E+03   388   0.137E+02
DAV:   3    -0.474431999056E+02   -0.77496E+01   -0.76447E+01   400   0.357E+01
DAV:   4    -0.476518996692E+02   -0.20870E+00   -0.20833E+00   456   0.702E+00
DAV:   5    -0.476570429805E+02   -0.51433E-02   -0.51390E-02   448   0.889E-01    0.598E+00
RMM:   6    -0.466385902211E+02    0.10185E+01   -0.20196E+00   328   0.342E+00    0.328E+00
RMM:   7    -0.464315784692E+02    0.20701E+00   -0.13188E+00   341   0.309E+00    0.948E-01
RMM:   8    -0.464231609596E+02    0.84175E-02   -0.13022E-01   349   0.133E+00    0.232E-01
RMM:   9    -0.464266531330E+02   -0.34922E-02   -0.21853E-02   383   0.477E-01    0.126E-01
RMM:  10    -0.464272407276E+02   -0.58759E-03   -0.38951E-03   353   0.216E-01    0.412E-02
RMM:  11    -0.464278737871E+02   -0.63306E-03   -0.11464E-03   357   0.127E-01    0.252E-02
RMM:  12    -0.464278553507E+02    0.18436E-04   -0.30264E-04   363   0.517E-02    0.106E-02
RMM:  13    -0.464278794826E+02   -0.24132E-04   -0.12951E-04   359   0.369E-02    0.674E-03
RMM:  14    -0.464278782387E+02    0.12440E-05   -0.29530E-05   382   0.155E-02    0.372E-03
RMM:  15    -0.464278772605E+02    0.97816E-06   -0.32882E-06   265   0.596E-03
   1 F= -.46427877E+02 E0= -.46403215E+02  d E =-.493244E-01

Currently Loaded Modulefiles:
  1) Anaconda3/5.1.0       3) vesta/3.3.8           5) intel/2016.1
  2) gnuplot/5.0.4         4) imagemagick/6.7.9-0   6) vasp/5.4.1.Feb16

Job script resource usage:
       JobID  MaxVMSize     MaxRSS 
------------ ---------- ---------- 
28277400.ba+    499280K      5816K 

Job step resource usage:
       JobID    JobName  AllocCPUS  MaxVMSize     MaxRSS    Elapsed ExitCode 
------------ ---------- ---------- ---------- ---------- ---------- -------- 
28277400        jobname          4                         00:00:09      0:0 
28277400.0    pmi_proxy          1   1213760K     84488K   00:00:07      0:0 

Job 28277400 ("jobname") completed on c15-30 at Fri Oct 4 09:37:12 CEST 2019
