unknown system                          
           1
     5.431010    0.000000    0.000000
     0.000000    5.431010    0.000000
     0.000000    0.000000   10.791010
   Si
  10
Direct configuration=     1
   0.00000000  0.00000000  0.00000000
   0.49999908  0.49999908  0.00000000
   0.24999954  0.24999954  0.12582233
   0.75000046  0.75000046  0.12582233
   0.00000000  0.49999908  0.25164466
   0.49999908  0.00000000  0.25164466
   0.24999954  0.75000046  0.37746791
   0.75000046  0.24999954  0.37746791
   0.00000000  0.00000000  0.50329024
   0.49999908  0.49999908  0.50329024
