   5   5   0   0
  0.3477306E+02  0.2573869E-09  0.2573869E-09  0.3030467E-08  0.1000000E-15
  1.000000000000000E-004
  CAR 
 unknown system                          
      7.85459357    -13.32902336  301     -2.51431408      1.00000000
    -13.329  0.0000E+00  0.0000E+00
    -13.258  0.0000E+00  0.0000E+00
    -13.188  0.0000E+00  0.0000E+00
    -13.117  0.0000E+00  0.0000E+00
    -13.047  0.0000E+00  0.0000E+00
    -12.976  0.0000E+00  0.0000E+00
    -12.905  0.0000E+00  0.0000E+00
    -12.835  0.0000E+00  0.0000E+00
    -12.764  0.0000E+00  0.0000E+00
    -12.694  0.0000E+00  0.0000E+00
    -12.623  0.0000E+00  0.0000E+00
    -12.552  0.0000E+00  0.0000E+00
    -12.482  0.0000E+00  0.0000E+00
    -12.411  0.0000E+00  0.0000E+00
    -12.340  0.0000E+00  0.0000E+00
    -12.270  0.0000E+00  0.0000E+00
    -12.199  0.0000E+00  0.0000E+00
    -12.129  0.0000E+00  0.0000E+00
    -12.058  0.0000E+00  0.0000E+00
    -11.987  0.0000E+00  0.0000E+00
    -11.917  0.0000E+00  0.0000E+00
    -11.846  0.0000E+00  0.0000E+00
    -11.776  0.0000E+00  0.0000E+00
    -11.705  0.0000E+00  0.0000E+00
    -11.634  0.0000E+00  0.0000E+00
    -11.564  0.0000E+00  0.0000E+00
    -11.493  0.0000E+00  0.0000E+00
    -11.422  0.0000E+00  0.0000E+00
    -11.352  0.0000E+00  0.0000E+00
    -11.281  0.6125E-03  0.1462E-04
    -11.211  0.1518E-02  0.8985E-04
    -11.140  0.2424E-02  0.2290E-03
    -11.069  0.3330E-02  0.4322E-03
    -10.999  0.2076E-02  0.6591E-03
    -10.928  0.2161E-02  0.8087E-03
    -10.858  0.2246E-02  0.9643E-03
    -10.787  0.2330E-02  0.1126E-02
    -10.716  0.2415E-02  0.1293E-02
    -10.646  0.2500E-02  0.1467E-02
    -10.575  0.2584E-02  0.1646E-02
    -10.505  0.2669E-02  0.1832E-02
    -10.434  0.2754E-02  0.2023E-02
    -10.363  0.2729E-02  0.2218E-02
    -10.293  0.3560E-02  0.2435E-02
    -10.222  0.4536E-02  0.2721E-02
    -10.151  0.5513E-02  0.3076E-02
    -10.081  0.6558E-02  0.3501E-02
    -10.010  0.4917E-02  0.3877E-02
     -9.940  0.5066E-02  0.4229E-02
     -9.869  0.5216E-02  0.4592E-02
     -9.798  0.5365E-02  0.4966E-02
     -9.728  0.5515E-02  0.5350E-02
     -9.657  0.5664E-02  0.5745E-02
     -9.587  0.5814E-02  0.6150E-02
     -9.516  0.5963E-02  0.6566E-02
     -9.445  0.5986E-02  0.6988E-02
     -9.375  0.6001E-02  0.7411E-02
     -9.304  0.5995E-02  0.7835E-02
     -9.234  0.6062E-02  0.8260E-02
     -9.163  0.6200E-02  0.8693E-02
     -9.092  0.6338E-02  0.9136E-02
     -9.022  0.6476E-02  0.9588E-02
     -8.951  0.6614E-02  0.1005E-01
     -8.880  0.7829E-02  0.1055E-01
     -8.810  0.9237E-02  0.1116E-01
     -8.739  0.1066E-01  0.1186E-01
     -8.669  0.9841E-02  0.1264E-01
     -8.598  0.1016E-01  0.1335E-01
     -8.527  0.1069E-01  0.1408E-01
     -8.457  0.1111E-01  0.1485E-01
     -8.386  0.1153E-01  0.1565E-01
     -8.316  0.1195E-01  0.1648E-01
     -8.245  0.1237E-01  0.1734E-01
     -8.174  0.1283E-01  0.1823E-01
     -8.104  0.1417E-01  0.1918E-01
     -8.033  0.1542E-01  0.2023E-01
     -7.963  0.1654E-01  0.2136E-01
     -7.892  0.1768E-01  0.2256E-01
     -7.821  0.1882E-01  0.2385E-01
     -7.751  0.2239E-01  0.2528E-01
     -7.680  0.2799E-01  0.2705E-01
     -7.609  0.2990E-01  0.2915E-01
     -7.539  0.3461E-01  0.3141E-01
     -7.468  0.3958E-01  0.3454E-01
     -7.398  0.4828E-01  0.3787E-01
     -7.327  0.4737E-01  0.4125E-01
     -7.256  0.4857E-01  0.4458E-01
     -7.186  0.3905E-01  0.4825E-01
     -7.115  0.6633E-01  0.5211E-01
     -7.045  0.5685E-01  0.5667E-01
     -6.974  0.4533E-01  0.6004E-01
     -6.903  0.4726E-01  0.6318E-01
     -6.833  0.8781E-01  0.6727E-01
     -6.762  0.7743E-01  0.7315E-01
     -6.691  0.6321E-01  0.7766E-01
     -6.621  0.8211E-01  0.8277E-01
     -6.550  0.1202E+00  0.9082E-01
     -6.480  0.8897E-01  0.9865E-01
     -6.409  0.6664E-01  0.1042E+00
     -6.338  0.8806E-01  0.1099E+00
     -6.268  0.7525E-01  0.1162E+00
     -6.197  0.6800E-01  0.1230E+00
     -6.127  0.1545E+00  0.1272E+00
     -6.056  0.4636E-01  0.1351E+00
     -5.985  0.4942E-01  0.1381E+00
     -5.915  0.2246E+00  0.1449E+00
     -5.844  0.6689E-01  0.1581E+00
     -5.774  0.8745E-01  0.1635E+00
     -5.703  0.1189E+00  0.1727E+00
     -5.632  0.1349E+00  0.1827E+00
     -5.562  0.1733E+00  0.1956E+00
     -5.491  0.1421E+00  0.2069E+00
     -5.420  0.2090E+00  0.2208E+00
     -5.350  0.1891E+00  0.2348E+00
     -5.279  0.1445E+00  0.2483E+00
     -5.209  0.1789E+00  0.2581E+00
     -5.138  0.1676E+00  0.2690E+00
     -5.067  0.1244E+00  0.2816E+00
     -4.997  0.2152E+00  0.2938E+00
     -4.926  0.1072E+00  0.3051E+00
     -4.856  0.1010E+00  0.3123E+00
     -4.785  0.2140E+00  0.3229E+00
     -4.714  0.1263E+00  0.3341E+00
     -4.644  0.1087E+00  0.3449E+00
     -4.573  0.1094E+00  0.3544E+00
     -4.503  0.1419E+00  0.3633E+00
     -4.432  0.1471E+00  0.3736E+00
     -4.361  0.1530E+00  0.3843E+00
     -4.291  0.1535E+00  0.3948E+00
     -4.220  0.2170E+00  0.4080E+00
     -4.149  0.1467E+00  0.4201E+00
     -4.079  0.1616E+00  0.4310E+00
     -4.008  0.3444E-01  0.4357E+00
     -3.938  0.2654E-01  0.4378E+00
     -3.867  0.2294E-01  0.4395E+00
     -3.796  0.1841E-01  0.4410E+00
     -3.726  0.1749E-01  0.4423E+00
     -3.655  0.1681E-01  0.4435E+00
     -3.585  0.1712E-01  0.4447E+00
     -3.514  0.1742E-01  0.4459E+00
     -3.443  0.1767E-01  0.4471E+00
     -3.373  0.1783E-01  0.4484E+00
     -3.302  0.1800E-01  0.4496E+00
     -3.231  0.1657E-01  0.4508E+00
     -3.161  0.1658E-01  0.4520E+00
     -3.090  0.1669E-01  0.4532E+00
     -3.020  0.1692E-01  0.4544E+00
     -2.949  0.1736E-01  0.4556E+00
     -2.878  0.1791E-01  0.4568E+00
     -2.808  0.1774E-01  0.4587E+00
     -2.737  0.1792E-01  0.4600E+00
     -2.667  0.1810E-01  0.4612E+00
     -2.596  0.1737E-01  0.4625E+00
     -2.525  0.1723E-01  0.4637E+00
     -2.455  0.1986E-01  0.4651E+00
     -2.384  0.1885E-01  0.4665E+00
     -2.314  0.1785E-01  0.4678E+00
     -2.243  0.1687E-01  0.4690E+00
     -2.172  0.1595E-01  0.4702E+00
     -2.102  0.1522E-01  0.4713E+00
     -2.031  0.1513E-01  0.4724E+00
     -1.960  0.1504E-01  0.4734E+00
     -1.890  0.2855E-01  0.4745E+00
     -1.819  0.2950E-01  0.4764E+00
     -1.749  0.1134E-01  0.4778E+00
     -1.678  0.1128E-01  0.4786E+00
     -1.607  0.1121E-01  0.4794E+00
     -1.537  0.1114E-01  0.4801E+00
     -1.466  0.1087E-01  0.4809E+00
     -1.396  0.1067E-01  0.4817E+00
     -1.325  0.1084E-01  0.4824E+00
     -1.254  0.1210E-01  0.4832E+00
     -1.184  0.1387E-01  0.4842E+00
     -1.113  0.1523E-01  0.4852E+00
     -1.043  0.1448E-01  0.4862E+00
     -0.972  0.1408E-01  0.4872E+00
     -0.901  0.1440E-01  0.4883E+00
     -0.831  0.1472E-01  0.4893E+00
     -0.760  0.1503E-01  0.4903E+00
     -0.689  0.1026E-01  0.4914E+00
     -0.619  0.9719E-02  0.4921E+00
     -0.548  0.1004E-01  0.4928E+00
     -0.478  0.1022E-01  0.4936E+00
     -0.407  0.1041E-01  0.4943E+00
     -0.336  0.1060E-01  0.4950E+00
     -0.266  0.1077E-01  0.4958E+00
     -0.195  0.1098E-01  0.4965E+00
     -0.125  0.1118E-01  0.4973E+00
     -0.054  0.1138E-01  0.4981E+00
      0.017  0.8741E-02  0.4988E+00
      0.087  0.8870E-02  0.4994E+00
      0.158  0.9000E-02  0.5000E+00
      0.228  0.9879E-02  0.5010E+00
      0.299  0.9812E-02  0.5017E+00
      0.370  0.9746E-02  0.5024E+00
      0.440  0.9679E-02  0.5030E+00
      0.511  0.9613E-02  0.5037E+00
      0.582  0.9777E-02  0.5044E+00
      0.652  0.1018E-01  0.5051E+00
      0.723  0.1058E-01  0.5058E+00
      0.793  0.1098E-01  0.5066E+00
      0.864  0.1139E-01  0.5074E+00
      0.935  0.1109E-01  0.5082E+00
      1.005  0.8923E-02  0.5089E+00
      1.076  0.7353E-02  0.5095E+00
      1.146  0.7584E-02  0.5100E+00
      1.217  0.9058E-02  0.5106E+00
      1.288  0.1053E-01  0.5113E+00
      1.358  0.8803E-02  0.5120E+00
      1.429  0.8703E-02  0.5126E+00
      1.500  0.8604E-02  0.5132E+00
      1.570  0.7750E-02  0.5140E+00
      1.641  0.7721E-02  0.5145E+00
      1.711  0.8557E-02  0.5151E+00
      1.782  0.1019E-01  0.5158E+00
      1.853  0.1155E-01  0.5165E+00
      1.923  0.1285E-01  0.5174E+00
      1.994  0.1561E-01  0.5184E+00
      2.064  0.1782E-01  0.5198E+00
      2.135  0.1138E-01  0.5211E+00
      2.206  0.2016E-01  0.5219E+00
      2.276  0.1473E-01  0.5237E+00
      2.347  0.1245E-01  0.5246E+00
      2.417  0.1216E-01  0.5254E+00
      2.488  0.1209E-01  0.5263E+00
      2.559  0.1218E-01  0.5272E+00
      2.629  0.1259E-01  0.5280E+00
      2.700  0.1365E-01  0.5289E+00
      2.771  0.1463E-01  0.5299E+00
      2.841  0.1693E-01  0.5310E+00
      2.912  0.1759E-01  0.5323E+00
      2.982  0.1936E-01  0.5336E+00
      3.053  0.2113E-01  0.5351E+00
      3.124  0.2614E-01  0.5370E+00
      3.194  0.2578E-01  0.5389E+00
      3.265  0.2402E-01  0.5406E+00
      3.335  0.2226E-01  0.5422E+00
      3.406  0.2177E-01  0.5440E+00
      3.477  0.2082E-01  0.5455E+00
      3.547  0.1954E-01  0.5469E+00
      3.618  0.1779E-01  0.5482E+00
      3.688  0.1603E-01  0.5494E+00
      3.759  0.1428E-01  0.5505E+00
      3.830  0.1257E-01  0.5514E+00
      3.900  0.1226E-01  0.5523E+00
      3.971  0.1206E-01  0.5532E+00
      4.042  0.1187E-01  0.5540E+00
      4.112  0.1156E-01  0.5549E+00
      4.183  0.1270E-01  0.5557E+00
      4.253  0.1385E-01  0.5566E+00
      4.324  0.1635E-01  0.5577E+00
      4.395  0.1930E-01  0.5590E+00
      4.465  0.1934E-01  0.5603E+00
      4.536  0.1938E-01  0.5617E+00
      4.606  0.1811E-01  0.5630E+00
      4.677  0.1611E-01  0.5642E+00
      4.748  0.1571E-01  0.5654E+00
      4.818  0.1532E-01  0.5665E+00
      4.889  0.1555E-01  0.5675E+00
      4.959  0.1587E-01  0.5687E+00
      5.030  0.1619E-01  0.5698E+00
      5.101  0.1651E-01  0.5709E+00
      5.171  0.1564E-01  0.5721E+00
      5.242  0.1317E-01  0.5731E+00
      5.313  0.1069E-01  0.5740E+00
      5.383  0.1040E-01  0.5746E+00
      5.454  0.1004E-01  0.5754E+00
      5.524  0.8042E-02  0.5760E+00
      5.595  0.6265E-02  0.5765E+00
      5.666  0.4561E-02  0.5769E+00
      5.736  0.2856E-02  0.5772E+00
      5.807  0.1152E-02  0.5773E+00
      5.877  0.0000E+00  0.5773E+00
      5.948  0.0000E+00  0.5773E+00
      6.019  0.0000E+00  0.5773E+00
      6.089  0.0000E+00  0.5773E+00
      6.160  0.0000E+00  0.5773E+00
      6.231  0.0000E+00  0.5773E+00
      6.301  0.0000E+00  0.5773E+00
      6.372  0.0000E+00  0.5773E+00
      6.442  0.0000E+00  0.5773E+00
      6.513  0.0000E+00  0.5773E+00
      6.584  0.0000E+00  0.5773E+00
      6.654  0.0000E+00  0.5773E+00
      6.725  0.0000E+00  0.5773E+00
      6.795  0.0000E+00  0.5773E+00
      6.866  0.0000E+00  0.5773E+00
      6.937  0.0000E+00  0.5773E+00
      7.007  0.0000E+00  0.5773E+00
      7.078  0.0000E+00  0.5773E+00
      7.148  0.0000E+00  0.5773E+00
      7.219  0.0000E+00  0.5773E+00
      7.290  0.0000E+00  0.5773E+00
      7.360  0.0000E+00  0.5773E+00
      7.431  0.0000E+00  0.5773E+00
      7.502  0.0000E+00  0.5773E+00
      7.572  0.0000E+00  0.5773E+00
      7.643  0.0000E+00  0.5773E+00
      7.713  0.0000E+00  0.5773E+00
      7.784  0.0000E+00  0.5773E+00
      7.855  0.0000E+00  0.5773E+00
