    5    5   97    1
  0.3477306E+02  0.2573869E-09  0.2573869E-09  0.3030466E-08  0.1000000E-15
  1.000000000000000E-004
  CAR 
 unknown system                          
     45     14     28
 
  0.0000000E+00  0.0000000E+00  0.0000000E+00  0.1000000E-01
    1      -11.329023   1.000000
    2      -10.353434   1.000000
    3       -8.940752   1.000000
    4       -7.798628   1.000000
    5       -7.586890   1.000000
    6       -5.674625   1.000000
    7       -5.542896   1.000000
    8       -5.542895   1.000000
    9       -5.500484   1.000000
   10       -5.458462   1.000000
   11       -5.458462   1.000000
   12       -5.438087   1.000000
   13       -5.438087   1.000000
   14       -5.192800   1.000000
   15       -5.192800   1.000000
   16       -5.028320   1.000000
   17       -5.004934   1.000000
   18       -5.004934   1.000000
   19       -4.689145   1.000000
   20       -4.689145   1.000000
   21       -4.474280   1.000000
   22       -4.474279   1.000000
   23       -4.176109   1.000000
   24       -4.176109   1.000000
   25       -3.125698   1.416171
   26        1.113045   0.000000
   27        1.980785   0.000000
   28        2.605838   0.000000
 
  0.1000000E+00  0.6938894E-17  0.0000000E+00  0.6000000E-01
    1      -11.018474   1.000000
    2      -10.063339   1.000000
    3       -8.677531   1.000000
    4       -7.633522   1.000000
    5       -7.400788   1.000000
    6       -5.796776   1.000000
    7       -5.647317   1.000000
    8       -5.585923   1.000000
    9       -5.525784   1.000000
   10       -5.489247   1.000000
   11       -5.444428   1.000000
   12       -5.379088   1.000000
   13       -5.341528   1.000000
   14       -5.298321   1.000000
   15       -5.214262   1.000000
   16       -5.114147   1.000000
   17       -5.010741   1.000000
   18       -4.963993   1.000000
   19       -4.708546   1.000000
   20       -4.679651   1.000000
   21       -4.496047   1.000000
   22       -4.471253   1.000000
   23       -4.173277   1.000000
   24       -4.019092   1.000000
   25       -2.470217   0.198961
   26        1.338772   0.000000
   27        2.281854   0.000000
   28        2.906829   0.000000
 
  0.2000000E+00 -0.1387779E-16  0.0000000E+00  0.6000000E-01
    1      -10.126964   1.000000
    2       -9.255638   1.000000
    3       -8.001979   1.000000
    4       -7.242665   1.000000
    5       -6.894567   1.000000
    6       -6.089042   1.000000
    7       -5.900081   1.000000
    8       -5.762311   1.000000
    9       -5.734492   1.000000
   10       -5.550035   1.000000
   11       -5.411443   1.000000
   12       -5.305139   1.000000
   13       -5.252712   1.000000
   14       -5.164086   1.000000
   15       -5.088466   1.000000
   16       -5.046477   1.000000
   17       -5.042194   1.000000
   18       -4.829621   1.000000
   19       -4.814900   1.000000
   20       -4.662018   1.000000
   21       -4.468012   1.000000
   22       -4.382327   1.000000
   23       -4.167291   1.000000
   24       -3.262358   1.077597
   25       -1.242422   0.000000
   26        2.021668   0.000000
   27        3.185979   0.000000
   28        3.805159   0.000000
 
  0.3000000E+00 -0.2775558E-16  0.0000000E+00  0.6000000E-01
    1       -8.839845   1.000000
    2       -8.213687   1.000000
    3       -7.359087   1.000000
    4       -6.882501   1.000000
    5       -6.556922   1.000000
    6       -6.399050   1.000000
    7       -6.092580   1.000000
    8       -5.844446   1.000000
    9       -5.621772   1.000000
   10       -5.502030   1.000000
   11       -5.357963   1.000000
   12       -5.320186   1.000000
   13       -5.122161   1.000000
   14       -5.089173   1.000000
   15       -5.000748   1.000000
   16       -4.807940   1.000000
   17       -4.715683   1.000000
   18       -4.591557   1.000000
   19       -4.554162   1.000000
   20       -4.463735   1.000000
   21       -4.340197   1.000000
   22       -4.156078   1.000000
   23       -4.007859   1.000000
   24       -2.264195   0.136587
   25        0.202113   0.000000
   26        3.101331   0.000000
   27        4.658026   0.000000
   28        5.141130   0.000000
 
  0.4000000E+00 -0.2775558E-16  0.0000000E+00  0.6000000E-01
    1       -7.775247   1.000000
    2       -7.457710   1.000000
    3       -7.139585   1.000000
    4       -6.839484   1.000000
    5       -6.628624   1.000000
    6       -6.582249   1.000000
    7       -6.284136   1.000000
    8       -5.876047   1.000000
    9       -5.534774   1.000000
   10       -5.438949   1.000000
   11       -5.258002   1.000000
   12       -5.168212   1.000000
   13       -4.895930   1.000000
   14       -4.677372   1.000000
   15       -4.495319   1.000000
   16       -4.441890   1.000000
   17       -4.303291   1.000000
   18       -4.244953   1.000000
   19       -4.159935   1.000000
   20       -4.113144   1.000000
   21       -4.020379   1.000000
   22       -3.668788   1.112602
   23       -3.027892   0.866155
   24       -1.124726   0.000000
   25        0.915386   0.000000
   26        2.447237   0.000000
   27        3.365737   0.000000
   28        4.838466   0.000000
 
  0.5000000E+00 -0.2775558E-16  0.0000000E+00  0.3000000E-01
    1       -7.512137   1.000000
    2       -7.166887   1.000000
    3       -7.134200   1.000000
    4       -6.832299   1.000000
    5       -6.719095   1.000000
    6       -6.618128   1.000000
    7       -6.359320   1.000000
    8       -5.906199   1.000000
    9       -5.580866   1.000000
   10       -5.471845   1.000000
   11       -5.189122   1.000000
   12       -5.130529   1.000000
   13       -4.705413   1.000000
   14       -4.671265   1.000000
   15       -4.321586   1.000000
   16       -4.272817   1.000000
   17       -4.234245   1.000000
   18       -4.147546   1.000000
   19       -4.088939   1.000000
   20       -3.902345   1.000000
   21       -2.843923   1.000000
   22       -2.117586   0.024478
   23       -1.799632  -0.032474
   24       -1.302369   0.000000
   25       -1.015449   0.000000
   26        1.674649   0.000000
   27        2.794536   0.000000
   28        4.278477   0.000000
 
  0.2000000E+00  0.1000000E+00  0.0000000E+00  0.6000000E-01
    1      -10.415768   1.000000
    2       -9.511547   1.000000
    3       -8.202041   1.000000
    4       -7.357124   1.000000
    5       -7.035335   1.000000
    6       -5.966892   1.000000
    7       -5.861101   1.000000
    8       -5.719558   1.000000
    9       -5.713714   1.000000
   10       -5.592132   1.000000
   11       -5.375787   1.000000
   12       -5.323106   1.000000
   13       -5.292395   1.000000
   14       -5.223009   1.000000
   15       -5.138142   1.000000
   16       -5.091110   1.000000
   17       -4.918848   1.000000
   18       -4.899631   1.000000
   19       -4.810820   1.000000
   20       -4.676732   1.000000
   21       -4.578740   1.000000
   22       -4.323266   1.000000
   23       -4.222815   1.000000
   24       -3.475928   1.000000
   25       -1.597368   0.000000
   26        1.794932   0.000000
   27        2.884987   0.000000
   28        3.507296   0.000000
 
  0.3000000E+00  0.1000000E+00  0.0000000E+00  0.1200000E+00
    1       -9.307036   1.000000
    2       -8.561415   1.000000
    3       -7.517901   1.000000
    4       -6.914616   1.000000
    5       -6.534053   1.000000
    6       -6.228223   1.000000
    7       -6.013186   1.000000
    8       -5.904577   1.000000
    9       -5.849851   1.000000
   10       -5.632369   1.000000
   11       -5.493545   1.000000
   12       -5.385000   1.000000
   13       -5.336283   1.000000
   14       -5.151025   1.000000
   15       -4.989903   1.000000
   16       -4.906875   1.000000
   17       -4.760832   1.000000
   18       -4.749353   1.000000
   19       -4.611404   1.000000
   20       -4.502314   1.000000
   21       -4.346789   1.000000
   22       -4.242422   1.000000
   23       -4.062686   1.000000
   24       -2.616262   0.591282
   25       -0.301596   0.000000
   26        2.718857   0.000000
   27        4.088941   0.000000
   28        4.664775   0.000000
 
  0.4000000E+00  0.1000000E+00  0.0000000E+00  0.1200000E+00
    1       -8.059280   1.000000
    2       -7.655069   1.000000
    3       -7.099235   1.000000
    4       -6.746613   1.000000
    5       -6.474890   1.000000
    6       -6.436889   1.000000
    7       -6.135828   1.000000
    8       -5.908446   1.000000
    9       -5.592015   1.000000
   10       -5.520528   1.000000
   11       -5.429653   1.000000
   12       -5.316871   1.000000
   13       -5.205499   1.000000
   14       -5.002493   1.000000
   15       -4.931568   1.000000
   16       -4.714469   1.000000
   17       -4.583212   1.000000
   18       -4.394366   1.000000
   19       -4.299832   1.000000
   20       -4.170128   1.000000
   21       -4.037497   1.000000
   22       -3.852847   1.000000
   23       -3.280466   0.981817
   24       -1.421497  -0.023685
   25        1.096187   0.000000
   26        3.520999   0.000000
   27        4.388142   0.000000
   28        5.448465   0.000000
 
  0.5000000E+00  0.1000000E+00  0.0000000E+00  0.1200000E+00
    1       -7.478964   1.000000
    2       -7.126440   1.000000
    3       -7.030952   1.000000
    4       -6.736833   1.000000
    5       -6.592504   1.000000
    6       -6.544345   1.000000
    7       -6.271023   1.000000
    8       -5.913755   1.000000
    9       -5.607079   1.000000
   10       -5.475657   1.000000
   11       -5.379215   1.000000
   12       -5.091873   1.000000
   13       -4.947576   1.000000
   14       -4.797263   1.000000
   15       -4.609555   1.000000
   16       -4.476049   1.000000
   17       -4.323774   1.000000
   18       -4.260140   1.000000
   19       -4.199956   1.000000
   20       -4.066404   1.000000
   21       -2.823333   0.952959
   22       -2.517971   0.566230
   23       -1.893211   0.043333
   24       -0.608813   0.000000
   25        0.192987   0.000000
   26        1.981701   0.000000
   27        3.146876   0.000000
   28        4.570031   0.000000
 
  0.4000000E+00  0.2000000E+00  0.0000000E+00  0.6000000E-01
    1       -8.176689   1.000000
    2       -7.714866   1.000000
    3       -7.033556   1.000000
    4       -6.635185   1.000000
    5       -6.258087   1.000000
    6       -6.162455   1.000000
    7       -6.086946   1.000000
    8       -6.019664   1.000000
    9       -5.854317   1.000000
   10       -5.705760   1.000000
   11       -5.553162   1.000000
   12       -5.508681   1.000000
   13       -5.469654   1.000000
   14       -5.149736   1.000000
   15       -5.043045   1.000000
   16       -4.797073   1.000000
   17       -4.684714   1.000000
   18       -4.490488   1.000000
   19       -4.287770   1.000000
   20       -4.173389   1.000000
   21       -4.007852   1.000000
   22       -3.808161   1.000000
   23       -3.259923   0.964175
   24       -1.504691  -0.074019
   25        1.019821   0.000000
   26        3.835505   0.000000
   27        5.542013   0.000000
   28        5.854594   0.000000
 
  0.5000000E+00  0.2000000E+00  0.0000000E+00  0.1200000E+00
    1       -7.432816   1.000000
    2       -7.015840   1.000000
    3       -6.794394   1.000000
    4       -6.582316   1.000000
    5       -6.373537   1.000000
    6       -6.259744   1.000000
    7       -6.087726   1.000000
    8       -5.908510   1.000000
    9       -5.765908   1.000000
   10       -5.658548   1.000000
   11       -5.512608   1.000000
   12       -5.397702   1.000000
   13       -5.232647   1.000000
   14       -5.104630   1.000000
   15       -5.009125   1.000000
   16       -4.789262   1.000000
   17       -4.582472   1.000000
   18       -4.422037   1.000000
   19       -4.213025   1.000000
   20       -4.077557   1.000000
   21       -2.901695   0.884335
   22       -2.643107   0.643268
   23       -1.781409   0.040093
   24       -0.044067   0.000000
   25        1.997771   0.000000
   26        3.067782   0.000000
   27        4.105091   0.000000
   28        5.376177   0.000000
 
 -0.4000000E+00  0.2000000E+00  0.0000000E+00  0.6000000E-01
    1       -7.272288   1.000000
    2       -6.810295   1.000000
    3       -6.746090   1.000000
    4       -6.481999   1.000000
    5       -6.439446   1.000000
    6       -6.334150   1.000000
    7       -6.114401   1.000000
    8       -5.944372   1.000000
    9       -5.768911   1.000000
   10       -5.671431   1.000000
   11       -5.387625   1.000000
   12       -5.273771   1.000000
   13       -5.177754   1.000000
   14       -5.034916   1.000000
   15       -4.884766   1.000000
   16       -4.751215   1.000000
   17       -4.475587   1.000000
   18       -4.312567   1.000000
   19       -4.244798   1.000000
   20       -4.146102   1.000000
   21       -1.867204  -0.044657
   22       -0.993140  -0.224498
   23       -0.544474   0.000000
   24       -0.025122   0.000000
   25        0.546829   0.000000
   26        2.194448   0.000000
   27        3.442562   0.000000
   28        4.861372   0.000000
 
 -0.4000000E+00  0.3000000E+00  0.0000000E+00  0.6000000E-01
    1       -7.201263   1.000000
    2       -6.576003   1.000000
    3       -6.509223   1.000000
    4       -6.454756   1.000000
    5       -6.304780   1.000000
    6       -6.198153   1.000000
    7       -6.127791   1.000000
    8       -5.862566   1.000000
    9       -5.766105   1.000000
   10       -5.704576   1.000000
   11       -5.611904   1.000000
   12       -5.468042   1.000000
   13       -5.240343   1.000000
   14       -5.193735   1.000000
   15       -5.024685   1.000000
   16       -4.805851   1.000000
   17       -4.642597   1.000000
   18       -4.360169   1.000000
   19       -4.261049   1.000000
   20       -4.167541   1.000000
   21       -1.802474  -0.026708
   22       -0.726248  -0.077490
   23        0.221880   0.000000
   24        1.527756   0.000000
   25        2.128195   0.000000
   26        2.235687   0.000000
   27        3.073322   0.000000
   28        3.390328   0.000000
