       N       E                     dE             d eps       ncg     rms          rms(c)
DAV:   1     0.277865436541E+03    0.27787E+03   -0.19348E+04   784   0.156E+03
DAV:   2    -0.320765538971E+01   -0.28107E+03   -0.27269E+03   800   0.344E+02
DAV:   3    -0.204130081139E+02   -0.17205E+02   -0.16931E+02   852   0.115E+02
DAV:   4    -0.206907197367E+02   -0.27771E+00   -0.27713E+00   888   0.155E+01
DAV:   5    -0.206926182180E+02   -0.18985E-02   -0.18912E-02   900   0.932E-01    0.156E+01
RMM:   6    -0.196198739497E+02    0.10727E+01   -0.50838E+01   791   0.812E+01    0.948E+00
RMM:   7    -0.172071727804E+02    0.24127E+01   -0.10234E+01   785   0.380E+01    0.418E+00
RMM:   8    -0.165948591130E+02    0.61231E+00   -0.26309E-01   792   0.493E+00    0.172E+00
RMM:   9    -0.165408982905E+02    0.53961E-01   -0.79893E-02   788   0.292E+00    0.932E-01
RMM:  10    -0.165197537160E+02    0.21145E-01   -0.13271E-02   790   0.106E+00    0.532E-01
RMM:  11    -0.165161122885E+02    0.36414E-02   -0.12583E-02   793   0.109E+00    0.339E-01
RMM:  12    -0.165130551860E+02    0.30571E-02   -0.54588E-03   791   0.759E-01    0.875E-02
RMM:  13    -0.165124071616E+02    0.64802E-03   -0.34933E-04   791   0.145E-01    0.471E-02
RMM:  14    -0.165120929493E+02    0.31421E-03   -0.36237E-04   786   0.125E-01    0.336E-02
RMM:  15    -0.165119807721E+02    0.11218E-03   -0.66474E-05   790   0.729E-02    0.132E-02
RMM:  16    -0.165119844621E+02   -0.36900E-05   -0.34340E-05   781   0.456E-02    0.167E-02
RMM:  17    -0.165120327278E+02   -0.48266E-04   -0.25466E-05   783   0.463E-02    0.758E-03
RMM:  18    -0.165121245134E+02   -0.91786E-04   -0.12449E-05   691   0.216E-02    0.539E-03
RMM:  19    -0.165121611895E+02   -0.36676E-04   -0.24526E-06   497   0.109E-02    0.395E-03
RMM:  20    -0.165122004007E+02   -0.39211E-04   -0.31194E-06   505   0.754E-03    0.181E-03
RMM:  21    -0.165122437047E+02   -0.43304E-04   -0.29950E-06   488   0.897E-03    0.122E-03
RMM:  22    -0.165122626419E+02   -0.18937E-04   -0.12422E-06   462   0.626E-03    0.576E-04
RMM:  23    -0.165122688278E+02   -0.61860E-05   -0.24823E-07   391   0.238E-03    0.250E-04
RMM:  24    -0.165122717303E+02   -0.29025E-05   -0.91340E-08   227   0.150E-03    0.265E-04
RMM:  25    -0.165122722620E+02   -0.53172E-06   -0.25693E-08   146   0.996E-04
   1 F= -.16512272E+02 E0= -.16512272E+02  d E =0.000000E+00
       N       E                     dE             d eps       ncg     rms          rms(c)
DAV:   1    -0.165206015361E+02   -0.83298E-02   -0.29513E+00  3024   0.837E+00    0.305E-01
RMM:   2    -0.165233335344E+02   -0.27320E-02   -0.26994E-02  2926   0.140E+00    0.202E-01
RMM:   3    -0.165318621266E+02   -0.85286E-02   -0.34073E-03  2927   0.523E-01    0.451E-01
RMM:   4    -0.165227208433E+02    0.91413E-02   -0.20879E-03  2930   0.428E-01    0.233E-02
RMM:   5    -0.165227269431E+02   -0.60998E-05   -0.12302E-04  2926   0.103E-01    0.207E-02
RMM:   6    -0.165227196528E+02    0.72903E-05   -0.20528E-05  2858   0.482E-02    0.580E-03
RMM:   7    -0.165227058115E+02    0.13841E-04   -0.15225E-06  1671   0.126E-02    0.401E-03
RMM:   8    -0.165227068306E+02   -0.10191E-05   -0.18174E-06  1675   0.141E-02    0.308E-03
RMM:   9    -0.165227105709E+02   -0.37403E-05   -0.83226E-07  1614   0.102E-02    0.652E-04
RMM:  10    -0.165227087755E+02    0.17954E-05   -0.76723E-08  1566   0.321E-03    0.279E-04
RMM:  11    -0.165227094644E+02   -0.68884E-06   -0.11048E-08   620   0.138E-03
   2 F= -.16522709E+02 E0= -.16522709E+02  d E =0.000000E+00
       N       E                     dE             d eps       ncg     rms          rms(c)
DAV:   1    -0.165197545397E+02    0.29542E-02   -0.60553E+00  2948   0.111E+01    0.614E-01
RMM:   2    -0.165240395271E+02   -0.42850E-02   -0.57751E-02  2927   0.185E+00    0.376E-01
RMM:   3    -0.165476827745E+02   -0.23643E-01   -0.10780E-02  2929   0.872E-01    0.868E-01
RMM:   4    -0.165227968981E+02    0.24886E-01   -0.82761E-03  2932   0.862E-01    0.849E-02
RMM:   5    -0.165227337953E+02    0.63103E-04   -0.62676E-04  2929   0.251E-01    0.286E-02
RMM:   6    -0.165227607939E+02   -0.26999E-04   -0.56621E-05  2922   0.791E-02    0.180E-02
RMM:   7    -0.165227294879E+02    0.31306E-04   -0.13191E-05  2884   0.361E-02    0.917E-03
RMM:   8    -0.165226916280E+02    0.37860E-04   -0.55024E-06  2409   0.215E-02    0.393E-03
RMM:   9    -0.165227061565E+02   -0.14528E-04   -0.78558E-07  1616   0.889E-03    0.151E-03
RMM:  10    -0.165227088168E+02   -0.26603E-05   -0.22386E-07  1600   0.523E-03    0.824E-04
RMM:  11    -0.165227092892E+02   -0.47241E-06   -0.69185E-08  1580   0.282E-03
   3 F= -.16522709E+02 E0= -.16522709E+02  d E =0.000000E+00
       N       E                     dE             d eps       ncg     rms          rms(c)
DAV:   1    -0.165169429002E+02    0.57659E-02   -0.67233E+00  1748   0.122E+01    0.422E-01
RMM:   2    -0.165225848733E+02   -0.56420E-02   -0.60961E-02  1746   0.196E+00    0.263E-01
RMM:   3    -0.165312026421E+02   -0.86178E-02   -0.45032E-03  1747   0.534E-01    0.497E-01
RMM:   4    -0.165225703624E+02    0.86323E-02   -0.26832E-03  1746   0.478E-01    0.539E-02
RMM:   5    -0.165225515911E+02    0.18771E-04   -0.23966E-04  1747   0.150E-01    0.140E-02
RMM:   6    -0.165225234136E+02    0.28178E-04   -0.84171E-06  1649   0.306E-02    0.695E-03
RMM:   7    -0.165224999395E+02    0.23474E-04   -0.32349E-06  1166   0.172E-02    0.519E-03
RMM:   8    -0.165224970094E+02    0.29301E-05   -0.28469E-06  1053   0.180E-02    0.269E-03
RMM:   9    -0.165225019821E+02   -0.49727E-05   -0.56139E-07   961   0.848E-03    0.683E-04
RMM:  10    -0.165225027048E+02   -0.72276E-06   -0.90638E-08   944   0.302E-03
   4 F= -.16522503E+02 E0= -.16522503E+02  d E =0.000000E+00
       N       E                     dE             d eps       ncg     rms          rms(c)
DAV:   1    -0.165253198675E+02   -0.28179E-02   -0.66674E+00  1740   0.120E+01    0.612E-01
RMM:   2    -0.165249446667E+02    0.37520E-03   -0.60630E-02  1746   0.202E+00    0.381E-01
RMM:   3    -0.165483006540E+02   -0.23356E-01   -0.11705E-02  1746   0.927E-01    0.894E-01
RMM:   4    -0.165285027082E+02    0.19798E-01   -0.85028E-03  1748   0.878E-01    0.692E-02
RMM:   5    -0.165285763169E+02   -0.73609E-04   -0.57476E-04  1746   0.227E-01    0.400E-02
RMM:   6    -0.165286555332E+02   -0.79216E-04   -0.74238E-05  1747   0.930E-02    0.158E-02
RMM:   7    -0.165285987175E+02    0.56816E-04   -0.94414E-06  1627   0.269E-02    0.988E-03
RMM:   8    -0.165285615072E+02    0.37210E-04   -0.75413E-06  1561   0.263E-02    0.415E-03
RMM:   9    -0.165285764820E+02   -0.14975E-04   -0.10967E-06   968   0.108E-02    0.208E-03
RMM:  10    -0.165285794293E+02   -0.29473E-05   -0.41641E-07   960   0.737E-03    0.113E-03
RMM:  11    -0.165285792959E+02    0.13334E-06   -0.86256E-08   947   0.328E-03
   5 F= -.16528579E+02 E0= -.16528579E+02  d E =0.000000E+00
       N       E                     dE             d eps       ncg     rms          rms(c)
DAV:   1    -0.164817016435E+02    0.46878E-01   -0.57252E+00   784   0.123E+01    0.486E-01
RMM:   2    -0.165045213784E+02   -0.22820E-01   -0.76514E-02   790   0.232E+00    0.382E-01
RMM:   3    -0.164964598148E+02    0.80616E-02   -0.55405E-03   785   0.641E-01    0.537E-01
RMM:   4    -0.164853339226E+02    0.11126E-01   -0.66824E-03   794   0.769E-01    0.208E-01
RMM:   5    -0.164846700700E+02    0.66385E-03   -0.22846E-03   791   0.478E-01    0.715E-02
RMM:   6    -0.164846189841E+02    0.51086E-04   -0.34208E-04   792   0.194E-01    0.309E-02
RMM:   7    -0.164845925231E+02    0.26461E-04   -0.34596E-05   789   0.641E-02    0.152E-02
RMM:   8    -0.164845933272E+02   -0.80406E-06   -0.13012E-05   770   0.299E-02    0.685E-03
RMM:   9    -0.164845898071E+02    0.35201E-05   -0.40788E-06   586   0.199E-02    0.337E-03
RMM:  10    -0.164845909013E+02   -0.10942E-05   -0.94171E-07   442   0.109E-02    0.156E-03
RMM:  11    -0.164845922410E+02   -0.13397E-05   -0.21413E-07   435   0.464E-03    0.698E-04
RMM:  12    -0.164845941180E+02   -0.18770E-05   -0.11493E-07   408   0.235E-03    0.267E-04
RMM:  13    -0.164845948769E+02   -0.75883E-06   -0.47226E-08   283   0.163E-03
   6 F= -.16484595E+02 E0= -.16484595E+02  d E =0.000000E+00
       N       E                     dE             d eps       ncg     rms          rms(c)
DAV:   1    -0.164176563226E+02    0.66938E-01   -0.12056E+01   800   0.193E+01    0.893E-01
RMM:   2    -0.164237482245E+02   -0.60919E-02   -0.25439E-01   791   0.384E+00    0.620E-01
RMM:   3    -0.164564981299E+02   -0.32750E-01   -0.23980E-02   790   0.131E+00    0.104E+00
RMM:   4    -0.164301853250E+02    0.26313E-01   -0.20012E-02   789   0.138E+00    0.303E-01
RMM:   5    -0.164294260264E+02    0.75930E-03   -0.73934E-03   790   0.848E-01    0.190E-01
RMM:   6    -0.164291711659E+02    0.25486E-03   -0.20183E-03   792   0.482E-01    0.474E-02
RMM:   7    -0.164287955078E+02    0.37566E-03   -0.14441E-04   790   0.126E-01    0.194E-02
RMM:   8    -0.164287059652E+02    0.89543E-04   -0.26334E-05   790   0.531E-02    0.134E-02
RMM:   9    -0.164287075090E+02   -0.15438E-05   -0.88116E-06   766   0.319E-02    0.834E-03
RMM:  10    -0.164287556940E+02   -0.48185E-04   -0.20445E-06   502   0.112E-02    0.298E-03
RMM:  11    -0.164287524486E+02    0.32454E-05   -0.65438E-07   434   0.855E-03    0.139E-03
RMM:  12    -0.164287569030E+02   -0.44544E-05   -0.38416E-07   440   0.523E-03    0.799E-04
RMM:  13    -0.164287626289E+02   -0.57259E-05   -0.22151E-07   432   0.336E-03    0.468E-04
RMM:  14    -0.164287623039E+02    0.32503E-06   -0.11277E-07   312   0.183E-03
   7 F= -.16428762E+02 E0= -.16428762E+02  d E =0.000000E+00
