unknown system                          
           1
     2.573869    0.000000    0.000000
     1.286934    2.229036    0.000000
     0.000000    0.000000   30.304665
   Cu   H 
   4   1
Direct configuration=     1
   0.00000000  0.00000000  0.39644015
   0.33333333  0.33333333  0.46515176
   0.66666667  0.66666667  0.53391621
   0.00000000  0.00000000  0.60674401
   0.00000000  0.00000000  0.65562682
Direct configuration=     2
   0.00000000  0.00000000  0.39644015
   0.33333333  0.33333333  0.46515176
   0.66666667  0.66666667  0.53391621
   0.00000000  0.00000000  0.60674401
   0.03885202  0.00000000  0.65562682
Direct configuration=     3
   0.00000000  0.00000000  0.39644015
   0.33333333  0.33333333  0.46515176
   0.66666667  0.66666667  0.53391621
   0.00000000  0.00000000  0.60674401
  -0.03885202  0.00000000  0.65562682
Direct configuration=     4
   0.00000000  0.00000000  0.39644015
   0.33333333  0.33333333  0.46515176
   0.66666667  0.66666667  0.53391621
   0.00000000  0.00000000  0.60674401
  -0.02243122  0.04486245  0.65562682
Direct configuration=     5
   0.00000000  0.00000000  0.39644015
   0.33333333  0.33333333  0.46515176
   0.66666667  0.66666667  0.53391621
   0.00000000  0.00000000  0.60674401
   0.02243122 -0.04486245  0.65562682
Direct configuration=     6
   0.00000000  0.00000000  0.39644015
   0.33333333  0.33333333  0.46515176
   0.66666667  0.66666667  0.53391621
   0.00000000  0.00000000  0.60674401
   0.00000000  0.00000000  0.65892664
Direct configuration=     7
   0.00000000  0.00000000  0.39644015
   0.33333333  0.33333333  0.46515176
   0.66666667  0.66666667  0.53391621
   0.00000000  0.00000000  0.60674401
   0.00000000  0.00000000  0.65232700
