unknown system                          
   1.00000000000000     
     0.000000    2.715400    2.715400
     2.715400    0.000000    2.715400
     2.715400    2.715400    0.000000
   Si
     2
Direct
  0.000000  0.000000  0.000000
  0.250000  0.250000  0.250000
 
   32   32   32
 -.76342510393E+01 -.58984917408E+01 -.12568228316E+01 0.48384408029E+01 0.10650636174E+02
 0.14811342582E+02 0.16729234547E+02 0.16627174087E+02 0.15269939663E+02 0.13521126476E+02
 0.11800571481E+02 0.10262760340E+02 0.89855085723E+01 0.79956708055E+01 0.72949644660E+01
 0.68777699717E+01 0.67392691078E+01 0.68777559943E+01 0.72949564205E+01 0.79956757593E+01
 0.89855115214E+01 0.10262752267E+02 0.11800564139E+02 0.13521129475E+02 0.15269941848E+02
 0.16627161705E+02 0.16729215215E+02 0.14811336519E+02 0.10650650090E+02 0.48384624260E+01
 -.12568075176E+01 -.58984857670E+01 -.58984917408E+01 -.25015445731E+01 0.31776562099E+01
 0.94009672254E+01 0.14516392229E+02 0.17529220663E+02 0.18309242570E+02 0.17427957632E+02
 0.15775135524E+02 0.14009889076E+02 0.12355629347E+02 0.10919737550E+02 0.97500210569E+01
 0.88638555203E+01 0.82685070211E+01 0.79691522904E+01 0.79691290488E+01 0.82684735986E+01
 0.88638614697E+01 0.97500498425E+01 0.10919736961E+02 0.12355596576E+02 0.14009868939E+02
 0.15775142566E+02 0.17427959099E+02 0.18309228084E+02 0.17529230702E+02 0.14516444767E+02
 0.94010006543E+01 0.31775988712E+01 -.25016629539E+01 -.58985535520E+01 -.12568228316E+01
 0.31776562099E+01 0.89210823691E+01 0.14276176050E+02 0.17966241924E+02 0.19508221702E+02
 0.19196887911E+02 0.17801191459E+02 0.16101214098E+02 0.14425797449E+02 0.12907364624E+02
 0.11610758931E+02 0.10566740052E+02 0.97970897366E+01 0.93233631618E+01 0.91631703762E+01
 0.93233694906E+01 0.97970935547E+01 0.10566735157E+02 0.11610750804E+02 0.12907363290E+02
 0.14425801862E+02 0.16101212570E+02 0.17801180979E+02 0.19196881577E+02 0.19508228189E+02
 0.17966248363E+02 0.14276164647E+02 0.89210562612E+01 0.31776340202E+01 -.12568320354E+01
 -.29263040404E+01 0.48384408029E+01 0.94009672254E+01 0.14276176050E+02 0.18103487676E+02
 0.20131810093E+02 0.20359238114E+02 0.19347363140E+02 0.17844502711E+02 0.16269333819E+02
 0.14774898583E+02 0.13437649875E+02 0.12296099220E+02 0.11383018086E+02 0.10738495322E+02
 0.10403249628E+02 0.10403261734E+02 0.10738513742E+02 0.11383016469E+02 0.12296082028E+02
 0.13437642812E+02 0.14774907659E+02 0.16269339992E+02 0.17844498309E+02 0.19347364129E+02
 0.20359247331E+02 0.20131798408E+02 0.18103440901E+02 0.14276139166E+02 0.94009983591E+01
 0.48385231074E+01 0.20728289675E+01 0.20727841207E+01 0.10650636174E+02 0.14516392229E+02
 0.17966241924E+02 0.20131810093E+02 0.20764773738E+02 0.20185965127E+02 0.19008423528E+02
 0.17664583878E+02 0.16319150372E+02 0.15053388764E+02 0.13906025091E+02 0.12912532624E+02
 0.12126880425E+02 0.11616562094E+02 0.11438946748E+02 0.11616562964E+02 0.12126883331E+02
 0.12912535160E+02 0.13906021775E+02 0.15053378726E+02 0.16319140805E+02 0.17664582253E+02
 0.19008428532E+02 0.20185969310E+02 0.20764773961E+02 0.20131810599E+02 0.17966246474E+02
 0.14516398064E+02 0.10650638622E+02 0.75963668133E+01 0.64346611608E+01 0.75963673817E+01
 0.14811342582E+02 0.17529220663E+02 0.19508221702E+02 0.20359238114E+02 0.20185965127E+02
 0.19418218982E+02 0.18418788667E+02 0.17343233883E+02 0.16269336403E+02 0.15228253916E+02
 0.14247097864E+02 0.13381904909E+02 0.12721361344E+02 0.12360305520E+02 0.12360307673E+02
 0.12721367484E+02 0.13381912193E+02 0.14247099783E+02 0.15228245738E+02 0.16269322193E+02
 0.17343223369E+02 0.18418785674E+02 0.19418219381E+02 0.20185969380E+02 0.20359255170E+02
 0.19508249423E+02 0.17529232025E+02 0.14811312080E+02 0.12171177789E+02 0.10541084656E+02
 0.10541112894E+02 0.12171233260E+02 0.16729234547E+02 0.18309242570E+02 0.19196887911E+02
 0.19347363140E+02 0.19008423528E+02 0.18418788667E+02 0.17702409236E+02 0.16924161095E+02
 0.16101214098E+02 0.15242146936E+02 0.14389220670E+02 0.13633911792E+02 0.13098911602E+02
 0.12903832367E+02 0.13098926449E+02 0.13633927876E+02 0.14389227271E+02 0.15242144165E+02
 0.16101205442E+02 0.16924148697E+02 0.17702397730E+02 0.18418784225E+02 0.19008426721E+02
 0.19347369019E+02 0.19196892597E+02 0.18309243041E+02 0.16729225300E+02 0.14863617846E+02
 0.13348844276E+02 0.12765749236E+02 0.13348862178E+02 0.14863637674E+02 0.16627174087E+02
 0.17427957632E+02 0.17801191459E+02 0.17844502711E+02 0.17664583878E+02 0.17343233883E+02
 0.16924161095E+02 0.16406713702E+02 0.15775132940E+02 0.15043392990E+02 0.14274508925E+02
 0.13600482797E+02 0.13199985652E+02 0.13199992982E+02 0.13600498656E+02 0.14274522355E+02
 0.15043398549E+02 0.15775130372E+02 0.16406704170E+02 0.16924148250E+02 0.17343222442E+02
 0.17664574101E+02 0.17844493261E+02 0.17801187945E+02 0.17427966712E+02 0.16627187252E+02
 0.15507331657E+02 0.14396723648E+02 0.13702078004E+02 0.13702088542E+02 0.14396740609E+02
 0.15507332932E+02 0.15269939663E+02 0.15775135524E+02 0.16101214098E+02 0.16269333819E+02
 0.16319150372E+02 0.16269336403E+02 0.16101214098E+02 0.15775132940E+02 0.15269939663E+02
 0.14600925522E+02 0.13873859334E+02 0.13297473340E+02 0.13077002465E+02 0.13297483773E+02
 0.13873870324E+02 0.14600930952E+02 0.15269941036E+02 0.15775130550E+02 0.16101205511E+02
 0.16269324178E+02 0.16319140669E+02 0.16269326762E+02 0.16101205511E+02 0.15775127965E+02
 0.15269941036E+02 0.14600933536E+02 0.13873870324E+02 0.13297481189E+02 0.13077002465E+02
 0.13297475924E+02 0.13873859334E+02 0.14600922938E+02 0.13521126476E+02 0.14009889076E+02
 0.14425797449E+02 0.14774898583E+02 0.15053388764E+02 0.15228253916E+02 0.15242146936E+02
 0.15043392990E+02 0.14600925522E+02 0.13958239032E+02 0.13303944920E+02 0.12888800941E+02
 0.12888805615E+02 0.13303953283E+02 0.13958243765E+02 0.14600927953E+02 0.15043395043E+02
 0.15242143399E+02 0.15228244163E+02 0.15053385550E+02 0.14774909123E+02 0.14425803168E+02
 0.14009864686E+02 0.13521080348E+02 0.12973702132E+02 0.12423698070E+02 0.11963277177E+02
 0.11695751618E+02 0.11695722048E+02 0.11963218808E+02 0.12423668866E+02 0.12973725951E+02
 0.11800571481E+02 0.12355629347E+02 0.12907364624E+02 0.13437649875E+02 0.13906025091E+02
 0.14247097864E+02 0.14389220670E+02 0.14274508925E+02 0.13873859334E+02 0.13303944920E+02
 0.12802529608E+02 0.12603160327E+02 0.12802531377E+02 0.13303948049E+02 0.13873864492E+02
 0.14274515822E+02 0.14389225226E+02 0.14247095870E+02 0.13906018648E+02 0.13437645549E+02
 0.12907364603E+02 0.12355628883E+02 0.11800565979E+02 0.11254862792E+02 0.10744069158E+02
 0.10314159512E+02 0.10022942062E+02 0.99194459702E+01 0.10022945760E+02 0.10314166464E+02
 0.10744078590E+02 0.11254872255E+02 0.10262760340E+02 0.10919737550E+02 0.11610758931E+02
 0.12296099220E+02 0.12912532624E+02 0.13381904909E+02 0.13633911792E+02 0.13600482797E+02
 0.13297473340E+02 0.12888800941E+02 0.12603160327E+02 0.12603157977E+02 0.12888797227E+02
 0.13297474204E+02 0.13600490425E+02 0.13633923306E+02 0.13381913933E+02 0.12912530447E+02
 0.12296080979E+02 0.11610735484E+02 0.10919735682E+02 0.10262797046E+02 0.96619656335E+01
 0.91339099191E+01 0.86996967476E+01 0.83865357431E+01 0.82214588130E+01 0.82214989563E+01
 0.83866182303E+01 0.86997478745E+01 0.91338943816E+01 0.96619130332E+01 0.89855085723E+01
 0.97500210569E+01 0.10566740052E+02 0.11383018086E+02 0.12126880425E+02 0.12721361344E+02
 0.13098911602E+02 0.13199985652E+02 0.13077002465E+02 0.12888805615E+02 0.12802531377E+02
 0.12888797227E+02 0.13076995860E+02 0.13199987550E+02 0.13098918676E+02 0.12721367958E+02
 0.12126885464E+02 0.11383021620E+02 0.10566740102E+02 0.97500179868E+01 0.89855079613E+01
 0.83048323997E+01 0.77250822809E+01 0.72572047230E+01 0.69114593732E+01 0.66983415407E+01
 0.66262269415E+01 0.66983458017E+01 0.69114616092E+01 0.72571997886E+01 0.77250728075E+01
 0.83048261799E+01 0.79956708055E+01 0.88638555203E+01 0.97970897366E+01 0.10738495322E+02
 0.11616562094E+02 0.12360305520E+02 0.12903832367E+02 0.13199992982E+02 0.13297483773E+02
 0.13303953283E+02 0.13303948049E+02 0.13297474204E+02 0.13199987550E+02 0.12903829701E+02
 0.12360301521E+02 0.11616563221E+02 0.10738512452E+02 0.97971183812E+01 0.88638718251E+01
 0.79956529566E+01 0.72290948839E+01 0.65829679496E+01 0.60644400821E+01 0.56752250490E+01
 0.54155080043E+01 0.52854912992E+01 0.52854583067E+01 0.54154358644E+01 0.56751695473E+01
 0.60644375488E+01 0.65830096958E+01 0.72291418909E+01 0.72949644660E+01 0.82685070211E+01
 0.93233631618E+01 0.10403249628E+02 0.11438946748E+02 0.12360307673E+02 0.13098926449E+02
 0.13600498656E+02 0.13873870324E+02 0.13958243765E+02 0.13873864492E+02 0.13600490425E+02
 0.13098918676E+02 0.12360301521E+02 0.11438943475E+02 0.10403249748E+02 0.93233648252E+01
 0.82685085490E+01 0.72949665984E+01 0.64399571719E+01 0.57219777803E+01 0.51455053103E+01
 0.47070148462E+01 0.44000635741E+01 0.42185836800E+01 0.41585473261E+01 0.42185768243E+01
 0.44000602865E+01 0.47070201971E+01 0.51455126425E+01 0.57219798334E+01 0.64399550201E+01
 0.68777699717E+01 0.79691522904E+01 0.91631703762E+01 0.10403261734E+02 0.11616562964E+02
 0.12721367484E+02 0.13633927876E+02 0.14274522355E+02 0.14600930952E+02 0.14600927953E+02
 0.14274515822E+02 0.13633923306E+02 0.12721367958E+02 0.11616563221E+02 0.10403249748E+02
 0.91631413352E+01 0.79691229027E+01 0.68777701211E+01 0.59254584246E+01 0.51288654198E+01
 0.44891772030E+01 0.39981056984E+01 0.36436659780E+01 0.34144338792E+01 0.33019997894E+01
 0.33020162665E+01 0.34144788567E+01 0.36437195438E+01 0.39981328508E+01 0.44891553683E+01
 0.51288119893E+01 0.59254176878E+01 0.67392691078E+01 0.79691290488E+01 0.93233694906E+01
 0.10738513742E+02 0.12126883331E+02 0.13381912193E+02 0.14389227271E+02 0.15043398549E+02
 0.15269941036E+02 0.15043395043E+02 0.14389225226E+02 0.13381913933E+02 0.12126885464E+02
 0.10738512452E+02 0.93233648252E+01 0.79691229027E+01 0.67392629477E+01 0.56721087236E+01
 0.47832557471E+01 0.40706370839E+01 0.35211231144E+01 0.31171106372E+01 0.28416966966E+01
 0.26817849865E+01 0.26293706386E+01 0.26817897448E+01 0.28417013321E+01 0.31171098875E+01
 0.35211167575E+01 0.40706304754E+01 0.47832541929E+01 0.56721125507E+01 0.68777559943E+01
 0.82684735986E+01 0.97970935547E+01 0.11383016469E+02 0.12912535160E+02 0.14247099783E+02
 0.15242144165E+02 0.15775130372E+02 0.15775130550E+02 0.15242143399E+02 0.14247095870E+02
 0.12912530447E+02 0.11383021620E+02 0.97971183812E+01 0.82685085490E+01 0.68777701211E+01
 0.56721087236E+01 0.46698587231E+01 0.38674981739E+01 0.32477246013E+01 0.27873042335E+01
 0.24634247733E+01 0.22577015993E+01 0.21578491988E+01 0.21578472067E+01 0.22576857676E+01
 0.24633854889E+01 0.27872610284E+01 0.32477160651E+01 0.38675387186E+01 0.46699172386E+01
 0.56721388113E+01 0.72949564205E+01 0.88638614697E+01 0.10566735157E+02 0.12296082028E+02
 0.13906021775E+02 0.15228245738E+02 0.16101205442E+02 0.16406704170E+02 0.16101205511E+02
 0.15228244163E+02 0.13906018648E+02 0.12296080979E+02 0.10566740102E+02 0.88638718251E+01
 0.72949665984E+01 0.59254584246E+01 0.47832557471E+01 0.38674981739E+01 0.31587672763E+01
 0.26288946860E+01 0.22489814447E+01 0.19947061204E+01 0.18487664581E+01 0.18011891550E+01
 0.18487622588E+01 0.19947008476E+01 0.22489791632E+01 0.26288978012E+01 0.31587750347E+01
 0.38675066714E+01 0.47832596713E+01 0.59254544551E+01 0.79956757593E+01 0.97500498425E+01
 0.11610750804E+02 0.13437642812E+02 0.15053378726E+02 0.16269322193E+02 0.16924148697E+02
 0.16924148250E+02 0.16269324178E+02 0.15053385550E+02 0.13437645549E+02 0.11610735484E+02
 0.97500179868E+01 0.79956529566E+01 0.64399571719E+01 0.51288654198E+01 0.40706370839E+01
 0.32477246013E+01 0.26288946860E+01 0.21795516328E+01 0.18689619842E+01 0.16739917748E+01
 0.15799635276E+01 0.15799564556E+01 0.16739856026E+01 0.18689813510E+01 0.21795946724E+01
 0.26289267731E+01 0.32477124037E+01 0.40705851588E+01 0.51288137181E+01 0.64399422948E+01
 0.89855115214E+01 0.10919736961E+02 0.12907363290E+02 0.14774907659E+02 0.16319140805E+02
 0.17343223369E+02 0.17702397730E+02 0.17343222442E+02 0.16319140669E+02 0.14774909123E+02
 0.12907364603E+02 0.10919735682E+02 0.89855079613E+01 0.72290948839E+01 0.57219777803E+01
 0.44891772030E+01 0.35211231144E+01 0.27873042335E+01 0.22489814447E+01 0.18689619842E+01
 0.16174285173E+01 0.14740242421E+01 0.14274141246E+01 0.14740248213E+01 0.16174304235E+01
 0.18689646125E+01 0.22489819335E+01 0.27872998486E+01 0.35211146462E+01 0.44891691936E+01
 0.57219746722E+01 0.72290969778E+01 0.10262752267E+02 0.12355596576E+02 0.14425801862E+02
 0.16269339992E+02 0.17664582253E+02 0.18418785674E+02 0.18418784225E+02 0.17664574101E+02
 0.16269326762E+02 0.14425803168E+02 0.12355628883E+02 0.10262797046E+02 0.83048323997E+01
 0.65829679496E+01 0.51455053103E+01 0.39981056984E+01 0.31171106372E+01 0.24634247733E+01
 0.19947061204E+01 0.16739917748E+01 0.14740242421E+01 0.13779324035E+01 0.13779363688E+01
 0.14740314135E+01 0.16739887168E+01 0.19946806758E+01 0.24633861163E+01 0.31170927256E+01
 0.39981351438E+01 0.51455649557E+01 0.65830069957E+01 0.83048193766E+01 0.11800564139E+02
 0.14009868939E+02 0.16101212570E+02 0.17844498309E+02 0.19008428532E+02 0.19418219381E+02
 0.19008426721E+02 0.17844493261E+02 0.16101205511E+02 0.14009864686E+02 0.11800565979E+02
 0.96619656335E+01 0.77250822809E+01 0.60644400821E+01 0.47070148462E+01 0.36436659780E+01
 0.28416966966E+01 0.22577015993E+01 0.18487664581E+01 0.15799635276E+01 0.14274141246E+01
 0.13779363688E+01 0.14274134047E+01 0.15799622883E+01 0.18487649884E+01 0.22577008847E+01
 0.28416988051E+01 0.36436722387E+01 0.47070230075E+01 0.60644448858E+01 0.77250806152E+01
 0.96619606176E+01 0.13521129475E+02 0.15775142566E+02 0.17801180979E+02 0.19347364129E+02
 0.20185969310E+02 0.20185969380E+02 0.19347369019E+02 0.17801187945E+02 0.15775127965E+02
 0.13521080348E+02 0.11254862792E+02 0.91339099191E+01 0.72572047230E+01 0.56752250490E+01
 0.44000635741E+01 0.34144338792E+01 0.26817849865E+01 0.21578491988E+01 0.18011891550E+01
 0.15799564556E+01 0.14740248213E+01 0.14740314135E+01 0.15799622883E+01 0.18011809927E+01
 0.21578479298E+01 0.26818168124E+01 0.34144776545E+01 0.44000643685E+01 0.56751678807E+01
 0.72571438180E+01 0.91339060010E+01 0.11254912279E+02 0.15269941848E+02 0.17427959099E+02
 0.19196881577E+02 0.20359247331E+02 0.20764773961E+02 0.20359255170E+02 0.19196892597E+02
 0.17427966712E+02 0.15269941036E+02 0.12973702132E+02 0.10744069158E+02 0.86996967476E+01
 0.69114593732E+01 0.54155080043E+01 0.42185836800E+01 0.33019997894E+01 0.26293706386E+01
 0.21578472067E+01 0.18487622588E+01 0.16739856026E+01 0.16174304235E+01 0.16739887168E+01
 0.18487649884E+01 0.21578479298E+01 0.26293706251E+01 0.33019987124E+01 0.42185791762E+01
 0.54155013232E+01 0.69114569728E+01 0.86997033065E+01 0.10744081358E+02 0.12973711593E+02
 0.16627161705E+02 0.18309228084E+02 0.19508228189E+02 0.20131798408E+02 0.20131810599E+02
 0.19508249423E+02 0.18309243041E+02 0.16627187252E+02 0.14600933536E+02 0.12423698070E+02
 0.10314159512E+02 0.83865357431E+01 0.66983415407E+01 0.52854912992E+01 0.41585473261E+01
 0.33020162665E+01 0.26817897448E+01 0.22576857676E+01 0.19947008476E+01 0.18689813510E+01
 0.18689646125E+01 0.19946806758E+01 0.22577008847E+01 0.26818168124E+01 0.33019987124E+01
 0.41584872746E+01 0.52854618244E+01 0.66983901651E+01 0.83866158963E+01 0.10314189732E+02
 0.12423662514E+02 0.14600884161E+02 0.16729215215E+02 0.17529230702E+02 0.17966248363E+02
 0.18103440901E+02 0.17966246474E+02 0.17529232025E+02 0.16729225300E+02 0.15507331657E+02
 0.13873870324E+02 0.11963277177E+02 0.10022942062E+02 0.82214588130E+01 0.66262269415E+01
 0.52854583067E+01 0.42185768243E+01 0.34144788567E+01 0.28417013321E+01 0.24633854889E+01
 0.22489791632E+01 0.21795946724E+01 0.22489819335E+01 0.24633861163E+01 0.28416988051E+01
 0.34144776545E+01 0.42185791762E+01 0.52854618244E+01 0.66262305695E+01 0.82214637734E+01
 0.10022945393E+02 0.11963271781E+02 0.13873854680E+02 0.15507314081E+02 0.14811336519E+02
 0.14516444767E+02 0.14276164647E+02 0.14276139166E+02 0.14516398064E+02 0.14811312080E+02
 0.14863617846E+02 0.14396723648E+02 0.13297481189E+02 0.11695751618E+02 0.99194459702E+01
 0.82214989563E+01 0.66983458017E+01 0.54154358644E+01 0.44000602865E+01 0.36437195438E+01
 0.31171098875E+01 0.27872610284E+01 0.26288978012E+01 0.26289267731E+01 0.27872998486E+01
 0.31170927256E+01 0.36436722387E+01 0.44000643685E+01 0.54155013232E+01 0.66983901651E+01
 0.82214637734E+01 0.99193739672E+01 0.11695718012E+02 0.13297494778E+02 0.14396740664E+02
 0.14863624423E+02 0.10650650090E+02 0.94010006543E+01 0.89210562612E+01 0.94009983591E+01
 0.10650638622E+02 0.12171177789E+02 0.13348844276E+02 0.13702078004E+02 0.13077002465E+02
 0.11695722048E+02 0.10022945760E+02 0.83866182303E+01 0.69114616092E+01 0.56751695473E+01
 0.47070201971E+01 0.39981328508E+01 0.35211167575E+01 0.32477160651E+01 0.31587750347E+01
 0.32477124037E+01 0.35211146462E+01 0.39981351438E+01 0.47070230075E+01 0.56751678807E+01
 0.69114569728E+01 0.83866158963E+01 0.10022945393E+02 0.11695718012E+02 0.13076995414E+02
 0.13702078310E+02 0.13348858283E+02 0.12171197012E+02 0.48384624260E+01 0.31775988712E+01
 0.31776340202E+01 0.48385231074E+01 0.75963668133E+01 0.10541084656E+02 0.12765749236E+02
 0.13702088542E+02 0.13297475924E+02 0.11963218808E+02 0.10314166464E+02 0.86997478745E+01
 0.72571997886E+01 0.60644375488E+01 0.51455126425E+01 0.44891553683E+01 0.40706304754E+01
 0.38675387186E+01 0.38675066714E+01 0.40705851588E+01 0.44891691936E+01 0.51455649557E+01
 0.60644448858E+01 0.72571438180E+01 0.86997033065E+01 0.10314189732E+02 0.11963271781E+02
 0.13297494778E+02 0.13702078310E+02 0.12765756059E+02 0.10541104237E+02 0.75963481793E+01
 -.12568075176E+01 -.25016629539E+01 -.12568320354E+01 0.20728289675E+01 0.64346611608E+01
 0.10541112894E+02 0.13348862178E+02 0.14396740609E+02 0.13873859334E+02 0.12423668866E+02
 0.10744078590E+02 0.91338943816E+01 0.77250728075E+01 0.65830096958E+01 0.57219798334E+01
 0.51288119893E+01 0.47832541929E+01 0.46699172386E+01 0.47832596713E+01 0.51288137181E+01
 0.57219746722E+01 0.65830069957E+01 0.77250806152E+01 0.91339060010E+01 0.10744081358E+02
 0.12423662514E+02 0.13873854680E+02 0.14396740664E+02 0.13348858283E+02 0.10541104237E+02
 0.64346633957E+01 0.20728513480E+01 -.58984857670E+01 -.58985535520E+01 -.29263040404E+01
 0.20727841207E+01 0.75963673817E+01 0.12171233260E+02 0.14863637674E+02 0.15507332932E+02
 0.14600922938E+02 0.12973725951E+02 0.11254872255E+02 0.96619130332E+01 0.83048261799E+01
 0.72291418909E+01 0.64399550201E+01 0.59254176878E+01 0.56721125507E+01 0.56721388113E+01
 0.59254544551E+01 0.64399422948E+01 0.72290969778E+01 0.83048193766E+01 0.96619606176E+01
 0.11254912279E+02 0.12973711593E+02 0.14600884161E+02 0.15507314081E+02 0.14863624423E+02
 0.12171197012E+02 0.75963481793E+01 0.20728513480E+01 -.29261745731E+01 -.58984903121E+01
 -.25015442193E+01 0.31776555561E+01 0.94009664075E+01 0.14516391141E+02 0.17529218632E+02
 0.18309240063E+02 0.17427955795E+02 0.15775134368E+02 0.14009887854E+02 0.12355628313E+02
 0.10919737575E+02 0.97500218726E+01 0.88638561127E+01 0.82685074055E+01 0.79691531625E+01
 0.79691300821E+01 0.82684738697E+01 0.88638612043E+01 0.97500499777E+01 0.10919737344E+02
 0.12355596346E+02 0.14009868311E+02 0.15775142477E+02 0.17427959468E+02 0.18309228172E+02
 0.17529230817E+02 0.14516445818E+02 0.94010023823E+01 0.31776002624E+01 -.25016618785E+01
 -.58985521050E+01 -.25015442193E+01 0.21993619542E+01 0.83019126109E+01 0.14019884508E+02
 0.18005553421E+02 0.19740137113E+02 0.19518051781E+02 0.18132270653E+02 0.16406716640E+02
 0.14701898724E+02 0.13154922321E+02 0.11832583500E+02 0.10766607151E+02 0.99797971739E+01
 0.94949993007E+01 0.93309641432E+01 0.94950043689E+01 0.99797972809E+01 0.10766598411E+02
 0.11832575487E+02 0.13154922294E+02 0.14701895215E+02 0.16406694014E+02 0.18132242409E+02
 0.19518060616E+02 0.19740204379E+02 0.18005635257E+02 0.14019898569E+02 0.83018168006E+01
 0.21992023193E+01 -.25016647530E+01 -.42697036376E+01 0.31776555561E+01 0.83019126109E+01
 0.13814417399E+02 0.18207185333E+02 0.20635777473E+02 0.21072802261E+02 0.20108937030E+02
 0.18560072996E+02 0.16924160441E+02 0.15369130278E+02 0.13975141605E+02 0.12782015266E+02
 0.11824540474E+02 0.11146548431E+02 0.10793112556E+02 0.10793128760E+02 0.11146575036E+02
 0.11824544194E+02 0.12781998936E+02 0.13975133846E+02 0.15369137164E+02 0.16924158367E+02
 0.18560054025E+02 0.20108930829E+02 0.21072833121E+02 0.20635819180E+02 0.18207185715E+02
 0.13814361421E+02 0.83018369935E+01 0.31776026508E+01 0.80955120421E-01 0.80972220325E-01
 0.94009664075E+01 0.14019884508E+02 0.18207185333E+02 0.20940684232E+02 0.21903284531E+02
 0.21428938275E+02 0.20203230764E+02 0.18775721934E+02 0.17343230481E+02 0.15992484183E+02
 0.14762689734E+02 0.13691102634E+02 0.12838119008E+02 0.12281203102E+02 0.12086844686E+02
 0.12281234127E+02 0.12838151381E+02 0.13691112563E+02 0.14762680003E+02 0.15992469052E+02
 0.17343218550E+02 0.18775720210E+02 0.20203246415E+02 0.21428961615E+02 0.21903284646E+02
 0.20940643277E+02 0.18207132940E+02 0.14019874993E+02 0.94010141011E+01 0.57780853266E+01
 0.44041227484E+01 0.57780309916E+01 0.14516391141E+02 0.18005553421E+02 0.20635777473E+02
 0.21903284531E+02 0.21893182069E+02 0.21096597602E+02 0.20010934890E+02 0.18838502787E+02
 0.17664582789E+02 0.16518885141E+02 0.15427750226E+02 0.14454568072E+02 0.13704019847E+02
 0.13289573981E+02 0.13289596946E+02 0.13704067632E+02 0.14454601605E+02 0.15427751934E+02
 0.16518865613E+02 0.17664560061E+02 0.18838489425E+02 0.20010938134E+02 0.21096615492E+02
 0.21893199519E+02 0.21903285403E+02 0.20635762534E+02 0.18005538982E+02 0.14516389573E+02
 0.11178211964E+02 0.91312513559E+01 0.91312467010E+01 0.11178204286E+02 0.17529218632E+02
 0.19740137113E+02 0.21072802261E+02 0.21428938275E+02 0.21096597602E+02 0.20445578752E+02
 0.19647161133E+02 0.18775723305E+02 0.17844503264E+02 0.16856145458E+02 0.15854764303E+02
 0.14940004903E+02 0.14278080847E+02 0.14034505837E+02 0.14278129934E+02 0.14940060472E+02
 0.15854787341E+02 0.16856133431E+02 0.17844477730E+02 0.18775702282E+02 0.19647150429E+02
 0.20445578527E+02 0.21096607849E+02 0.21428959018E+02 0.21072827881E+02 0.19740149058E+02
 0.17529194327E+02 0.14990884141E+02 0.12956962663E+02 0.12178313142E+02 0.12957013920E+02
 0.14990942227E+02 0.18309240063E+02 0.19518051781E+02 0.20108937030E+02 0.20203230764E+02
 0.20010934890E+02 0.19647161133E+02 0.19165886328E+02 0.18560071143E+02 0.17801188952E+02
 0.16884267313E+02 0.15870439539E+02 0.14959741785E+02 0.14413309938E+02 0.14413341927E+02
 0.14959808380E+02 0.15870486951E+02 0.16884272794E+02 0.17801168570E+02 0.18560047272E+02
 0.19165868492E+02 0.19647152250E+02 0.20010935407E+02 0.20203234572E+02 0.20108935827E+02
 0.19518045143E+02 0.18309233949E+02 0.16667934957E+02 0.15067418840E+02 0.14074984997E+02
 0.14074985486E+02 0.15067420003E+02 0.16667937741E+02 0.17427955795E+02 0.18132270653E+02
 0.18560072996E+02 0.18775721934E+02 0.18838502787E+02 0.18775723305E+02 0.18560071143E+02
 0.18132265878E+02 0.17427953211E+02 0.16437790949E+02 0.15345468580E+02 0.14478116627E+02
 0.14146583383E+02 0.14478152924E+02 0.15345511239E+02 0.16437813060E+02 0.17427951998E+02
 0.18132252394E+02 0.18560054647E+02 0.18775709404E+02 0.18838493507E+02 0.18775711623E+02
 0.18560054284E+02 0.18132249450E+02 0.17427951333E+02 0.16437814860E+02 0.15345510969E+02
 0.14478150798E+02 0.14146584295E+02 0.14478120578E+02 0.15345470689E+02 0.16437791033E+02
 0.15775134368E+02 0.16406716640E+02 0.16924160441E+02 0.17343230481E+02 0.17664582789E+02
 0.17844503264E+02 0.17801188952E+02 0.17427953211E+02 0.16627172932E+02 0.15507334295E+02
 0.14396739575E+02 0.13702085982E+02 0.13702078820E+02 0.14396726824E+02 0.15507332042E+02
 0.16627185540E+02 0.17427967745E+02 0.17801190800E+02 0.17844492995E+02 0.17664571652E+02
 0.17343222825E+02 0.16924150605E+02 0.16406703541E+02 0.15775127699E+02 0.15043398917E+02
 0.14274525028E+02 0.13600498771E+02 0.13199991449E+02 0.13199987380E+02 0.13600486773E+02
 0.14274510000E+02 0.15043391853E+02 0.14009887854E+02 0.14701898724E+02 0.15369130278E+02
 0.15992484183E+02 0.16518885141E+02 0.16856145458E+02 0.16884267313E+02 0.16437790949E+02
 0.15507334295E+02 0.14344967269E+02 0.13376511584E+02 0.12999707494E+02 0.13376458431E+02
 0.14344908548E+02 0.15507317289E+02 0.16437818255E+02 0.16884302041E+02 0.16856155963E+02
 0.16518876109E+02 0.15992480967E+02 0.15369141339E+02 0.14701905154E+02 0.14009871109E+02
 0.13305373012E+02 0.12623354114E+02 0.12033606641E+02 0.11626814624E+02 0.11480817552E+02
 0.11626798490E+02 0.12033598588E+02 0.12623371590E+02 0.13305403828E+02 0.12355628313E+02
 0.13154922321E+02 0.13975141605E+02 0.14762689734E+02 0.15427750226E+02 0.15854764303E+02
 0.15870439539E+02 0.15345468580E+02 0.14396739575E+02 0.13376511584E+02 0.12718349919E+02
 0.12718302356E+02 0.13376414275E+02 0.14396678288E+02 0.15345480626E+02 0.15870489835E+02
 0.15854799642E+02 0.15427754204E+02 0.14762681093E+02 0.13975139088E+02 0.13154926296E+02
 0.12355629979E+02 0.11604910100E+02 0.10925156321E+02 0.10349632682E+02 0.99245548785E+01
 0.96970285048E+01 0.96970324755E+01 0.99245651013E+01 0.10349645311E+02 0.10925167191E+02
 0.11604915431E+02 0.10919737575E+02 0.11832583500E+02 0.12782015266E+02 0.13691102634E+02
 0.14454568072E+02 0.14940004903E+02 0.14959741785E+02 0.14478116627E+02 0.13702085982E+02
 0.12999707494E+02 0.12718302356E+02 0.12999610218E+02 0.13701984626E+02 0.14478091604E+02
 0.14959785633E+02 0.14940057656E+02 0.14454591601E+02 0.13691098643E+02 0.12781997276E+02
 0.11832565099E+02 0.10919739004E+02 0.10089084022E+02 0.93656340597E+01 0.87679025548E+01
 0.83163515434E+01 0.80332603248E+01 0.79366095692E+01 0.80333108162E+01 0.83163972978E+01
 0.87678985347E+01 0.93655928391E+01 0.10089050920E+02 0.97500218726E+01 0.10766607151E+02
 0.11824540474E+02 0.12838119008E+02 0.13704019847E+02 0.14278080847E+02 0.14413309938E+02
 0.14146583383E+02 0.13702078820E+02 0.13376458431E+02 0.13376414275E+02 0.13701984626E+02
 0.14146514118E+02 0.14413305668E+02 0.14278122366E+02 0.13704063587E+02 0.12838139394E+02
 0.11824540343E+02 0.10766602498E+02 0.97500236660E+01 0.88319820579E+01 0.80436654451E+01
 0.73998526368E+01 0.69084429135E+01 0.65758107045E+01 0.64076914058E+01 0.64076880515E+01
 0.65758051642E+01 0.69084411289E+01 0.73998523794E+01 0.80436611209E+01 0.88319752858E+01
 0.88638561127E+01 0.99797971739E+01 0.11146548431E+02 0.12281203102E+02 0.13289573981E+02
 0.14034505837E+02 0.14413341927E+02 0.14478152924E+02 0.14396726824E+02 0.14344908548E+02
 0.14396678288E+02 0.14478091604E+02 0.14413305668E+02 0.14034505399E+02 0.13289595414E+02
 0.12281229752E+02 0.11146574716E+02 0.99798226731E+01 0.88638716801E+01 0.78587791759E+01
 0.69988926440E+01 0.62981340647E+01 0.57583394462E+01 0.53764663864E+01 0.51489138139E+01
 0.50732994095E+01 0.51488554937E+01 0.53764093127E+01 0.57583352707E+01 0.62981759109E+01
 0.69989352044E+01 0.78587911128E+01 0.82685074055E+01 0.94949993007E+01 0.10793112556E+02
 0.12086844686E+02 0.13289596946E+02 0.14278129934E+02 0.14959808380E+02 0.15345511239E+02
 0.15507332042E+02 0.15507317289E+02 0.15345480626E+02 0.14959785633E+02 0.14278122366E+02
 0.13289595414E+02 0.12086843004E+02 0.10793114209E+02 0.94950063716E+01 0.82685144009E+01
 0.71704143320E+01 0.62338338449E+01 0.54706919229E+01 0.48784040637E+01 0.44474115069E+01
 0.41670638326E+01 0.40290802639E+01 0.40290815774E+01 0.41670665237E+01 0.44474134795E+01
 0.48784052587E+01 0.54706940065E+01 0.62338361316E+01 0.71704127258E+01 0.79691531625E+01
 0.93309641432E+01 0.10793128760E+02 0.12281234127E+02 0.13704067632E+02 0.14940060472E+02
 0.15870486951E+02 0.16437813060E+02 0.16627185540E+02 0.16437818255E+02 0.15870489835E+02
 0.14940057656E+02 0.13704063587E+02 0.12281229752E+02 0.10793114209E+02 0.93309330902E+01
 0.79691217980E+01 0.67607847936E+01 0.57355945257E+01 0.49018488411E+01 0.42522331893E+01
 0.37712432459E+01 0.34418822778E+01 0.32501581672E+01 0.31872560827E+01 0.32501981704E+01
 0.34419347465E+01 0.37712690485E+01 0.42522110421E+01 0.49017965225E+01 0.57355550691E+01
 0.67607860648E+01 0.79691300821E+01 0.94950043689E+01 0.11146575036E+02 0.12838151381E+02
 0.14454601605E+02 0.15854787341E+02 0.16884272794E+02 0.17427951998E+02 0.17427967745E+02
 0.16884302041E+02 0.15854799642E+02 0.14454591601E+02 0.12838139394E+02 0.11146574716E+02
 0.94950063716E+01 0.79691217980E+01 0.66248216606E+01 0.54904008590E+01 0.45707334465E+01
 0.38536277305E+01 0.33175781529E+01 0.29391568320E+01 0.26983736670E+01 0.25814185566E+01
 0.25814167790E+01 0.26983723054E+01 0.29391595472E+01 0.33175792373E+01 0.38536210148E+01
 0.45707255601E+01 0.54904040823E+01 0.66248346945E+01 0.82684738697E+01 0.99797972809E+01
 0.11824544194E+02 0.13691112563E+02 0.15427751934E+02 0.16856133431E+02 0.17801168570E+02
 0.18132252394E+02 0.17801190800E+02 0.16856155963E+02 0.15427754204E+02 0.13691098643E+02
 0.11824540343E+02 0.99798226731E+01 0.82685144009E+01 0.67607847936E+01 0.54904008590E+01
 0.44621360156E+01 0.36603038550E+01 0.30578343494E+01 0.26247679100E+01 0.23346856471E+01
 0.21682090025E+01 0.21139469627E+01 0.21681910951E+01 0.23346511522E+01 0.26247337264E+01
 0.30578301239E+01 0.36603424138E+01 0.44621918420E+01 0.54904298105E+01 0.67607674669E+01
 0.88638612043E+01 0.10766598411E+02 0.12781998936E+02 0.14762680003E+02 0.16518865613E+02
 0.17844477730E+02 0.18560047272E+02 0.18560054647E+02 0.17844492995E+02 0.16518876109E+02
 0.14762681093E+02 0.12781997276E+02 0.10766602498E+02 0.88638716801E+01 0.71704143320E+01
 0.57355945257E+01 0.45707334465E+01 0.36603038550E+01 0.29733459686E+01 0.24738221778E+01
 0.21285866398E+01 0.19120579672E+01 0.18077284029E+01 0.18077274818E+01 0.19120556376E+01
 0.21285847668E+01 0.24738239658E+01 0.29733532661E+01 0.36603140741E+01 0.45707402009E+01