   2   2   1   0
  0.2002172E+02  0.3840156E-09  0.3840156E-09  0.3840156E-09  0.5000000E-15
  1.000000000000000E-004
  CAR 
 unknown system                          
     12.00000000    -12.00000000 2401      6.15485579      1.00000000
    -12.000  0.0000E+00  0.0000E+00
    -11.990  0.0000E+00  0.0000E+00
    -11.980  0.0000E+00  0.0000E+00
    -11.970  0.0000E+00  0.0000E+00
    -11.960  0.0000E+00  0.0000E+00
    -11.950  0.0000E+00  0.0000E+00
    -11.940  0.0000E+00  0.0000E+00
    -11.930  0.0000E+00  0.0000E+00
    -11.920  0.0000E+00  0.0000E+00
    -11.910  0.0000E+00  0.0000E+00
    -11.900  0.0000E+00  0.0000E+00
    -11.890  0.0000E+00  0.0000E+00
    -11.880  0.0000E+00  0.0000E+00
    -11.870  0.0000E+00  0.0000E+00
    -11.860  0.0000E+00  0.0000E+00
    -11.850  0.0000E+00  0.0000E+00
    -11.840  0.0000E+00  0.0000E+00
    -11.830  0.0000E+00  0.0000E+00
    -11.820  0.0000E+00  0.0000E+00
    -11.810  0.0000E+00  0.0000E+00
    -11.800  0.0000E+00  0.0000E+00
    -11.790  0.0000E+00  0.0000E+00
    -11.780  0.0000E+00  0.0000E+00
    -11.770  0.0000E+00  0.0000E+00
    -11.760  0.0000E+00  0.0000E+00
    -11.750  0.0000E+00  0.0000E+00
    -11.740  0.0000E+00  0.0000E+00
    -11.730  0.0000E+00  0.0000E+00
    -11.720  0.0000E+00  0.0000E+00
    -11.710  0.0000E+00  0.0000E+00
    -11.700  0.0000E+00  0.0000E+00
    -11.690  0.0000E+00  0.0000E+00
    -11.680  0.0000E+00  0.0000E+00
    -11.670  0.0000E+00  0.0000E+00
    -11.660  0.0000E+00  0.0000E+00
    -11.650  0.0000E+00  0.0000E+00
    -11.640  0.0000E+00  0.0000E+00
    -11.630  0.0000E+00  0.0000E+00
    -11.620  0.0000E+00  0.0000E+00
    -11.610  0.0000E+00  0.0000E+00
    -11.600  0.0000E+00  0.0000E+00
    -11.590  0.0000E+00  0.0000E+00
    -11.580  0.0000E+00  0.0000E+00
    -11.570  0.0000E+00  0.0000E+00
    -11.560  0.0000E+00  0.0000E+00
    -11.550  0.0000E+00  0.0000E+00
    -11.540  0.0000E+00  0.0000E+00
    -11.530  0.0000E+00  0.0000E+00
    -11.520  0.0000E+00  0.0000E+00
    -11.510  0.0000E+00  0.0000E+00
    -11.500  0.0000E+00  0.0000E+00
    -11.490  0.0000E+00  0.0000E+00
    -11.480  0.0000E+00  0.0000E+00
    -11.470  0.0000E+00  0.0000E+00
    -11.460  0.0000E+00  0.0000E+00
    -11.450  0.0000E+00  0.0000E+00
    -11.440  0.0000E+00  0.0000E+00
    -11.430  0.0000E+00  0.0000E+00
    -11.420  0.0000E+00  0.0000E+00
    -11.410  0.0000E+00  0.0000E+00
    -11.400  0.0000E+00  0.0000E+00
    -11.390  0.0000E+00  0.0000E+00
    -11.380  0.0000E+00  0.0000E+00
    -11.370  0.0000E+00  0.0000E+00
    -11.360  0.0000E+00  0.0000E+00
    -11.350  0.0000E+00  0.0000E+00
    -11.340  0.0000E+00  0.0000E+00
    -11.330  0.0000E+00  0.0000E+00
    -11.320  0.0000E+00  0.0000E+00
    -11.310  0.0000E+00  0.0000E+00
    -11.300  0.0000E+00  0.0000E+00
    -11.290  0.0000E+00  0.0000E+00
    -11.280  0.0000E+00  0.0000E+00
    -11.270  0.0000E+00  0.0000E+00
    -11.260  0.0000E+00  0.0000E+00
    -11.250  0.0000E+00  0.0000E+00
    -11.240  0.0000E+00  0.0000E+00
    -11.230  0.0000E+00  0.0000E+00
    -11.220  0.0000E+00  0.0000E+00
    -11.210  0.0000E+00  0.0000E+00
    -11.200  0.0000E+00  0.0000E+00
    -11.190  0.0000E+00  0.0000E+00
    -11.180  0.0000E+00  0.0000E+00
    -11.170  0.0000E+00  0.0000E+00
    -11.160  0.0000E+00  0.0000E+00
    -11.150  0.0000E+00  0.0000E+00
    -11.140  0.0000E+00  0.0000E+00
    -11.130  0.0000E+00  0.0000E+00
    -11.120  0.0000E+00  0.0000E+00
    -11.110  0.0000E+00  0.0000E+00
    -11.100  0.0000E+00  0.0000E+00
    -11.090  0.0000E+00  0.0000E+00
    -11.080  0.0000E+00  0.0000E+00
    -11.070  0.0000E+00  0.0000E+00
    -11.060  0.0000E+00  0.0000E+00
    -11.050  0.0000E+00  0.0000E+00
    -11.040  0.0000E+00  0.0000E+00
    -11.030  0.0000E+00  0.0000E+00
    -11.020  0.0000E+00  0.0000E+00
    -11.010  0.0000E+00  0.0000E+00
    -11.000  0.0000E+00  0.0000E+00
    -10.990  0.0000E+00  0.0000E+00
    -10.980  0.0000E+00  0.0000E+00
    -10.970  0.0000E+00  0.0000E+00
    -10.960  0.0000E+00  0.0000E+00
    -10.950  0.0000E+00  0.0000E+00
    -10.940  0.0000E+00  0.0000E+00
    -10.930  0.0000E+00  0.0000E+00
    -10.920  0.0000E+00  0.0000E+00
    -10.910  0.0000E+00  0.0000E+00
    -10.900  0.0000E+00  0.0000E+00
    -10.890  0.0000E+00  0.0000E+00
    -10.880  0.0000E+00  0.0000E+00
    -10.870  0.0000E+00  0.0000E+00
    -10.860  0.0000E+00  0.0000E+00
    -10.850  0.0000E+00  0.0000E+00
    -10.840  0.0000E+00  0.0000E+00
    -10.830  0.0000E+00  0.0000E+00
    -10.820  0.0000E+00  0.0000E+00
    -10.810  0.0000E+00  0.0000E+00
    -10.800  0.0000E+00  0.0000E+00
    -10.790  0.0000E+00  0.0000E+00
    -10.780  0.0000E+00  0.0000E+00
    -10.770  0.0000E+00  0.0000E+00
    -10.760  0.0000E+00  0.0000E+00
    -10.750  0.0000E+00  0.0000E+00
    -10.740  0.0000E+00  0.0000E+00
    -10.730  0.0000E+00  0.0000E+00
    -10.720  0.0000E+00  0.0000E+00
    -10.710  0.0000E+00  0.0000E+00
    -10.700  0.0000E+00  0.0000E+00
    -10.690  0.0000E+00  0.0000E+00
    -10.680  0.0000E+00  0.0000E+00
    -10.670  0.0000E+00  0.0000E+00
    -10.660  0.0000E+00  0.0000E+00
    -10.650  0.0000E+00  0.0000E+00
    -10.640  0.0000E+00  0.0000E+00
    -10.630  0.0000E+00  0.0000E+00
    -10.620  0.0000E+00  0.0000E+00
    -10.610  0.0000E+00  0.0000E+00
    -10.600  0.0000E+00  0.0000E+00
    -10.590  0.0000E+00  0.0000E+00
    -10.580  0.0000E+00  0.0000E+00
    -10.570  0.0000E+00  0.0000E+00
    -10.560  0.0000E+00  0.0000E+00
    -10.550  0.0000E+00  0.0000E+00
    -10.540  0.0000E+00  0.0000E+00
    -10.530  0.0000E+00  0.0000E+00
    -10.520  0.0000E+00  0.0000E+00
    -10.510  0.0000E+00  0.0000E+00
    -10.500  0.0000E+00  0.0000E+00
    -10.490  0.0000E+00  0.0000E+00
    -10.480  0.0000E+00  0.0000E+00
    -10.470  0.0000E+00  0.0000E+00
    -10.460  0.0000E+00  0.0000E+00
    -10.450  0.0000E+00  0.0000E+00
    -10.440  0.0000E+00  0.0000E+00
    -10.430  0.0000E+00  0.0000E+00
    -10.420  0.0000E+00  0.0000E+00
    -10.410  0.0000E+00  0.0000E+00
    -10.400  0.0000E+00  0.0000E+00
    -10.390  0.0000E+00  0.0000E+00
    -10.380  0.0000E+00  0.0000E+00
    -10.370  0.0000E+00  0.0000E+00
    -10.360  0.0000E+00  0.0000E+00
    -10.350  0.0000E+00  0.0000E+00
    -10.340  0.0000E+00  0.0000E+00
    -10.330  0.0000E+00  0.0000E+00
    -10.320  0.0000E+00  0.0000E+00
    -10.310  0.0000E+00  0.0000E+00
    -10.300  0.0000E+00  0.0000E+00
    -10.290  0.0000E+00  0.0000E+00
    -10.280  0.0000E+00  0.0000E+00
    -10.270  0.0000E+00  0.0000E+00
    -10.260  0.0000E+00  0.0000E+00
    -10.250  0.0000E+00  0.0000E+00
    -10.240  0.0000E+00  0.0000E+00
    -10.230  0.0000E+00  0.0000E+00
    -10.220  0.0000E+00  0.0000E+00
    -10.210  0.0000E+00  0.0000E+00
    -10.200  0.0000E+00  0.0000E+00
    -10.190  0.0000E+00  0.0000E+00
    -10.180  0.0000E+00  0.0000E+00
    -10.170  0.0000E+00  0.0000E+00
    -10.160  0.0000E+00  0.0000E+00
    -10.150  0.0000E+00  0.0000E+00
    -10.140  0.0000E+00  0.0000E+00
    -10.130  0.0000E+00  0.0000E+00
    -10.120  0.0000E+00  0.0000E+00
    -10.110  0.0000E+00  0.0000E+00
    -10.100  0.0000E+00  0.0000E+00
    -10.090  0.0000E+00  0.0000E+00
    -10.080  0.0000E+00  0.0000E+00
    -10.070  0.0000E+00  0.0000E+00
    -10.060  0.0000E+00  0.0000E+00
    -10.050  0.0000E+00  0.0000E+00
    -10.040  0.0000E+00  0.0000E+00
    -10.030  0.0000E+00  0.0000E+00
    -10.020  0.0000E+00  0.0000E+00
    -10.010  0.0000E+00  0.0000E+00
    -10.000  0.0000E+00  0.0000E+00
     -9.990  0.0000E+00  0.0000E+00
     -9.980  0.0000E+00  0.0000E+00
     -9.970  0.0000E+00  0.0000E+00
     -9.960  0.0000E+00  0.0000E+00
     -9.950  0.0000E+00  0.0000E+00
     -9.940  0.0000E+00  0.0000E+00
     -9.930  0.0000E+00  0.0000E+00
     -9.920  0.0000E+00  0.0000E+00
     -9.910  0.0000E+00  0.0000E+00
     -9.900  0.0000E+00  0.0000E+00
     -9.890  0.0000E+00  0.0000E+00
     -9.880  0.0000E+00  0.0000E+00
     -9.870  0.0000E+00  0.0000E+00
     -9.860  0.0000E+00  0.0000E+00
     -9.850  0.0000E+00  0.0000E+00
     -9.840  0.0000E+00  0.0000E+00
     -9.830  0.0000E+00  0.0000E+00
     -9.820  0.0000E+00  0.0000E+00
     -9.810  0.0000E+00  0.0000E+00
     -9.800  0.0000E+00  0.0000E+00
     -9.790  0.0000E+00  0.0000E+00
     -9.780  0.0000E+00  0.0000E+00
     -9.770  0.0000E+00  0.0000E+00
     -9.760  0.0000E+00  0.0000E+00
     -9.750  0.0000E+00  0.0000E+00
     -9.740  0.0000E+00  0.0000E+00
     -9.730  0.0000E+00  0.0000E+00
     -9.720  0.0000E+00  0.0000E+00
     -9.710  0.0000E+00  0.0000E+00
     -9.700  0.0000E+00  0.0000E+00
     -9.690  0.0000E+00  0.0000E+00
     -9.680  0.0000E+00  0.0000E+00
     -9.670  0.0000E+00  0.0000E+00
     -9.660  0.0000E+00  0.0000E+00
     -9.650  0.0000E+00  0.0000E+00
     -9.640  0.0000E+00  0.0000E+00
     -9.630  0.0000E+00  0.0000E+00
     -9.620  0.0000E+00  0.0000E+00
     -9.610  0.0000E+00  0.0000E+00
     -9.600  0.0000E+00  0.0000E+00
     -9.590  0.0000E+00  0.0000E+00
     -9.580  0.0000E+00  0.0000E+00
     -9.570  0.0000E+00  0.0000E+00
     -9.560  0.0000E+00  0.0000E+00
     -9.550  0.0000E+00  0.0000E+00
     -9.540  0.0000E+00  0.0000E+00
     -9.530  0.0000E+00  0.0000E+00
     -9.520  0.0000E+00  0.0000E+00
     -9.510  0.0000E+00  0.0000E+00
     -9.500  0.0000E+00  0.0000E+00
     -9.490  0.0000E+00  0.0000E+00
     -9.480  0.0000E+00  0.0000E+00
     -9.470  0.0000E+00  0.0000E+00
     -9.460  0.0000E+00  0.0000E+00
     -9.450  0.0000E+00  0.0000E+00
     -9.440  0.0000E+00  0.0000E+00
     -9.430  0.0000E+00  0.0000E+00
     -9.420  0.0000E+00  0.0000E+00
     -9.410  0.0000E+00  0.0000E+00
     -9.400  0.0000E+00  0.0000E+00
     -9.390  0.0000E+00  0.0000E+00
     -9.380  0.0000E+00  0.0000E+00
     -9.370  0.0000E+00  0.0000E+00
     -9.360  0.0000E+00  0.0000E+00
     -9.350  0.0000E+00  0.0000E+00
     -9.340  0.0000E+00  0.0000E+00
     -9.330  0.0000E+00  0.0000E+00
     -9.320  0.0000E+00  0.0000E+00
     -9.310  0.0000E+00  0.0000E+00
     -9.300  0.0000E+00  0.0000E+00
     -9.290  0.0000E+00  0.0000E+00
     -9.280  0.0000E+00  0.0000E+00
     -9.270  0.0000E+00  0.0000E+00
     -9.260  0.0000E+00  0.0000E+00
     -9.250  0.0000E+00  0.0000E+00
     -9.240  0.0000E+00  0.0000E+00
     -9.230  0.0000E+00  0.0000E+00
     -9.220  0.0000E+00  0.0000E+00
     -9.210  0.0000E+00  0.0000E+00
     -9.200  0.0000E+00  0.0000E+00
     -9.190  0.0000E+00  0.0000E+00
     -9.180  0.0000E+00  0.0000E+00
     -9.170  0.0000E+00  0.0000E+00
     -9.160  0.0000E+00  0.0000E+00
     -9.150  0.0000E+00  0.0000E+00
     -9.140  0.0000E+00  0.0000E+00
     -9.130  0.0000E+00  0.0000E+00
     -9.120  0.0000E+00  0.0000E+00
     -9.110  0.0000E+00  0.0000E+00
     -9.100  0.0000E+00  0.0000E+00
     -9.090  0.0000E+00  0.0000E+00
     -9.080  0.0000E+00  0.0000E+00
     -9.070  0.0000E+00  0.0000E+00
     -9.060  0.0000E+00  0.0000E+00
     -9.050  0.0000E+00  0.0000E+00
     -9.040  0.0000E+00  0.0000E+00
     -9.030  0.0000E+00  0.0000E+00
     -9.020  0.0000E+00  0.0000E+00
     -9.010  0.0000E+00  0.0000E+00
     -9.000  0.0000E+00  0.0000E+00
     -8.990  0.0000E+00  0.0000E+00
     -8.980  0.0000E+00  0.0000E+00
     -8.970  0.0000E+00  0.0000E+00
     -8.960  0.0000E+00  0.0000E+00
     -8.950  0.0000E+00  0.0000E+00
     -8.940  0.0000E+00  0.0000E+00
     -8.930  0.0000E+00  0.0000E+00
     -8.920  0.0000E+00  0.0000E+00
     -8.910  0.0000E+00  0.0000E+00
     -8.900  0.0000E+00  0.0000E+00
     -8.890  0.0000E+00  0.0000E+00
     -8.880  0.0000E+00  0.0000E+00
     -8.870  0.0000E+00  0.0000E+00
     -8.860  0.0000E+00  0.0000E+00
     -8.850  0.0000E+00  0.0000E+00
     -8.840  0.0000E+00  0.0000E+00
     -8.830  0.0000E+00  0.0000E+00
     -8.820  0.0000E+00  0.0000E+00
     -8.810  0.0000E+00  0.0000E+00
     -8.800  0.0000E+00  0.0000E+00
     -8.790  0.0000E+00  0.0000E+00
     -8.780  0.0000E+00  0.0000E+00
     -8.770  0.0000E+00  0.0000E+00
     -8.760  0.0000E+00  0.0000E+00
     -8.750  0.0000E+00  0.0000E+00
     -8.740  0.0000E+00  0.0000E+00
     -8.730  0.0000E+00  0.0000E+00
     -8.720  0.0000E+00  0.0000E+00
     -8.710  0.0000E+00  0.0000E+00
     -8.700  0.0000E+00  0.0000E+00
     -8.690  0.0000E+00  0.0000E+00
     -8.680  0.0000E+00  0.0000E+00
     -8.670  0.0000E+00  0.0000E+00
     -8.660  0.0000E+00  0.0000E+00
     -8.650  0.0000E+00  0.0000E+00
     -8.640  0.0000E+00  0.0000E+00
     -8.630  0.0000E+00  0.0000E+00
     -8.620  0.0000E+00  0.0000E+00
     -8.610  0.0000E+00  0.0000E+00
     -8.600  0.0000E+00  0.0000E+00
     -8.590  0.0000E+00  0.0000E+00
     -8.580  0.0000E+00  0.0000E+00
     -8.570  0.0000E+00  0.0000E+00
     -8.560  0.0000E+00  0.0000E+00
     -8.550  0.0000E+00  0.0000E+00
     -8.540  0.0000E+00  0.0000E+00
     -8.530  0.0000E+00  0.0000E+00
     -8.520  0.0000E+00  0.0000E+00
     -8.510  0.0000E+00  0.0000E+00
     -8.500  0.0000E+00  0.0000E+00
     -8.490  0.0000E+00  0.0000E+00
     -8.480  0.0000E+00  0.0000E+00
     -8.470  0.0000E+00  0.0000E+00
     -8.460  0.0000E+00  0.0000E+00
     -8.450  0.0000E+00  0.0000E+00
     -8.440  0.0000E+00  0.0000E+00
     -8.430  0.0000E+00  0.0000E+00
     -8.420  0.0000E+00  0.0000E+00
     -8.410  0.0000E+00  0.0000E+00
     -8.400  0.0000E+00  0.0000E+00
     -8.390  0.0000E+00  0.0000E+00
     -8.380  0.0000E+00  0.0000E+00
     -8.370  0.0000E+00  0.0000E+00
     -8.360  0.0000E+00  0.0000E+00
     -8.350  0.0000E+00  0.0000E+00
     -8.340  0.0000E+00  0.0000E+00
     -8.330  0.0000E+00  0.0000E+00
     -8.320  0.0000E+00  0.0000E+00
     -8.310  0.0000E+00  0.0000E+00
     -8.300  0.0000E+00  0.0000E+00
     -8.290  0.0000E+00  0.0000E+00
     -8.280  0.0000E+00  0.0000E+00
     -8.270  0.0000E+00  0.0000E+00
     -8.260  0.0000E+00  0.0000E+00
     -8.250  0.0000E+00  0.0000E+00
     -8.240  0.0000E+00  0.0000E+00
     -8.230  0.0000E+00  0.0000E+00
     -8.220  0.0000E+00  0.0000E+00
     -8.210  0.0000E+00  0.0000E+00
     -8.200  0.0000E+00  0.0000E+00
     -8.190  0.0000E+00  0.0000E+00
     -8.180  0.0000E+00  0.0000E+00
     -8.170  0.0000E+00  0.0000E+00
     -8.160  0.0000E+00  0.0000E+00
     -8.150  0.0000E+00  0.0000E+00
     -8.140  0.0000E+00  0.0000E+00
     -8.130  0.0000E+00  0.0000E+00
     -8.120  0.0000E+00  0.0000E+00
     -8.110  0.0000E+00  0.0000E+00
     -8.100  0.0000E+00  0.0000E+00
     -8.090  0.0000E+00  0.0000E+00
     -8.080  0.0000E+00  0.0000E+00
     -8.070  0.0000E+00  0.0000E+00
     -8.060  0.0000E+00  0.0000E+00
     -8.050  0.0000E+00  0.0000E+00
     -8.040  0.0000E+00  0.0000E+00
     -8.030  0.0000E+00  0.0000E+00
     -8.020  0.0000E+00  0.0000E+00
     -8.010  0.0000E+00  0.0000E+00
     -8.000  0.0000E+00  0.0000E+00
     -7.990  0.0000E+00  0.0000E+00
     -7.980  0.0000E+00  0.0000E+00
     -7.970  0.0000E+00  0.0000E+00
     -7.960  0.0000E+00  0.0000E+00
     -7.950  0.0000E+00  0.0000E+00
     -7.940  0.0000E+00  0.0000E+00
     -7.930  0.0000E+00  0.0000E+00
     -7.920  0.0000E+00  0.0000E+00
     -7.910  0.0000E+00  0.0000E+00
     -7.900  0.0000E+00  0.0000E+00
     -7.890  0.0000E+00  0.0000E+00
     -7.880  0.0000E+00  0.0000E+00
     -7.870  0.0000E+00  0.0000E+00
     -7.860  0.0000E+00  0.0000E+00
     -7.850  0.0000E+00  0.0000E+00
     -7.840  0.0000E+00  0.0000E+00
     -7.830  0.0000E+00  0.0000E+00
     -7.820  0.0000E+00  0.0000E+00
     -7.810  0.0000E+00  0.0000E+00
     -7.800  0.0000E+00  0.0000E+00
     -7.790  0.0000E+00  0.0000E+00
     -7.780  0.0000E+00  0.0000E+00
     -7.770  0.0000E+00  0.0000E+00
     -7.760  0.0000E+00  0.0000E+00
     -7.750  0.0000E+00  0.0000E+00
     -7.740  0.0000E+00  0.0000E+00
     -7.730  0.0000E+00  0.0000E+00
     -7.720  0.0000E+00  0.0000E+00
     -7.710  0.0000E+00  0.0000E+00
     -7.700  0.0000E+00  0.0000E+00
     -7.690  0.0000E+00  0.0000E+00
     -7.680  0.0000E+00  0.0000E+00
     -7.670  0.0000E+00  0.0000E+00
     -7.660  0.0000E+00  0.0000E+00
     -7.650  0.0000E+00  0.0000E+00
     -7.640  0.0000E+00  0.0000E+00
     -7.630  0.0000E+00  0.0000E+00
     -7.620  0.0000E+00  0.0000E+00
     -7.610  0.0000E+00  0.0000E+00
     -7.600  0.0000E+00  0.0000E+00
     -7.590  0.0000E+00  0.0000E+00
     -7.580  0.0000E+00  0.0000E+00
     -7.570  0.0000E+00  0.0000E+00
     -7.560  0.0000E+00  0.0000E+00
     -7.550  0.0000E+00  0.0000E+00
     -7.540  0.0000E+00  0.0000E+00
     -7.530  0.0000E+00  0.0000E+00
     -7.520  0.0000E+00  0.0000E+00
     -7.510  0.0000E+00  0.0000E+00
     -7.500  0.0000E+00  0.0000E+00
     -7.490  0.0000E+00  0.0000E+00
     -7.480  0.0000E+00  0.0000E+00
     -7.470  0.0000E+00  0.0000E+00
     -7.460  0.0000E+00  0.0000E+00
     -7.450  0.0000E+00  0.0000E+00
     -7.440  0.0000E+00  0.0000E+00
     -7.430  0.0000E+00  0.0000E+00
     -7.420  0.0000E+00  0.0000E+00
     -7.410  0.0000E+00  0.0000E+00
     -7.400  0.0000E+00  0.0000E+00
     -7.390  0.0000E+00  0.0000E+00
     -7.380  0.0000E+00  0.0000E+00
     -7.370  0.0000E+00  0.0000E+00
     -7.360  0.0000E+00  0.0000E+00
     -7.350  0.0000E+00  0.0000E+00
     -7.340  0.0000E+00  0.0000E+00
     -7.330  0.0000E+00  0.0000E+00
     -7.320  0.0000E+00  0.0000E+00
     -7.310  0.2220E-15  0.2220E-17
     -7.300  0.2220E-15  0.4441E-17
     -7.290  0.2220E-15  0.6661E-17
     -7.280  0.6661E-15  0.1332E-16
     -7.270  0.8882E-15  0.2220E-16
     -7.260  0.2109E-14  0.4330E-16
     -7.250  0.2887E-14  0.7216E-16
     -7.240  0.5884E-14  0.1310E-15
     -7.230  0.1010E-13  0.2320E-15
     -7.220  0.1721E-13  0.4041E-15
     -7.210  0.3020E-13  0.7061E-15
     -7.200  0.5185E-13  0.1225E-14
     -7.190  0.8871E-13  0.2112E-14
     -7.180  0.1514E-12  0.3626E-14
     -7.170  0.2566E-12  0.6192E-14
     -7.160  0.4332E-12  0.1052E-13
     -7.150  0.7278E-12  0.1780E-13
     -7.140  0.1216E-11  0.2996E-13
     -7.130  0.2022E-11  0.5019E-13
     -7.120  0.3347E-11  0.8366E-13
     -7.110  0.5511E-11  0.1388E-12
     -7.100  0.9029E-11  0.2291E-12
     -7.090  0.1472E-10  0.3763E-12
     -7.080  0.2388E-10  0.6151E-12
     -7.070  0.3855E-10  0.1001E-11
     -7.060  0.6192E-10  0.1620E-11
     -7.050  0.9897E-10  0.2610E-11
     -7.040  0.1574E-09  0.4184E-11
     -7.030  0.2491E-09  0.6675E-11
     -7.020  0.3923E-09  0.1060E-10
     -7.010  0.6147E-09  0.1675E-10
     -7.000  0.9585E-09  0.2633E-10
     -6.990  0.1487E-08  0.4120E-10
     -6.980  0.2296E-08  0.6416E-10
     -6.970  0.3527E-08  0.9944E-10
     -6.960  0.5392E-08  0.1534E-09
     -6.950  0.8202E-08  0.2354E-09
     -6.940  0.1242E-07  0.3595E-09
     -6.930  0.1870E-07  0.5465E-09
     -6.920  0.2803E-07  0.8268E-09
     -6.910  0.4180E-07  0.1245E-08
     -6.900  0.6203E-07  0.1865E-08
     -6.890  0.9160E-07  0.2781E-08
     -6.880  0.1346E-06  0.4127E-08
     -6.870  0.1968E-06  0.6095E-08
     -6.860  0.2864E-06  0.8959E-08
     -6.850  0.4146E-06  0.1311E-07
     -6.840  0.5974E-06  0.1908E-07
     -6.830  0.8564E-06  0.2764E-07
     -6.820  0.1222E-05  0.3986E-07
     -6.810  0.1735E-05  0.5721E-07
     -6.800  0.2450E-05  0.8171E-07
     -6.790  0.3444E-05  0.1162E-06
     -6.780  0.4818E-05  0.1643E-06
     -6.770  0.6706E-05  0.2314E-06
     -6.760  0.9289E-05  0.3243E-06
     -6.750  0.1280E-04  0.4523E-06
     -6.740  0.1756E-04  0.6279E-06
     -6.730  0.2397E-04  0.8676E-06
     -6.720  0.3256E-04  0.1193E-05
     -6.710  0.4400E-04  0.1633E-05
     -6.700  0.5918E-04  0.2225E-05
     -6.690  0.7921E-04  0.3017E-05
     -6.680  0.1055E-03  0.4072E-05
     -6.670  0.1398E-03  0.5470E-05
     -6.660  0.1844E-03  0.7315E-05
     -6.650  0.2420E-03  0.9735E-05
     -6.640  0.3161E-03  0.1290E-04
     -6.630  0.4109E-03  0.1701E-04
     -6.620  0.5315E-03  0.2232E-04
     -6.610  0.6841E-03  0.2916E-04
     -6.600  0.8763E-03  0.3793E-04
     -6.590  0.1117E-02  0.4910E-04
     -6.580  0.1417E-02  0.6327E-04
     -6.570  0.1789E-02  0.8116E-04
     -6.560  0.2248E-02  0.1036E-03
     -6.550  0.2810E-02  0.1317E-03
     -6.540  0.3497E-02  0.1667E-03
     -6.530  0.4330E-02  0.2100E-03
     -6.520  0.5336E-02  0.2634E-03
     -6.510  0.6544E-02  0.3288E-03
     -6.500  0.7987E-02  0.4087E-03
     -6.490  0.9702E-02  0.5057E-03
     -6.480  0.1173E-01  0.6230E-03
     -6.470  0.1411E-01  0.7641E-03
     -6.460  0.1690E-01  0.9330E-03
     -6.450  0.2014E-01  0.1134E-02
     -6.440  0.2388E-01  0.1373E-02
     -6.430  0.2819E-01  0.1655E-02
     -6.420  0.3313E-01  0.1986E-02
     -6.410  0.3874E-01  0.2374E-02
     -6.400  0.4509E-01  0.2825E-02
     -6.390  0.5223E-01  0.3347E-02
     -6.380  0.6022E-01  0.3949E-02
     -6.370  0.6912E-01  0.4640E-02
     -6.360  0.7896E-01  0.5430E-02
     -6.350  0.8979E-01  0.6328E-02
     -6.340  0.1016E+00  0.7344E-02
     -6.330  0.1145E+00  0.8489E-02
     -6.320  0.1284E+00  0.9773E-02
     -6.310  0.1434E+00  0.1121E-01
     -6.300  0.1593E+00  0.1280E-01
     -6.290  0.1763E+00  0.1456E-01
     -6.280  0.1942E+00  0.1651E-01
     -6.270  0.2130E+00  0.1863E-01
     -6.260  0.2325E+00  0.2096E-01
     -6.250  0.2527E+00  0.2349E-01
     -6.240  0.2735E+00  0.2622E-01
     -6.230  0.2947E+00  0.2917E-01
     -6.220  0.3162E+00  0.3233E-01
     -6.210  0.3379E+00  0.3571E-01
     -6.200  0.3595E+00  0.3930E-01
     -6.190  0.3809E+00  0.4311E-01
     -6.180  0.4019E+00  0.4713E-01
     -6.170  0.4224E+00  0.5136E-01
     -6.160  0.4422E+00  0.5578E-01
     -6.150  0.4610E+00  0.6039E-01
     -6.140  0.4789E+00  0.6518E-01
     -6.130  0.4955E+00  0.7013E-01
     -6.120  0.5108E+00  0.7524E-01
     -6.110  0.5246E+00  0.8049E-01
     -6.100  0.5370E+00  0.8586E-01
     -6.090  0.5477E+00  0.9133E-01
     -6.080  0.5567E+00  0.9690E-01
     -6.070  0.5641E+00  0.1025E+00
     -6.060  0.5697E+00  0.1082E+00
     -6.050  0.5737E+00  0.1140E+00
     -6.040  0.5759E+00  0.1197E+00
     -6.030  0.5766E+00  0.1255E+00
     -6.020  0.5757E+00  0.1313E+00
     -6.010  0.5734E+00  0.1370E+00
     -6.000  0.5698E+00  0.1427E+00
     -5.990  0.5649E+00  0.1483E+00
     -5.980  0.5588E+00  0.1539E+00
     -5.970  0.5518E+00  0.1594E+00
     -5.960  0.5439E+00  0.1649E+00
     -5.950  0.5353E+00  0.1702E+00
     -5.940  0.5260E+00  0.1755E+00
     -5.930  0.5163E+00  0.1807E+00
     -5.920  0.5062E+00  0.1857E+00
     -5.910  0.4958E+00  0.1907E+00
     -5.900  0.4853E+00  0.1955E+00
     -5.890  0.4747E+00  0.2003E+00
     -5.880  0.4642E+00  0.2049E+00
     -5.870  0.4538E+00  0.2095E+00
     -5.860  0.4435E+00  0.2139E+00
     -5.850  0.4335E+00  0.2182E+00
     -5.840  0.4237E+00  0.2225E+00
     -5.830  0.4142E+00  0.2266E+00
     -5.820  0.4051E+00  0.2307E+00
     -5.810  0.3963E+00  0.2346E+00
     -5.800  0.3879E+00  0.2385E+00
     -5.790  0.3799E+00  0.2423E+00
     -5.780  0.3722E+00  0.2460E+00
     -5.770  0.3649E+00  0.2497E+00
     -5.760  0.3580E+00  0.2533E+00
     -5.750  0.3514E+00  0.2568E+00
     -5.740  0.3452E+00  0.2602E+00
     -5.730  0.3392E+00  0.2636E+00
     -5.720  0.3336E+00  0.2669E+00
     -5.710  0.3283E+00  0.2702E+00
     -5.700  0.3233E+00  0.2735E+00
     -5.690  0.3185E+00  0.2766E+00
     -5.680  0.3139E+00  0.2798E+00
     -5.670  0.3096E+00  0.2829E+00
     -5.660  0.3055E+00  0.2859E+00
     -5.650  0.3016E+00  0.2890E+00
     -5.640  0.2979E+00  0.2919E+00
     -5.630  0.2943E+00  0.2949E+00
     -5.620  0.2909E+00  0.2978E+00
     -5.610  0.2876E+00  0.3007E+00
     -5.600  0.2845E+00  0.3035E+00
     -5.590  0.2815E+00  0.3063E+00
     -5.580  0.2786E+00  0.3091E+00
     -5.570  0.2758E+00  0.3119E+00
     -5.560  0.2731E+00  0.3146E+00
     -5.550  0.2705E+00  0.3173E+00
     -5.540  0.2680E+00  0.3200E+00
     -5.530  0.2656E+00  0.3226E+00
     -5.520  0.2632E+00  0.3253E+00
     -5.510  0.2610E+00  0.3279E+00
     -5.500  0.2588E+00  0.3305E+00
     -5.490  0.2567E+00  0.3330E+00
     -5.480  0.2546E+00  0.3356E+00
     -5.470  0.2526E+00  0.3381E+00
     -5.460  0.2506E+00  0.3406E+00
     -5.450  0.2487E+00  0.3431E+00
     -5.440  0.2469E+00  0.3456E+00
     -5.430  0.2451E+00  0.3480E+00
     -5.420  0.2433E+00  0.3504E+00
     -5.410  0.2416E+00  0.3529E+00
     -5.400  0.2400E+00  0.3553E+00
     -5.390  0.2383E+00  0.3576E+00
     -5.380  0.2367E+00  0.3600E+00
     -5.370  0.2352E+00  0.3624E+00
     -5.360  0.2337E+00  0.3647E+00
     -5.350  0.2322E+00  0.3670E+00
     -5.340  0.2307E+00  0.3693E+00
     -5.330  0.2293E+00  0.3716E+00
     -5.320  0.2279E+00  0.3739E+00
     -5.310  0.2266E+00  0.3762E+00
     -5.300  0.2253E+00  0.3784E+00
     -5.290  0.2240E+00  0.3807E+00
     -5.280  0.2227E+00  0.3829E+00
     -5.270  0.2215E+00  0.3851E+00
     -5.260  0.2203E+00  0.3873E+00
     -5.250  0.2191E+00  0.3895E+00
     -5.240  0.2180E+00  0.3917E+00
     -5.230  0.2169E+00  0.3938E+00
     -5.220  0.2158E+00  0.3960E+00
     -5.210  0.2147E+00  0.3982E+00
     -5.200  0.2136E+00  0.4003E+00
     -5.190  0.2125E+00  0.4024E+00
     -5.180  0.2115E+00  0.4045E+00
     -5.170  0.2105E+00  0.4066E+00
     -5.160  0.2095E+00  0.4087E+00
     -5.150  0.2085E+00  0.4108E+00
     -5.140  0.2075E+00  0.4129E+00
     -5.130  0.2066E+00  0.4150E+00
     -5.120  0.2057E+00  0.4170E+00
     -5.110  0.2047E+00  0.4191E+00
     -5.100  0.2039E+00  0.4211E+00
     -5.090  0.2030E+00  0.4231E+00
     -5.080  0.2021E+00  0.4251E+00
     -5.070  0.2013E+00  0.4272E+00
     -5.060  0.2005E+00  0.4292E+00
     -5.050  0.1997E+00  0.4312E+00
     -5.040  0.1990E+00  0.4332E+00
     -5.030  0.1982E+00  0.4351E+00
     -5.020  0.1975E+00  0.4371E+00
     -5.010  0.1968E+00  0.4391E+00
     -5.000  0.1961E+00  0.4410E+00
     -4.990  0.1954E+00  0.4430E+00
     -4.980  0.1947E+00  0.4449E+00
     -4.970  0.1941E+00  0.4469E+00
     -4.960  0.1934E+00  0.4488E+00
     -4.950  0.1927E+00  0.4507E+00
     -4.940  0.1921E+00  0.4527E+00
     -4.930  0.1914E+00  0.4546E+00
     -4.920  0.1907E+00  0.4565E+00
     -4.910  0.1901E+00  0.4584E+00
     -4.900  0.1894E+00  0.4603E+00
     -4.890  0.1887E+00  0.4622E+00
     -4.880  0.1881E+00  0.4640E+00
     -4.870  0.1875E+00  0.4659E+00
     -4.860  0.1869E+00  0.4678E+00
     -4.850  0.1863E+00  0.4697E+00
     -4.840  0.1857E+00  0.4715E+00
     -4.830  0.1852E+00  0.4734E+00
     -4.820  0.1847E+00  0.4752E+00
     -4.810  0.1842E+00  0.4771E+00
     -4.800  0.1838E+00  0.4789E+00
     -4.790  0.1833E+00  0.4807E+00
     -4.780  0.1829E+00  0.4826E+00
     -4.770  0.1826E+00  0.4844E+00
     -4.760  0.1822E+00  0.4862E+00
     -4.750  0.1819E+00  0.4880E+00
     -4.740  0.1815E+00  0.4898E+00
     -4.730  0.1812E+00  0.4916E+00
     -4.720  0.1808E+00  0.4935E+00
     -4.710  0.1805E+00  0.4953E+00
     -4.700  0.1801E+00  0.4971E+00
     -4.690  0.1797E+00  0.4989E+00
     -4.680  0.1793E+00  0.5007E+00
     -4.670  0.1789E+00  0.5024E+00
     -4.660  0.1784E+00  0.5042E+00
     -4.650  0.1780E+00  0.5060E+00
     -4.640  0.1775E+00  0.5078E+00
     -4.630  0.1771E+00  0.5095E+00
     -4.620  0.1767E+00  0.5113E+00
     -4.610  0.1762E+00  0.5131E+00
     -4.600  0.1759E+00  0.5148E+00
     -4.590  0.1755E+00  0.5166E+00
     -4.580  0.1752E+00  0.5183E+00
     -4.570  0.1749E+00  0.5201E+00
     -4.560  0.1747E+00  0.5218E+00
     -4.550  0.1745E+00  0.5236E+00
     -4.540  0.1744E+00  0.5253E+00
     -4.530  0.1743E+00  0.5271E+00
     -4.520  0.1742E+00  0.5288E+00
     -4.510  0.1742E+00  0.5306E+00
     -4.500  0.1743E+00  0.5323E+00
     -4.490  0.1743E+00  0.5340E+00
     -4.480  0.1744E+00  0.5358E+00
     -4.470  0.1744E+00  0.5375E+00
     -4.460  0.1745E+00  0.5393E+00
     -4.450  0.1745E+00  0.5410E+00
     -4.440  0.1745E+00  0.5428E+00
     -4.430  0.1745E+00  0.5445E+00
     -4.420  0.1745E+00  0.5463E+00
     -4.410  0.1744E+00  0.5480E+00
     -4.400  0.1743E+00  0.5497E+00
     -4.390  0.1742E+00  0.5515E+00
     -4.380  0.1741E+00  0.5532E+00
     -4.370  0.1740E+00  0.5550E+00
     -4.360  0.1738E+00  0.5567E+00
     -4.350  0.1737E+00  0.5584E+00
     -4.340  0.1736E+00  0.5602E+00
     -4.330  0.1736E+00  0.5619E+00
     -4.320  0.1736E+00  0.5637E+00
     -4.310  0.1737E+00  0.5654E+00
     -4.300  0.1739E+00  0.5671E+00
     -4.290  0.1742E+00  0.5689E+00
     -4.280  0.1746E+00  0.5706E+00
     -4.270  0.1752E+00  0.5724E+00
     -4.260  0.1758E+00  0.5741E+00
     -4.250  0.1767E+00  0.5759E+00
     -4.240  0.1776E+00  0.5777E+00
     -4.230  0.1787E+00  0.5795E+00
     -4.220  0.1800E+00  0.5813E+00
     -4.210  0.1815E+00  0.5831E+00
     -4.200  0.1831E+00  0.5849E+00
     -4.190  0.1849E+00  0.5868E+00
     -4.180  0.1869E+00  0.5886E+00
     -4.170  0.1891E+00  0.5905E+00
     -4.160  0.1916E+00  0.5924E+00
     -4.150  0.1942E+00  0.5944E+00
     -4.140  0.1971E+00  0.5963E+00
     -4.130  0.2004E+00  0.5983E+00
     -4.120  0.2039E+00  0.6004E+00
     -4.110  0.2078E+00  0.6025E+00
     -4.100  0.2121E+00  0.6046E+00
     -4.090  0.2168E+00  0.6068E+00
     -4.080  0.2219E+00  0.6090E+00
     -4.070  0.2277E+00  0.6112E+00
     -4.060  0.2339E+00  0.6136E+00
     -4.050  0.2408E+00  0.6160E+00
     -4.040  0.2483E+00  0.6185E+00
     -4.030  0.2565E+00  0.6210E+00
     -4.020  0.2653E+00  0.6237E+00
     -4.010  0.2749E+00  0.6264E+00
     -4.000  0.2852E+00  0.6293E+00
     -3.990  0.2962E+00  0.6323E+00
     -3.980  0.3078E+00  0.6353E+00
     -3.970  0.3202E+00  0.6385E+00
     -3.960  0.3331E+00  0.6419E+00
     -3.950  0.3465E+00  0.6453E+00
     -3.940  0.3604E+00  0.6489E+00
     -3.930  0.3746E+00  0.6527E+00
     -3.920  0.3891E+00  0.6566E+00
     -3.910  0.4036E+00  0.6606E+00
     -3.900  0.4182E+00  0.6648E+00
     -3.890  0.4326E+00  0.6691E+00
     -3.880  0.4467E+00  0.6736E+00
     -3.870  0.4604E+00  0.6782E+00
     -3.860  0.4734E+00  0.6829E+00
     -3.850  0.4858E+00  0.6878E+00
     -3.840  0.4973E+00  0.6928E+00
     -3.830  0.5077E+00  0.6978E+00
     -3.820  0.5171E+00  0.7030E+00
     -3.810  0.5253E+00  0.7083E+00
     -3.800  0.5322E+00  0.7136E+00
     -3.790  0.5377E+00  0.7190E+00
     -3.780  0.5419E+00  0.7244E+00
     -3.770  0.5446E+00  0.7298E+00
     -3.760  0.5460E+00  0.7353E+00
     -3.750  0.5460E+00  0.7407E+00