    2    2    1    1
  0.2002172E+02  0.3840156E-09  0.3840156E-09  0.3840156E-09  0.5000000E-15
  1.000000000000000E-004
  CAR 
 unknown system                          
      8    100      8
 
  0.5000000E+00  0.2500000E+00  0.7500000E+00  0.1000000E-01
    1       -1.820095   1.000000
    2       -1.820093   1.000000
    3        1.981222   1.000000
    4        1.981230   1.000000
    5       10.124265   0.000000
    6       10.124300   0.000000
    7       10.849161   0.000000
    8       10.849178   0.000000
 
  0.5000000E+00  0.2631579E+00  0.7368421E+00  0.1000000E-01
    1       -1.992607   1.000000
    2       -1.651477   1.000000
    3        1.863796   1.000000
    4        2.119962   1.000000
    5        9.971334   0.000000
    6       10.196453   0.000000
    7       10.771921   0.000000
    8       11.028173   0.000000
 
  0.5000000E+00  0.2763158E+00  0.7236842E+00  0.1000000E-01
    1       -2.164720   1.000000
    2       -1.490658   1.000000
    3        1.773413   1.000000
    4        2.276265   1.000000
    5        9.804534   0.000000
    6       10.125122   0.000000
    7       10.864260   0.000000
    8       11.248019   0.000000
 
  0.5000000E+00  0.2894737E+00  0.7105263E+00  0.1000000E-01
    1       -2.334033   1.000000
    2       -1.342878   1.000000
    3        1.715411   1.000000
    4        2.446343   1.000000
    5        9.642805   0.000000
    6        9.973762   0.000000
    7       11.061828   0.000000
    8       11.488298   0.000000
 
  0.5000000E+00  0.3026316E+00  0.6973684E+00  0.1000000E-01
    1       -2.498441   1.000000
    2       -1.213699   1.000000
    3        1.695765   1.000000
    4        2.627247   1.000000
    5        9.493308   0.000000
    6        9.801888   0.000000
    7       11.305077   0.000000
    8       11.742108   0.000000
 
  0.5000000E+00  0.3157895E+00  0.6842105E+00  0.1000000E-01
    1       -2.656350   1.000000
    2       -1.108455   1.000000
    3        1.719491   1.000000
    4        2.815293   1.000000
    5        9.357071   0.000000
    6        9.628287   0.000000
    7       11.572343   0.000000
    8       12.005774   0.000000
 
  0.5000000E+00  0.3289474E+00  0.6710526E+00  0.1000000E-01
    1       -2.806504   1.000000
    2       -1.030344   1.000000
    3        1.790125   1.000000
    4        3.007893   1.000000
    5        9.239485   0.000000
    6        9.458910   0.000000
    7       11.858530   0.000000
    8       12.277225   0.000000
 
  0.5000000E+00  0.3421053E+00  0.6578947E+00  0.1000000E-01
    1       -2.947981   1.000000
    2       -0.979862   1.000000
    3        1.907962   1.000000
    4        3.202158   1.000000
    5        9.140912   0.000000
    6        9.295519   0.000000
    7       12.161556   0.000000
    8       12.554148   0.000000
 
  0.5000000E+00  0.3552632E+00  0.6447368E+00  0.1000000E-01
    1       -3.079943   1.000000
    2       -0.954529   1.000000
    3        2.070124   1.000000
    4        3.395072   1.000000
    5        9.061755   0.000000
    6        9.138482   0.000000
    7       12.472461   0.000000
    8       12.542602   0.000000
 
  0.5000000E+00  0.3684211E+00  0.6315789E+00  0.1000000E-01
    1       -3.201834   1.000000
    2       -0.949910   1.000000
    3        2.271189   1.000000
    4        3.583576   1.000000
    5        8.986525   0.000000
    6        9.002970   0.000000
    7       12.017741   0.000000
    8       12.811087   0.000000
 
  0.5000000E+00  0.3815789E+00  0.6184211E+00  0.1000000E-01
    1       -3.313255   1.000000
    2       -0.960611   1.000000
    3        2.504753   1.000000
    4        3.764533   1.000000
    5        8.837799   0.000000
    6        8.964419   0.000000
    7       11.519947   0.000000
    8       13.156589   0.000000
 
  0.5000000E+00  0.3947368E+00  0.6052632E+00  0.1000000E-01
    1       -3.413659   1.000000
    2       -0.981168   1.000000
    3        2.764368   1.000000
    4        3.935497   1.000000
    5        8.690820   0.000000
    6        8.948784   0.000000
    7       11.050106   0.000000
    8       13.516102   0.000000
 
  0.5000000E+00  0.4078947E+00  0.5921053E+00  0.1000000E-01
    1       -3.502853   1.000000
    2       -1.007371   1.000000
    3        3.043225   1.000000
    4        4.092443   1.000000
    5        8.537229   0.000000
    6        8.952699   0.000000
    7       10.613461   0.000000
    8       13.838718   0.000000
 
  0.5000000E+00  0.4210526E+00  0.5789474E+00  0.1000000E-01
    1       -3.580578   1.000000
    2       -1.035632   1.000000
    3        3.334316   1.000000
    4        4.232597   1.000000
    5        8.372197   0.000000
    6        8.974940   0.000000
    7       10.221215   0.000000
    8       13.952808   0.000000
 
  0.5000000E+00  0.4342105E+00  0.5657895E+00  0.1000000E-01
    1       -3.646637   1.000000
    2       -1.063170   1.000000
    3        3.630335   1.000000
    4        4.354211   1.000000
    5        8.189475   0.000000
    6        9.012431   0.000000
    7        9.884965   0.000000
    8       13.972824   0.000000
 
  0.5000000E+00  0.4473684E+00  0.5526316E+00  0.1000000E-01
    1       -3.700877   1.000000
    2       -1.088054   1.000000
    3        3.920527   1.000000
    4        4.455130   1.000000
    5        7.986920   0.000000
    6        9.058944   0.000000
    7        9.617746   0.000000
    8       13.900449   0.000000
 
  0.5000000E+00  0.4605263E+00  0.5394737E+00  0.1000000E-01
    1       -3.743185   1.000000
    2       -1.108698   1.000000
    3        4.191183   1.000000
    4        4.534516   1.000000
    5        7.774753   0.000000
    6        9.108076   0.000000
    7        9.422315   0.000000
    8       13.784736   0.000000
 
  0.5000000E+00  0.4736842E+00  0.5263158E+00  0.1000000E-01
    1       -3.773643   1.000000
    2       -1.124256   1.000000
    3        4.420280   1.000000
    4        4.591034   1.000000
    5        7.578002   0.000000
    6        9.151383   0.000000
    7        9.290115   0.000000
    8       13.672124   0.000000
 
  0.5000000E+00  0.4868421E+00  0.5131579E+00  0.1000000E-01
    1       -3.791978   1.000000
    2       -1.133869   1.000000
    3        4.579120   1.000000
    4        4.625216   1.000000
    5        7.434135   0.000000
    6        9.181255   0.000000
    7        9.215658   0.000000
    8       13.593562   0.000000
 
  0.5000000E+00  0.5000000E+00  0.5000000E+00  0.1000000E-01
    1       -3.798251   1.000000
    2       -1.137198   1.000000
    3        4.636362   1.000000
    4        4.636362   1.000000
    5        7.380432   0.000000
    6        9.191436   0.000000
    7        9.191436   0.000000
    8       13.565478   0.000000
 
  0.5000000E+00  0.5000000E+00  0.5000000E+00  0.1000000E-01
    1       -3.798251   1.000000
    2       -1.137198   1.000000
    3        4.636362   1.000000
    4        4.636362   1.000000
    5        7.380432   0.000000
    6        9.191436   0.000000
    7        9.191436   0.000000
    8       13.565477   0.000000
 
  0.4736842E+00  0.4736842E+00  0.4736842E+00  0.1000000E-01
    1       -3.836993   1.000000
    2       -1.080563   1.000000
    3        4.642046   1.000000
    4        4.642046   1.000000
    5        7.386438   0.000000
    6        9.197812   0.000000
    7        9.197812   0.000000
    8       13.574789   0.000000
 
  0.4473684E+00  0.4473684E+00  0.4473684E+00  0.1000000E-01
    1       -3.945431   1.000000
    2       -0.920751   1.000000
    3        4.657011   1.000000
    4        4.657011   1.000000
    5        7.403572   0.000000
    6        9.214541   0.000000
    7        9.214541   0.000000
    8       13.600676   0.000000
 
  0.4210526E+00  0.4210526E+00  0.4210526E+00  0.1000000E-01
    1       -4.102550   1.000000
    2       -0.678177   1.000000
    3        4.681921   1.000000
    4        4.681921   1.000000
    5        7.432046   0.000000
    6        9.240928   0.000000
    7        9.240928   0.000000
    8       13.640688   0.000000
 
  0.3947368E+00  0.3947368E+00  0.3947368E+00  0.1000000E-01
    1       -4.287820   1.000000
    2       -0.373558   1.000000
    3        4.716753   1.000000
    4        4.716753   1.000000
    5        7.473032   0.000000
    6        9.274516   0.000000
    7        9.274516   0.000000
    8       13.688493   0.000000
 
  0.3684211E+00  0.3684211E+00  0.3684211E+00  0.1000000E-01
    1       -4.485837   1.000000
    2       -0.022730   1.000000
    3        4.761321   1.000000
    4        4.761321   1.000000
    5        7.523535   0.000000
    6        9.310146   0.000000
    7        9.310146   0.000000
    8       13.728810   0.000000
 
  0.3421053E+00  0.3421053E+00  0.3421053E+00  0.1000000E-01
    1       -4.686288   1.000000
    2        0.363575   1.000000
    3        4.815645   1.000000
    4        4.815645   1.000000
    5        7.584691   0.000000
    6        9.345567   0.000000
    7        9.345567   0.000000
    8       13.729904   0.000000
 
  0.3157895E+00  0.3157895E+00  0.3157895E+00  0.1000000E-01
    1       -4.882505   1.000000
    2        0.778062   1.000000
    3        4.879412   1.000000
    4        4.879412   1.000000
    5        7.655978   0.000000
    6        9.372737   0.000000
    7        9.372737   0.000000
    8       13.624670   0.000000
 
  0.2894737E+00  0.2894737E+00  0.2894737E+00  0.1000000E-01
    1       -5.070036   1.000000
    2        1.216894   1.000000
    3        4.952415   1.000000
    4        4.952415   1.000000
    5        7.736738   0.000000
    6        9.383829   0.000000
    7        9.383829   0.000000
    8       13.353838   0.000000
 
  0.2631579E+00  0.2631579E+00  0.2631579E+00  0.1000000E-01
    1       -5.246311   1.000000
    2        1.673436   1.000000
    3        5.033801   1.000000
    4        5.033801   1.000000
    5        7.824022   0.000000
    6        9.370549   0.000000
    7        9.370549   0.000000
    8       12.976077   0.000000
 
  0.2368421E+00  0.2368421E+00  0.2368421E+00  0.1000000E-01
    1       -5.409041   1.000000
    2        2.145703   1.000000
    3        5.122905   1.000000
    4        5.122905   1.000000
    5        7.919327   0.000000
    6        9.326436   0.000000
    7        9.326436   0.000000
    8       12.537311   0.000000
 
  0.2105263E+00  0.2105263E+00  0.2105263E+00  0.1000000E-01
    1       -5.556936   1.000000
    2        2.630417   1.000000
    3        5.218601   1.000000
    4        5.218601   1.000000
    5        8.020810   0.000000
    6        9.249489   0.000000
    7        9.249489   0.000000
    8       12.079124   0.000000
 
  0.1842105E+00  0.1842105E+00  0.1842105E+00  0.1000000E-01
    1       -5.689028   1.000000
    2        3.123648   1.000000
    3        5.319166   1.000000
    4        5.319166   1.000000
    5        8.124338   0.000000
    6        9.141132   0.000000
    7        9.141132   0.000000
    8       11.609072   0.000000
 
  0.1578947E+00  0.1578947E+00  0.1578947E+00  0.1000000E-01
    1       -5.804588   1.000000
    2        3.620884   1.000000
    3        5.422301   1.000000
    4        5.422301   1.000000
    5        8.226513   0.000000
    6        9.010117   0.000000
    7        9.010117   0.000000
    8       11.135258   0.000000
 
  0.1315789E+00  0.1315789E+00  0.1315789E+00  0.1000000E-01
    1       -5.903059   1.000000
    2        4.116356   1.000000
    3        5.525327   0.999996
    4        5.525327   0.999996
    5        8.322398   0.000000
    6        8.868559   0.000000
    7        8.868559   0.000000
    8       10.666148   0.000000
 
  0.1052632E+00  0.1052632E+00  0.1052632E+00  0.1000000E-01
    1       -5.984138   1.000000
    2        4.598587   1.000000
    3        5.622996   0.999915
    4        5.622996   0.999915
    5        8.403123   0.000000
    6        8.726851   0.000000
    7        8.726852   0.000000
    8       10.213988   0.000000
 
  0.7894737E-01  0.7894737E-01  0.7894737E-01  0.1000000E-01
    1       -6.047401   1.000000
    2        5.053351   1.000000
    3        5.709825   0.999175
    4        5.709825   0.999175
    5        8.457585   0.000000
    6        8.599027   0.000000
    7        8.599027   0.000000
    8        9.802185   0.000000
 
  0.5263158E-01  0.5263158E-01  0.5263158E-01  0.1000000E-01
    1       -6.092752   1.000000
    2        5.448165   1.000000
    3        5.779325   0.996039
    4        5.779325   0.996039
    5        8.468528   0.000000
    6        8.496499   0.000000
    7        8.496499   0.000000
    8        9.470252   0.000000
 
  0.2631579E-01  0.2631579E-01  0.2631579E-01  0.1000000E-01
    1       -6.120040   1.000000
    2        5.732937   0.998575
    3        5.824700   0.990217
    4        5.824700   0.990217
    5        8.429926   0.000000
    6        8.429926   0.000000
    7        8.434071   0.000000
    8        9.265785   0.000000
 
  0.0000000E+00  0.0000000E+00  0.0000000E+00  0.1000000E-01
    1       -6.129136   1.000000
    2        5.840510   0.986884
    3        5.840525   0.986880
    4        5.840525   0.986880
    5        8.406794   0.000000
    6        8.406811   0.000000
    7        8.406811   0.000000
    8        9.201560   0.000000
 
  0.0000000E+00  0.0000000E+00  0.0000000E+00  0.1000000E-01
    1       -6.129136   1.000000
    2        5.840510   0.986884
    3        5.840525   0.986880
    4        5.840525   0.986880
    5        8.406794   0.000000
    6        8.406811   0.000000
    7        8.406811   0.000000
    8        9.201560   0.000000
 
  0.2631579E-01  0.0000000E+00  0.2631579E-01  0.1000000E-01
    1       -6.117006   1.000000
    2        5.758126   0.997487
    3        5.788494   0.995209
    4        5.788504   0.995208
    5        8.376700   0.000000
    6        8.473827   0.000000
    7        8.473838   0.000000
    8        9.282073   0.000000
 
  0.5263158E-01  0.0000000E+00  0.5263158E-01  0.1000000E-01
    1       -6.080636   1.000000
    2        5.532333   0.999995
    3        5.646996   0.999835
    4        5.647007   0.999835
    5        8.290317   0.000000
    6        8.660261   0.000000
    7        8.660272   0.000000
    8        9.498176   0.000000
 
  0.7894737E-01  0.0000000E+00  0.7894737E-01  0.1000000E-01
    1       -6.019998   1.000000
    2        5.207218   1.000000
    3        5.447103   1.000000
    4        5.447113   1.000000
    5        8.157979   0.000000
    6        8.935883   0.000000
    7        8.935894   0.000000
    8        9.791159   0.000000
 
  0.1052632E+00  0.0000000E+00  0.1052632E+00  0.1000000E-01
    1       -5.935417   1.000000
    2        4.819712   1.000000
    3        5.213461   1.000000
    4        5.213471   1.000000
    5        7.991922   0.000000
    6        9.270616   0.000000
    7        9.270627   0.000000
    8       10.083290   0.000000
 
  0.1315789E+00  0.0000000E+00  0.1315789E+00  0.1000000E-01
    1       -5.826800   1.000000
    2        4.395778   1.000000
    3        4.969045   1.000000
    4        4.969054   1.000000
    5        7.806491   0.000000
    6        9.646368   0.000000
    7        9.646380   0.000000
    8       10.264144   0.000000
 
  0.1578947E+00  0.0000000E+00  0.1578947E+00  0.1000000E-01
    1       -5.694394   1.000000
    2        3.950585   1.000000
    3        4.724096   1.000000
    4        4.724106   1.000000
    5        7.612134   0.000000
    6       10.052070   0.000000
    7       10.052082   0.000000
    8       10.216059   0.000000
 
  0.1842105E+00  0.0000000E+00  0.1842105E+00  0.1000000E-01
    1       -5.538412   1.000000
    2        3.492249   1.000000
    3        4.485769   1.000000
    4        4.485778   1.000000
    5        7.417717   0.000000
    6        9.953001   0.000000
    7       10.478794   0.000000
    8       10.478807   0.000000
 
  0.2105263E+00  0.0000000E+00  0.2105263E+00  0.1000000E-01
    1       -5.359116   1.000000
    2        3.025871   1.000000
    3        4.258532   1.000000
    4        4.258541   1.000000
    5        7.230153   0.000000
    6        9.585767   0.000000
    7       10.921726   0.000000
    8       10.921738   0.000000
 
  0.2368421E+00  0.0000000E+00  0.2368421E+00  0.1000000E-01
    1       -5.156820   1.000000
    2        2.554998   1.000000
    3        4.045850   1.000000
    4        4.045858   1.000000
    5        7.054542   0.000000
    6        9.185348   0.000000
    7       11.376567   0.000000
    8       11.376583   0.000000
 
  0.2631579E+00  0.0000000E+00  0.2631579E+00  0.1000000E-01
    1       -4.931888   1.000000
    2        2.081925   1.000000
    3        3.849644   1.000000
    4        3.849653   1.000000
    5        6.894986   0.000000
    6        8.787819   0.000000
    7       11.841331   0.000000
    8       11.841346   0.000000
 
  0.2894737E+00  0.0000000E+00  0.2894737E+00  0.1000000E-01
    1       -4.684618   1.000000
    2        1.608613   1.000000
    3        3.671533   1.000000
    4        3.671542   1.000000
    5        6.755279   0.000011
    6        8.409999   0.000000
    7       12.318407   0.000000
    8       12.318422   0.000000
 
  0.3157895E+00  0.0000000E+00  0.3157895E+00  0.1000000E-01
    1       -4.415808   1.000000
    2        1.136644   1.000000
    3        3.511544   1.000000
    4        3.511553   1.000000
    5        6.636607   0.000329
    6        8.058692   0.000000
    7       12.798066   0.000000
    8       12.798087   0.000000
 
  0.3421053E+00  0.0000000E+00  0.3421053E+00  0.1000000E-01
    1       -4.125799   1.000000
    2        0.667923   1.000000
    3        3.372392   1.000000
    4        3.372401   1.000000
    5        6.541696   0.003115
    6        7.739848   0.000000
    7       13.284507   0.000000
    8       13.284519   0.000000
 
  0.3684211E+00  0.0000000E+00  0.3684211E+00  0.1000000E-01
    1       -3.814857   1.000000
    2        0.204059   1.000000
    3        3.253822   1.000000
    4        3.253831   1.000000
    5        6.473437   0.012139
    6        7.455197   0.000000
    7       13.776859   0.000000
    8       13.776861   0.000000
 
  0.3947368E+00  0.0000000E+00  0.3947368E+00  0.1000000E-01
    1       -3.484585   1.000000
    2       -0.254025   1.000000
    3        3.156026   1.000000
    4        3.156035   1.000000
    5        6.430923   0.025464
    6        7.204396   0.000000
    7       14.271623   0.000000
    8       14.271627   0.000000
 
  0.4210526E+00  0.0000000E+00  0.4210526E+00  0.1000000E-01
    1       -3.135351   1.000000
    2       -0.703025   1.000000
    3        3.079786   1.000000
    4        3.079795   1.000000
    5        6.416826   0.031984
    6        6.990421   0.000000
    7       14.769030   0.000000
    8       14.769145   0.000000
 
  0.4473684E+00  0.0000000E+00  0.4473684E+00  0.1000000E-01
    1       -2.768066   1.000000
    2       -1.141998   1.000000
    3        3.025293   1.000000
    4        3.025302   1.000000
    5        6.433025   0.024594
    6        6.811847   0.000002
    7       15.266045   0.000000
    8       15.266059   0.000000
 
  0.4736842E+00  0.0000000E+00  0.4736842E+00  0.1000000E-01
    1       -2.383906   1.000000
    2       -1.569506   1.000000
    3        2.992425   1.000000
    4        2.992434   1.000000
    5        6.479164   0.010918
    6        6.667525   0.000144
    7       15.715628   0.000000
    8       15.715664   0.000000
 
  0.5000000E+00  0.0000000E+00  0.5000000E+00  0.1000000E-01
    1       -1.984002   1.000000
    2       -1.984001   1.000000
    3        2.981009   1.000000
    4        2.981018   1.000000
    5        6.555991   0.002281
    6        6.556011   0.002280
    7       15.956857   0.000000
    8       15.966851   0.000000
 
  0.5000000E+00  0.0000000E+00  0.5000000E+00  0.1000000E-01
    1       -1.984002   1.000000
    2       -1.984001   1.000000
    3        2.981009   1.000000
    4        2.981018   1.000000
    5        6.555991   0.002281
    6        6.556011   0.002280
    7       15.955926   0.000000
    8       16.000381   0.000000
 
  0.5000000E+00  0.1315789E-01  0.5131579E+00  0.1000000E-01
    1       -1.982943   1.000000
    2       -1.982942   1.000000
    3        2.972127   1.000000
    4        2.972136   1.000000
    5        6.573796   0.001526
    6        6.573815   0.001526
    7       15.930879   0.000000
    8       15.944401   0.000000
 
  0.5000000E+00  0.2631579E-01  0.5263158E+00  0.1000000E-01
    1       -1.979913   1.000000
    2       -1.979912   1.000000
    3        2.944920   1.000000
    4        2.944928   1.000000
    5        6.623983   0.000455
    6        6.624001   0.000454
    7       15.844116   0.000000
    8       15.848588   0.000000
 
  0.5000000E+00  0.3947368E-01  0.5394737E+00  0.1000000E-01
    1       -1.974929   1.000000
    2       -1.974928   1.000000
    3        2.901510   1.000000
    4        2.901518   1.000000
    5        6.705635   0.000049
    6        6.705654   0.000049
    7       15.686549   0.000000
    8       15.700557   0.000000
 
  0.5000000E+00  0.5263158E-01  0.5526316E+00  0.1000000E-01
    1       -1.968214   1.000000
    2       -1.968213   1.000000
    3        2.844179   1.000000
    4        2.844188   1.000000
    5        6.814993   0.000002
    6        6.815017   0.000002
    7       15.461487   0.000000
    8       15.465912   0.000000
 
  0.5000000E+00  0.6578947E-01  0.5657895E+00  0.1000000E-01
    1       -1.959680   1.000000
    2       -1.959678   1.000000
    3        2.776501   1.000000
    4        2.776510   1.000000
    5        6.951880   0.000000
    6        6.951903   0.000000
    7       15.185331   0.000000
    8       15.186332   0.000000
 
  0.5000000E+00  0.7894737E-01  0.5789474E+00  0.1000000E-01
    1       -1.949626   1.000000
    2       -1.949625   1.000000
    3        2.701229   1.000000
    4        2.701238   1.000000
    5        7.112359   0.000000
    6        7.112382   0.000000
    7       14.878755   0.000000
    8       14.878812   0.000000
 
  0.5000000E+00  0.9210526E-01  0.5921053E+00  0.1000000E-01
    1       -1.938294   1.000000
    2       -1.938292   1.000000
    3        2.621155   1.000000
    4        2.621163   1.000000
    5        7.292630   0.000000
    6        7.292653   0.000000
    7       14.552598   0.000000
    8       14.552647   0.000000
 
  0.5000000E+00  0.1052632E+00  0.6052632E+00  0.1000000E-01
    1       -1.925924   1.000000
    2       -1.925923   1.000000
    3        2.539089   1.000000
    4        2.539098   1.000000
    5        7.491107   0.000000
    6        7.491130   0.000000
    7       14.216681   0.000000
    8       14.216720   0.000000
 
  0.5000000E+00  0.1184211E+00  0.6184211E+00  0.1000000E-01
    1       -1.912830   1.000000
    2       -1.912829   1.000000
    3        2.457271   1.000000
    4        2.457279   1.000000
    5        7.705350   0.000000
    6        7.705373   0.000000
    7       13.875221   0.000000
    8       13.875262   0.000000
 
  0.5000000E+00  0.1315789E+00  0.6315789E+00  0.1000000E-01
    1       -1.899345   1.000000
    2       -1.899344   1.000000
    3        2.377717   1.000000
    4        2.377725   1.000000
    5        7.933468   0.000000
    6        7.933492   0.000000
    7       13.531446   0.000000
    8       13.531489   0.000000
 
  0.5000000E+00  0.1447368E+00  0.6447368E+00  0.1000000E-01
    1       -1.885829   1.000000
    2       -1.885828   1.000000
    3        2.302168   1.000000
    4        2.302176   1.000000
    5        8.173806   0.000000
    6        8.173830   0.000000
    7       13.187568   0.000000
    8       13.187612   0.000000
 
  0.5000000E+00  0.1578947E+00  0.6578947E+00  0.1000000E-01
    1       -1.872660   1.000000
    2       -1.872659   1.000000
    3        2.232119   1.000000
    4        2.232127   1.000000
    5        8.424867   0.000000
    6        8.424891   0.000000
    7       12.845319   0.000000
    8       12.845361   0.000000
 
  0.5000000E+00  0.1710526E+00  0.6710526E+00  0.1000000E-01
    1       -1.860295   1.000000
    2       -1.860293   1.000000
    3        2.168659   1.000000
    4        2.168667   1.000000
    5        8.684333   0.000000
    6        8.684362   0.000000
    7       12.506695   0.000000
    8       12.506732   0.000000
 
  0.5000000E+00  0.1842105E+00  0.6842105E+00  0.1000000E-01
    1       -1.849031   1.000000
    2       -1.849030   1.000000
    3        2.113171   1.000000
    4        2.113179   1.000000
    5        8.951933   0.000000
    6        8.951963   0.000000
    7       12.170004   0.000000
    8       12.170040   0.000000
 
  0.5000000E+00  0.1973684E+00  0.6973684E+00  0.1000000E-01
    1       -1.839196   1.000000
    2       -1.839195   1.000000
    3        2.066610   1.000000
    4        2.066618   1.000000
    5        9.225488   0.000000
    6        9.225519   0.000000
    7       11.842119   0.000000
    8       11.842154   0.000000
 
  0.5000000E+00  0.2105263E+00  0.7105263E+00  0.1000000E-01
    1       -1.831166   1.000000
    2       -1.831165   1.000000
    3        2.029603   1.000000
    4        2.029612   1.000000
    5        9.501053   0.000000
    6        9.501085   0.000000
    7       11.524405   0.000000
    8       11.524438   0.000000
 
  0.5000000E+00  0.2236842E+00  0.7236842E+00  0.1000000E-01
    1       -1.825217   1.000000
    2       -1.825215   1.000000
    3        2.002742   1.000000
    4        2.002751   1.000000
    5        9.770450   0.000000
    6        9.770484   0.000000
    7       11.224972   0.000000
    8       11.225002   0.000000
 
  0.5000000E+00  0.2368421E+00  0.7368421E+00  0.1000000E-01
    1       -1.821351   1.000000
    2       -1.821350   1.000000
    3        1.986640   1.000000
    4        1.986648   1.000000
    5       10.008595   0.000000
    6       10.008630   0.000000
    7       10.969932   0.000000
    8       10.969953   0.000000
 
  0.5000000E+00  0.2500000E+00  0.7500000E+00  0.1000000E-01
    1       -1.820095   1.000000
    2       -1.820093   1.000000
    3        1.981222   1.000000
    4        1.981230   1.000000
    5       10.124265   0.000000
    6       10.124300   0.000000
    7       10.849161   0.000000
    8       10.849178   0.000000
 
  0.5000000E+00  0.2500000E+00  0.7500000E+00  0.1000000E-01
    1       -1.820095   1.000000
    2       -1.820093   1.000000
    3        1.981222   1.000000
    4        1.981230   1.000000
    5       10.124265   0.000000
    6       10.124300   0.000000
    7       10.849164   0.000000
    8       10.849185   0.000000
 
  0.4934211E+00  0.2565789E+00  0.7500000E+00  0.1000000E-01
    1       -1.879030   1.000000
    2       -1.762207   1.000000
    3        1.936707   1.000000
    4        2.031167   1.000000
    5       10.018547   0.000000
    6       10.159077   0.000000
    7       10.862359   0.000000
    8       10.913088   0.000000
 
  0.4868421E+00  0.2631579E+00  0.7500000E+00  0.1000000E-01
    1       -1.934987   1.000000
    2       -1.709628   1.000000
    3        1.894203   1.000000
    4        2.089571   1.000000
    5        9.830532   0.000000
    6       10.174369   0.000000
    7       10.964138   0.000000
    8       11.000119   0.000000
 
  0.4802632E+00  0.2697368E+00  0.7500000E+00  0.1000000E-01
    1       -1.987660   1.000000
    2       -1.662163   1.000000
    3        1.853880   1.000000
    4        2.156473   1.000000
    5        9.611201   0.000000
    6       10.175768   0.000000
    7       11.106649   0.000000
    8       11.106777   0.000000
 
  0.4736842E+00  0.2763158E+00  0.7500000E+00  0.1000000E-01
    1       -2.037452   1.000000
    2       -1.619945   1.000000
    3        1.815385   1.000000
    4        2.231134   1.000000
    5        9.381139   0.000000
    6       10.165984   0.000000
    7       11.227317   0.000000
    8       11.266969   0.000000
 
  0.4671053E+00  0.2828947E+00  0.7500000E+00  0.1000000E-01
    1       -2.083826   1.000000
    2       -1.582397   1.000000
    3        1.779489   1.000000
    4        2.312982   1.000000
    5        9.149658   0.000000
    6       10.152131   0.000000
    7       11.358115   0.000000
    8       11.438807   0.000000
 
  0.4605263E+00  0.2894737E+00  0.7500000E+00  0.1000000E-01
    1       -2.127037   1.000000
    2       -1.549440   1.000000
    3        1.745879   1.000000
    4        2.401164   1.000000
    5        8.920610   0.000000
    6       10.135062   0.000000
    7       11.496376   0.000000
    8       11.617550   0.000000
 
  0.4539474E+00  0.2960526E+00  0.7500000E+00  0.1000000E-01
    1       -2.167077   1.000000
    2       -1.520762   1.000000
    3        1.714600   1.000000
    4        2.494709   1.000000
    5        8.696405   0.000000
    6       10.116471   0.000000
    7       11.640246   0.000000
    8       11.801407   0.000000
 
  0.4473684E+00  0.3026316E+00  0.7500000E+00  0.1000000E-01
    1       -2.203932   1.000000
    2       -1.495921   1.000000
    3        1.685715   1.000000
    4        2.592704   1.000000
    5        8.479566   0.000000
    6       10.097758   0.000000
    7       11.788844   0.000000
    8       11.989519   0.000000
 
  0.4407895E+00  0.3092105E+00  0.7500000E+00  0.1000000E-01
    1       -2.237597   1.000000
    2       -1.474699   1.000000
    3        1.659216   1.000000
    4        2.693908   1.000000
    5        8.270640   0.000000
    6       10.079562   0.000000
    7       11.941305   0.000000
    8       12.183170   0.000000
 
  0.4342105E+00  0.3157895E+00  0.7500000E+00  0.1000000E-01
    1       -2.268087   1.000000
    2       -1.456793   1.000000
    3        1.635145   1.000000
    4        2.795969   1.000000
    5        8.070805   0.000000
    6       10.061786   0.000000
    7       12.095369   0.000000
    8       12.377595   0.000000
 