unknown system                          
   1.00000000000000     
     0.000000    2.715400    2.715400
     2.715400    0.000000    2.715400
     2.715400    2.715400    0.000000
   Si
     2
Direct
  0.000000  0.000000  0.000000
  0.250000  0.250000  0.250000
 
   16   16   16
 0.36942E-01 0.95540E-01 0.38144     0.69625     0.80944     0.79885     0.69587     0.54188     0.46578     0.54192    
 0.69574     0.79883     0.80970     0.69634     0.38114     0.95543E-01 0.95540E-01 0.39048     0.76570     0.88441    
 0.89622     0.84848     0.72953     0.59497     0.59491     0.72949     0.84832     0.89624     0.88466     0.76550    
 0.39036     0.95588E-01 0.38144     0.76570     0.90604     0.93020     0.91315     0.84692     0.70493     0.61246    
 0.70459     0.84703     0.91298     0.93022     0.90620     0.76567     0.38136     0.18826     0.69625     0.88441    
 0.93020     0.92959     0.89615     0.78193     0.60960     0.60927     0.78168     0.89628     0.92944     0.93019    
 0.88458     0.69628     0.40448     0.40449     0.80944     0.89622     0.91315     0.89615     0.80989     0.60666    
 0.47911     0.60658     0.80972     0.89625     0.91297     0.89625     0.80969     0.60650     0.47949     0.60663    
 0.79885     0.84848     0.84692     0.78193     0.60666     0.41739     0.41781     0.60665     0.78167     0.84704    
 0.84827     0.79882     0.66827     0.52427     0.52418     0.66804     0.69587     0.72953     0.70493     0.60960    
 0.47911     0.41781     0.47959     0.60952     0.70468     0.72961     0.69587     0.59949     0.46909     0.40887    
 0.46912     0.59964     0.54188     0.59497     0.61246     0.60927     0.60658     0.60665     0.60952     0.61245    
 0.59486     0.54172     0.45365     0.34223     0.26322     0.26335     0.34209     0.45352     0.46578     0.59491    
 0.70459     0.78168     0.80972     0.78167     0.70468     0.59486     0.46592     0.33561     0.22526     0.15062    
 0.12449     0.15049     0.22548     0.33566     0.54192     0.72949     0.84703     0.89628     0.89625     0.84704    
 0.72961     0.54172     0.33561     0.18013     0.94390E-01 0.59912E-01 0.59961E-01 0.94426E-01 0.17996     0.33563    
 0.69574     0.84832     0.91298     0.92944     0.91297     0.84827     0.69587     0.45365     0.22526     0.94390E-01
 0.42443E-01 0.30079E-01 0.42417E-01 0.94368E-01 0.22552     0.45351     0.79883     0.89624     0.93022     0.93019    
 0.89625     0.79882     0.59949     0.34223     0.15062     0.59912E-01 0.30079E-01 0.30066E-01 0.59966E-01 0.15056    
 0.34203     0.59965     0.80970     0.88466     0.90620     0.88458     0.80969     0.66827     0.46909     0.26322    
 0.12449     0.59961E-01 0.42417E-01 0.59966E-01 0.12442     0.26334     0.46917     0.66813     0.69634     0.76550    
 0.76567     0.69628     0.60650     0.52427     0.40887     0.26335     0.15049     0.94426E-01 0.94368E-01 0.15056    
 0.26334     0.40882     0.52416     0.60666     0.38114     0.39036     0.38136     0.40448     0.47949     0.52418    
 0.46912     0.34209     0.22548     0.17996     0.22552     0.34203     0.46917     0.52416     0.47956     0.40454    
 0.95543E-01 0.95588E-01 0.18826     0.40449     0.60663     0.66804     0.59964     0.45352     0.33566     0.33563    
 0.45351     0.59965     0.66813     0.60666     0.40454     0.18818     0.95524E-01 0.39041     0.76554     0.88460    
 0.89638     0.84833     0.72946     0.59486     0.59489     0.72954     0.84833     0.89623     0.88461     0.76557    
 0.39053     0.95572E-01 0.39041     0.80680     0.92865     0.94609     0.92945     0.86874     0.73062     0.63584    
 0.73052     0.86893     0.92944     0.94595     0.92864     0.80710     0.39035     0.16800     0.76554     0.92865    
 0.95803     0.95544     0.93009     0.83178     0.65373     0.65392     0.83177     0.93021     0.95544     0.95788    
 0.92871     0.76566     0.42043     0.42054     0.88460     0.94609     0.95544     0.94586     0.88467     0.67890    
 0.51541     0.67926     0.88459     0.94594     0.95546     0.94595     0.88462     0.67906     0.51541     0.67897    
 0.89638     0.92945     0.93009     0.88467     0.69603     0.40441     0.40470     0.69618     0.88456     0.93021    
 0.92944     0.89627     0.78163     0.60952     0.60953     0.78168     0.84833     0.86874     0.83178     0.67890    
 0.40441     0.27267     0.40439     0.67900     0.83172     0.86892     0.84827     0.76700     0.62025     0.53806    
 0.62011     0.76716     0.72946     0.73062     0.65373     0.51541     0.40470     0.40439     0.51534     0.65392    
 0.73051     0.72959     0.66137     0.53184     0.41754     0.41766     0.53199     0.66126     0.59486     0.63584    
 0.65392     0.67926     0.69618     0.67900     0.65392     0.63598     0.59487     0.50890     0.38982     0.27696    
 0.23142     0.27685     0.38974     0.50906     0.59489     0.73052     0.83177     0.88459     0.88456     0.83172    
 0.73051     0.59487     0.43543     0.28309     0.17325     0.11763     0.11763     0.17333     0.28314     0.43528    
 0.72954     0.86893     0.93021     0.94594     0.93021     0.86892     0.72959     0.50890     0.28309     0.13635    
 0.69555E-01 0.51732E-01 0.69577E-01 0.13625     0.28309     0.50904     0.84833     0.92944     0.95544     0.95546    
 0.92944     0.84827     0.66137     0.38982     0.17325     0.69555E-01 0.35621E-01 0.35604E-01 0.69548E-01 0.17338    
 0.38978     0.66123     0.89623     0.94595     0.95788     0.94595     0.89627     0.76700     0.53184     0.27696    
 0.11763     0.51732E-01 0.35604E-01 0.51760E-01 0.11761     0.27678     0.53198     0.76707     0.88461     0.92864    
 0.92871     0.88462     0.78163     0.62025     0.41754     0.23142     0.11763     0.69577E-01 0.69548E-01 0.11761    
 0.23149     0.41764     0.62013     0.78167     0.76557     0.80710     0.76566     0.67906     0.60952     0.53806    
 0.41766     0.27685     0.17333     0.13625     0.17338     0.27678     0.41764     0.53802     0.60964     0.67901    
 0.39053     0.39035     0.42043     0.51541     0.60953     0.62011     0.53199     0.38974     0.28314     0.28309    
 0.38978     0.53198     0.62013     0.60964     0.51525     0.42045     0.95572E-01 0.16800     0.42054     0.67897    
 0.78168     0.76716     0.66126     0.50906     0.43528     0.50904     0.66123     0.76707     0.78167     0.67901    
 0.42045     0.16813     0.38145     0.76562     0.90634     0.93021     0.91286     0.84698     0.70480     0.61246    
 0.70472     0.84703     0.91296     0.93021     0.90625     0.76574     0.38114     0.18826     0.76562     0.92876    
 0.95791     0.95532     0.93021     0.83185     0.65384     0.65396     0.83170     0.93020     0.95545     0.95789    
 0.92870     0.76553     0.42048     0.42062     0.90634     0.95791     0.96517     0.95791     0.90634     0.70801    
 0.53330     0.70809     0.90619     0.95788     0.96532     0.95788     0.90619     0.70809     0.53330     0.70801    
 0.93021     0.95532     0.95791     0.92876     0.76562     0.42062     0.42048     0.76553     0.92870     0.95789    
 0.95545     0.93020     0.83170     0.65396     0.65384     0.83185     0.91286     0.93021     0.90634     0.76562    
 0.38145     0.18826     0.38114     0.76574     0.90625     0.93021     0.91296     0.84703     0.70472     0.61246    
 0.70480     0.84698     0.84698     0.83185     0.70801     0.42062     0.18826     0.18815     0.42055     0.70817    
 0.83172     0.84699     0.79340     0.66767     0.53652     0.53642     0.66770     0.79332     0.70480     0.65384    
 0.53330     0.42048     0.38114     0.42055     0.53328     0.65383     0.70468     0.66777     0.55452     0.41309    
 0.34917     0.41320     0.55441     0.66770     0.61246     0.65396     0.70809     0.76553     0.76574     0.70817    
 0.65383     0.61256     0.53638     0.41304     0.28282     0.19969     0.19964     0.28273     0.41320     0.53642    
 0.70472     0.83170     0.90619     0.92870     0.90625     0.83172     0.70468     0.53638     0.34939     0.19961    
 0.11504     0.88597E-01 0.11508     0.19964     0.34917     0.53652     0.84703     0.93020     0.95788     0.95789    
 0.93021     0.84699     0.66777     0.41304     0.19961     0.88627E-01 0.48651E-01 0.48649E-01 0.88597E-01 0.19969    
 0.41309     0.66767     0.91296     0.95545     0.96532     0.95545     0.91296     0.79340     0.55452     0.28282    
 0.11504     0.48651E-01 0.33119E-01 0.48651E-01 0.11504     0.28282     0.55452     0.79340     0.93021     0.95789    
 0.95788     0.93020     0.84703     0.66767     0.41309     0.19969     0.88597E-01 0.48649E-01 0.48651E-01 0.88627E-01
 0.19961     0.41304     0.66777     0.84699     0.90625     0.92870     0.90619     0.83170     0.70472     0.53652    
 0.34917     0.19964     0.11508     0.88597E-01 0.11504     0.19961     0.34939     0.53638     0.70468     0.83172    
 0.76574     0.76553     0.70809     0.65396     0.61246     0.53642     0.41320     0.28273     0.19964     0.19969    
 0.28282     0.41304     0.53638     0.61256     0.65383     0.70817     0.38114     0.42048     0.53330     0.65384    
 0.70480     0.66770     0.55441     0.41320     0.34917     0.41309     0.55452     0.66777     0.70468     0.65383    
 0.53328     0.42055     0.18826     0.42062     0.70801     0.83185     0.84698     0.79332     0.66770     0.53642    
 0.53652     0.66767     0.79340     0.84699     0.83172     0.70817     0.42055     0.18815     0.69603     0.88467    
 0.93009     0.92945     0.89638     0.78168     0.60953     0.60952     0.78163     0.89627     0.92944     0.93021    
 0.88456     0.69618     0.40470     0.40441     0.88467     0.94586     0.95544     0.94609     0.88460     0.67897    
 0.51541     0.67906     0.88462     0.94595     0.95546     0.94594     0.88459     0.67926     0.51541     0.67890    
 0.93009     0.95544     0.95803     0.92865     0.76554     0.42054     0.42043     0.76566     0.92871     0.95788    
 0.95544     0.93021     0.83177     0.65392     0.65373     0.83178     0.92945     0.94609     0.92865     0.80680    
 0.39041     0.16800     0.39035     0.80710     0.92864     0.94595     0.92944     0.86893     0.73052     0.63584    
 0.73062     0.86874     0.89638     0.88460     0.76554     0.39041     0.95524E-01 0.95572E-01 0.39053     0.76557    
 0.88461     0.89623     0.84833     0.72954     0.59489     0.59486     0.72946     0.84833     0.78168     0.67897    
 0.42054     0.16800     0.95572E-01 0.16813     0.42045     0.67901     0.78167     0.76707     0.66123     0.50904    
 0.43528     0.50906     0.66126     0.76716     0.60953     0.51541     0.42043     0.39035     0.39053     0.42045    
 0.51525     0.60964     0.62013     0.53198     0.38978     0.28309     0.28314     0.38974     0.53199     0.62011    
 0.60952     0.67906     0.76566     0.80710     0.76557     0.67901     0.60964     0.53802     0.41764     0.27678    
 0.17338     0.13625     0.17333     0.27685     0.41766     0.53806     0.78163     0.88462     0.92871     0.92864    
 0.88461     0.78167     0.62013     0.41764     0.23149     0.11761     0.69548E-01 0.69577E-01 0.11763     0.23142    
 0.41754     0.62025     0.89627     0.94595     0.95788     0.94595     0.89623     0.76707     0.53198     0.27678    
 0.11761     0.51760E-01 0.35604E-01 0.51732E-01 0.11763     0.27696     0.53184     0.76700     0.92944     0.95546    
 0.95544     0.92944     0.84833     0.66123     0.38978     0.17338     0.69548E-01 0.35604E-01 0.35621E-01 0.69555E-01
 0.17325     0.38982     0.66137     0.84827     0.93021     0.94594     0.93021     0.86893     0.72954     0.50904    
 0.28309     0.13625     0.69577E-01 0.51732E-01 0.69555E-01 0.13635     0.28309     0.50890     0.72959     0.86892    
 0.88456     0.88459     0.83177     0.73052     0.59489     0.43528     0.28314     0.17333     0.11763     0.11763    
 0.17325     0.28309     0.43543     0.59487     0.73051     0.83172     0.69618     0.67926     0.65392     0.63584    
 0.59486     0.50906     0.38974     0.27685     0.23142     0.27696     0.38982     0.50890     0.59487     0.63598    
 0.65392     0.67900     0.40470     0.51541     0.65373     0.73062     0.72946     0.66126     0.53199     0.41766    
 0.41754     0.53184     0.66137     0.72959     0.73051     0.65392     0.51534     0.40439     0.40441     0.67890    
 0.83178     0.86874     0.84833     0.76716     0.62011     0.53806     0.62025     0.76700     0.84827     0.86892    
 0.83172     0.67900     0.40439     0.27267     0.80989     0.89615     0.91315     0.89622     0.80944     0.60663    
 0.47949     0.60650     0.80969     0.89625     0.91297     0.89625     0.80972     0.60658     0.47911     0.60666    
 0.89615     0.92959     0.93020     0.88441     0.69625     0.40449     0.40448     0.69628     0.88458     0.93019    
 0.92944     0.89628     0.78168     0.60927     0.60960     0.78193     0.91315     0.93020     0.90604     0.76570    
 0.38144     0.18826     0.38136     0.76567     0.90620     0.93022     0.91298     0.84703     0.70459     0.61246    
 0.70493     0.84692     0.89622     0.88441     0.76570     0.39048     0.95540E-01 0.95588E-01 0.39036     0.76550    
 0.88466     0.89624     0.84832     0.72949     0.59491     0.59497     0.72953     0.84848     0.80944     0.69625    
 0.38144     0.95540E-01 0.36942E-01 0.95543E-01 0.38114     0.69634     0.80970     0.79883     0.69574     0.54192    
 0.46578     0.54188     0.69587     0.79885     0.60663     0.40449     0.18826     0.95588E-01 0.95543E-01 0.18818    
 0.40454     0.60666     0.66813     0.59965     0.45351     0.33563     0.33566     0.45352     0.59964     0.66804    
 0.47949     0.40448     0.38136     0.39036     0.38114     0.40454     0.47956     0.52416     0.46917     0.34203    
 0.22552     0.17996     0.22548     0.34209     0.46912     0.52418     0.60650     0.69628     0.76567     0.76550    
 0.69634     0.60666     0.52416     0.40882     0.26334     0.15056     0.94368E-01 0.94426E-01 0.15049     0.26335    
 0.40887     0.52427     0.80969     0.88458     0.90620     0.88466     0.80970     0.66813     0.46917     0.26334    
 0.12442     0.59966E-01 0.42417E-01 0.59961E-01 0.12449     0.26322     0.46909     0.66827     0.89625     0.93019    
 0.93022     0.89624     0.79883     0.59965     0.34203     0.15056     0.59966E-01 0.30066E-01 0.30079E-01 0.59912E-01
 0.15062     0.34223     0.59949     0.79882     0.91297     0.92944     0.91298     0.84832     0.69574     0.45351    
 0.22552     0.94368E-01 0.42417E-01 0.30079E-01 0.42443E-01 0.94390E-01 0.22526     0.45365     0.69587     0.84827    
 0.89625     0.89628     0.84703     0.72949     0.54192     0.33563     0.17996     0.94426E-01 0.59961E-01 0.59912E-01
 0.94390E-01 0.18013     0.33561     0.54172     0.72961     0.84704     0.80972     0.78168     0.70459     0.59491    
 0.46578     0.33566     0.22548     0.15049     0.12449     0.15062     0.22526     0.33561     0.46592     0.59486    
 0.70468     0.78167     0.60658     0.60927     0.61246     0.59497     0.54188     0.45352     0.34209     0.26335    
 0.26322     0.34223     0.45365     0.54172     0.59486     0.61245     0.60952     0.60665     0.47911     0.60960    
 0.70493     0.72953     0.69587     0.59964     0.46912     0.40887     0.46909     0.59949     0.69587     0.72961    
 0.70468     0.60952     0.47959     0.41781     0.60666     0.78193     0.84692     0.84848     0.79885     0.66804    
 0.52418     0.52427     0.66827     0.79882     0.84827     0.84704     0.78167     0.60665     0.41781     0.41739    
 0.79846     0.84844     0.84674     0.78170     0.60685     0.41772     0.41769     0.60657     0.78167     0.84704    
 0.84828     0.79882     0.66819     0.52415     0.52475     0.66808     0.84844     0.86862     0.83175     0.67937    
 0.40440     0.27244     0.40447     0.67902     0.83172     0.86893     0.84827     0.76696     0.62019     0.53846    
 0.62006     0.76666     0.84674     0.83175     0.70836     0.42049     0.18822     0.18825     0.42042     0.70813    
 0.83180     0.84698     0.79338     0.66764     0.53673     0.53639     0.66739     0.79352     0.78170     0.67937    
 0.42049     0.16799     0.95576E-01 0.16801     0.42054     0.67923     0.78161     0.76702     0.66124     0.50911    
 0.43530     0.50889     0.66131     0.76681     0.60685     0.40440     0.18822     0.95576E-01 0.95520E-01 0.18827    
 0.40467     0.60647     0.66808     0.59967     0.45354     0.33561     0.33561     0.45348     0.59952     0.66818    
 0.41772     0.27244     0.18825     0.16801     0.18827     0.27268     0.41754     0.51576     0.48813     0.36747    
 0.24685     0.19828     0.24681     0.36752     0.48798     0.51602     0.41769     0.40447     0.42042     0.42054    
 0.40467     0.41754     0.44032     0.39747     0.28302     0.17355     0.11272     0.11280     0.17344     0.28314    
 0.39742     0.44035     0.60657     0.67902     0.70813     0.67923     0.60647     0.51576     0.39747     0.24971    
 0.13176     0.69404E-01 0.50577E-01 0.69394E-01 0.13179     0.24958     0.39757     0.51585     0.78167     0.83172    
 0.83180     0.78161     0.66808     0.48813     0.28302     0.13176     0.56570E-01 0.29503E-01 0.29512E-01 0.56556E-01
 0.13188     0.28291     0.48793     0.66828     0.84704     0.86893     0.84698     0.76702     0.59967     0.36747    
 0.17355     0.69404E-01 0.29503E-01 0.20257E-01 0.29503E-01 0.69349E-01 0.17356     0.36774     0.59946     0.76703    
 0.84828     0.84827     0.79338     0.66124     0.45354     0.24685     0.11272     0.50577E-01 0.29512E-01 0.29503E-01
 0.50629E-01 0.11273     0.24659     0.45362     0.66133     0.79334     0.79882     0.76696     0.66764     0.50911    
 0.33561     0.19828     0.11280     0.69394E-01 0.56556E-01 0.69349E-01 0.11273     0.19854     0.33559     0.50888    
 0.66770     0.76703     0.66819     0.62019     0.53673     0.43530     0.33561     0.24681     0.17344     0.13179    
 0.13188     0.17356     0.24659     0.33559     0.43549     0.53648     0.62019     0.66830     0.52415     0.53846    
 0.53639     0.50889     0.45348     0.36752     0.28314     0.24958     0.28291     0.36774     0.45362     0.50888    
 0.53648     0.53809     0.52419     0.51574     0.52475     0.62006     0.66739     0.66131     0.59952     0.48798    
 0.39742     0.39757     0.48793     0.59946     0.66133     0.66770     0.62019     0.52419     0.44009     0.44024    
 0.66808     0.76666     0.79352     0.76681     0.66818     0.51602     0.44035     0.51585     0.66828     0.76703    
 0.79334     0.76703     0.66830     0.51574     0.44024     0.51656     0.69638     0.72938     0.70507     0.60958    
 0.47925     0.41774     0.47956     0.60953     0.70470     0.72961     0.69585     0.59948     0.46921     0.40901    
 0.46818     0.59982     0.72938     0.73093     0.65385     0.51512     0.40450     0.40453     0.51539     0.65395    
 0.73050     0.72953     0.66139     0.53189     0.41764     0.41706     0.53208     0.66184     0.70507     0.65385    
 0.53292     0.42050     0.38141     0.42045     0.53331     0.65381     0.70457     0.66779     0.55458     0.41309    
 0.34893     0.41320     0.55489     0.66756     0.60958     0.51512     0.42050     0.39045     0.39033     0.42063    
 0.51530     0.60938     0.62024     0.53202     0.38979     0.28298     0.28315     0.38993     0.53194     0.62037    
 0.47925     0.40450     0.38141     0.39033     0.38142     0.40445     0.47915     0.52435     0.46928     0.34201    
 0.22550     0.17995     0.22554     0.34208     0.46928     0.52416     0.41774     0.40453     0.42045     0.42063    
 0.40445     0.41731     0.44064     0.39761     0.28299     0.17353     0.11272     0.11280     0.17345     0.28315    
 0.39740     0.44025     0.47956     0.51539     0.53331     0.51530     0.47915     0.44064     0.36640     0.24364    
 0.13478     0.73744E-01 0.54453E-01 0.73732E-01 0.13479     0.24369     0.36636     0.44022     0.60953     0.65395    
 0.65381     0.60938     0.52435     0.39761     0.24364     0.12082     0.55924E-01 0.30614E-01 0.30625E-01 0.55920E-01
 0.12080     0.24362     0.39759     0.52418     0.70470     0.73050     0.70457     0.62024     0.46928     0.28299    
 0.13478     0.55924E-01 0.24533E-01 0.16849E-01 0.24524E-01 0.55945E-01 0.13484     0.28299     0.46905     0.62020    
 0.72961     0.72953     0.66779     0.53202     0.34201     0.17353     0.73744E-01 0.30614E-01 0.16849E-01 0.16854E-01
 0.30615E-01 0.73660E-01 0.17358     0.34225     0.53188     0.66770     0.69585     0.66139     0.55458     0.38979    
 0.22550     0.11272     0.54453E-01 0.30625E-01 0.24524E-01 0.30615E-01 0.54515E-01 0.11274     0.22528     0.38990    
 0.55460     0.66134     0.59948     0.53189     0.41309     0.28298     0.17995     0.11280     0.73732E-01 0.55920E-01
 0.55945E-01 0.73660E-01 0.11274     0.18013     0.28307     0.41299     0.53187     0.59945     0.46921     0.41764    
 0.34893     0.28315     0.22554     0.17345     0.13479     0.12080     0.13484     0.17358     0.22528     0.28307    
 0.34928     0.41760     0.46905     0.48790     0.40901     0.41706     0.41320     0.38993     0.34208     0.28315    
 0.24369     0.24362     0.28299     0.34225     0.38990     0.41299     0.41760     0.40900     0.39755     0.39775    
 0.46818     0.53208     0.55489     0.53194     0.46928     0.39740     0.36636     0.39759     0.46905     0.53188    
 0.55460     0.53187     0.46905     0.39755     0.36656     0.39756     0.59982     0.66184     0.66756     0.62037    
 0.52416     0.44025     0.44022     0.52418     0.62020     0.66770     0.66134     0.59945     0.48790     0.39775    
 0.39756     0.48686     0.54112     0.59507     0.61213     0.60952     0.60673     0.60657     0.60948     0.61244    
 0.59484     0.54172     0.45369     0.34224     0.26309     0.26319     0.34334     0.45329     0.59507     0.63554    
 0.65390     0.67938     0.69624     0.67895     0.65393     0.63590     0.59490     0.50897     0.38983     0.27688    
 0.23133     0.27755     0.38964     0.50839     0.61213     0.65390     0.70841     0.76565     0.76556     0.70815    
 0.65372     0.61260     0.53660     0.41297     0.28279     0.19965     0.19991     0.28269     0.41274     0.53653    
 0.60952     0.67938     0.76565     0.80685     0.76569     0.67889     0.60967     0.53841     0.41749     0.27671    
 0.17340     0.13630     0.17335     0.27664     0.41773     0.53779     0.60673     0.69624     0.76556     0.76569    
 0.69607     0.60661     0.52475     0.40855     0.26322     0.15056     0.94395E-01 0.94413E-01 0.15047     0.26333    
 0.40876     0.52426     0.60657     0.67895     0.70815     0.67889     0.60661     0.51653     0.39711     0.24951    
 0.13178     0.69415E-01 0.50576E-01 0.69390E-01 0.13179     0.24956     0.39759     0.51596     0.60948     0.65393    
 0.65372     0.60967     0.52475     0.39711     0.24343     0.12085     0.55926E-01 0.30614E-01 0.30625E-01 0.55918E-01
 0.12080     0.24361     0.39760     0.52417     0.61244     0.63590     0.61260     0.53841     0.40855     0.24951    
 0.12085     0.51576E-01 0.23326E-01 0.16148E-01 0.23317E-01 0.51610E-01 0.12074     0.24958     0.40899     0.53808    
 0.59484     0.59490     0.53660     0.41749     0.26322     0.13178     0.55926E-01 0.23326E-01 0.12689E-01 0.12696E-01
 0.23313E-01 0.55946E-01 0.13184     0.26319     0.41761     0.53647     0.54172     0.50897     0.41297     0.27671    
 0.15056     0.69415E-01 0.30614E-01 0.16148E-01 0.12696E-01 0.16151E-01 0.30618E-01 0.69344E-01 0.15057     0.27691    
 0.41299     0.50888     0.45369     0.38983     0.28279     0.17340     0.94395E-01 0.50576E-01 0.30625E-01 0.23317E-01
 0.23313E-01 0.30618E-01 0.50625E-01 0.94386E-01 0.17325     0.28285     0.38990     0.45362     0.34224     0.27688    
 0.19965     0.13630     0.94413E-01 0.69390E-01 0.55918E-01 0.51610E-01 0.55946E-01 0.69344E-01 0.94386E-01 0.13638    
 0.19964     0.27690     0.34226     0.36775     0.26309     0.23133     0.19991     0.17335     0.15047     0.13179    
 0.12080     0.12074     0.13184     0.15057     0.17325     0.19964     0.23140     0.26320     0.28298     0.28294    
 0.26319     0.27755     0.28269     0.27664     0.26333     0.24956     0.24361     0.24958     0.26319     0.27691    
 0.28285     0.27690     0.26320     0.24957     0.24366     0.24937     0.34334     0.38964     0.41274     0.41773    
 0.40876     0.39759     0.39760     0.40899     0.41761     0.41299     0.38990     0.34226     0.28298     0.24366    
 0.24344     0.28294     0.45329     0.50839     0.53653     0.53779     0.52426     0.51596     0.52417     0.53808    
 0.53647     0.50888     0.45362     0.36775     0.28294     0.24937     0.28294     0.36908     0.46648     0.59471    
 0.70504     0.78165     0.80948     0.78168     0.70475     0.59486     0.46595     0.33561     0.22524     0.15061    
 0.12460     0.15065     0.22429     0.33578     0.59471     0.73085     0.83172     0.88441     0.88459     0.83182    
 0.73049     0.59497     0.43541     0.28300     0.17327     0.11768     0.11770     0.17272     0.28320     0.43595    
 0.70504     0.83172     0.90604     0.92869     0.90634     0.83168     0.70487     0.53630     0.34913     0.19965    
 0.11509     0.88605E-01 0.11490     0.19962     0.34962     0.53636     0.78165     0.88441     0.92869     0.92875    
 0.88457     0.78190     0.62005     0.41704     0.23165     0.11765     0.69551E-01 0.69528E-01 0.11763     0.23158    
 0.41751     0.62052     0.80948     0.88459     0.90634     0.88457     0.80991     0.66808     0.46821     0.26366    
 0.12452     0.59961E-01 0.42407E-01 0.59959E-01 0.12454     0.26321     0.46924     0.66825     0.78168     0.83182    
 0.83168     0.78190     0.66808     0.48702     0.28345     0.13196     0.56555E-01 0.29500E-01 0.29514E-01 0.56556E-01
 0.13188     0.28294     0.48793     0.66816     0.70475     0.73049     0.70487     0.62005     0.46821     0.28345    
 0.13500     0.55906E-01 0.24530E-01 0.16850E-01 0.24524E-01 0.55947E-01 0.13484     0.28299     0.46903     0.62020    
 0.59486     0.59497     0.53630     0.41704     0.26366     0.13196     0.55906E-01 0.23329E-01 0.12688E-01 0.12697E-01
 0.23312E-01 0.55948E-01 0.13184     0.26321     0.41762     0.53650     0.46595     0.43541     0.34913     0.23165    
 0.12452     0.56555E-01 0.24530E-01 0.12688E-01 0.98920E-02 0.12691E-01 0.24525E-01 0.56570E-01 0.12453     0.23141    
 0.34927     0.43550     0.33561     0.28300     0.19965     0.11765     0.59961E-01 0.29500E-01 0.16850E-01 0.12697E-01
 0.12691E-01 0.16855E-01 0.29500E-01 0.59931E-01 0.11765     0.19965     0.28308     0.33559     0.22524     0.17327    
 0.11509     0.69551E-01 0.42407E-01 0.29514E-01 0.24524E-01 0.23312E-01 0.24525E-01 0.29500E-01 0.42448E-01 0.69546E-01
 0.11501     0.17324     0.22527     0.24659     0.15061     0.11768     0.88605E-01 0.69528E-01 0.59959E-01 0.56556E-01
 0.55947E-01 0.55948E-01 0.56570E-01 0.59931E-01 0.69546E-01 0.88649E-01 0.11765     0.15058     0.17358     0.17355    
 0.12460     0.11770     0.11490     0.11763     0.12454     0.13188     0.13484     0.13184     0.12453     0.11765    
 0.11501     0.11765     0.12454     0.13183     0.13485     0.13184     0.15065     0.17272     0.19962     0.23158    
 0.26321     0.28294     0.28299     0.26321     0.23141     0.19965     0.17324     0.15058     0.13183     0.12076    
 0.12077     0.13199     0.22429     0.28320     0.34962     0.41751     0.46924     0.48793     0.46903     0.41762    
 0.34927     0.28308     0.22527     0.17358     0.13485     0.12077     0.13502     0.17365     0.33578     0.43595    
 0.53636     0.62052     0.66825     0.66816     0.62020     0.53650     0.43550     0.33559     0.24659     0.17355    
 0.13184     0.13199     0.17365     0.24538     0.54115     0.72973     0.84678     0.89627     0.89640     0.84704    
 0.72952     0.54171     0.33557     0.18013     0.94413E-01 0.59917E-01 0.59893E-01 0.94286E-01 0.18098     0.33559    
 0.72973     0.86866     0.93021     0.94608     0.93020     0.86879     0.72963     0.50873     0.28314     0.13640    
 0.69555E-01 0.51702E-01 0.69520E-01 0.13677     0.28311     0.50837     0.84678     0.93021     0.95801     0.95788    
 0.93010     0.84706     0.66747     0.41312     0.19987     0.88599E-01 0.48637E-01 0.48634E-01 0.88763E-01 0.19971    
 0.41263     0.66779     0.89627     0.94608     0.95788     0.94585     0.89630     0.76669     0.53209     0.27749    
 0.11750     0.51729E-01 0.35606E-01 0.51760E-01 0.11765     0.27676     0.53191     0.76676     0.89640     0.93020    
 0.93010     0.89630     0.79844     0.59976     0.34326     0.15030     0.59899E-01 0.30070E-01 0.30089E-01 0.59907E-01
 0.15059     0.34221     0.59935     0.79882     0.84704     0.86879     0.84706     0.76669     0.59976     0.36897    
 0.17316     0.69280E-01 0.29510E-01 0.20260E-01 0.29501E-01 0.69347E-01 0.17356     0.36772     0.59947     0.76715    
 0.72952     0.72963     0.66747     0.53209     0.34326     0.17316     0.73560E-01 0.30629E-01 0.16847E-01 0.16856E-01
 0.30613E-01 0.73662E-01 0.17358     0.34225     0.53189     0.66770     0.54171     0.50873     0.41312     0.27749    
 0.15030     0.69280E-01 0.30629E-01 0.16148E-01 0.12697E-01 0.16150E-01 0.30617E-01 0.69346E-01 0.15057     0.27691    
 0.41298     0.50887     0.33557     0.28314     0.19987     0.11750     0.59899E-01 0.29510E-01 0.16847E-01 0.12697E-01
 0.12690E-01 0.16856E-01 0.29500E-01 0.59932E-01 0.11765     0.19964     0.28307     0.33558     0.18013     0.13640    