 vasp.5.4.1 05Feb16 (build Mar 02 2016 14:09:44) complex                        
  
 executed on   Abel-impi-ifc-cuda date 2019.09.27  09:47:05
 running on    4 total cores
 distrk:  each k-point on    4 cores,    1 groups
 distr:  one band on NCORES_PER_BAND=   4 cores,    1 groups


--------------------------------------------------------------------------------------------------------


 INCAR:
 POTCAR:   PAW_PBE Si 05Jan2001                   
 POTCAR:   PAW_PBE Si 05Jan2001                   
   VRHFIN =Si: s2p2                                                             
   LEXCH  = PE                                                                  
   EATOM  =   103.0669 eV,    7.5752 Ry                                         
                                                                                
   TITEL  = PAW_PBE Si 05Jan2001                                                
   LULTRA =        F    use ultrasoft PP ?                                      
   IUNSCR =        1    unscreen: 0-lin 1-nonlin 2-no                           
   RPACOR =    1.500    partial core radius                                     
   POMASS =   28.085; ZVAL   =    4.000    mass and valenz                      
   RCORE  =    1.900    outmost cutoff radius                                   
   RWIGS  =    2.480; RWIGS  =    1.312    wigner-seitz radius (au A)           
   ENMAX  =  245.345; ENMIN  =  184.009 eV                                      
   ICORE  =        2    local potential                                         
   LCOR   =        T    correct aug charges                                     
   LPAW   =        T    paw PP                                                  
   EAUG   =  322.069                                                            
   DEXC   =    -.007                                                            
   RMAX   =    2.944    core radius for proj-oper                               
   RAUG   =    1.300    factor for augmentation sphere                          
   RDEP   =    1.993    radius for radial grids                                 
   QCUT   =   -4.246; QGAM   =    8.493    optimization parameters              
                                                                                
   Description                                                                  
     l     E      TYP  RCUT    TYP  RCUT                                        
     0   .000     23  1.900                                                     
     0   .000     23  1.900                                                     
     1   .000     23  1.900                                                     
     1   .000     23  1.900                                                     
     2   .000      7  1.900                                                     
  local pseudopotential read in
  partial core-charges read in
  atomic valenz-charges read in
  non local Contribution for L=           0  read in
    real space projection operators read in
  non local Contribution for L=           0  read in
    real space projection operators read in
  non local Contribution for L=           1  read in
    real space projection operators read in
  non local Contribution for L=           1  read in
    real space projection operators read in
    PAW grid and wavefunctions read in
 
   number of l-projection  operators is LMAX  =           4
   number of lm-projection operators is LMMAX =           8
 

 ----------------------------------------------------------------------------- 
|                                                                             |
|  ADVICE TO THIS USER RUNNING 'VASP/VAMP'   (HEAR YOUR MASTER'S VOICE ...):  |
|                                                                             |
|      You have a (more or less) 'small supercell' and for smaller cells      |
|      it is recommended  to use the reciprocal-space projection scheme!      |
|      The real space optimization is not  efficient for small cells and it   |
|      is also less accurate ...                                              |
|      Therefore set LREAL=.FALSE. in the  INCAR file                         |
|                                                                             |
 ----------------------------------------------------------------------------- 

 Optimization of the real space projectors (new method)

 maximal supplied QI-value         = 19.84
 optimisation between [QCUT,QGAM] = [  7.94, 16.07] = [ 17.64, 72.34] Ry 
 Optimized for a Real-space Cutoff    1.55 Angstroem

   l    n(q)    QCUT    max X(q) W(low)/X(q) W(high)/X(q)  e(spline) 
   0      7     7.937     8.708    0.25E-04    0.20E-04    0.11E-07
   0      7     7.937   106.241    0.95E-04    0.31E-03    0.13E-06
   1      7     7.937     5.901    0.19E-04    0.32E-04    0.50E-07
   1      7     7.937    73.241    0.39E-03    0.64E-03    0.12E-06
 PAW_PBE Si 05Jan2001                   :
 energy of atom  1       EATOM= -103.0669
 kinetic energy error for atom=    0.0052 (will be added to EATOM!!)
 
 
 POSCAR: Si_bulk_icsd_60385                      
  positions in direct lattice
  velocities in cartesian coordinates
 exchange correlation table for  LEXCH =        8
   RHO(1)=    0.500       N(1)  =     2000
   RHO(2)=  100.500       N(2)  =     4000
 


--------------------------------------------------------------------------------------------------------


 ion  position               nearest neighbor table
   1  0.000  0.000  0.000-   2 2.35   2 2.35   2 2.35   2 2.35
   2  0.250  0.250  0.250-   1 2.35   1 2.35   1 2.35   1 2.35
 
  LATTYP: Found a face centered cubic cell.
 ALAT       =     5.4308000000
  
  Lattice vectors:
  
 A1 = (   0.0000000000,   2.7154000000,   2.7154000000)
 A2 = (   2.7154000000,   0.0000000000,   2.7154000000)
 A3 = (   2.7154000000,   2.7154000000,   0.0000000000)


Analysis of symmetry for initial positions (statically):
=====================================================================
 Subroutine PRICEL returns:
 Original cell was already a primitive cell.
 

 Routine SETGRP: Setting up the symmetry group for a 
 face centered cubic supercell.


 Subroutine GETGRP returns: Found 48 space group operations
 (whereof 24 operations were pure point group operations)
 out of a pool of 48 trial point group operations.


The static configuration has the point symmetry T_d .
 The point group associated with its full space group is O_h .


Analysis of symmetry for dynamics (positions and initial velocities):
=====================================================================
 Subroutine PRICEL returns:
 Original cell was already a primitive cell.
 

 Routine SETGRP: Setting up the symmetry group for a 
 face centered cubic supercell.


 Subroutine GETGRP returns: Found 48 space group operations
 (whereof 24 operations were pure point group operations)
 out of a pool of 48 trial point group operations.


The dynamic configuration has the point symmetry T_d .
 The point group associated with its full space group is O_h .


 Subroutine INISYM returns: Found 48 space group operations
 (whereof 24 operations are pure point group operations),
 and found     1 'primitive' translations

 
 
 KPOINTS: k-points along fcc high symmetry lines  
  interpolating k-points between supplied coordinates
  k-points in reciprocal lattice
Space group operators:
 irot       det(A)        alpha          n_x          n_y          n_z        tau_x        tau_y        tau_z
    1     1.000000     0.000000     1.000000     0.000000     0.000000     0.000000     0.000000     0.000000
    2     1.000000   120.000000    -0.577350    -0.577350    -0.577350     0.000000     0.000000     0.000000
    3     1.000000   120.000000     0.577350     0.577350     0.577350     0.000000     0.000000     0.000000
    4    -1.000000    90.000000     0.000000     0.000000    -1.000000     0.000000     0.000000     0.000000
    5    -1.000000   180.000000     0.000000     0.707107     0.707107     0.000000     0.000000     0.000000
    6    -1.000000    90.000000     0.000000     1.000000     0.000000     0.000000     0.000000     0.000000
    7     1.000000   180.000000     0.000000     0.000000     1.000000     0.000000     0.000000     0.000000
    8     1.000000   120.000000    -0.577350     0.577350     0.577350     0.000000     0.000000     0.000000
    9     1.000000   120.000000    -0.577350     0.577350    -0.577350     0.000000     0.000000     0.000000
   10    -1.000000    90.000000     0.000000     0.000000     1.000000     0.000000     0.000000     0.000000
   11    -1.000000    90.000000    -1.000000     0.000000     0.000000     0.000000     0.000000     0.000000
   12    -1.000000   180.000000     0.707107     0.000000     0.707107     0.000000     0.000000     0.000000
   13     1.000000   120.000000     0.577350    -0.577350     0.577350     0.000000     0.000000     0.000000
   14     1.000000   120.000000    -0.577350    -0.577350     0.577350     0.000000     0.000000     0.000000
   15     1.000000   180.000000     1.000000     0.000000     0.000000     0.000000     0.000000     0.000000
   16    -1.000000    90.000000     0.000000    -1.000000     0.000000     0.000000     0.000000     0.000000
   17    -1.000000   180.000000     0.707107     0.707107     0.000000     0.000000     0.000000     0.000000
   18    -1.000000    90.000000     1.000000     0.000000     0.000000     0.000000     0.000000     0.000000
   19     1.000000   120.000000     0.577350    -0.577350    -0.577350     0.000000     0.000000     0.000000
   20     1.000000   180.000000     0.000000     1.000000     0.000000     0.000000     0.000000     0.000000
   21     1.000000   120.000000     0.577350     0.577350    -0.577350     0.000000     0.000000     0.000000
   22    -1.000000   180.000000     0.000000    -0.707107     0.707107     0.000000     0.000000     0.000000
   23    -1.000000   180.000000     0.707107    -0.707107     0.000000     0.000000     0.000000     0.000000
   24    -1.000000   180.000000     0.707107     0.000000    -0.707107     0.000000     0.000000     0.000000
   25    -1.000000     0.000000     1.000000     0.000000     0.000000     0.250000     0.250000     0.250000
   26    -1.000000   120.000000    -0.577350    -0.577350    -0.577350     0.250000     0.250000     0.250000
   27    -1.000000   120.000000     0.577350     0.577350     0.577350     0.250000     0.250000     0.250000
   28     1.000000    90.000000     0.000000     0.000000    -1.000000     0.250000     0.250000     0.250000
   29     1.000000   180.000000     0.000000     0.707107     0.707107     0.250000     0.250000     0.250000
   30     1.000000    90.000000     0.000000     1.000000     0.000000     0.250000     0.250000     0.250000
   31    -1.000000   180.000000     0.000000     0.000000     1.000000     0.250000     0.250000     0.250000
   32    -1.000000   120.000000    -0.577350     0.577350     0.577350     0.250000     0.250000     0.250000
   33    -1.000000   120.000000    -0.577350     0.577350    -0.577350     0.250000     0.250000     0.250000
   34     1.000000    90.000000     0.000000     0.000000     1.000000     0.250000     0.250000     0.250000
   35     1.000000    90.000000    -1.000000     0.000000     0.000000     0.250000     0.250000     0.250000
   36     1.000000   180.000000     0.707107     0.000000     0.707107     0.250000     0.250000     0.250000
   37    -1.000000   120.000000     0.577350    -0.577350     0.577350     0.250000     0.250000     0.250000
   38    -1.000000   120.000000    -0.577350    -0.577350     0.577350     0.250000     0.250000     0.250000
   39    -1.000000   180.000000     1.000000     0.000000     0.000000     0.250000     0.250000     0.250000
   40     1.000000    90.000000     0.000000    -1.000000     0.000000     0.250000     0.250000     0.250000
   41     1.000000   180.000000     0.707107     0.707107     0.000000     0.250000     0.250000     0.250000
   42     1.000000    90.000000     1.000000     0.000000     0.000000     0.250000     0.250000     0.250000
   43    -1.000000   120.000000     0.577350    -0.577350    -0.577350     0.250000     0.250000     0.250000
   44    -1.000000   180.000000     0.000000     1.000000     0.000000     0.250000     0.250000     0.250000
   45    -1.000000   120.000000     0.577350     0.577350    -0.577350     0.250000     0.250000     0.250000
   46     1.000000   180.000000     0.000000    -0.707107     0.707107     0.250000     0.250000     0.250000
   47     1.000000   180.000000     0.707107    -0.707107     0.000000     0.250000     0.250000     0.250000
   48     1.000000   180.000000     0.707107     0.000000    -0.707107     0.250000     0.250000     0.250000


--------------------------------------------------------------------------------------------------------




 Dimension of arrays:
   k-points           NKPTS =    100   k-points in BZ     NKDIM =    100   number of bands    NBANDS=      8
   number of dos      NEDOS =   2401   number of ions     NIONS =      2
   non local maximal  LDIM  =      4   non local SUM 2l+1 LMDIM =      8
   total plane-waves  NPLWV =   4096
   max r-space proj   IRMAX =   1650   max aug-charges    IRDMAX=   3619
   dimension x,y,z NGX =    16 NGY =   16 NGZ =   16
   dimension x,y,z NGXF=    32 NGYF=   32 NGZF=   32
   support grid    NGXF=    32 NGYF=   32 NGZF=   32
   ions per type =               2
 NGX,Y,Z   is equivalent  to a cutoff of   6.93,  6.93,  6.93 a.u.
 NGXF,Y,Z  is equivalent  to a cutoff of  13.85, 13.85, 13.85 a.u.


 I would recommend the setting:
   dimension x,y,z NGX =    15 NGY =   15 NGZ =   15
 SYSTEM =  unknown system                          
 POSCAR =  Si_bulk_icsd_60385                      

 Startparameter for this run:
   NWRITE =      2    write-flag & timer
   PREC   = normal    normal or accurate (medium, high low for compatibility)
   ISTART =      0    job   : 0-new  1-cont  2-samecut
   ICHARG =     11    charge: 1-file 2-atom 10-const
   ISPIN  =      1    spin polarized calculation?
   LNONCOLLINEAR =      F non collinear calculations
   LSORBIT =      F    spin-orbit coupling
   INIWAV =      1    electr: 0-lowe 1-rand  2-diag
   LASPH  =      F    aspherical Exc in radial PAW
   METAGGA=      F    non-selfconsistent MetaGGA calc.

 Electronic Relaxation 1
   ENCUT  =  250.0 eV  18.37 Ry    4.29 a.u.   4.95  4.95  4.95*2*pi/ulx,y,z
   ENINI  =  250.0     initial cutoff
   ENAUG  =  322.1 eV  augmentation charge cutoff
   NELM   =     60;   NELMIN=  4; NELMDL= -5     # of ELM steps 
   EDIFF  = 0.1E-05   stopping-criterion for ELM
   LREAL  =      T    real-space projection
   NLSPLINE    = F    spline interpolate recip. space projectors
   LCOMPAT=      F    compatible to vasp.4.4
   GGA_COMPAT  = T    GGA compatible to vasp.4.4-vasp.4.6
   LMAXPAW     = -100 max onsite density
   LMAXMIX     =    2 max onsite mixed and CHGCAR
   VOSKOWN=      0    Vosko Wilk Nusair interpolation
   ROPT   =   -0.00050
 Ionic relaxation
   EDIFFG = 0.1E-04   stopping-criterion for IOM
   NSW    =      0    number of steps for IOM
   NBLOCK =      1;   KBLOCK =      1    inner block; outer block 
   IBRION =     -1    ionic relax: 0-MD 1-quasi-New 2-CG
   NFREE  =      0    steps in history (QN), initial steepest desc. (CG)
   ISIF   =      2    stress and relaxation
   IWAVPR =     10    prediction:  0-non 1-charg 2-wave 3-comb
   ISYM   =      2    0-nonsym 1-usesym 2-fastsym
   LCORR  =      T    Harris-Foulkes like correction to forces

   POTIM  = 0.5000    time-step for ionic-motion
   TEIN   =    0.0    initial temperature
   TEBEG  =    0.0;   TEEND  =   0.0 temperature during run
   SMASS  =  -3.00    Nose mass-parameter (am)
   estimated Nose-frequenzy (Omega)   =  0.10E-29 period in steps =****** mass=  -0.337E-27a.u.
   SCALEE = 1.0000    scale energy and forces
   NPACO  =    256;   APACO  = 16.0  distance and # of slots for P.C.
   PSTRESS=    0.0 pullay stress

  Mass of Ions in am
   POMASS =  28.09
  Ionic Valenz
   ZVAL   =   4.00
  Atomic Wigner-Seitz radii
   RWIGS  =  -1.00
  virtual crystal weights 
   VCA    =   1.00
   NELECT =       8.0000    total number of electrons
   NUPDOWN=      -1.0000    fix difference up-down

 DOS related values:
   EMIN   = -12.00;   EMAX   = 12.00  energy-range for DOS
   EFERMI =   0.00
   ISMEAR =     0;   SIGMA  =   0.20  broadening in eV -4-tet -1-fermi 0-gaus

 Electronic relaxation 2 (details)
   IALGO  =     68    algorithm
   LDIAG  =      T    sub-space diagonalisation (order eigenvalues)
   LSUBROT=      F    optimize rotation matrix (better conditioning)
   TURBO    =      0    0=normal 1=particle mesh
   IRESTART =      0    0=no restart 2=restart with 2 vectors
   NREBOOT  =      0    no. of reboots
   NMIN     =      0    reboot dimension
   EREF     =   0.00    reference energy to select bands
   IMIX   =      4    mixing-type and parameters
     AMIX     =   0.40;   BMIX     =  1.00
     AMIX_MAG =   1.60;   BMIX_MAG =  1.00
     AMIN     =   0.10
     WC   =   100.;   INIMIX=   1;  MIXPRE=   1;  MAXMIX= -45

 Intra band minimization:
   WEIMIN = 0.0000     energy-eigenvalue tresh-hold
   EBREAK =  0.31E-07  absolut break condition
   DEPER  =   0.30     relativ break condition  

   TIME   =   0.40     timestep for ELM

  volume/ion in A,a.u.               =      20.02       135.11
  Fermi-wavevector in a.u.,A,eV,Ry     =   0.957035  1.808533 12.461786  0.915915
  Thomas-Fermi vector in A             =   2.086016
 
 Write flags
   LWAVE  =      F    write WAVECAR
   LCHARG =      T    write CHGCAR
   LVTOT  =      F    write LOCPOT, total local potential
   LVHAR  =      F    write LOCPOT, Hartree potential only
   LELF   =      T    write electronic localiz. function (ELF)
   LORBIT =     11    0 simple, 1 ext, 2 COOP (PROOUT)


 Dipole corrections
   LMONO  =      F    monopole corrections only (constant potential shift)
   LDIPOL =      F    correct potential (dipole corrections)
   IDIPOL =      0    1-x, 2-y, 3-z, 4-all directions 
   EPSILON=  1.0000000 bulk dielectric constant

 Exchange correlation treatment:
   GGA     =    --    GGA type
   LEXCH   =     8    internal setting for exchange type
   VOSKOWN=      0    Vosko Wilk Nusair interpolation
   LHFCALC =     F    Hartree Fock is set to
   LHFONE  =     F    Hartree Fock one center treatment
   AEXX    =    0.0000 exact exchange contribution

 Linear response parameters
   LEPSILON=     F    determine dielectric tensor
   LRPA    =     F    only Hartree local field effects (RPA)
   LNABLA  =     F    use nabla operator in PAW spheres
   LVEL    =     F    velocity operator in full k-point grid
   LINTERFAST=   F  fast interpolation
   KINTER  =     0    interpolate to denser k-point grid
   CSHIFT  =0.1000    complex shift for real part using Kramers Kronig
   OMEGAMAX=  -1.0    maximum frequency
   DEG_THRESHOLD= 0.2000000E-02 threshold for treating states as degnerate
   RTIME   =    0.100 relaxation time in fs

 Orbital magnetization related:
   ORBITALMAG=     F  switch on orbital magnetization
   LCHIMAG   =     F  perturbation theory with respect to B field
   DQ        =  0.001000  dq finite difference perturbation B field



--------------------------------------------------------------------------------------------------------


 Static calculation
 charge density and potential remain constant during run
 non-spin polarized calculation
 RMM-DIIS sequential band-by-band and
  variant of blocked Davidson during initial phase
 perform sub-space diagonalisation
    before iterative eigenvector-optimisation
 no mixing
 using additional bands            4
 real space projection scheme for non local part
 use partial core corrections
 calculate Harris-corrections to forces 
   (improved forces if not selfconsistent)
 use gradient corrections 
 WARNING: stress and forces are not correct
  (second derivative of E(xc) not defined)
 use of overlap-Matrix (Vanderbilt PP)
 Gauss-broadening in eV      SIGMA  =   0.20


--------------------------------------------------------------------------------------------------------


  energy-cutoff  :      250.00
  volume of cell :       40.04
      direct lattice vectors                 reciprocal lattice vectors
     0.000000000  2.715400000  2.715400000    -0.184134934  0.184134934  0.184134934
     2.715400000  0.000000000  2.715400000     0.184134934 -0.184134934  0.184134934
     2.715400000  2.715400000  0.000000000     0.184134934  0.184134934 -0.184134934

  length of vectors
     3.840155507  3.840155507  3.840155507     0.318931061  0.318931061  0.318931061


 
 k-points in units of 2pi/SCALE and weight: k-points along fcc high symmetry lines  
   0.09206747  0.18413493  0.00000000       0.010
   0.09206747  0.17928928  0.00484566       0.010
   0.09206747  0.17444362  0.00969131       0.010
   0.09206747  0.16959797  0.01453697       0.010
   0.09206747  0.16475231  0.01938262       0.010
   0.09206747  0.15990665  0.02422828       0.010
   0.09206747  0.15506100  0.02907394       0.010
   0.09206747  0.15021534  0.03391959       0.010
   0.09206747  0.14536968  0.03876525       0.010
   0.09206747  0.14052403  0.04361091       0.010
   0.09206747  0.13567837  0.04845656       0.010
   0.09206747  0.13083272  0.05330222       0.010
   0.09206747  0.12598706  0.05814787       0.010
   0.09206747  0.12114140  0.06299353       0.010
   0.09206747  0.11629575  0.06783919       0.010
   0.09206747  0.11145009  0.07268484       0.010
   0.09206747  0.10660444  0.07753050       0.010
   0.09206747  0.10175878  0.08237615       0.010
   0.09206747  0.09691312  0.08722181       0.010
   0.09206747  0.09206747  0.09206747       0.010
   0.09206747  0.09206747  0.09206747       0.010
   0.08722181  0.08722181  0.08722181       0.010
   0.08237615  0.08237615  0.08237615       0.010
   0.07753050  0.07753050  0.07753050       0.010
   0.07268484  0.07268484  0.07268484       0.010
   0.06783919  0.06783919  0.06783919       0.010
   0.06299353  0.06299353  0.06299353       0.010
   0.05814787  0.05814787  0.05814787       0.010
   0.05330222  0.05330222  0.05330222       0.010
   0.04845656  0.04845656  0.04845656       0.010
   0.04361091  0.04361091  0.04361091       0.010
   0.03876525  0.03876525  0.03876525       0.010
   0.03391959  0.03391959  0.03391959       0.010
   0.02907394  0.02907394  0.02907394       0.010
   0.02422828  0.02422828  0.02422828       0.010
   0.01938262  0.01938262  0.01938262       0.010
   0.01453697  0.01453697  0.01453697       0.010
   0.00969131  0.00969131  0.00969131       0.010
   0.00484566  0.00484566  0.00484566       0.010
   0.00000000  0.00000000  0.00000000       0.010
   0.00000000  0.00000000  0.00000000       0.010
   0.00000000  0.00969131  0.00000000       0.010
   0.00000000  0.01938262  0.00000000       0.010
   0.00000000  0.02907394  0.00000000       0.010
   0.00000000  0.03876525  0.00000000       0.010
   0.00000000  0.04845656  0.00000000       0.010
   0.00000000  0.05814787  0.00000000       0.010
   0.00000000  0.06783919  0.00000000       0.010
   0.00000000  0.07753050  0.00000000       0.010
   0.00000000  0.08722181  0.00000000       0.010
   0.00000000  0.09691312  0.00000000       0.010
   0.00000000  0.10660444  0.00000000       0.010
   0.00000000  0.11629575  0.00000000       0.010
   0.00000000  0.12598706  0.00000000       0.010
   0.00000000  0.13567837  0.00000000       0.010
   0.00000000  0.14536968  0.00000000       0.010
   0.00000000  0.15506100  0.00000000       0.010
   0.00000000  0.16475231  0.00000000       0.010
   0.00000000  0.17444362  0.00000000       0.010
   0.00000000  0.18413493  0.00000000       0.010
   0.00000000  0.18413493  0.00000000       0.010
   0.00484566  0.18413493  0.00000000       0.010
   0.00969131  0.18413493  0.00000000       0.010
   0.01453697  0.18413493  0.00000000       0.010
   0.01938262  0.18413493  0.00000000       0.010
   0.02422828  0.18413493  0.00000000       0.010
   0.02907394  0.18413493 -0.00000000       0.010
   0.03391959  0.18413493  0.00000000       0.010
   0.03876525  0.18413493  0.00000000       0.010
   0.04361091  0.18413493 -0.00000000       0.010
   0.04845656  0.18413493  0.00000000       0.010
   0.05330222  0.18413493  0.00000000       0.010
   0.05814787  0.18413493 -0.00000000       0.010
   0.06299353  0.18413493  0.00000000       0.010
   0.06783919  0.18413493  0.00000000       0.010
   0.07268484  0.18413493 -0.00000000       0.010
   0.07753050  0.18413493  0.00000000       0.010
   0.08237615  0.18413493  0.00000000       0.010
   0.08722181  0.18413493  0.00000000       0.010
   0.09206747  0.18413493  0.00000000       0.010
   0.09206747  0.18413493  0.00000000       0.010
   0.09449030  0.18171211  0.00000000       0.010
   0.09691312  0.17928928  0.00000000       0.010
   0.09933595  0.17686645  0.00000000       0.010
   0.10175878  0.17444362  0.00000000       0.010
   0.10418161  0.17202079  0.00000000       0.010
   0.10660444  0.16959797  0.00000000       0.010
   0.10902726  0.16717514  0.00000000       0.010
   0.11145009  0.16475231  0.00000000       0.010
   0.11387292  0.16232948  0.00000000       0.010
   0.11629575  0.15990665  0.00000000       0.010
   0.11871858  0.15748383  0.00000000       0.010
   0.12114140  0.15506100  0.00000000       0.010
   0.12356423  0.15263817  0.00000000       0.010
   0.12598706  0.15021534  0.00000000       0.010
   0.12840989  0.14779251  0.00000000       0.010
   0.13083272  0.14536968  0.00000000       0.010
   0.13325554  0.14294686  0.00000000       0.010
   0.13567837  0.14052403  0.00000000       0.010
   0.13810120  0.13810120  0.00000000       0.010
 
 k-points in reciprocal lattice and weights: k-points along fcc high symmetry lines  
   0.50000000  0.25000000  0.75000000       0.010
   0.50000000  0.26315789  0.73684211       0.010
   0.50000000  0.27631579  0.72368421       0.010
   0.50000000  0.28947368  0.71052632       0.010
   0.50000000  0.30263158  0.69736842       0.010
   0.50000000  0.31578947  0.68421053       0.010
   0.50000000  0.32894737  0.67105263       0.010
   0.50000000  0.34210526  0.65789474       0.010
   0.50000000  0.35526316  0.64473684       0.010
   0.50000000  0.36842105  0.63157895       0.010
   0.50000000  0.38157895  0.61842105       0.010
   0.50000000  0.39473684  0.60526316       0.010
   0.50000000  0.40789474  0.59210526       0.010
   0.50000000  0.42105263  0.57894737       0.010
   0.50000000  0.43421053  0.56578947       0.010
   0.50000000  0.44736842  0.55263158       0.010
   0.50000000  0.46052632  0.53947368       0.010
   0.50000000  0.47368421  0.52631579       0.010
   0.50000000  0.48684211  0.51315789       0.010
   0.50000000  0.50000000  0.50000000       0.010
   0.50000000  0.50000000  0.50000000       0.010
   0.47368421  0.47368421  0.47368421       0.010
   0.44736842  0.44736842  0.44736842       0.010
   0.42105263  0.42105263  0.42105263       0.010
   0.39473684  0.39473684  0.39473684       0.010
   0.36842105  0.36842105  0.36842105       0.010
   0.34210526  0.34210526  0.34210526       0.010
   0.31578947  0.31578947  0.31578947       0.010
   0.28947368  0.28947368  0.28947368       0.010
   0.26315789  0.26315789  0.26315789       0.010
   0.23684211  0.23684211  0.23684211       0.010
   0.21052632  0.21052632  0.21052632       0.010
   0.18421053  0.18421053  0.18421053       0.010
   0.15789474  0.15789474  0.15789474       0.010
   0.13157895  0.13157895  0.13157895       0.010
   0.10526316  0.10526316  0.10526316       0.010
   0.07894737  0.07894737  0.07894737       0.010
   0.05263158  0.05263158  0.05263158       0.010
   0.02631579  0.02631579  0.02631579       0.010
   0.00000000  0.00000000  0.00000000       0.010
   0.00000000  0.00000000  0.00000000       0.010
   0.02631579  0.00000000  0.02631579       0.010
   0.05263158  0.00000000  0.05263158       0.010
   0.07894737  0.00000000  0.07894737       0.010
   0.10526316  0.00000000  0.10526316       0.010
   0.13157895  0.00000000  0.13157895       0.010
   0.15789474  0.00000000  0.15789474       0.010
   0.18421053  0.00000000  0.18421053       0.010
   0.21052632  0.00000000  0.21052632       0.010
   0.23684211  0.00000000  0.23684211       0.010
   0.26315789  0.00000000  0.26315789       0.010
   0.28947368  0.00000000  0.28947368       0.010
   0.31578947  0.00000000  0.31578947       0.010
   0.34210526  0.00000000  0.34210526       0.010
   0.36842105  0.00000000  0.36842105       0.010
   0.39473684  0.00000000  0.39473684       0.010
   0.42105263  0.00000000  0.42105263       0.010
   0.44736842  0.00000000  0.44736842       0.010
   0.47368421  0.00000000  0.47368421       0.010
   0.50000000  0.00000000  0.50000000       0.010
   0.50000000  0.00000000  0.50000000       0.010
   0.50000000  0.01315789  0.51315789       0.010
   0.50000000  0.02631579  0.52631579       0.010
   0.50000000  0.03947368  0.53947368       0.010
   0.50000000  0.05263158  0.55263158       0.010
   0.50000000  0.06578947  0.56578947       0.010
   0.50000000  0.07894737  0.57894737       0.010
   0.50000000  0.09210526  0.59210526       0.010
   0.50000000  0.10526316  0.60526316       0.010
   0.50000000  0.11842105  0.61842105       0.010
   0.50000000  0.13157895  0.63157895       0.010
   0.50000000  0.14473684  0.64473684       0.010
   0.50000000  0.15789474  0.65789474       0.010
   0.50000000  0.17105263  0.67105263       0.010
   0.50000000  0.18421053  0.68421053       0.010
   0.50000000  0.19736842  0.69736842       0.010
   0.50000000  0.21052632  0.71052632       0.010
   0.50000000  0.22368421  0.72368421       0.010
   0.50000000  0.23684211  0.73684211       0.010
   0.50000000  0.25000000  0.75000000       0.010
   0.50000000  0.25000000  0.75000000       0.010
   0.49342105  0.25657895  0.75000000       0.010
   0.48684211  0.26315789  0.75000000       0.010
   0.48026316  0.26973684  0.75000000       0.010
   0.47368421  0.27631579  0.75000000       0.010
   0.46710526  0.28289474  0.75000000       0.010
   0.46052632  0.28947368  0.75000000       0.010
   0.45394737  0.29605263  0.75000000       0.010
   0.44736842  0.30263158  0.75000000       0.010
   0.44078947  0.30921053  0.75000000       0.010
   0.43421053  0.31578947  0.75000000       0.010
   0.42763158  0.32236842  0.75000000       0.010
   0.42105263  0.32894737  0.75000000       0.010
   0.41447368  0.33552632  0.75000000       0.010
   0.40789474  0.34210526  0.75000000       0.010
   0.40131579  0.34868421  0.75000000       0.010
   0.39473684  0.35526316  0.75000000       0.010
   0.38815789  0.36184211  0.75000000       0.010
   0.38157895  0.36842105  0.75000000       0.010
   0.37500000  0.37500000  0.75000000       0.010
 
 position of ions in fractional coordinates (direct lattice) 
   0.00000000  0.00000000  0.00000000
   0.25000000  0.25000000  0.25000000
 
 position of ions in cartesian coordinates  (Angst):
   0.00000000  0.00000000  0.00000000
   1.35770000  1.35770000  1.35770000
 


--------------------------------------------------------------------------------------------------------


 k-point  1 :   0.5000 0.2500 0.7500  plane waves:     360
 k-point  2 :   0.5000 0.2632 0.7368  plane waves:     368
 k-point  3 :   0.5000 0.2763 0.7237  plane waves:     370
 k-point  4 :   0.5000 0.2895 0.7105  plane waves:     370
 k-point  5 :   0.5000 0.3026 0.6974  plane waves:     366
 k-point  6 :   0.5000 0.3158 0.6842  plane waves:     368
 k-point  7 :   0.5000 0.3289 0.6711  plane waves:     368
 k-point  8 :   0.5000 0.3421 0.6579  plane waves:     368
 k-point  9 :   0.5000 0.3553 0.6447  plane waves:     366
 k-point 10 :   0.5000 0.3684 0.6316  plane waves:     366
 k-point 11 :   0.5000 0.3816 0.6184  plane waves:     368
 k-point 12 :   0.5000 0.3947 0.6053  plane waves:     362
 k-point 13 :   0.5000 0.4079 0.5921  plane waves:     360
 k-point 14 :   0.5000 0.4211 0.5789  plane waves:     360
 k-point 15 :   0.5000 0.4342 0.5658  plane waves:     360
 k-point 16 :   0.5000 0.4474 0.5526  plane waves:     358
 k-point 17 :   0.5000 0.4605 0.5395  plane waves:     356
 k-point 18 :   0.5000 0.4737 0.5263  plane waves:     360
 k-point 19 :   0.5000 0.4868 0.5132  plane waves:     362
 k-point 20 :   0.5000 0.5000 0.5000  plane waves:     368
 k-point 21 :   0.5000 0.5000 0.5000  plane waves:     368
 k-point 22 :   0.4737 0.4737 0.4737  plane waves:     356
 k-point 23 :   0.4474 0.4474 0.4474  plane waves:     356
 k-point 24 :   0.4211 0.4211 0.4211  plane waves:     356
 k-point 25 :   0.3947 0.3947 0.3947  plane waves:     353
 k-point 26 :   0.3684 0.3684 0.3684  plane waves:     359
 k-point 27 :   0.3421 0.3421 0.3421  plane waves:     359
 k-point 28 :   0.3158 0.3158 0.3158  plane waves:     359
 k-point 29 :   0.2895 0.2895 0.2895  plane waves:     353
 k-point 30 :   0.2632 0.2632 0.2632  plane waves:     356
 k-point 31 :   0.2368 0.2368 0.2368  plane waves:     359
 k-point 32 :   0.2105 0.2105 0.2105  plane waves:     356
 k-point 33 :   0.1842 0.1842 0.1842  plane waves:     356
 k-point 34 :   0.1579 0.1579 0.1579  plane waves:     356
 k-point 35 :   0.1316 0.1316 0.1316  plane waves:     344
 k-point 36 :   0.1053 0.1053 0.1053  plane waves:     341
 k-point 37 :   0.0789 0.0789 0.0789  plane waves:     338
 k-point 38 :   0.0526 0.0526 0.0526  plane waves:     338
 k-point 39 :   0.0263 0.0263 0.0263  plane waves:     339
 k-point 40 :   0.0000 0.0000 0.0000  plane waves:     339
 k-point 41 :   0.0000 0.0000 0.0000  plane waves:     339
 k-point 42 :   0.0263 0.0000 0.0263  plane waves:     339
 k-point 43 :   0.0526 0.0000 0.0526  plane waves:     339
 k-point 44 :   0.0789 0.0000 0.0789  plane waves:     339
 k-point 45 :   0.1053 0.0000 0.1053  plane waves:     347
 k-point 46 :   0.1316 0.0000 0.1316  plane waves:     351
 k-point 47 :   0.1579 0.0000 0.1579  plane waves:     351
 k-point 48 :   0.1842 0.0000 0.1842  plane waves:     351
 k-point 49 :   0.2105 0.0000 0.2105  plane waves:     351
 k-point 50 :   0.2368 0.0000 0.2368  plane waves:     351
 k-point 51 :   0.2632 0.0000 0.2632  plane waves:     351
 k-point 52 :   0.2895 0.0000 0.2895  plane waves:     347
 k-point 53 :   0.3158 0.0000 0.3158  plane waves:     355
 k-point 54 :   0.3421 0.0000 0.3421  plane waves:     355
 k-point 55 :   0.3684 0.0000 0.3684  plane waves:     351
 k-point 56 :   0.3947 0.0000 0.3947  plane waves:     359
 k-point 57 :   0.4211 0.0000 0.4211  plane waves:     359
 k-point 58 :   0.4474 0.0000 0.4474  plane waves:     351
 k-point 59 :   0.4737 0.0000 0.4737  plane waves:     351
 k-point 60 :   0.5000 0.0000 0.5000  plane waves:     360
 k-point 61 :   0.5000 0.0000 0.5000  plane waves:     360
 k-point 62 :   0.5000 0.0132 0.5132  plane waves:     352
 k-point 63 :   0.5000 0.0263 0.5263  plane waves:     352
 k-point 64 :   0.5000 0.0395 0.5395  plane waves:     354
 k-point 65 :   0.5000 0.0526 0.5526  plane waves:     360
 k-point 66 :   0.5000 0.0658 0.5658  plane waves:     360
 k-point 67 :   0.5000 0.0789 0.5789  plane waves:     358
 k-point 68 :   0.5000 0.0921 0.5921  plane waves:     362
 k-point 69 :   0.5000 0.1053 0.6053  plane waves:     362
 k-point 70 :   0.5000 0.1184 0.6184  plane waves:     362
 k-point 71 :   0.5000 0.1316 0.6316  plane waves:     362
 k-point 72 :   0.5000 0.1447 0.6447  plane waves:     362
 k-point 73 :   0.5000 0.1579 0.6579  plane waves:     362
 k-point 74 :   0.5000 0.1711 0.6711  plane waves:     364
 k-point 75 :   0.5000 0.1842 0.6842  plane waves:     368
 k-point 76 :   0.5000 0.1974 0.6974  plane waves:     368
 k-point 77 :   0.5000 0.2105 0.7105  plane waves:     368
 k-point 78 :   0.5000 0.2237 0.7237  plane waves:     368
 k-point 79 :   0.5000 0.2368 0.7368  plane waves:     364
 k-point 80 :   0.5000 0.2500 0.7500  plane waves:     360
 k-point 81 :   0.5000 0.2500 0.7500  plane waves:     360
 k-point 82 :   0.4934 0.2566 0.7500  plane waves:     360
 k-point 83 :   0.4868 0.2632 0.7500  plane waves:     365
 k-point 84 :   0.4803 0.2697 0.7500  plane waves:     365
 k-point 85 :   0.4737 0.2763 0.7500  plane waves:     371
 k-point 86 :   0.4671 0.2829 0.7500  plane waves:     371
 k-point 87 :   0.4605 0.2895 0.7500  plane waves:     371
 k-point 88 :   0.4539 0.2961 0.7500  plane waves:     371
 k-point 89 :   0.4474 0.3026 0.7500  plane waves:     369
 k-point 90 :   0.4408 0.3092 0.7500  plane waves:     363
 k-point 91 :   0.4342 0.3158 0.7500  plane waves:     363
 k-point 92 :   0.4276 0.3224 0.7500  plane waves:     366
 k-point 93 :   0.4211 0.3289 0.7500  plane waves:     364
 k-point 94 :   0.4145 0.3355 0.7500  plane waves:     364
 k-point 95 :   0.4079 0.3421 0.7500  plane waves:     366
 k-point 96 :   0.4013 0.3487 0.7500  plane waves:     365
 k-point 97 :   0.3947 0.3553 0.7500  plane waves:     365
 k-point 98 :   0.3882 0.3618 0.7500  plane waves:     365
 k-point 99 :   0.3816 0.3684 0.7500  plane waves:     365
 k-point ** :   0.3750 0.3750 0.7500  plane waves:     363

 maximum and minimum number of plane-waves per node :        96       81

 maximum number of plane-waves:       371
 maximum index in each direction: 
   IXMAX=    4   IYMAX=    4   IZMAX=    4
   IXMIN=   -5   IYMIN=   -5   IZMIN=   -5

 WARNING: aliasing errors must be expected set NGX to  20 to avoid them
 WARNING: aliasing errors must be expected set NGY to  20 to avoid them
 WARNING: aliasing errors must be expected set NGZ to  20 to avoid them
 aliasing errors are usually negligible using standard VASP settings
 and one can safely disregard these warnings

 real space projection operators:
  total allocation   :        188.12 KBytes
  max/ min on nodes  :         50.50         44.38


 parallel 3D FFT for wavefunctions:
    minimum data exchange during FFTs selected (reduces bandwidth)
 parallel 3D FFT for charge:
    minimum data exchange during FFTs selected (reduces bandwidth)


 total amount of memory used by VASP on root node    32205. kBytes
========================================================================

   base      :      30000. kBytes
   nonlr-proj:        106. kBytes
   fftplans  :        314. kBytes
   grid      :        451. kBytes
   one-center:          3. kBytes
   wavefun   :       1331. kBytes
 
     INWAV:  cpu time    0.0010: real time    0.0002
 initial charge density was supplied:
 number of electron       7.9999994 magnetization 
 keeping initial charge density in first step


--------------------------------------------------------------------------------------------------------


 Maximum index for non-local projection operator          355
 Maximum index for augmentation-charges          847 (set IRDMAX)


--------------------------------------------------------------------------------------------------------


 First call to EWALD:  gamma=   0.518
 Maximum number of real-space cells 3x 3x 3
 Maximum number of reciprocal cells 3x 3x 3

 FEWALD executed in parallel
    FEWALD:  cpu time    0.0010: real time    0.0015


----------------------------------------- Iteration    1(   1)  ---------------------------------------


    POTLOK:  cpu time    0.0050: real time    0.0051
    SETDIJ:  cpu time    0.0010: real time    0.0022
     EDDAV:  cpu time    0.2340: real time    0.2354
       DOS:  cpu time    0.0140: real time    0.0145
    --------------------------------------------
      LOOP:  cpu time    0.2580: real time   21.4090

 eigenvalue-minimisations  :  1648
 total energy-change (2. order) :-0.1980692E+00  (-0.2237761E+03)
 number of electron       7.9999994 magnetization 
 augmentation part        7.9999994 magnetization 

 Free energy of the ion-electron system (eV)
  ---------------------------------------------------
  alpha Z        PSCENC =         3.36265555
  Ewald energy   TEWEN  =      -228.52985570
  -Hartree energ DENC   =       -14.94123946
  -exchange      EXHF   =         0.00000000
  -V(xc)+E(xc)   XCENC  =       -17.95302991
  PAW double counting   =        74.97136236      -40.01563055
  entropy T*S    EENTRO =        -0.01340973
  eigenvalues    EBANDS =        16.79757900
  atomic energy  EATOM  =       206.12349923
  Solvation  Ediel_sol  =         0.00000000
  ---------------------------------------------------
  free energy    TOTEN  =        -0.19806923 eV

  energy without entropy =       -0.18465950  energy(sigma->0) =       -0.19136436


--------------------------------------------------------------------------------------------------------




----------------------------------------- Iteration    1(   2)  ---------------------------------------


     EDDAV:  cpu time    0.3539: real time    0.3551
       DOS:  cpu time    0.0190: real time    0.0188
    --------------------------------------------
      LOOP:  cpu time    0.3739: real time    0.3779

 eigenvalue-minimisations  :  2552
 total energy-change (2. order) :-0.9865468E+01  (-0.9301485E+01)
 number of electron       7.9999994 magnetization 
 augmentation part        7.9999994 magnetization 

 Free energy of the ion-electron system (eV)
  ---------------------------------------------------
  alpha Z        PSCENC =         3.36265555
  Ewald energy   TEWEN  =      -228.52985570
  -Hartree energ DENC   =       -14.94123946
  -exchange      EXHF   =         0.00000000
  -V(xc)+E(xc)   XCENC  =       -17.95302991
  PAW double counting   =        74.97136236      -40.01563055
  entropy T*S    EENTRO =        -0.00207828
  eigenvalues    EBANDS =         6.92078002
  atomic energy  EATOM  =       206.12349923
  Solvation  Ediel_sol  =         0.00000000
  ---------------------------------------------------
  free energy    TOTEN  =       -10.06353677 eV

  energy without entropy =      -10.06145848  energy(sigma->0) =      -10.06249763


--------------------------------------------------------------------------------------------------------




----------------------------------------- Iteration    1(   3)  ---------------------------------------


     EDDAV:  cpu time    0.2830: real time    0.2835
       DOS:  cpu time    0.0190: real time    0.0192
    --------------------------------------------
      LOOP:  cpu time    0.3030: real time    0.3070

 eigenvalue-minimisations  :  2016
 total energy-change (2. order) :-0.1082932E+00  (-0.1082714E+00)
 number of electron       7.9999994 magnetization 
 augmentation part        7.9999994 magnetization 

 Free energy of the ion-electron system (eV)
  ---------------------------------------------------
  alpha Z        PSCENC =         3.36265555
  Ewald energy   TEWEN  =      -228.52985570
  -Hartree energ DENC   =       -14.94123946
  -exchange      EXHF   =         0.00000000
  -V(xc)+E(xc)   XCENC  =       -17.95302991
  PAW double counting   =        74.97136236      -40.01563055
  entropy T*S    EENTRO =        -0.00177999
  eigenvalues    EBANDS =         6.81218852
  atomic energy  EATOM  =       206.12349923
  Solvation  Ediel_sol  =         0.00000000
  ---------------------------------------------------
  free energy    TOTEN  =       -10.17182997 eV

  energy without entropy =      -10.17004998  energy(sigma->0) =      -10.17093997


--------------------------------------------------------------------------------------------------------




----------------------------------------- Iteration    1(   4)  ---------------------------------------


     EDDAV:  cpu time    0.3569: real time    0.3589
       DOS:  cpu time    0.0190: real time    0.0192
    --------------------------------------------
      LOOP:  cpu time    0.3779: real time    0.3826

 eigenvalue-minimisations  :  2568
 total energy-change (2. order) :-0.3354439E-03  (-0.3354430E-03)
 number of electron       7.9999994 magnetization 
 augmentation part        7.9999994 magnetization 

 Free energy of the ion-electron system (eV)
  ---------------------------------------------------
  alpha Z        PSCENC =         3.36265555
  Ewald energy   TEWEN  =      -228.52985570
  -Hartree energ DENC   =       -14.94123946
  -exchange      EXHF   =         0.00000000
  -V(xc)+E(xc)   XCENC  =       -17.95302991
  PAW double counting   =        74.97136236      -40.01563055
  entropy T*S    EENTRO =        -0.00177815
  eigenvalues    EBANDS =         6.81185124
  atomic energy  EATOM  =       206.12349923
  Solvation  Ediel_sol  =         0.00000000
  ---------------------------------------------------
  free energy    TOTEN  =       -10.17216541 eV

  energy without entropy =      -10.17038726  energy(sigma->0) =      -10.17127634


--------------------------------------------------------------------------------------------------------




----------------------------------------- Iteration    1(   5)  ---------------------------------------


     EDDAV:  cpu time    0.2790: real time    0.2807
       DOS:  cpu time    0.0200: real time    0.0192
    --------------------------------------------
      LOOP:  cpu time    0.3010: real time    0.3046

 eigenvalue-minimisations  :  2008
 total energy-change (2. order) :-0.2713892E-06  (-0.2712427E-06)
 number of electron       7.9999994 magnetization 
 augmentation part        7.9999994 magnetization 

 Free energy of the ion-electron system (eV)
  ---------------------------------------------------
  alpha Z        PSCENC =         3.36265555
  Ewald energy   TEWEN  =      -228.52985570
  -Hartree energ DENC   =       -14.94123946
  -exchange      EXHF   =         0.00000000
  -V(xc)+E(xc)   XCENC  =       -17.95302991
  PAW double counting   =        74.97136236      -40.01563055
  entropy T*S    EENTRO =        -0.00177815
  eigenvalues    EBANDS =         6.81185096
  atomic energy  EATOM  =       206.12349923
  Solvation  Ediel_sol  =         0.00000000
  ---------------------------------------------------
  free energy    TOTEN  =       -10.17216568 eV

  energy without entropy =      -10.17038754  energy(sigma->0) =      -10.17127661


--------------------------------------------------------------------------------------------------------




----------------------------------------- Iteration    1(   6)  ---------------------------------------


    EDDIAG:  cpu time    0.0370: real time    0.0374
  RMM-DIIS:  cpu time    0.1010: real time    0.1007
    ORTHCH:  cpu time    0.0020: real time    0.0022
       DOS:  cpu time    0.0190: real time    0.0192
    --------------------------------------------
      LOOP:  cpu time    0.1600: real time    0.1634

 eigenvalue-minimisations  :   529
 total energy-change (2. order) :-0.1299156E-08  (-0.1540579E-08)
 number of electron       7.9999994 magnetization 
 augmentation part        7.9999994 magnetization 

 Free energy of the ion-electron system (eV)
  ---------------------------------------------------
  alpha Z        PSCENC =         3.36265555
  Ewald energy   TEWEN  =      -228.52985570
  -Hartree energ DENC   =       -14.94123946
  -exchange      EXHF   =         0.00000000
  -V(xc)+E(xc)   XCENC  =       -17.95302991
  PAW double counting   =        74.97136236      -40.01563055
  entropy T*S    EENTRO =        -0.00177815
  eigenvalues    EBANDS =         6.81185096
  atomic energy  EATOM  =       206.12349923
  Solvation  Ediel_sol  =         0.00000000
  ---------------------------------------------------
  free energy    TOTEN  =       -10.17216568 eV

  energy without entropy =      -10.17038754  energy(sigma->0) =      -10.17127661


--------------------------------------------------------------------------------------------------------




 average (electrostatic) potential at core
  the test charge radii are     0.9892
  (the norm of the test charge is              1.0000)
       1 -83.2468       2 -83.2468
 
 
 
 E-fermi :   6.1549     XC(G=0):  -9.4075     alpha+bet :-11.9792


 k-point     1 :       0.5000    0.2500    0.7500
  band No.  band energies     occupation 
      1      -1.8201      2.00000
      2      -1.8201      2.00000
      3       1.9812      2.00000
      4       1.9812      2.00000
      5      10.1243      0.00000
      6      10.1243      0.00000
      7      10.8492      0.00000
      8      10.8492      0.00000

 k-point     2 :       0.5000    0.2632    0.7368
  band No.  band energies     occupation 
      1      -1.9926      2.00000
      2      -1.6515      2.00000
      3       1.8638      2.00000
      4       2.1200      2.00000
      5       9.9713      0.00000
      6      10.1965      0.00000
      7      10.7719      0.00000
      8      11.0282      0.00000

 k-point     3 :       0.5000    0.2763    0.7237
  band No.  band energies     occupation 
      1      -2.1647      2.00000
      2      -1.4907      2.00000
      3       1.7734      2.00000
      4       2.2763      2.00000
      5       9.8045      0.00000
      6      10.1251      0.00000
      7      10.8643      0.00000
      8      11.2480      0.00000

 k-point     4 :       0.5000    0.2895    0.7105
  band No.  band energies     occupation 
      1      -2.3340      2.00000
      2      -1.3429      2.00000
      3       1.7154      2.00000
      4       2.4463      2.00000
      5       9.6428      0.00000
      6       9.9738      0.00000
      7      11.0618      0.00000
      8      11.4883      0.00000

 k-point     5 :       0.5000    0.3026    0.6974
  band No.  band energies     occupation 
      1      -2.4984      2.00000
      2      -1.2137      2.00000
      3       1.6958      2.00000
      4       2.6272      2.00000
      5       9.4933      0.00000
      6       9.8019      0.00000
      7      11.3051      0.00000
      8      11.7421      0.00000

 k-point     6 :       0.5000    0.3158    0.6842
  band No.  band energies     occupation 
      1      -2.6564      2.00000
      2      -1.1085      2.00000
      3       1.7195      2.00000
      4       2.8153      2.00000
      5       9.3571      0.00000
      6       9.6283      0.00000
      7      11.5723      0.00000
      8      12.0058      0.00000

 k-point     7 :       0.5000    0.3289    0.6711
  band No.  band energies     occupation 
      1      -2.8065      2.00000
      2      -1.0303      2.00000
      3       1.7901      2.00000
      4       3.0079      2.00000
      5       9.2395      0.00000
      6       9.4589      0.00000
      7      11.8585      0.00000
      8      12.2772      0.00000

 k-point     8 :       0.5000    0.3421    0.6579
  band No.  band energies     occupation 
      1      -2.9480      2.00000
      2      -0.9799      2.00000
      3       1.9080      2.00000
      4       3.2022      2.00000
      5       9.1409      0.00000
      6       9.2955      0.00000
      7      12.1616      0.00000
      8      12.5541      0.00000

 k-point     9 :       0.5000    0.3553    0.6447
  band No.  band energies     occupation 
      1      -3.0799      2.00000
      2      -0.9545      2.00000
      3       2.0701      2.00000
      4       3.3951      2.00000
      5       9.0618      0.00000
      6       9.1385      0.00000
      7      12.4725      0.00000
      8      12.5426      0.00000

 k-point    10 :       0.5000    0.3684    0.6316
  band No.  band energies     occupation 
      1      -3.2018      2.00000
      2      -0.9499      2.00000
      3       2.2712      2.00000
      4       3.5836      2.00000
      5       8.9865      0.00000
      6       9.0030      0.00000
      7      12.0177      0.00000
      8      12.8111      0.00000

 k-point    11 :       0.5000    0.3816    0.6184
  band No.  band energies     occupation 
      1      -3.3133      2.00000
      2      -0.9606      2.00000
      3       2.5048      2.00000
      4       3.7645      2.00000
      5       8.8378      0.00000
      6       8.9644      0.00000
      7      11.5199      0.00000
      8      13.1566      0.00000

 k-point    12 :       0.5000    0.3947    0.6053
  band No.  band energies     occupation 
      1      -3.4137      2.00000
      2      -0.9812      2.00000
      3       2.7644      2.00000
      4       3.9355      2.00000
      5       8.6908      0.00000
      6       8.9488      0.00000
      7      11.0501      0.00000
      8      13.5161      0.00000

 k-point    13 :       0.5000    0.4079    0.5921
  band No.  band energies     occupation 
      1      -3.5029      2.00000
      2      -1.0074      2.00000
      3       3.0432      2.00000
      4       4.0924      2.00000
      5       8.5372      0.00000
      6       8.9527      0.00000
      7      10.6135      0.00000
      8      13.8387      0.00000

 k-point    14 :       0.5000    0.4211    0.5789
  band No.  band energies     occupation 
      1      -3.5806      2.00000
      2      -1.0356      2.00000
      3       3.3343      2.00000
      4       4.2326      2.00000
      5       8.3722      0.00000
      6       8.9749      0.00000
      7      10.2212      0.00000
      8      13.9528      0.00000

 k-point    15 :       0.5000    0.4342    0.5658
  band No.  band energies     occupation 
      1      -3.6466      2.00000
      2      -1.0632      2.00000
      3       3.6303      2.00000
      4       4.3542      2.00000
      5       8.1895      0.00000
      6       9.0124      0.00000
      7       9.8850      0.00000
      8      13.9728      0.00000

 k-point    16 :       0.5000    0.4474    0.5526
  band No.  band energies     occupation 
      1      -3.7009      2.00000
      2      -1.0881      2.00000
      3       3.9205      2.00000
      4       4.4551      2.00000
      5       7.9869      0.00000
      6       9.0589      0.00000
      7       9.6177      0.00000
      8      13.9004      0.00000

 k-point    17 :       0.5000    0.4605    0.5395
  band No.  band energies     occupation 
      1      -3.7432      2.00000
      2      -1.1087      2.00000
      3       4.1912      2.00000
      4       4.5345      2.00000
      5       7.7748      0.00000
      6       9.1081      0.00000
      7       9.4223      0.00000
      8      13.7847      0.00000

 k-point    18 :       0.5000    0.4737    0.5263
  band No.  band energies     occupation 
      1      -3.7736      2.00000
      2      -1.1243      2.00000
      3       4.4203      2.00000
      4       4.5910      2.00000
      5       7.5780      0.00000
      6       9.1514      0.00000
      7       9.2901      0.00000
      8      13.6721      0.00000

 k-point    19 :       0.5000    0.4868    0.5132
  band No.  band energies     occupation 
      1      -3.7920      2.00000
      2      -1.1339      2.00000
      3       4.5791      2.00000
      4       4.6252      2.00000
      5       7.4341      0.00000
      6       9.1813      0.00000
      7       9.2157      0.00000
      8      13.5936      0.00000

 k-point    20 :       0.5000    0.5000    0.5000
  band No.  band energies     occupation 
      1      -3.7983      2.00000
      2      -1.1372      2.00000
      3       4.6364      2.00000
      4       4.6364      2.00000
      5       7.3804      0.00000
      6       9.1914      0.00000
      7       9.1914      0.00000
      8      13.5655      0.00000

 k-point    21 :       0.5000    0.5000    0.5000
  band No.  band energies     occupation 
      1      -3.7983      2.00000
      2      -1.1372      2.00000
      3       4.6364      2.00000
      4       4.6364      2.00000
      5       7.3804      0.00000
      6       9.1914      0.00000
      7       9.1914      0.00000
      8      13.5655      0.00000

 k-point    22 :       0.4737    0.4737    0.4737
  band No.  band energies     occupation 
      1      -3.8370      2.00000
      2      -1.0806      2.00000
      3       4.6420      2.00000
      4       4.6420      2.00000
      5       7.3864      0.00000
      6       9.1978      0.00000
      7       9.1978      0.00000
      8      13.5748      0.00000

 k-point    23 :       0.4474    0.4474    0.4474
  band No.  band energies     occupation 
      1      -3.9454      2.00000
      2      -0.9208      2.00000
      3       4.6570      2.00000
      4       4.6570      2.00000
      5       7.4036      0.00000
      6       9.2145      0.00000
      7       9.2145      0.00000
      8      13.6007      0.00000

 k-point    24 :       0.4211    0.4211    0.4211
  band No.  band energies     occupation 
      1      -4.1026      2.00000
      2      -0.6782      2.00000
      3       4.6819      2.00000
      4       4.6819      2.00000
      5       7.4320      0.00000
      6       9.2409      0.00000
      7       9.2409      0.00000
      8      13.6407      0.00000

 k-point    25 :       0.3947    0.3947    0.3947
  band No.  band energies     occupation 
      1      -4.2878      2.00000
      2      -0.3736      2.00000
      3       4.7168      2.00000
      4       4.7168      2.00000
      5       7.4730      0.00000
      6       9.2745      0.00000
      7       9.2745      0.00000
      8      13.6885      0.00000

 k-point    26 :       0.3684    0.3684    0.3684
  band No.  band energies     occupation 
      1      -4.4858      2.00000
      2      -0.0227      2.00000
      3       4.7613      2.00000
      4       4.7613      2.00000
      5       7.5235      0.00000
      6       9.3101      0.00000
      7       9.3101      0.00000
      8      13.7288      0.00000

 k-point    27 :       0.3421    0.3421    0.3421
  band No.  band energies     occupation 
      1      -4.6863      2.00000
      2       0.3636      2.00000
      3       4.8156      2.00000
      4       4.8156      2.00000
      5       7.5847      0.00000
      6       9.3456      0.00000
      7       9.3456      0.00000
      8      13.7299      0.00000

 k-point    28 :       0.3158    0.3158    0.3158
  band No.  band energies     occupation 
      1      -4.8825      2.00000
      2       0.7781      2.00000
      3       4.8794      2.00000
      4       4.8794      2.00000
      5       7.6560      0.00000
      6       9.3727      0.00000
      7       9.3727      0.00000
      8      13.6247      0.00000

 k-point    29 :       0.2895    0.2895    0.2895
  band No.  band energies     occupation 
      1      -5.0700      2.00000
      2       1.2169      2.00000
      3       4.9524      2.00000
      4       4.9524      2.00000
      5       7.7367      0.00000
      6       9.3838      0.00000
      7       9.3838      0.00000
      8      13.3538      0.00000

 k-point    30 :       0.2632    0.2632    0.2632
  band No.  band energies     occupation 
      1      -5.2463      2.00000
      2       1.6734      2.00000
      3       5.0338      2.00000
      4       5.0338      2.00000
      5       7.8240      0.00000
      6       9.3705      0.00000
      7       9.3705      0.00000
      8      12.9761      0.00000

 k-point    31 :       0.2368    0.2368    0.2368
  band No.  band energies     occupation 
      1      -5.4090      2.00000
      2       2.1457      2.00000
      3       5.1229      2.00000
      4       5.1229      2.00000
      5       7.9193      0.00000
      6       9.3264      0.00000
      7       9.3264      0.00000
      8      12.5373      0.00000

 k-point    32 :       0.2105    0.2105    0.2105
  band No.  band energies     occupation 
      1      -5.5569      2.00000
      2       2.6304      2.00000
      3       5.2186      2.00000
      4       5.2186      2.00000
      5       8.0208      0.00000
      6       9.2495      0.00000
      7       9.2495      0.00000
      8      12.0791      0.00000

 k-point    33 :       0.1842    0.1842    0.1842
  band No.  band energies     occupation 
      1      -5.6890      2.00000
      2       3.1236      2.00000
      3       5.3192      2.00000
      4       5.3192      2.00000
      5       8.1243      0.00000
      6       9.1411      0.00000
      7       9.1411      0.00000
      8      11.6091      0.00000

 k-point    34 :       0.1579    0.1579    0.1579
  band No.  band energies     occupation 
      1      -5.8046      2.00000
      2       3.6209      2.00000
      3       5.4223      2.00000
      4       5.4223      2.00000
      5       8.2265      0.00000
      6       9.0101      0.00000
      7       9.0101      0.00000
      8      11.1353      0.00000

 k-point    35 :       0.1316    0.1316    0.1316
  band No.  band energies     occupation 
      1      -5.9031      2.00000
      2       4.1164      2.00000
      3       5.5253      1.99999
      4       5.5253      1.99999
      5       8.3224      0.00000
      6       8.8686      0.00000
      7       8.8686      0.00000
      8      10.6661      0.00000

 k-point    36 :       0.1053    0.1053    0.1053
  band No.  band energies     occupation 
      1      -5.9841      2.00000
      2       4.5986      2.00000
      3       5.6230      1.99983
      4       5.6230      1.99983
      5       8.4031      0.00000
      6       8.7269      0.00000
      7       8.7269      0.00000
      8      10.2140      0.00000

 k-point    37 :       0.0789    0.0789    0.0789
  band No.  band energies     occupation 
      1      -6.0474      2.00000
      2       5.0534      2.00000
      3       5.7098      1.99835
      4       5.7098      1.99835
      5       8.4576      0.00000
      6       8.5990      0.00000
      7       8.5990      0.00000
      8       9.8022      0.00000

 k-point    38 :       0.0526    0.0526    0.0526
  band No.  band energies     occupation 
      1      -6.0928      2.00000
      2       5.4482      2.00000
      3       5.7793      1.99208
      4       5.7793      1.99208
      5       8.4685      0.00000
      6       8.4965      0.00000
      7       8.4965      0.00000
      8       9.4703      0.00000

 k-point    39 :       0.0263    0.0263    0.0263
  band No.  band energies     occupation 
      1      -6.1200      2.00000
      2       5.7329      1.99715
      3       5.8247      1.98043
      4       5.8247      1.98043
      5       8.4299      0.00000
      6       8.4299      0.00000
      7       8.4341      0.00000
      8       9.2658      0.00000

 k-point    40 :       0.0000    0.0000    0.0000
  band No.  band energies     occupation 
      1      -6.1291      2.00000
      2       5.8405      1.97377
      3       5.8405      1.97376
      4       5.8405      1.97376
      5       8.4068      0.00000
      6       8.4068      0.00000
      7       8.4068      0.00000
      8       9.2016      0.00000

 k-point    41 :       0.0000    0.0000    0.0000
  band No.  band energies     occupation 
      1      -6.1291      2.00000
      2       5.8405      1.97377
      3       5.8405      1.97376
      4       5.8405      1.97376
      5       8.4068      0.00000
      6       8.4068      0.00000
      7       8.4068      0.00000
      8       9.2016      0.00000

 k-point    42 :       0.0263    0.0000    0.0263
  band No.  band energies     occupation 
      1      -6.1170      2.00000
      2       5.7581      1.99497
      3       5.7885      1.99042
      4       5.7885      1.99042
      5       8.3767      0.00000
      6       8.4738      0.00000
      7       8.4738      0.00000
      8       9.2821      0.00000

 k-point    43 :       0.0526    0.0000    0.0526
  band No.  band energies     occupation 
      1      -6.0806      2.00000
      2       5.5323      1.99999
      3       5.6470      1.99967
      4       5.6470      1.99967
      5       8.2903      0.00000
      6       8.6603      0.00000
      7       8.6603      0.00000
      8       9.4982      0.00000

 k-point    44 :       0.0789    0.0000    0.0789
  band No.  band energies     occupation 
      1      -6.0200      2.00000
      2       5.2072      2.00000
      3       5.4471      2.00000
      4       5.4471      2.00000
      5       8.1580      0.00000
      6       8.9359      0.00000
      7       8.9359      0.00000
      8       9.7912      0.00000

 k-point    45 :       0.1053    0.0000    0.1053
  band No.  band energies     occupation 
      1      -5.9354      2.00000
      2       4.8197      2.00000
      3       5.2135      2.00000
      4       5.2135      2.00000
      5       7.9919      0.00000
      6       9.2706      0.00000
      7       9.2706      0.00000
      8      10.0833      0.00000

 k-point    46 :       0.1316    0.0000    0.1316
  band No.  band energies     occupation 
      1      -5.8268      2.00000
      2       4.3958      2.00000
      3       4.9690      2.00000
      4       4.9691      2.00000
      5       7.8065      0.00000
      6       9.6464      0.00000
      7       9.6464      0.00000
      8      10.2641      0.00000

 k-point    47 :       0.1579    0.0000    0.1579
  band No.  band energies     occupation 
      1      -5.6944      2.00000
      2       3.9506      2.00000
      3       4.7241      2.00000
      4       4.7241      2.00000
      5       7.6121      0.00000
      6      10.0521      0.00000
      7      10.0521      0.00000
      8      10.2161      0.00000

 k-point    48 :       0.1842    0.0000    0.1842
  band No.  band energies     occupation 
      1      -5.5384      2.00000
      2       3.4922      2.00000
      3       4.4858      2.00000
      4       4.4858      2.00000
      5       7.4177      0.00000
      6       9.9530      0.00000
      7      10.4788      0.00000
      8      10.4788      0.00000

 k-point    49 :       0.2105    0.0000    0.2105
  band No.  band energies     occupation 
      1      -5.3591      2.00000
      2       3.0259      2.00000
      3       4.2585      2.00000
      4       4.2585      2.00000
      5       7.2302      0.00000
      6       9.5858      0.00000
      7      10.9217      0.00000
      8      10.9217      0.00000

 k-point    50 :       0.2368    0.0000    0.2368
  band No.  band energies     occupation 
      1      -5.1568      2.00000
      2       2.5550      2.00000
      3       4.0458      2.00000
      4       4.0459      2.00000
      5       7.0545      0.00000
      6       9.1853      0.00000
      7      11.3766      0.00000
      8      11.3766      0.00000

 k-point    51 :       0.2632    0.0000    0.2632
  band No.  band energies     occupation 
      1      -4.9319      2.00000
      2       2.0819      2.00000
      3       3.8496      2.00000
      4       3.8497      2.00000
      5       6.8950      0.00000
      6       8.7878      0.00000
      7      11.8413      0.00000
      8      11.8413      0.00000

 k-point    52 :       0.2895    0.0000    0.2895
  band No.  band energies     occupation 
      1      -4.6846      2.00000
      2       1.6086      2.00000
      3       3.6715      2.00000
      4       3.6715      2.00000
      5       6.7553      0.00002
      6       8.4100      0.00000
      7      12.3184      0.00000
      8      12.3184      0.00000

 k-point    53 :       0.3158    0.0000    0.3158
  band No.  band energies     occupation 
      1      -4.4158      2.00000
      2       1.1366      2.00000
      3       3.5115      2.00000
      4       3.5116      2.00000
      5       6.6366      0.00066
      6       8.0587      0.00000
      7      12.7981      0.00000
      8      12.7981      0.00000

 k-point    54 :       0.3421    0.0000    0.3421
  band No.  band energies     occupation 
      1      -4.1258      2.00000
      2       0.6679      2.00000
      3       3.3724      2.00000
      4       3.3724      2.00000
      5       6.5417      0.00623
      6       7.7398      0.00000
      7      13.2845      0.00000
      8      13.2845      0.00000

 k-point    55 :       0.3684    0.0000    0.3684
  band No.  band energies     occupation 
      1      -3.8149      2.00000
      2       0.2041      2.00000
      3       3.2538      2.00000
      4       3.2538      2.00000
      5       6.4734      0.02428
      6       7.4552      0.00000
      7      13.7769      0.00000
      8      13.7769      0.00000

 k-point    56 :       0.3947    0.0000    0.3947
  band No.  band energies     occupation 
      1      -3.4846      2.00000
      2      -0.2540      2.00000
      3       3.1560      2.00000
      4       3.1560      2.00000
      5       6.4309      0.05093
      6       7.2044      0.00000
      7      14.2716      0.00000
      8      14.2716      0.00000

 k-point    57 :       0.4211    0.0000    0.4211
  band No.  band energies     occupation 
      1      -3.1354      2.00000
      2      -0.7030      2.00000
      3       3.0798      2.00000
      4       3.0798      2.00000
      5       6.4168      0.06397
      6       6.9904      0.00000
      7      14.7690      0.00000
      8      14.7691      0.00000

 k-point    58 :       0.4474    0.0000    0.4474
  band No.  band energies     occupation 
      1      -2.7681      2.00000
      2      -1.1420      2.00000
      3       3.0253      2.00000
      4       3.0253      2.00000
      5       6.4330      0.04919
      6       6.8118      0.00000
      7      15.2660      0.00000
      8      15.2661      0.00000

 k-point    59 :       0.4737    0.0000    0.4737
  band No.  band energies     occupation 
      1      -2.3839      2.00000
      2      -1.5695      2.00000
      3       2.9924      2.00000
      4       2.9924      2.00000
      5       6.4792      0.02184
      6       6.6675      0.00029
      7      15.7156      0.00000
      8      15.7157      0.00000

 k-point    60 :       0.5000    0.0000    0.5000
  band No.  band energies     occupation 
      1      -1.9840      2.00000
      2      -1.9840      2.00000
      3       2.9810      2.00000
      4       2.9810      2.00000
      5       6.5560      0.00456
      6       6.5560      0.00456
      7      15.9569      0.00000
      8      15.9669      0.00000

 k-point    61 :       0.5000    0.0000    0.5000
  band No.  band energies     occupation 
      1      -1.9840      2.00000
      2      -1.9840      2.00000
      3       2.9810      2.00000
      4       2.9810      2.00000
      5       6.5560      0.00456
      6       6.5560      0.00456
      7      15.9559      0.00000
      8      16.0004      0.00000

 k-point    62 :       0.5000    0.0132    0.5132
  band No.  band energies     occupation 
      1      -1.9829      2.00000
      2      -1.9829      2.00000
      3       2.9721      2.00000
      4       2.9721      2.00000
      5       6.5738      0.00305
      6       6.5738      0.00305
      7      15.9309      0.00000
      8      15.9444      0.00000

 k-point    63 :       0.5000    0.0263    0.5263
  band No.  band energies     occupation 
      1      -1.9799      2.00000
      2      -1.9799      2.00000
      3       2.9449      2.00000
      4       2.9449      2.00000
      5       6.6240      0.00091
      6       6.6240      0.00091
      7      15.8441      0.00000
      8      15.8486      0.00000

 k-point    64 :       0.5000    0.0395    0.5395
  band No.  band energies     occupation 
      1      -1.9749      2.00000
      2      -1.9749      2.00000
      3       2.9015      2.00000
      4       2.9015      2.00000
      5       6.7056      0.00010
      6       6.7057      0.00010
      7      15.6865      0.00000
      8      15.7006      0.00000

 k-point    65 :       0.5000    0.0526    0.5526
  band No.  band energies     occupation 
      1      -1.9682      2.00000
      2      -1.9682      2.00000
      3       2.8442      2.00000
      4       2.8442      2.00000
      5       6.8150      0.00000
      6       6.8150      0.00000
      7      15.4615      0.00000
      8      15.4659      0.00000

 k-point    66 :       0.5000    0.0658    0.5658
  band No.  band energies     occupation 
      1      -1.9597      2.00000
      2      -1.9597      2.00000
      3       2.7765      2.00000
      4       2.7765      2.00000
      5       6.9519      0.00000
      6       6.9519      0.00000
      7      15.1853      0.00000
      8      15.1863      0.00000

 k-point    67 :       0.5000    0.0789    0.5789
  band No.  band energies     occupation 
      1      -1.9496      2.00000
      2      -1.9496      2.00000
      3       2.7012      2.00000
      4       2.7012      2.00000
      5       7.1124      0.00000
      6       7.1124      0.00000
      7      14.8788      0.00000
      8      14.8788      0.00000

 k-point    68 :       0.5000    0.0921    0.5921
  band No.  band energies     occupation 
      1      -1.9383      2.00000
      2      -1.9383      2.00000
      3       2.6212      2.00000
      4       2.6212      2.00000
      5       7.2926      0.00000
      6       7.2927      0.00000
      7      14.5526      0.00000
      8      14.5526      0.00000

 k-point    69 :       0.5000    0.1053    0.6053
  band No.  band energies     occupation 
      1      -1.9259      2.00000
      2      -1.9259      2.00000
      3       2.5391      2.00000
      4       2.5391      2.00000
      5       7.4911      0.00000
      6       7.4911      0.00000
      7      14.2167      0.00000
      8      14.2167      0.00000

 k-point    70 :       0.5000    0.1184    0.6184
  band No.  band energies     occupation 
      1      -1.9128      2.00000
      2      -1.9128      2.00000
      3       2.4573      2.00000
      4       2.4573      2.00000
      5       7.7054      0.00000
      6       7.7054      0.00000
      7      13.8752      0.00000
      8      13.8753      0.00000

 k-point    71 :       0.5000    0.1316    0.6316
  band No.  band energies     occupation 
      1      -1.8993      2.00000
      2      -1.8993      2.00000
      3       2.3777      2.00000
      4       2.3777      2.00000
      5       7.9335      0.00000
      6       7.9335      0.00000
      7      13.5314      0.00000
      8      13.5315      0.00000

 k-point    72 :       0.5000    0.1447    0.6447
  band No.  band energies     occupation 
      1      -1.8858      2.00000
      2      -1.8858      2.00000
      3       2.3022      2.00000
      4       2.3022      2.00000
      5       8.1738      0.00000
      6       8.1738      0.00000
      7      13.1876      0.00000
      8      13.1876      0.00000

 k-point    73 :       0.5000    0.1579    0.6579
  band No.  band energies     occupation 
      1      -1.8727      2.00000
      2      -1.8727      2.00000
      3       2.2321      2.00000
      4       2.2321      2.00000
      5       8.4249      0.00000
      6       8.4249      0.00000
      7      12.8453      0.00000
      8      12.8454      0.00000

 k-point    74 :       0.5000    0.1711    0.6711
  band No.  band energies     occupation 
      1      -1.8603      2.00000
      2      -1.8603      2.00000
      3       2.1687      2.00000
      4       2.1687      2.00000
      5       8.6843      0.00000
      6       8.6844      0.00000
      7      12.5067      0.00000
      8      12.5067      0.00000

 k-point    75 :       0.5000    0.1842    0.6842
  band No.  band energies     occupation 
      1      -1.8490      2.00000
      2      -1.8490      2.00000
      3       2.1132      2.00000
      4       2.1132      2.00000
      5       8.9519      0.00000
      6       8.9520      0.00000
      7      12.1700      0.00000
      8      12.1700      0.00000

 k-point    76 :       0.5000    0.1974    0.6974
  band No.  band energies     occupation 
      1      -1.8392      2.00000
      2      -1.8392      2.00000
      3       2.0666      2.00000
      4       2.0666      2.00000
      5       9.2255      0.00000
      6       9.2255      0.00000
      7      11.8421      0.00000
      8      11.8422      0.00000

 k-point    77 :       0.5000    0.2105    0.7105
  band No.  band energies     occupation 
      1      -1.8312      2.00000
      2      -1.8312      2.00000
      3       2.0296      2.00000
      4       2.0296      2.00000
      5       9.5011      0.00000
      6       9.5011      0.00000
      7      11.5244      0.00000
      8      11.5244      0.00000

 k-point    78 :       0.5000    0.2237    0.7237
  band No.  band energies     occupation 
      1      -1.8252      2.00000
      2      -1.8252      2.00000
      3       2.0027      2.00000
      4       2.0028      2.00000
      5       9.7705      0.00000
      6       9.7705      0.00000
      7      11.2250      0.00000
      8      11.2250      0.00000

 k-point    79 :       0.5000    0.2368    0.7368
  band No.  band energies     occupation 
      1      -1.8214      2.00000
      2      -1.8213      2.00000
      3       1.9866      2.00000
      4       1.9866      2.00000
      5      10.0086      0.00000
      6      10.0086      0.00000
      7      10.9699      0.00000
      8      10.9700      0.00000

 k-point    80 :       0.5000    0.2500    0.7500
  band No.  band energies     occupation 
      1      -1.8201      2.00000
      2      -1.8201      2.00000
      3       1.9812      2.00000
      4       1.9812      2.00000
      5      10.1243      0.00000
      6      10.1243      0.00000
      7      10.8492      0.00000
      8      10.8492      0.00000

 k-point    81 :       0.5000    0.2500    0.7500
  band No.  band energies     occupation 
      1      -1.8201      2.00000
      2      -1.8201      2.00000
      3       1.9812      2.00000
      4       1.9812      2.00000
      5      10.1243      0.00000
      6      10.1243      0.00000
      7      10.8492      0.00000
      8      10.8492      0.00000

 k-point    82 :       0.4934    0.2566    0.7500
  band No.  band energies     occupation 
      1      -1.8790      2.00000
      2      -1.7622      2.00000
      3       1.9367      2.00000
      4       2.0312      2.00000
      5      10.0185      0.00000
      6      10.1591      0.00000
      7      10.8624      0.00000
      8      10.9131      0.00000

 k-point    83 :       0.4868    0.2632    0.7500
  band No.  band energies     occupation 
      1      -1.9350      2.00000
      2      -1.7096      2.00000
      3       1.8942      2.00000
      4       2.0896      2.00000
      5       9.8305      0.00000
      6      10.1744      0.00000
      7      10.9641      0.00000
      8      11.0001      0.00000

 k-point    84 :       0.4803    0.2697    0.7500
  band No.  band energies     occupation 
      1      -1.9877      2.00000
      2      -1.6622      2.00000
      3       1.8539      2.00000
      4       2.1565      2.00000
      5       9.6112      0.00000
      6      10.1758      0.00000
      7      11.1066      0.00000
      8      11.1068      0.00000

 k-point    85 :       0.4737    0.2763    0.7500
  band No.  band energies     occupation 
      1      -2.0375      2.00000
      2      -1.6199      2.00000
      3       1.8154      2.00000
      4       2.2311      2.00000
      5       9.3811      0.00000
      6      10.1660      0.00000
      7      11.2273      0.00000
      8      11.2670      0.00000

 k-point    86 :       0.4671    0.2829    0.7500
  band No.  band energies     occupation 
      1      -2.0838      2.00000
      2      -1.5824      2.00000
      3       1.7795      2.00000
      4       2.3130      2.00000
      5       9.1497      0.00000
      6      10.1521      0.00000
      7      11.3581      0.00000
      8      11.4388      0.00000

 k-point    87 :       0.4605    0.2895    0.7500
  band No.  band energies     occupation 
      1      -2.1270      2.00000
      2      -1.5494      2.00000
      3       1.7459      2.00000
      4       2.4012      2.00000
      5       8.9206      0.00000
      6      10.1351      0.00000
      7      11.4964      0.00000
      8      11.6175      0.00000

 k-point    88 :       0.4539    0.2961    0.7500
  band No.  band energies     occupation 
      1      -2.1671      2.00000
      2      -1.5208      2.00000
      3       1.7146      2.00000
      4       2.4947      2.00000
      5       8.6964      0.00000
      6      10.1165      0.00000
      7      11.6402      0.00000
      8      11.8014      0.00000

 k-point    89 :       0.4474    0.3026    0.7500
  band No.  band energies     occupation 
      1      -2.2039      2.00000
      2      -1.4959      2.00000
      3       1.6857      2.00000
      4       2.5927      2.00000
      5       8.4796      0.00000
      6      10.0978      0.00000
      7      11.7888      0.00000
      8      11.9895      0.00000

 k-point    90 :       0.4408    0.3092    0.7500
  band No.  band energies     occupation 
      1      -2.2376      2.00000
      2      -1.4747      2.00000
      3       1.6592      2.00000
      4       2.6939      2.00000
      5       8.2706      0.00000
      6      10.0796      0.00000
      7      11.9413      0.00000
      8      12.1832      0.00000

 k-point    91 :       0.4342    0.3158    0.7500
  band No.  band energies     occupation 
      1      -2.2681      2.00000
      2      -1.4568      2.00000
      3       1.6351      2.00000
      4       2.7960      2.00000
      5       8.0708      0.00000
      6      10.0618      0.00000
      7      12.0954      0.00000
      8      12.3776      0.00000

 k-point    92 :       0.4276    0.3224    0.7500
  band No.  band energies     occupation 
      1      -2.2954      2.00000
      2      -1.4418      2.00000
      3       1.6133      2.00000
      4       2.8976      2.00000
      5       7.8815      0.00000
      6      10.0452      0.00000
      7      12.2505      0.00000
      8      12.5741      0.00000

 k-point    93 :       0.4211    0.3289    0.7500
  band No.  band energies     occupation 
      1      -2.3194      2.00000
      2      -1.4293      2.00000
      3       1.5943      2.00000
      4       2.9969      2.00000
      5       7.7062      0.00000
      6      10.0304      0.00000
      7      12.4088      0.00000
      8      12.7743      0.00000

 k-point    94 :       0.4145    0.3355    0.7500
  band No.  band energies     occupation 
      1      -2.3403      2.00000
      2      -1.4192      2.00000
      3       1.5777      2.00000
      4       3.0915      2.00000
      5       7.5462      0.00000
      6      10.0171      0.00000
      7      12.5663      0.00000
      8      12.9756      0.00000

 k-point    95 :       0.4079    0.3421    0.7500
  band No.  band energies     occupation 
      1      -2.3580      2.00000
      2      -1.4111      2.00000
      3       1.5636      2.00000
      4       3.1787      2.00000
      5       7.4038      0.00000
      6      10.0057      0.00000
      7      12.7219      0.00000
      8      13.1773      0.00000

 k-point    96 :       0.4013    0.3487    0.7500
  band No.  band energies     occupation 
      1      -2.3725      2.00000
      2      -1.4046      2.00000
      3       1.5521      2.00000
      4       3.2561      2.00000
      5       7.2829      0.00000
      6       9.9962      0.00000
      7      12.8765      0.00000
      8      13.3811      0.00000

 k-point    97 :       0.3947    0.3553    0.7500
  band No.  band energies     occupation 
      1      -2.3838      2.00000
      2      -1.3999      2.00000
      3       1.5431      2.00000
      4       3.3202      2.00000
      5       7.1841      0.00000
      6       9.9887      0.00000
      7      13.0259      0.00000
      8      13.5846      0.00000

 k-point    98 :       0.3882    0.3618    0.7500
  band No.  band energies     occupation 
      1      -2.3918      2.00000
      2      -1.3966      2.00000
      3       1.5367      2.00000
      4       3.3685      2.00000
      5       7.1111      0.00000
      6       9.9834      0.00000
      7      13.1639      0.00000
      8      13.7863      0.00000

 k-point    99 :       0.3816    0.3684    0.7500
  band No.  band energies     occupation 
      1      -2.3966      2.00000
      2      -1.3947      2.00000
      3       1.5328      2.00000
      4       3.3986      2.00000
      5       7.0662      0.00000
      6       9.9802      0.00000
      7      13.2731      0.00000
      8      13.9315      0.00000

 k-point   100 :       0.3750    0.3750    0.7500
  band No.  band energies     occupation 
      1      -2.3982      2.00000
      2      -1.3940      2.00000
      3       1.5315      2.00000
      4       3.4089      2.00000
      5       7.0511      0.00000
      6       9.9796      0.00000
      7      13.3197      0.00000
      8      13.8824      0.00000


--------------------------------------------------------------------------------------------------------


 soft charge-density along one line, spin component           1
         0         1         2         3         4         5         6         7         8         9
 total charge-density along one line
 
 pseudopotential strength for first ion, spin component:           1
 18.415  -0.001  -0.000  -0.000  -0.000   0.000   0.000   0.000
 -0.001   0.006   0.000   0.000   0.000  -0.000  -0.000  -0.000
 -0.000   0.000   4.179  -0.000  -0.000  -0.005   0.000   0.000
 -0.000   0.000  -0.000   4.179  -0.000   0.000  -0.005   0.000
 -0.000   0.000  -0.000  -0.000   4.179   0.000   0.000  -0.005
  0.000  -0.000  -0.005   0.000   0.000   0.005  -0.000  -0.000
  0.000  -0.000   0.000  -0.005   0.000  -0.000   0.005  -0.000
  0.000  -0.000   0.000   0.000  -0.005  -0.000  -0.000   0.005
 total augmentation occupancy for first ion, spin component:           1
  2.000   0.000   0.000   0.000   0.000   0.000   0.000   0.000
  0.000   0.000   0.000   0.000   0.000   0.000   0.000   0.000
  0.000   0.000   0.667   0.000   0.000   0.000   0.000   0.000
  0.000   0.000   0.000   0.667   0.000   0.000   0.000   0.000
  0.000   0.000   0.000   0.000   0.667   0.000   0.000   0.000
  0.000   0.000   0.000   0.000   0.000   0.000   0.000   0.000
  0.000   0.000   0.000   0.000   0.000   0.000   0.000   0.000
  0.000   0.000   0.000   0.000   0.000   0.000   0.000   0.000


------------------------ aborting loop because EDIFF is reached ----------------------------------------


 


 total charge     
 
# of ion     s       p       d       tot
----------------------------------------
  1        0.729   0.982   0.000   1.710
  2        0.729   0.982   0.000   1.710
------------------------------------------------
tot        1.457   1.964   0.000   3.421
 
    CHARGE:  cpu time    0.0090: real time    0.0095
    FORLOC:  cpu time    0.0000: real time    0.0002
    FORNL :  cpu time    0.0820: real time    0.0819
    STRESS:  cpu time    0.2450: real time    0.2452
    FORCOR:  cpu time    0.0040: real time    0.0046
    FORHAR:  cpu time    0.0020: real time    0.0008
    OFIELD:  cpu time    0.0000: real time    0.0000

  FORCE on cell =-STRESS in cart. coord.  units (eV):
  Direction    XX          YY          ZZ          XY          YZ          ZX
  --------------------------------------------------------------------------------------
  Alpha Z     3.36266     3.36266     3.36266
  Ewald     -76.17665   -76.17665   -76.17665     0.00000     0.00000     0.00000
  Hartree     5.14714     5.14714     5.14714     0.00000     0.00000     0.00000
  E(xc)     -25.39605   -25.39605   -25.39605     0.00001     0.00001     0.00001
  Local     -29.62597   -29.62597   -29.62597     0.00005     0.00005     0.00005
  n-local    79.37568    74.87602    77.37998    -1.40580    -0.84370    -1.09366
  augment   -11.35239   -11.35239   -11.35239    -0.00004    -0.00004    -0.00004
  Kinetic    56.79613    56.64424    59.61366    -2.03285    -1.31152    -1.44676
  Fock        0.00000     0.00000     0.00000     0.00000     0.00000     0.00000
  -------------------------------------------------------------------------------------
  Total       0.85397     0.85397     0.85397    -0.00000    -0.00000    -0.00000
  in kB      34.16830    34.16830    34.16830    -0.00000    -0.00000    -0.00000
  external pressure =       34.17 kB  Pullay stress =        0.00 kB


 VOLUME and BASIS-vectors are now :
 -----------------------------------------------------------------------------
  energy-cutoff  :      250.00
  volume of cell :       40.04
      direct lattice vectors                 reciprocal lattice vectors
     0.000000000  2.715400000  2.715400000    -0.184134934  0.184134934  0.184134934
     2.715400000  0.000000000  2.715400000     0.184134934 -0.184134934  0.184134934
     2.715400000  2.715400000  0.000000000     0.184134934  0.184134934 -0.184134934

  length of vectors
     3.840155507  3.840155507  3.840155507     0.318931061  0.318931061  0.318931061


 FORCES acting on ions
    electron-ion (+dipol)            ewald-force                    non-local-force                 convergence-correction
 -----------------------------------------------------------------------------------------------
   0.318E-05 0.318E-05 0.320E-05   -.703E-14 -.499E-14 -.139E-13   -.729E-16 -.382E-16 -.125E-15   0.228E-08 0.228E-08 0.462E-08
   -.318E-05 -.318E-05 -.320E-05   0.670E-14 0.473E-14 0.138E-13   0.451E-16 0.416E-16 0.114E-15   -.228E-08 -.228E-08 -.462E-08
 -----------------------------------------------------------------------------------------------
   0.437E-13 0.374E-13 0.165E-13   -.326E-15 -.260E-15 -.869E-16   -.278E-16 0.347E-17 -.104E-16   -.244E-14 -.318E-14 -.785E-15
 
 
 POSITION                                       TOTAL-FORCE (eV/Angst)
 -----------------------------------------------------------------------------------
      0.00000      0.00000      0.00000         0.000000      0.000000      0.000000
      1.35770      1.35770      1.35770        -0.000000     -0.000000     -0.000000
 -----------------------------------------------------------------------------------
    total drift:                                0.000000      0.000000      0.000000


--------------------------------------------------------------------------------------------------------



  FREE ENERGIE OF THE ION-ELECTRON SYSTEM (eV)
  ---------------------------------------------------
  free  energy   TOTEN  =       -10.17216568 eV

  energy  without entropy=      -10.17038754  energy(sigma->0) =      -10.17127661
 


--------------------------------------------------------------------------------------------------------


    POTLOK:  cpu time    0.0050: real time    0.0059


--------------------------------------------------------------------------------------------------------


     LOOP+:  cpu time    2.1617: real time   23.5723
    4ORBIT:  cpu time    0.0000: real time    0.0000
 


 total charge     
 
# of ion     s       p       d       tot
----------------------------------------
  1        0.729   0.982   0.000   1.710
  2        0.729   0.982   0.000   1.710
------------------------------------------------
tot        1.457   1.964   0.000   3.421
 

 total amount of memory used by VASP on root node    32205. kBytes
========================================================================

   base      :      30000. kBytes
   nonlr-proj:        106. kBytes
   fftplans  :        314. kBytes
   grid      :        451. kBytes
   one-center:          3. kBytes
   wavefun   :       1331. kBytes
 
  
  
 General timing and accounting informations for this job:
 ========================================================
  
                  Total CPU time used (sec):        3.008
                            User time (sec):        2.957
                          System time (sec):        0.051
                         Elapsed time (sec):       26.701
  
                   Maximum memory used (kb):       25300.
                   Average memory used (kb):           0.
  
                          Minor page faults:         6328
                          Major page faults:          222
                 Voluntary context switches:         1995
