PROCAR lm decomposed
# of k-points:  100         # of bands:   8         # of ions:   2

 k-point    1 :    0.50000000 0.25000000 0.75000000     weight = 0.01000000

band   1 # energy   -1.82009452 # occ.  2.00000000
 
ion      s     py     pz     px    dxy    dyz    dz2    dxz    dx2    tot
  1  0.206  0.021  0.021  0.000  0.000  0.000  0.000  0.000  0.000  0.249
  2  0.206  0.021  0.021  0.000  0.000  0.000  0.000  0.000  0.000  0.249
tot  0.411  0.043  0.043  0.000  0.000  0.000  0.000  0.000  0.000  0.497
 
band   2 # energy   -1.82009264 # occ.  2.00000000
 
ion      s     py     pz     px    dxy    dyz    dz2    dxz    dx2    tot
  1  0.206  0.021  0.021  0.000  0.000  0.000  0.000  0.000  0.000  0.249
  2  0.206  0.021  0.021  0.000  0.000  0.000  0.000  0.000  0.000  0.249
tot  0.411  0.043  0.043  0.000  0.000  0.000  0.000  0.000  0.000  0.497
 
band   3 # energy    1.98122184 # occ.  2.00000000
 
ion      s     py     pz     px    dxy    dyz    dz2    dxz    dx2    tot
  1  0.000  0.046  0.046  0.070  0.000  0.000  0.000  0.000  0.000  0.163
  2  0.000  0.046  0.046  0.070  0.000  0.000  0.000  0.000  0.000  0.163
tot  0.000  0.093  0.093  0.140  0.000  0.000  0.000  0.000  0.000  0.326
 
band   4 # energy    1.98122982 # occ.  2.00000000
 
ion      s     py     pz     px    dxy    dyz    dz2    dxz    dx2    tot
  1  0.000  0.046  0.046  0.070  0.000  0.000  0.000  0.000  0.000  0.163
  2  0.000  0.046  0.046  0.070  0.000  0.000  0.000  0.000  0.000  0.163
tot  0.000  0.093  0.093  0.140  0.000  0.000  0.000  0.000  0.000  0.326
 
band   5 # energy   10.12426456 # occ.  0.00000000
 
ion      s     py     pz     px    dxy    dyz    dz2    dxz    dx2    tot
  1  0.000  0.000  0.000  0.087  0.000  0.000  0.000  0.000  0.000  0.087
  2  0.000  0.000  0.000  0.087  0.000  0.000  0.000  0.000  0.000  0.087
tot  0.000  0.000  0.000  0.175  0.000  0.000  0.000  0.000  0.000  0.175
 
band   6 # energy   10.12429965 # occ.  0.00000000
 
ion      s     py     pz     px    dxy    dyz    dz2    dxz    dx2    tot
  1  0.000  0.000  0.000  0.087  0.000  0.000  0.000  0.000  0.000  0.087
  2  0.000  0.000  0.000  0.087  0.000  0.000  0.000  0.000  0.000  0.087
tot  0.000  0.000  0.000  0.175  0.000  0.000  0.000  0.000  0.000  0.175
 
band   7 # energy   10.84916121 # occ.  0.00000000
 
ion      s     py     pz     px    dxy    dyz    dz2    dxz    dx2    tot
  1  0.062  0.052  0.052  0.000  0.000  0.000  0.000  0.000  0.000  0.166
  2  0.062  0.052  0.052  0.000  0.000  0.000  0.000  0.000  0.000  0.166
tot  0.123  0.105  0.105  0.000  0.000  0.000  0.000  0.000  0.000  0.333
 
band   8 # energy   10.84917777 # occ.  0.00000000
 
ion      s     py     pz     px    dxy    dyz    dz2    dxz    dx2    tot
  1  0.062  0.052  0.052  0.000  0.000  0.000  0.000  0.000  0.000  0.166
  2  0.062  0.052  0.052  0.000  0.000  0.000  0.000  0.000  0.000  0.166
tot  0.123  0.105  0.105  0.000  0.000  0.000  0.000  0.000  0.000  0.333
 

 k-point    2 :    0.50000000 0.26315789 0.73684211     weight = 0.01000000

band   1 # energy   -1.99260670 # occ.  2.00000000
 
ion      s     py     pz     px    dxy    dyz    dz2    dxz    dx2    tot
  1  0.208  0.020  0.020  0.000  0.000  0.000  0.000  0.000  0.000  0.248
  2  0.208  0.020  0.020  0.000  0.000  0.000  0.000  0.000  0.000  0.248
tot  0.415  0.040  0.040  0.000  0.000  0.000  0.000  0.000  0.000  0.496
 
band   2 # energy   -1.65147685 # occ.  2.00000000
 
ion      s     py     pz     px    dxy    dyz    dz2    dxz    dx2    tot
  1  0.203  0.023  0.023  0.000  0.000  0.000  0.000  0.000  0.000  0.249
  2  0.203  0.023  0.023  0.000  0.000  0.000  0.000  0.000  0.000  0.249
tot  0.406  0.046  0.046  0.000  0.000  0.000  0.000  0.000  0.000  0.497
 
band   3 # energy    1.86379574 # occ.  2.00000000
 
ion      s     py     pz     px    dxy    dyz    dz2    dxz    dx2    tot
  1  0.000  0.047  0.047  0.067  0.000  0.000  0.000  0.000  0.000  0.161
  2  0.000  0.047  0.047  0.067  0.000  0.000  0.000  0.000  0.000  0.161
tot  0.000  0.094  0.094  0.135  0.000  0.000  0.000  0.000  0.000  0.323
 
band   4 # energy    2.11996227 # occ.  2.00000000
 
ion      s     py     pz     px    dxy    dyz    dz2    dxz    dx2    tot
  1  0.000  0.046  0.046  0.073  0.000  0.000  0.000  0.000  0.000  0.165
  2  0.000  0.046  0.046  0.073  0.000  0.000  0.000  0.000  0.000  0.165
tot  0.000  0.092  0.092  0.146  0.000  0.000  0.000  0.000  0.000  0.330
 
band   5 # energy    9.97133418 # occ.  0.00000000
 
ion      s     py     pz     px    dxy    dyz    dz2    dxz    dx2    tot
  1  0.002  0.002  0.002  0.084  0.000  0.000  0.000  0.000  0.000  0.089
  2  0.002  0.002  0.002  0.084  0.000  0.000  0.000  0.000  0.000  0.089
tot  0.004  0.003  0.003  0.167  0.000  0.000  0.000  0.000  0.000  0.178
 
band   6 # energy   10.19645261 # occ.  0.00000000
 
ion      s     py     pz     px    dxy    dyz    dz2    dxz    dx2    tot
  1  0.007  0.006  0.006  0.078  0.000  0.000  0.000  0.000  0.000  0.097
  2  0.007  0.006  0.006  0.078  0.000  0.000  0.000  0.000  0.000  0.097
tot  0.015  0.012  0.012  0.156  0.000  0.000  0.000  0.000  0.000  0.195
 
band   7 # energy   10.77192076 # occ.  0.00000000
 
ion      s     py     pz     px    dxy    dyz    dz2    dxz    dx2    tot
  1  0.057  0.045  0.045  0.010  0.000  0.000  0.000  0.000  0.000  0.157
  2  0.057  0.045  0.045  0.010  0.000  0.000  0.000  0.000  0.000  0.157
tot  0.114  0.090  0.090  0.020  0.000  0.000  0.000  0.000  0.000  0.314
 
band   8 # energy   11.02817252 # occ.  0.00000000
 
ion      s     py     pz     px    dxy    dyz    dz2    dxz    dx2    tot
  1  0.057  0.053  0.053  0.003  0.000  0.000  0.000  0.000  0.000  0.165
  2  0.057  0.053  0.053  0.003  0.000  0.000  0.000  0.000  0.000  0.165
tot  0.114  0.105  0.105  0.005  0.000  0.000  0.000  0.000  0.000  0.329
 

 k-point    3 :    0.50000000 0.27631579 0.72368421     weight = 0.01000000

band   1 # energy   -2.16471956 # occ.  2.00000000
 
ion      s     py     pz     px    dxy    dyz    dz2    dxz    dx2    tot
  1  0.210  0.019  0.019  0.000  0.000  0.000  0.000  0.000  0.000  0.247
  2  0.210  0.019  0.019  0.000  0.000  0.000  0.000  0.000  0.000  0.247
tot  0.419  0.037  0.037  0.001  0.000  0.000  0.000  0.000  0.000  0.495
 
band   2 # energy   -1.49065752 # occ.  2.00000000
 
ion      s     py     pz     px    dxy    dyz    dz2    dxz    dx2    tot
  1  0.199  0.024  0.024  0.001  0.000  0.000  0.000  0.000  0.000  0.248
  2  0.199  0.024  0.024  0.001  0.000  0.000  0.000  0.000  0.000  0.248
tot  0.398  0.048  0.048  0.001  0.000  0.000  0.000  0.000  0.000  0.496
 
band   3 # energy    1.77341304 # occ.  2.00000000
 
ion      s     py     pz     px    dxy    dyz    dz2    dxz    dx2    tot
  1  0.001  0.048  0.048  0.065  0.000  0.000  0.000  0.000  0.000  0.161
  2  0.001  0.048  0.048  0.065  0.000  0.000  0.000  0.000  0.000  0.161
tot  0.002  0.095  0.095  0.129  0.000  0.000  0.000  0.000  0.000  0.322
 
band   4 # energy    2.27626526 # occ.  2.00000000
 
ion      s     py     pz     px    dxy    dyz    dz2    dxz    dx2    tot
  1  0.000  0.046  0.046  0.075  0.000  0.000  0.000  0.000  0.000  0.168
  2  0.000  0.046  0.046  0.075  0.000  0.000  0.000  0.000  0.000  0.168
tot  0.001  0.092  0.092  0.151  0.000  0.000  0.000  0.000  0.000  0.335
 
band   5 # energy    9.80453368 # occ.  0.00000000
 
ion      s     py     pz     px    dxy    dyz    dz2    dxz    dx2    tot
  1  0.004  0.004  0.004  0.079  0.000  0.000  0.000  0.000  0.000  0.091
  2  0.004  0.004  0.004  0.079  0.000  0.000  0.000  0.000  0.000  0.091
tot  0.008  0.008  0.008  0.158  0.000  0.000  0.000  0.000  0.000  0.183
 
band   6 # energy   10.12512202 # occ.  0.00000000
 
ion      s     py     pz     px    dxy    dyz    dz2    dxz    dx2    tot
  1  0.027  0.020  0.020  0.054  0.000  0.000  0.000  0.000  0.000  0.120
  2  0.027  0.020  0.020  0.054  0.000  0.000  0.000  0.000  0.000  0.120
tot  0.055  0.039  0.039  0.107  0.000  0.000  0.000  0.000  0.000  0.240
 
band   7 # energy   10.86425954 # occ.  0.00000000
 
ion      s     py     pz     px    dxy    dyz    dz2    dxz    dx2    tot
  1  0.040  0.030  0.030  0.035  0.000  0.000  0.000  0.000  0.000  0.134
  2  0.040  0.030  0.030  0.035  0.000  0.000  0.000  0.000  0.000  0.134
tot  0.080  0.059  0.059  0.069  0.000  0.000  0.000  0.000  0.000  0.268
 
band   8 # energy   11.24801923 # occ.  0.00000000
 
ion      s     py     pz     px    dxy    dyz    dz2    dxz    dx2    tot
  1  0.052  0.052  0.052  0.006  0.000  0.000  0.000  0.000  0.000  0.162
  2  0.052  0.052  0.052  0.006  0.000  0.000  0.000  0.000  0.000  0.162
tot  0.103  0.104  0.105  0.012  0.000  0.000  0.000  0.000  0.000  0.324
 

 k-point    4 :    0.50000000 0.28947368 0.71052632     weight = 0.01000000

band   1 # energy   -2.33403299 # occ.  2.00000000
 
ion      s     py     pz     px    dxy    dyz    dz2    dxz    dx2    tot
  1  0.211  0.017  0.017  0.001  0.000  0.000  0.000  0.000  0.000  0.247
  2  0.211  0.017  0.017  0.001  0.000  0.000  0.000  0.000  0.000  0.247
tot  0.423  0.034  0.034  0.001  0.000  0.000  0.000  0.000  0.000  0.493
 
band   2 # energy   -1.34287782 # occ.  2.00000000
 
ion      s     py     pz     px    dxy    dyz    dz2    dxz    dx2    tot
  1  0.194  0.025  0.025  0.002  0.000  0.000  0.000  0.000  0.000  0.247
  2  0.194  0.025  0.025  0.002  0.000  0.000  0.000  0.000  0.000  0.247
tot  0.389  0.051  0.051  0.004  0.000  0.000  0.000  0.000  0.000  0.493
 
band   3 # energy    1.71541108 # occ.  2.00000000
 
ion      s     py     pz     px    dxy    dyz    dz2    dxz    dx2    tot
  1  0.003  0.048  0.048  0.061  0.000  0.000  0.000  0.000  0.000  0.161
  2  0.003  0.048  0.048  0.061  0.000  0.000  0.000  0.000  0.000  0.161
tot  0.006  0.097  0.097  0.123  0.000  0.000  0.000  0.000  0.000  0.322
 
band   4 # energy    2.44634319 # occ.  2.00000000
 
ion      s     py     pz     px    dxy    dyz    dz2    dxz    dx2    tot
  1  0.001  0.046  0.046  0.078  0.000  0.000  0.000  0.000  0.000  0.170
  2  0.001  0.046  0.046  0.078  0.000  0.000  0.000  0.000  0.000  0.170
tot  0.001  0.091  0.091  0.157  0.000  0.000  0.000  0.000  0.000  0.341
 
band   5 # energy    9.64280535 # occ.  0.00000000
 
ion      s     py     pz     px    dxy    dyz    dz2    dxz    dx2    tot
  1  0.006  0.006  0.006  0.075  0.000  0.000  0.000  0.000  0.000  0.093
  2  0.006  0.006  0.006  0.075  0.000  0.000  0.000  0.000  0.000  0.093
tot  0.012  0.012  0.012  0.150  0.000  0.000  0.000  0.000  0.000  0.186
 
band   6 # energy    9.97376235 # occ.  0.00000000
 
ion      s     py     pz     px    dxy    dyz    dz2    dxz    dx2    tot
  1  0.041  0.027  0.027  0.038  0.000  0.000  0.000  0.000  0.000  0.134
  2  0.041  0.027  0.027  0.038  0.000  0.000  0.000  0.000  0.000  0.134
tot  0.082  0.055  0.055  0.077  0.000  0.000  0.000  0.000  0.000  0.268
 
band   7 # energy   11.06182828 # occ.  0.00000000
 
ion      s     py     pz     px    dxy    dyz    dz2    dxz    dx2    tot
  1  0.029  0.021  0.021  0.050  0.000  0.000  0.000  0.000  0.000  0.120
  2  0.029  0.021  0.021  0.050  0.000  0.000  0.000  0.000  0.000  0.120
tot  0.059  0.041  0.041  0.099  0.000  0.000  0.000  0.000  0.000  0.240
 
band   8 # energy   11.48829819 # occ.  0.00000000
 
ion      s     py     pz     px    dxy    dyz    dz2    dxz    dx2    tot
  1  0.047  0.052  0.052  0.008  0.000  0.000  0.000  0.000  0.000  0.160
  2  0.047  0.052  0.052  0.008  0.000  0.000  0.000  0.000  0.000  0.160
tot  0.094  0.105  0.105  0.017  0.000  0.000  0.000  0.000  0.000  0.320
 

 k-point    5 :    0.50000000 0.30263158 0.69736842     weight = 0.01000000

band   1 # energy   -2.49844142 # occ.  2.00000000
 
ion      s     py     pz     px    dxy    dyz    dz2    dxz    dx2    tot
  1  0.213  0.016  0.016  0.001  0.000  0.000  0.000  0.000  0.000  0.246
  2  0.213  0.016  0.016  0.001  0.000  0.000  0.000  0.000  0.000  0.246
tot  0.426  0.032  0.032  0.002  0.000  0.000  0.000  0.000  0.000  0.492
 
band   2 # energy   -1.21369863 # occ.  2.00000000
 
ion      s     py     pz     px    dxy    dyz    dz2    dxz    dx2    tot
  1  0.188  0.026  0.026  0.004  0.000  0.000  0.000  0.000  0.000  0.244
  2  0.188  0.026  0.026  0.004  0.000  0.000  0.000  0.000  0.000  0.244
tot  0.376  0.053  0.053  0.007  0.000  0.000  0.000  0.000  0.000  0.489
 
band   3 # energy    1.69576455 # occ.  2.00000000
 
ion      s     py     pz     px    dxy    dyz    dz2    dxz    dx2    tot
  1  0.006  0.049  0.049  0.058  0.000  0.000  0.000  0.000  0.000  0.163
  2  0.006  0.049  0.049  0.058  0.000  0.000  0.000  0.000  0.000  0.163
tot  0.013  0.099  0.099  0.115  0.000  0.000  0.000  0.000  0.000  0.325
 
band   4 # energy    2.62724698 # occ.  2.00000000
 
ion      s     py     pz     px    dxy    dyz    dz2    dxz    dx2    tot
  1  0.001  0.046  0.046  0.082  0.000  0.000  0.000  0.000  0.000  0.174
  2  0.001  0.046  0.046  0.082  0.000  0.000  0.000  0.000  0.000  0.174
tot  0.002  0.091  0.091  0.163  0.000  0.000  0.000  0.000  0.000  0.348
 
band   5 # energy    9.49330835 # occ.  0.00000000
 
ion      s     py     pz     px    dxy    dyz    dz2    dxz    dx2    tot
  1  0.007  0.008  0.008  0.071  0.000  0.000  0.000  0.000  0.000  0.094
  2  0.007  0.008  0.008  0.071  0.000  0.000  0.000  0.000  0.000  0.094
tot  0.014  0.016  0.016  0.143  0.000  0.000  0.000  0.000  0.000  0.188
 
band   6 # energy    9.80188820 # occ.  0.00000000
 
ion      s     py     pz     px    dxy    dyz    dz2    dxz    dx2    tot
  1  0.049  0.031  0.031  0.031  0.000  0.000  0.000  0.000  0.000  0.141
  2  0.049  0.031  0.031  0.031  0.000  0.000  0.000  0.000  0.000  0.141
tot  0.099  0.062  0.062  0.061  0.000  0.000  0.000  0.000  0.000  0.283
 
band   7 # energy   11.30507733 # occ.  0.00000000
 
ion      s     py     pz     px    dxy    dyz    dz2    dxz    dx2    tot
  1  0.024  0.016  0.016  0.057  0.000  0.000  0.000  0.000  0.000  0.113
  2  0.024  0.016  0.016  0.057  0.000  0.000  0.000  0.000  0.000  0.113
tot  0.048  0.032  0.032  0.114  0.000  0.000  0.000  0.000  0.000  0.226
 
band   8 # energy   11.74210772 # occ.  0.00000000
 
ion      s     py     pz     px    dxy    dyz    dz2    dxz    dx2    tot
  1  0.043  0.053  0.053  0.010  0.000  0.000  0.000  0.000  0.000  0.158
  2  0.043  0.053  0.053  0.010  0.000  0.000  0.000  0.000  0.000  0.158
tot  0.085  0.106  0.105  0.020  0.000  0.000  0.000  0.000  0.000  0.316
 

 k-point    6 :    0.50000000 0.31578947 0.68421053     weight = 0.01000000

band   1 # energy   -2.65635038 # occ.  2.00000000
 
ion      s     py     pz     px    dxy    dyz    dz2    dxz    dx2    tot
  1  0.215  0.015  0.015  0.002  0.000  0.000  0.000  0.000  0.000  0.245
  2  0.215  0.015  0.015  0.002  0.000  0.000  0.000  0.000  0.000  0.245
tot  0.429  0.029  0.029  0.003  0.000  0.000  0.000  0.000  0.000  0.490
 
band   2 # energy   -1.10845486 # occ.  2.00000000
 
ion      s     py     pz     px    dxy    dyz    dz2    dxz    dx2    tot
  1  0.179  0.027  0.027  0.006  0.000  0.000  0.000  0.000  0.000  0.241
  2  0.179  0.027  0.027  0.006  0.000  0.000  0.000  0.000  0.000  0.241
tot  0.359  0.055  0.055  0.012  0.000  0.000  0.000  0.000  0.000  0.481
 
band   3 # energy    1.71949076 # occ.  2.00000000
 
ion      s     py     pz     px    dxy    dyz    dz2    dxz    dx2    tot
  1  0.011  0.051  0.051  0.053  0.000  0.000  0.000  0.000  0.000  0.166
  2  0.011  0.051  0.051  0.053  0.000  0.000  0.000  0.000  0.000  0.166
tot  0.022  0.101  0.101  0.106  0.000  0.000  0.000  0.000  0.000  0.331
 
band   4 # energy    2.81529321 # occ.  2.00000000
 
ion      s     py     pz     px    dxy    dyz    dz2    dxz    dx2    tot
  1  0.001  0.045  0.045  0.085  0.000  0.000  0.000  0.000  0.000  0.177
  2  0.001  0.045  0.045  0.085  0.000  0.000  0.000  0.000  0.000  0.177
tot  0.002  0.091  0.091  0.170  0.000  0.000  0.000  0.000  0.000  0.354
 
band   5 # energy    9.35707071 # occ.  0.00000000
 
ion      s     py     pz     px    dxy    dyz    dz2    dxz    dx2    tot
  1  0.008  0.010  0.010  0.067  0.000  0.000  0.000  0.000  0.000  0.094
  2  0.008  0.010  0.010  0.067  0.000  0.000  0.000  0.000  0.000  0.094
tot  0.015  0.019  0.019  0.134  0.000  0.000  0.000  0.000  0.000  0.188
 
band   6 # energy    9.62828703 # occ.  0.00000000
 
ion      s     py     pz     px    dxy    dyz    dz2    dxz    dx2    tot
  1  0.055  0.032  0.032  0.026  0.000  0.000  0.000  0.000  0.000  0.146
  2  0.055  0.032  0.032  0.026  0.000  0.000  0.000  0.000  0.000  0.146
tot  0.111  0.064  0.064  0.052  0.000  0.000  0.000  0.000  0.000  0.292
 
band   7 # energy   11.57234325 # occ.  0.00000000
 
ion      s     py     pz     px    dxy    dyz    dz2    dxz    dx2    tot
  1  0.021  0.013  0.013  0.061  0.000  0.000  0.000  0.000  0.000  0.109
  2  0.021  0.013  0.013  0.061  0.000  0.000  0.000  0.000  0.000  0.109
tot  0.042  0.027  0.027  0.121  0.000  0.000  0.000  0.000  0.000  0.217
 
band   8 # energy   12.00577430 # occ.  0.00000000
 
ion      s     py     pz     px    dxy    dyz    dz2    dxz    dx2    tot
  1  0.039  0.054  0.054  0.011  0.000  0.000  0.000  0.000  0.000  0.157
  2  0.038  0.054  0.054  0.011  0.000  0.000  0.000  0.000  0.000  0.157
tot  0.077  0.107  0.107  0.023  0.000  0.000  0.000  0.000  0.000  0.314
 

 k-point    7 :    0.50000000 0.32894737 0.67105263     weight = 0.01000000

band   1 # energy   -2.80650422 # occ.  2.00000000
 
ion      s     py     pz     px    dxy    dyz    dz2    dxz    dx2    tot
  1  0.216  0.013  0.013  0.002  0.000  0.000  0.000  0.000  0.000  0.244
  2  0.216  0.013  0.013  0.002  0.000  0.000  0.000  0.000  0.000  0.244
tot  0.432  0.027  0.027  0.004  0.000  0.000  0.000  0.000  0.000  0.489
 
band   2 # energy   -1.03034417 # occ.  2.00000000
 
ion      s     py     pz     px    dxy    dyz    dz2    dxz    dx2    tot
  1  0.170  0.028  0.028  0.009  0.000  0.000  0.000  0.000  0.000  0.236
  2  0.170  0.028  0.028  0.009  0.000  0.000  0.000  0.000  0.000  0.236
tot  0.339  0.057  0.057  0.019  0.000  0.000  0.000  0.000  0.000  0.471
 
band   3 # energy    1.79012486 # occ.  2.00000000
 
ion      s     py     pz     px    dxy    dyz    dz2    dxz    dx2    tot
  1  0.017  0.052  0.052  0.048  0.000  0.000  0.000  0.000  0.000  0.170
  2  0.017  0.052  0.052  0.048  0.000  0.000  0.000  0.000  0.000  0.170
tot  0.035  0.105  0.105  0.096  0.000  0.000  0.000  0.000  0.000  0.340
 
band   4 # energy    3.00789348 # occ.  2.00000000
 
ion      s     py     pz     px    dxy    dyz    dz2    dxz    dx2    tot
  1  0.001  0.045  0.045  0.089  0.000  0.000  0.000  0.000  0.000  0.181
  2  0.001  0.045  0.045  0.089  0.000  0.000  0.000  0.000  0.000  0.181
tot  0.002  0.090  0.090  0.178  0.000  0.000  0.000  0.000  0.000  0.362
 
band   5 # energy    9.23948464 # occ.  0.00000000
 
ion      s     py     pz     px    dxy    dyz    dz2    dxz    dx2    tot
  1  0.008  0.012  0.012  0.063  0.000  0.000  0.000  0.000  0.000  0.094
  2  0.008  0.012  0.012  0.063  0.000  0.000  0.000  0.000  0.000  0.094
tot  0.016  0.023  0.023  0.126  0.000  0.000  0.000  0.000  0.000  0.188
 
band   6 # energy    9.45891038 # occ.  0.00000000
 
ion      s     py     pz     px    dxy    dyz    dz2    dxz    dx2    tot
  1  0.061  0.033  0.033  0.023  0.000  0.000  0.000  0.000  0.000  0.149
  2  0.061  0.033  0.033  0.023  0.000  0.000  0.000  0.000  0.000  0.149
tot  0.122  0.066  0.066  0.046  0.000  0.000  0.000  0.000  0.000  0.299
 
band   7 # energy   11.85852953 # occ.  0.00000000
 
ion      s     py     pz     px    dxy    dyz    dz2    dxz    dx2    tot
  1  0.019  0.012  0.012  0.063  0.000  0.000  0.000  0.000  0.000  0.106
  2  0.019  0.012  0.012  0.063  0.000  0.000  0.000  0.000  0.000  0.106
tot  0.039  0.024  0.024  0.126  0.000  0.000  0.000  0.000  0.000  0.211
 
band   8 # energy   12.27722538 # occ.  0.00000000
 
ion      s     py     pz     px    dxy    dyz    dz2    dxz    dx2    tot
  1  0.035  0.055  0.055  0.012  0.000  0.000  0.000  0.000  0.000  0.156
  2  0.034  0.055  0.055  0.013  0.000  0.000  0.000  0.000  0.000  0.156
tot  0.069  0.109  0.109  0.025  0.000  0.000  0.000  0.000  0.000  0.312
 

 k-point    8 :    0.50000000 0.34210526 0.65789474     weight = 0.01000000

band   1 # energy   -2.94798148 # occ.  2.00000000
 
ion      s     py     pz     px    dxy    dyz    dz2    dxz    dx2    tot
  1  0.217  0.012  0.012  0.002  0.000  0.000  0.000  0.000  0.000  0.244
  2  0.217  0.012  0.012  0.002  0.000  0.000  0.000  0.000  0.000  0.244
tot  0.435  0.024  0.024  0.005  0.000  0.000  0.000  0.000  0.000  0.488
 
band   2 # energy   -0.97986197 # occ.  2.00000000
 
ion      s     py     pz     px    dxy    dyz    dz2    dxz    dx2    tot
  1  0.159  0.029  0.029  0.013  0.000  0.000  0.000  0.000  0.000  0.230
  2  0.159  0.029  0.029  0.013  0.000  0.000  0.000  0.000  0.000  0.230
tot  0.318  0.058  0.058  0.026  0.000  0.000  0.000  0.000  0.000  0.460
 
band   3 # energy    1.90796218 # occ.  2.00000000
 
ion      s     py     pz     px    dxy    dyz    dz2    dxz    dx2    tot
  1  0.024  0.054  0.054  0.043  0.000  0.000  0.000  0.000  0.000  0.175
  2  0.024  0.054  0.054  0.043  0.000  0.000  0.000  0.000  0.000  0.175
tot  0.048  0.108  0.108  0.086  0.000  0.000  0.000  0.000  0.000  0.351
 
band   4 # energy    3.20215811 # occ.  2.00000000
 
ion      s     py     pz     px    dxy    dyz    dz2    dxz    dx2    tot
  1  0.001  0.045  0.045  0.094  0.000  0.000  0.000  0.000  0.000  0.185
  2  0.001  0.045  0.045  0.094  0.000  0.000  0.000  0.000  0.000  0.185
tot  0.002  0.090  0.090  0.187  0.000  0.000  0.000  0.000  0.000  0.369
 
band   5 # energy    9.14091189 # occ.  0.00000000
 
ion      s     py     pz     px    dxy    dyz    dz2    dxz    dx2    tot
  1  0.008  0.014  0.014  0.058  0.000  0.000  0.000  0.000  0.000  0.094
  2  0.008  0.014  0.014  0.058  0.000  0.000  0.000  0.000  0.000  0.094
tot  0.016  0.027  0.027  0.117  0.000  0.000  0.000  0.000  0.000  0.187
 
band   6 # energy    9.29551861 # occ.  0.00000000
 
ion      s     py     pz     px    dxy    dyz    dz2    dxz    dx2    tot
  1  0.066  0.033  0.033  0.020  0.000  0.000  0.000  0.000  0.000  0.153
  2  0.066  0.033  0.033  0.020  0.000  0.000  0.000  0.000  0.000  0.153
tot  0.132  0.066  0.066  0.040  0.000  0.000  0.000  0.000  0.000  0.305
 
band   7 # energy   12.16155610 # occ.  0.00000000
 
ion      s     py     pz     px    dxy    dyz    dz2    dxz    dx2    tot
  1  0.019  0.011  0.011  0.065  0.000  0.000  0.000  0.000  0.000  0.104
  2  0.018  0.011  0.011  0.065  0.000  0.000  0.000  0.000  0.000  0.104
tot  0.037  0.021  0.021  0.129  0.000  0.000  0.000  0.000  0.000  0.209
 
band   8 # energy   12.55414839 # occ.  0.00000000
 
ion      s     py     pz     px    dxy    dyz    dz2    dxz    dx2    tot
  1  0.031  0.057  0.053  0.013  0.000  0.000  0.000  0.000  0.000  0.154
  2  0.030  0.058  0.055  0.014  0.000  0.000  0.000  0.000  0.000  0.156
tot  0.061  0.115  0.108  0.027  0.000  0.000  0.000  0.000  0.000  0.310
 

 k-point    9 :    0.50000000 0.35526316 0.64473684     weight = 0.01000000

band   1 # energy   -3.07994261 # occ.  2.00000000
 
ion      s     py     pz     px    dxy    dyz    dz2    dxz    dx2    tot
  1  0.219  0.011  0.011  0.003  0.000  0.000  0.000  0.000  0.000  0.243
  2  0.219  0.011  0.011  0.003  0.000  0.000  0.000  0.000  0.000  0.243
tot  0.437  0.022  0.022  0.005  0.000  0.000  0.000  0.000  0.000  0.486
 
band   2 # energy   -0.95452918 # occ.  2.00000000
 
ion      s     py     pz     px    dxy    dyz    dz2    dxz    dx2    tot
  1  0.148  0.030  0.030  0.017  0.000  0.000  0.000  0.000  0.000  0.224
  2  0.148  0.030  0.030  0.017  0.000  0.000  0.000  0.000  0.000  0.224
tot  0.296  0.059  0.059  0.033  0.000  0.000  0.000  0.000  0.000  0.448
 
band   3 # energy    2.07012410 # occ.  2.00000000
 
ion      s     py     pz     px    dxy    dyz    dz2    dxz    dx2    tot
  1  0.031  0.057  0.057  0.037  0.000  0.000  0.000  0.000  0.000  0.181
  2  0.031  0.057  0.057  0.037  0.000  0.000  0.000  0.000  0.000  0.181
tot  0.062  0.113  0.113  0.075  0.000  0.000  0.000  0.000  0.000  0.363
 
band   4 # energy    3.39507153 # occ.  2.00000000
 
ion      s     py     pz     px    dxy    dyz    dz2    dxz    dx2    tot
  1  0.001  0.045  0.045  0.099  0.000  0.000  0.000  0.000  0.000  0.189
  2  0.001  0.045  0.045  0.099  0.000  0.000  0.000  0.000  0.000  0.189
tot  0.002  0.089  0.089  0.197  0.000  0.000  0.000  0.000  0.000  0.378
 
band   5 # energy    9.06175502 # occ.  0.00000000
 
ion      s     py     pz     px    dxy    dyz    dz2    dxz    dx2    tot
  1  0.008  0.016  0.016  0.053  0.000  0.000  0.000  0.000  0.000  0.093
  2  0.008  0.016  0.016  0.053  0.000  0.000  0.000  0.000  0.000  0.093
tot  0.016  0.031  0.031  0.107  0.000  0.000  0.000  0.000  0.000  0.186
 
band   6 # energy    9.13848174 # occ.  0.00000000
 
ion      s     py     pz     px    dxy    dyz    dz2    dxz    dx2    tot
  1  0.071  0.033  0.033  0.018  0.000  0.000  0.000  0.000  0.000  0.156
  2  0.071  0.033  0.033  0.018  0.000  0.000  0.000  0.000  0.000  0.156
tot  0.143  0.067  0.067  0.036  0.000  0.000  0.000  0.000  0.000  0.312
 
band   7 # energy   12.47246118 # occ.  0.00000000
 
ion      s     py     pz     px    dxy    dyz    dz2    dxz    dx2    tot
  1  0.029  0.012  0.013  0.090  0.000  0.000  0.000  0.000  0.000  0.145
  2  0.028  0.015  0.013  0.092  0.000  0.000  0.000  0.000  0.000  0.147
tot  0.057  0.027  0.027  0.182  0.000  0.000  0.000  0.000  0.000  0.292
 
band   8 # energy   12.54260240 # occ.  0.00000000
 
ion      s     py     pz     px    dxy    dyz    dz2    dxz    dx2    tot
  1  0.010  0.033  0.045  0.012  0.000  0.000  0.000  0.000  0.000  0.099
  2  0.010  0.030  0.047  0.012  0.000  0.000  0.000  0.000  0.000  0.099
tot  0.019  0.063  0.092  0.024  0.000  0.000  0.000  0.000  0.000  0.199
 

 k-point   10 :    0.50000000 0.36842105 0.63157895     weight = 0.01000000

band   1 # energy   -3.20183422 # occ.  2.00000000
 
ion      s     py     pz     px    dxy    dyz    dz2    dxz    dx2    tot
  1  0.220  0.010  0.010  0.003  0.000  0.000  0.000  0.000  0.000  0.243
  2  0.220  0.010  0.010  0.003  0.000  0.000  0.000  0.000  0.000  0.243
tot  0.440  0.020  0.020  0.006  0.000  0.000  0.000  0.000  0.000  0.485
 
band   2 # energy   -0.94991033 # occ.  2.00000000
 
ion      s     py     pz     px    dxy    dyz    dz2    dxz    dx2    tot
  1  0.138  0.030  0.030  0.020  0.000  0.000  0.000  0.000  0.000  0.218
  2  0.138  0.030  0.030  0.020  0.000  0.000  0.000  0.000  0.000  0.218
tot  0.276  0.060  0.060  0.040  0.000  0.000  0.000  0.000  0.000  0.436
 
band   3 # energy    2.27118859 # occ.  2.00000000
 
ion      s     py     pz     px    dxy    dyz    dz2    dxz    dx2    tot
  1  0.036  0.059  0.059  0.032  0.000  0.000  0.000  0.000  0.000  0.187
  2  0.036  0.059  0.059  0.032  0.000  0.000  0.000  0.000  0.000  0.187
tot  0.073  0.118  0.118  0.065  0.000  0.000  0.000  0.000  0.000  0.374
 
band   4 # energy    3.58357643 # occ.  2.00000000
 
ion      s     py     pz     px    dxy    dyz    dz2    dxz    dx2    tot
  1  0.001  0.044  0.044  0.104  0.000  0.000  0.000  0.000  0.000  0.193
  2  0.001  0.044  0.044  0.104  0.000  0.000  0.000  0.000  0.000  0.193
tot  0.002  0.088  0.088  0.208  0.000  0.000  0.000  0.000  0.000  0.386
 
band   5 # energy    8.98652494 # occ.  0.00000000
 
ion      s     py     pz     px    dxy    dyz    dz2    dxz    dx2    tot
  1  0.077  0.033  0.033  0.015  0.000  0.000  0.000  0.000  0.000  0.160
  2  0.077  0.034  0.034  0.015  0.000  0.000  0.000  0.000  0.000  0.160
tot  0.154  0.067  0.067  0.031  0.000  0.000  0.000  0.000  0.000  0.319
 
band   6 # energy    9.00296989 # occ.  0.00000000
 
ion      s     py     pz     px    dxy    dyz    dz2    dxz    dx2    tot
  1  0.008  0.018  0.018  0.048  0.000  0.000  0.000  0.000  0.000  0.092
  2  0.008  0.018  0.018  0.048  0.000  0.000  0.000  0.000  0.000  0.092
tot  0.016  0.036  0.036  0.096  0.000  0.000  0.000  0.000  0.000  0.185
 
band   7 # energy   12.01774143 # occ.  0.00000000
 
ion      s     py     pz     px    dxy    dyz    dz2    dxz    dx2    tot
  1  0.024  0.040  0.040  0.045  0.000  0.000  0.000  0.000  0.000  0.148
  2  0.024  0.040  0.040  0.045  0.000  0.000  0.000  0.000  0.000  0.148
tot  0.047  0.080  0.080  0.089  0.000  0.000  0.000  0.000  0.000  0.296
 
band   8 # energy   12.81108705 # occ.  0.00000000
 
ion      s     py     pz     px    dxy    dyz    dz2    dxz    dx2    tot
  1  0.016  0.009  0.007  0.059  0.000  0.000  0.000  0.000  0.000  0.091
  2  0.014  0.011  0.009  0.061  0.000  0.000  0.000  0.000  0.000  0.095
tot  0.030  0.020  0.016  0.120  0.000  0.000  0.000  0.000  0.000  0.185
 

 k-point   11 :    0.50000000 0.38157895 0.61842105     weight = 0.01000000

band   1 # energy   -3.31325477 # occ.  2.00000000
 
ion      s     py     pz     px    dxy    dyz    dz2    dxz    dx2    tot
  1  0.221  0.009  0.009  0.003  0.000  0.000  0.000  0.000  0.000  0.242
  2  0.221  0.009  0.009  0.003  0.000  0.000  0.000  0.000  0.000  0.242
tot  0.442  0.018  0.018  0.007  0.000  0.000  0.000  0.000  0.000  0.484
 
band   2 # energy   -0.96061118 # occ.  2.00000000
 
ion      s     py     pz     px    dxy    dyz    dz2    dxz    dx2    tot
  1  0.129  0.031  0.031  0.023  0.000  0.000  0.000  0.000  0.000  0.213
  2  0.129  0.031  0.031  0.023  0.000  0.000  0.000  0.000  0.000  0.213
tot  0.258  0.061  0.061  0.045  0.000  0.000  0.000  0.000  0.000  0.426
 
band   3 # energy    2.50475344 # occ.  2.00000000
 
ion      s     py     pz     px    dxy    dyz    dz2    dxz    dx2    tot
  1  0.040  0.062  0.062  0.028  0.000  0.000  0.000  0.000  0.000  0.192