Starting job 28245588 ("si_bulk") on c16-27 at Fri Sep 27 09:47:04 CEST 2019
 running on    4 total cores
 distrk:  each k-point on    4 cores,    1 groups
 distr:  one band on    4 cores,    1 groups
 using from now: INCAR     
 vasp.5.4.1 05Feb16 (build Mar 02 2016 14:09:44) complex                        
  
 POSCAR found type information on POSCAR  Si
 POSCAR found :  1 types and       2 ions

 ----------------------------------------------------------------------------- 
|                                                                             |
|  ADVICE TO THIS USER RUNNING 'VASP/VAMP'   (HEAR YOUR MASTER'S VOICE ...):  |
|                                                                             |
|      You have a (more or less) 'small supercell' and for smaller cells      |
|      it is recommended  to use the reciprocal-space projection scheme!      |
|      The real space optimization is not  efficient for small cells and it   |
|      is also less accurate ...                                              |
|      Therefore set LREAL=.FALSE. in the  INCAR file                         |
|                                                                             |
 ----------------------------------------------------------------------------- 

 LDA part: xc-table for Pade appr. of Perdew
 WARNING: stress and forces are not correct
 POSCAR, INCAR and KPOINTS ok, starting setup
 WARNING: small aliasing (wrap around) errors must be expected
 FFT: planning ...
 WAVECAR not read
 charge-density read from file: unknown                                 
 entering main loop
       N       E                     dE             d eps       ncg     rms          rms(c)
DAV:   1    -0.198069227716E+00   -0.19807E+00   -0.22378E+03  1648   0.434E+02
DAV:   2    -0.100635367665E+02   -0.98655E+01   -0.93015E+01  2552   0.567E+01
DAV:   3    -0.101718299661E+02   -0.10829E+00   -0.10827E+00  2016   0.738E+00
DAV:   4    -0.101721654100E+02   -0.33544E-03   -0.33544E-03  2568   0.418E-01
DAV:   5    -0.101721656814E+02   -0.27139E-06   -0.27124E-06  2008   0.914E-03
RMM:   6    -0.101721656827E+02   -0.12992E-08   -0.15406E-08   529   0.590E-04
   1 F= -.10172166E+02 E0= -.10171277E+02  d E =-.177815E-02

Currently Loaded Modulefiles:
  1) Anaconda3/5.1.0       3) vesta/3.3.8           5) intel/2016.1
  2) gnuplot/5.0.4         4) imagemagick/6.7.9-0   6) vasp/5.4.1.Feb16

Job script resource usage:
       JobID  MaxVMSize     MaxRSS 
------------ ---------- ---------- 
28245588.ba+    216884K      2303K 

Job step resource usage:
       JobID    JobName  AllocCPUS  MaxVMSize     MaxRSS    Elapsed ExitCode 
------------ ---------- ---------- ---------- ---------- ---------- -------- 
28245588        si_bulk          4                         00:00:28      0:0 
28245588.0    pmi_proxy          1    279832K       518K   00:00:27      0:0 

Job 28245588 ("si_bulk") completed on c16-27 at Fri Sep 27 09:47:31 CEST 2019
