unknown system                          
   2.70000000000000     
     1.000000    0.000000    0.000000
     0.000000    1.000000    0.000000
     0.000000    0.000000    1.000000
   Pt
     1
Direct
  0.000000  0.000000  0.000000
 
   32   32   32
  75.340      73.883      69.801      63.850      56.951      49.881      43.082      36.684      30.673      25.080    
  20.064      15.850      12.603      10.341      8.9211      8.1267      7.8645      8.1267      8.9211      10.341    
  12.603      15.850      20.064      25.080      30.673      36.684      43.082      49.881      56.951      63.850    
  69.801      73.883      73.883      72.500      68.624      62.953      56.342      49.510      42.868      36.544    
  30.550      24.949      19.924      15.714      12.483      10.241      8.8365      8.0497      7.7904      8.0497    
  8.8365      10.241      12.483      15.714      19.924      24.949      30.550      36.544      42.868      49.510    
  56.342      62.953      68.624      72.500      69.801      68.624      65.305      60.397      54.571      48.385    
  42.168      36.052      30.114      24.505      19.476      15.295      12.123      9.9445      8.5876      7.8240    
  7.5733      7.8240      8.5876      9.9445      12.123      15.295      19.476      24.505      30.114      36.052    
  42.168      48.385      54.571      60.397      65.305      68.624      63.850      62.953      60.397      56.531    
  51.772      46.466      40.834      35.020      29.196      23.629      18.656      14.573      11.528      9.4679    
  8.1893      7.4650      7.2286      7.4650      8.1893      9.4679      11.528      14.573      18.656      23.629    
  29.196      35.020      40.834      46.466      51.772      56.531      60.397      62.953      56.951      56.342    
  54.571      51.772      48.104      43.703      38.692      33.239      27.617      22.207      17.415      13.549    
  10.722      8.8395      7.6652      6.9970      6.7805      6.9970      7.6652      8.8395      10.722      13.549    
  17.415      22.207      27.617      33.239      38.692      43.703      48.104      51.772      54.571      56.342    
  49.881      49.510      48.385      46.466      43.703      40.072      35.633      30.587      25.295      20.212    
  15.775      12.269      9.7568      8.1005      7.0480      6.4505      6.2583      6.4505      7.0480      8.1005    
  9.7568      12.269      15.775      20.212      25.295      30.587      35.633      40.072      43.703      46.466    
  48.385      49.510      43.082      42.868      42.168      40.834      38.692      35.633      31.697      27.121    
  22.314      17.753      13.850      10.833      8.7073      7.2966      6.3767      5.8596      5.6942      5.8596    
  6.3767      7.2966      8.7073      10.833      13.850      17.753      22.314      27.121      31.697      35.633    
  38.692      40.834      42.168      42.868      36.684      36.544      36.052      35.020      33.239      30.587    
  27.121      23.100      18.934      15.063      11.825      9.3725      7.6511      6.4702      5.6916      5.2576    
  5.1192      5.2576      5.6916      6.4702      7.6511      9.3725      11.825      15.063      18.934      23.100    
  27.121      30.587      33.239      35.020      36.052      36.544      30.673      30.550      30.114      29.196    
  27.617      25.295      22.314      18.934      15.520      12.430      9.9033      8.0066      6.6430      5.6688    
  5.0295      4.6739      4.5606      4.6739      5.0295      5.6688      6.6430      8.0066      9.9033      12.430    
  15.520      18.934      22.314      25.295      27.617      29.196      30.114      30.550      25.080      24.949    
  24.505      23.629      22.207      20.212      17.753      15.063      12.430      10.107      8.2326      6.8013    
  5.7157      4.9331      4.4191      4.1320      4.0401      4.1320      4.4191      4.9331      5.7157      6.8013    
  8.2326      10.107      12.430      15.063      17.753      20.212      22.207      23.629      24.505      24.949    
  20.064      19.924      19.476      18.656      17.415      15.775      13.850      11.825      9.9033      8.2326    
  6.8649      5.7622      4.9076      4.2895      3.8798      3.6483      3.5737      3.6483      3.8798      4.2895    
  4.9076      5.7622      6.8649      8.2326      9.9033      11.825      13.850      15.775      17.415      18.656    
  19.476      19.924      15.850      15.714      15.295      14.573      13.549      12.269      10.833      9.3725    
  8.0066      6.8013      5.7622      4.9054      4.2389      3.7509      3.4219      3.2331      3.1717      3.2331    
  3.4219      3.7509      4.2389      4.9054      5.7622      6.8013      8.0066      9.3725      10.833      12.269    
  13.549      14.573      15.295      15.714      12.603      12.483      12.123      11.528      10.722      9.7568    
  8.7073      7.6511      6.6430      5.7157      4.9076      4.2389      3.7121      3.3195      3.0494      2.8919    
  2.8401      2.8919      3.0494      3.3195      3.7121      4.2389      4.9076      5.7157      6.6430      7.6511    
  8.7073      9.7568      10.722      11.528      12.123      12.483      10.341      10.241      9.9445      9.4679    
  8.8395      8.1005      7.2966      6.4702      5.6688      4.9331      4.2895      3.7509      3.3195      2.9917    
  2.7623      2.6266      2.5817      2.6266      2.7623      2.9917      3.3195      3.7509      4.2895      4.9331    
  5.6688      6.4702      7.2966      8.1005      8.8395      9.4679      9.9445      10.241      8.9211      8.8365    
  8.5876      8.1893      7.6652      7.0480      6.3767      5.6916      5.0295      4.4191      3.8798      3.4219    
  3.0494      2.7623      2.5589      2.4377      2.3974      2.4377      2.5589      2.7623      3.0494      3.4219    
  3.8798      4.4191      5.0295      5.6916      6.3767      7.0480      7.6652      8.1893      8.5876      8.8365    
  8.1267      8.0497      7.8240      7.4650      6.9970      6.4505      5.8596      5.2576      4.6739      4.1320    
  3.6483      3.2331      2.8919      2.6266      2.4377      2.3247      2.2871      2.3247      2.4377      2.6266    
  2.8919      3.2331      3.6483      4.1320      4.6739      5.2576      5.8596      6.4505      6.9970      7.4650    
  7.8240      8.0497      7.8645      7.7904      7.5733      7.2286      6.7805      6.2583      5.6942      5.1192    
  4.5606      4.0401      3.5737      3.1717      2.8401      2.5817      2.3974      2.2871      2.2504      2.2871    
  2.3974      2.5817      2.8401      3.1717      3.5737      4.0401      4.5606      5.1192      5.6942      6.2583    
  6.7805      7.2286      7.5733      7.7904      8.1267      8.0497      7.8240      7.4650      6.9970      6.4505    
  5.8596      5.2576      4.6739      4.1320      3.6483      3.2331      2.8919      2.6266      2.4377      2.3247    
  2.2871      2.3247      2.4377      2.6266      2.8919      3.2331      3.6483      4.1320      4.6739      5.2576    
  5.8596      6.4505      6.9970      7.4650      7.8240      8.0497      8.9211      8.8365      8.5876      8.1893    
  7.6652      7.0480      6.3767      5.6916      5.0295      4.4191      3.8798      3.4219      3.0494      2.7623    
  2.5589      2.4377      2.3974      2.4377      2.5589      2.7623      3.0494      3.4219      3.8798      4.4191    
  5.0295      5.6916      6.3767      7.0480      7.6652      8.1893      8.5876      8.8365      10.341      10.241    
  9.9445      9.4679      8.8395      8.1005      7.2966      6.4702      5.6688      4.9331      4.2895      3.7509    
  3.3195      2.9917      2.7623      2.6266      2.5817      2.6266      2.7623      2.9917      3.3195      3.7509    
  4.2895      4.9331      5.6688      6.4702      7.2966      8.1005      8.8395      9.4679      9.9445      10.241    
  12.603      12.483      12.123      11.528      10.722      9.7568      8.7073      7.6511      6.6430      5.7157    
  4.9076      4.2389      3.7121      3.3195      3.0494      2.8919      2.8401      2.8919      3.0494      3.3195    
  3.7121      4.2389      4.9076      5.7157      6.6430      7.6511      8.7073      9.7568      10.722      11.528    
  12.123      12.483      15.850      15.714      15.295      14.573      13.549      12.269      10.833      9.3725    
  8.0066      6.8013      5.7622      4.9054      4.2389      3.7509      3.4219      3.2331      3.1717      3.2331    
  3.4219      3.7509      4.2389      4.9054      5.7622      6.8013      8.0066      9.3725      10.833      12.269    
  13.549      14.573      15.295      15.714      20.064      19.924      19.476      18.656      17.415      15.775    
  13.850      11.825      9.9033      8.2326      6.8649      5.7622      4.9076      4.2895      3.8798      3.6483    
  3.5737      3.6483      3.8798      4.2895      4.9076      5.7622      6.8649      8.2326      9.9033      11.825    
  13.850      15.775      17.415      18.656      19.476      19.924      25.080      24.949      24.505      23.629    
  22.207      20.212      17.753      15.063      12.430      10.107      8.2326      6.8013      5.7157      4.9331    
  4.4191      4.1320      4.0401      4.1320      4.4191      4.9331      5.7157      6.8013      8.2326      10.107    
  12.430      15.063      17.753      20.212      22.207      23.629      24.505      24.949      30.673      30.550    
  30.114      29.196      27.617      25.295      22.314      18.934      15.520      12.430      9.9033      8.0066    
  6.6430      5.6688      5.0295      4.6739      4.5606      4.6739      5.0295      5.6688      6.6430      8.0066    
  9.9033      12.430      15.520      18.934      22.314      25.295      27.617      29.196      30.114      30.550    
  36.684      36.544      36.052      35.020      33.239      30.587      27.121      23.100      18.934      15.063    
  11.825      9.3725      7.6511      6.4702      5.6916      5.2576      5.1192      5.2576      5.6916      6.4702    
  7.6511      9.3725      11.825      15.063      18.934      23.100      27.121      30.587      33.239      35.020    
  36.052      36.544      43.082      42.868      42.168      40.834      38.692      35.633      31.697      27.121    
  22.314      17.753      13.850      10.833      8.7073      7.2966      6.3767      5.8596      5.6942      5.8596    
  6.3767      7.2966      8.7073      10.833      13.850      17.753      22.314      27.121      31.697      35.633    
  38.692      40.834      42.168      42.868      49.881      49.510      48.385      46.466      43.703      40.072    
  35.633      30.587      25.295      20.212      15.775      12.269      9.7568      8.1005      7.0480      6.4505    
  6.2583      6.4505      7.0480      8.1005      9.7568      12.269      15.775      20.212      25.295      30.587    
  35.633      40.072      43.703      46.466      48.385      49.510      56.951      56.342      54.571      51.772    
  48.104      43.703      38.692      33.239      27.617      22.207      17.415      13.549      10.722      8.8395    
  7.6652      6.9970      6.7805      6.9970      7.6652      8.8395      10.722      13.549      17.415      22.207    
  27.617      33.239      38.692      43.703      48.104      51.772      54.571      56.342      63.850      62.953    
  60.397      56.531      51.772      46.466      40.834      35.020      29.196      23.629      18.656      14.573    
  11.528      9.4679      8.1893      7.4650      7.2286      7.4650      8.1893      9.4679      11.528      14.573    
  18.656      23.629      29.196      35.020      40.834      46.466      51.772      56.531      60.397      62.953    
  69.801      68.624      65.305      60.397      54.571      48.385      42.168      36.052      30.114      24.505    
  19.476      15.295      12.123      9.9445      8.5876      7.8240      7.5733      7.8240      8.5876      9.9445    
  12.123      15.295      19.476      24.505      30.114      36.052      42.168      48.385      54.571      60.397    
  65.305      68.624      73.883      72.500      68.624      62.953      56.342      49.510      42.868      36.544    
  30.550      24.949      19.924      15.714      12.483      10.241      8.8365      8.0497      7.7904      8.0497    
  8.8365      10.241      12.483      15.714      19.924      24.949      30.550      36.544      42.868      49.510    
  56.342      62.953      68.624      72.500      73.883      72.500      68.624      62.953      56.342      49.510    
  42.868      36.544      30.550      24.949      19.924      15.714      12.483      10.241      8.8365      8.0497    
  7.7904      8.0497      8.8365      10.241      12.483      15.714      19.924      24.949      30.550      36.544    
  42.868      49.510      56.342      62.953      68.624      72.500      72.500      71.189      67.506      62.099    
  55.759      49.150      42.653      36.398      30.419      24.811      19.780      15.576      12.363      10.141    
  8.7527      7.9736      7.7171      7.9736      8.7527      10.141      12.363      15.576      19.780      24.811    
  30.419      36.398      42.653      49.150      55.759      62.099      67.506      71.189      68.624      67.506    
  64.348      59.660      54.056      48.052      41.950      35.888      29.962      24.350      19.323      15.154    
  12.004      9.8477      8.5063      7.7504      7.5025      7.7504      8.5063      9.8477      12.004      15.154    
  19.323      24.350      29.962      35.888      41.950      48.052      54.056      59.660      64.348      67.506    
  62.953      62.099      59.660      55.951      51.348      46.166      40.610      34.830      29.015      23.453    
  18.491      14.431      11.411      9.3756      8.1119      7.3955      7.1619      7.3955      8.1119      9.3756    
  11.411      14.431      18.491      23.453      29.015      34.830      40.610      46.166      51.348      55.951    
  59.660      62.099      56.342      55.759      54.056      51.348      47.768      43.432      38.458      33.022    
  27.409      22.013      17.244      13.408      10.612      8.7538      7.5932      6.9327      6.7189      6.9327    
  7.5932      8.7538      10.612      13.408      17.244      22.013      27.409      33.022      38.458      43.432    
  47.768      51.348      54.056      55.759      49.510      49.150      48.052      46.166      43.432      39.819    
  35.388      30.348      25.068      20.010      15.606      12.136      9.6565      8.0229      6.9825      6.3924    
  6.2027      6.3924      6.9825      8.0229      9.6565      12.136      15.606      20.010      25.068      30.348    
  35.388      39.819      43.432      46.166      48.052      49.150      42.868      42.653      41.950      40.610    
  38.458      35.388      31.445      26.874      22.085      17.557      13.693      10.714      8.6196      7.2276    
  6.3186      5.8082      5.6450      5.8082      6.3186      7.2276      8.6196      10.714      13.693      17.557    
  22.085      26.874      31.445      35.388      38.458      40.610      41.950      42.653      36.544      36.398    
  35.888      34.830      33.022      30.348      26.874      22.861      18.720      14.886      11.690      9.2725    
  7.5766      6.4101      5.6412      5.2128      5.0763      5.2128      5.6412      6.4101      7.5766      9.2725    
  11.690      14.886      18.720      22.861      26.874      30.348      33.022      34.830      35.888      36.398    
  30.550      30.419      29.962      29.015      27.409      25.068      22.085      18.720      15.336      12.283    
  9.7931      7.9256      6.5801      5.6178      4.9865      4.6355      4.5236      4.6355      4.9865      5.6178    
  6.5801      7.9256      9.7931      12.283      15.336      18.720      22.085      25.068      27.409      29.015    
  29.962      30.419      24.949      24.811      24.350      23.453      22.013      20.010      17.557      14.886    
  12.283      9.9931      8.1471      6.7360      5.6634      4.8905      4.3828      4.0992      4.0084      4.0992    
  4.3828      4.8905      5.6634      6.7360      8.1471      9.9931      12.283      14.886      17.557      20.010    
  22.013      23.453      24.350      24.811      19.924      19.780      19.323      18.491      17.244      15.606    
  13.693      11.690      9.7931      8.1471      6.7986      5.7090      4.8648      4.2543      3.8493      3.6204    
  3.5466      3.6204      3.8493      4.2543      4.8648      5.7090      6.7986      8.1471      9.7931      11.690    
  13.693      15.606      17.244      18.491      19.323      19.780      15.714      15.576      15.154      14.431    
  13.408      12.136      10.714      9.2725      7.9256      6.7360      5.7090      4.8626      4.2040      3.7216    
  3.3962      3.2093      3.1484      3.2093      3.3962      3.7216      4.2040      4.8626      5.7090      6.7360    
  7.9256      9.2725      10.714      12.136      13.408      14.431      15.154      15.576      12.483      12.363    
  12.004      11.411      10.612      9.6565      8.6196      7.5766      6.5801      5.6634      4.8648      4.2040    
  3.6832      3.2947      3.0274      2.8712      2.8199      2.8712      3.0274      3.2947      3.6832      4.2040    
  4.8648      5.6634      6.5801      7.5766      8.6196      9.6565      10.612      11.411      12.004      12.363    
  10.241      10.141      9.8477      9.3756      8.7538      8.0229      7.2276      6.4101      5.6178      4.8905    
  4.2543      3.7216      3.2947      2.9702      2.7430      2.6085      2.5639      2.6085      2.7430      2.9702    
  3.2947      3.7216      4.2543      4.8905      5.6178      6.4101      7.2276      8.0229      8.7538      9.3756    
  9.8477      10.141      8.8365      8.7527      8.5063      8.1119      7.5932      6.9825      6.3186      5.6412    
  4.9865      4.3828      3.8493      3.3962      3.0274      2.7430      2.5415      2.4213      2.3814      2.4213    
  2.5415      2.7430      3.0274      3.3962      3.8493      4.3828      4.9865      5.6412      6.3186      6.9825    
  7.5932      8.1119      8.5063      8.7527      8.0497      7.9736      7.7504      7.3955      6.9327      6.3924    
  5.8082      5.2128      4.6355      4.0992      3.6204      3.2093      2.8712      2.6085      2.4213      2.3093    
  2.2721      2.3093      2.4213      2.6085      2.8712      3.2093      3.6204      4.0992      4.6355      5.2128    
  5.8082      6.3924      6.9327      7.3955      7.7504      7.9736      7.7904      7.7171      7.5025      7.1619    
  6.7189      6.2027      5.6450      5.0763      4.5236      4.0084      3.5466      3.1484      2.8199      2.5639    
  2.3814      2.2721      2.2357      2.2721      2.3814      2.5639      2.8199      3.1484      3.5466      4.0084    
  4.5236      5.0763      5.6450      6.2027      6.7189      7.1619      7.5025      7.7171      8.0497      7.9736    
  7.7504      7.3955      6.9327      6.3924      5.8082      5.2128      4.6355      4.0992      3.6204      3.2093    
  2.8712      2.6085      2.4213      2.3093      2.2721      2.3093      2.4213      2.6085      2.8712      3.2093    
  3.6204      4.0992      4.6355      5.2128      5.8082      6.3924      6.9327      7.3955      7.7504      7.9736    
  8.8365      8.7527      8.5063      8.1119      7.5932      6.9825      6.3186      5.6412      4.9865      4.3828    
  3.8493      3.3962      3.0274      2.7430      2.5415      2.4213      2.3814      2.4213      2.5415      2.7430    
  3.0274      3.3962      3.8493      4.3828      4.9865      5.6412      6.3186      6.9825      7.5932      8.1119    
  8.5063      8.7527      10.241      10.141      9.8477      9.3756      8.7538      8.0229      7.2276      6.4101    
  5.6178      4.8905      4.2543      3.7216      3.2947      2.9702      2.7430      2.6085      2.5639      2.6085    
  2.7430      2.9702      3.2947      3.7216      4.2543      4.8905      5.6178      6.4101      7.2276      8.0229    
  8.7538      9.3756      9.8477      10.141      12.483      12.363      12.004      11.411      10.612      9.6565    
  8.6196      7.5766      6.5801      5.6634      4.8648      4.2040      3.6832      3.2947      3.0274      2.8712    
  2.8199      2.8712      3.0274      3.2947      3.6832      4.2040      4.8648      5.6634      6.5801      7.5766    
  8.6196      9.6565      10.612      11.411      12.004      12.363      15.714      15.576      15.154      14.431    
  13.408      12.136      10.714      9.2725      7.9256      6.7360      5.7090      4.8626      4.2040      3.7216    
  3.3962      3.2093      3.1484      3.2093      3.3962      3.7216      4.2040      4.8626      5.7090      6.7360    
  7.9256      9.2725      10.714      12.136      13.408      14.431      15.154      15.576      19.924      19.780    
  19.323      18.491      17.244      15.606      13.693      11.690      9.7931      8.1471      6.7986      5.7090    
  4.8648      4.2543      3.8493      3.6204      3.5466      3.6204      3.8493      4.2543      4.8648      5.7090    
  6.7986      8.1471      9.7931      11.690      13.693      15.606      17.244      18.491      19.323      19.780    
  24.949      24.811      24.350      23.453      22.013      20.010      17.557      14.886      12.283      9.9931    
  8.1471      6.7360      5.6634      4.8905      4.3828      4.0992      4.0084      4.0992      4.3828      4.8905    
  5.6634      6.7360      8.1471      9.9931      12.283      14.886      17.557      20.010      22.013      23.453    
  24.350      24.811      30.550      30.419      29.962      29.015      27.409      25.068      22.085      18.720    
  15.336      12.283      9.7931      7.9256      6.5801      5.6178      4.9865      4.6355      4.5236      4.6355    
  4.9865      5.6178      6.5801      7.9256      9.7931      12.283      15.336      18.720      22.085      25.068    
  27.409      29.015      29.962      30.419      36.544      36.398      35.888      34.830      33.022      30.348    
  26.874      22.861      18.720      14.886      11.690      9.2725      7.5766      6.4101      5.6412      5.2128    
  5.0763      5.2128      5.6412      6.4101      7.5766      9.2725      11.690      14.886      18.720      22.861    
  26.874      30.348      33.022      34.830      35.888      36.398      42.868      42.653      41.950      40.610    
  38.458      35.388      31.445      26.874      22.085      17.557      13.693      10.714      8.6196      7.2276    
  6.3186      5.8082      5.6450      5.8082      6.3186      7.2276      8.6196      10.714      13.693      17.557    
  22.085      26.874      31.445      35.388      38.458      40.610      41.950      42.653      49.510      49.150    
  48.052      46.166      43.432      39.819      35.388      30.348      25.068      20.010      15.606      12.136    
  9.6565      8.0229      6.9825      6.3924      6.2027      6.3924      6.9825      8.0229      9.6565      12.136    
  15.606      20.010      25.068      30.348      35.388      39.819      43.432      46.166      48.052      49.150    
  56.342      55.759      54.056      51.348      47.768      43.432      38.458      33.022      27.409      22.013    
  17.244      13.408      10.612      8.7538      7.5932      6.9327      6.7189      6.9327      7.5932      8.7538    
  10.612      13.408      17.244      22.013      27.409      33.022      38.458      43.432      47.768      51.348    
  54.056      55.759      62.953      62.099      59.660      55.951      51.348      46.166      40.610      34.830    
  29.015      23.453      18.491      14.431      11.411      9.3756      8.1119      7.3955      7.1619      7.3955    
  8.1119      9.3756      11.411      14.431      18.491      23.453      29.015      34.830      40.610      46.166    
  51.348      55.951      59.660      62.099      68.624      67.506      64.348      59.660      54.056      48.052    
  41.950      35.888      29.962      24.350      19.323      15.154      12.004      9.8477      8.5063      7.7504    
  7.5025      7.7504      8.5063      9.8477      12.004      15.154      19.323      24.350      29.962      35.888    
  41.950      48.052      54.056      59.660      64.348      67.506      72.500      71.189      67.506      62.099    
  55.759      49.150      42.653      36.398      30.419      24.811      19.780      15.576      12.363      10.141    
  8.7527      7.9736      7.7171      7.9736      8.7527      10.141      12.363      15.576      19.780      24.811    
  30.419      36.398      42.653      49.150      55.759      62.099      67.506      71.189      69.801      68.624    
  65.305      60.397      54.571      48.385      42.168      36.052      30.114      24.505      19.476      15.295    
  12.123      9.9445      8.5876      7.8240      7.5733      7.8240      8.5876      9.9445      12.123      15.295    
  19.476      24.505      30.114      36.052      42.168      48.385      54.571      60.397      65.305      68.624    
  68.624      67.506      64.348      59.660      54.056      48.052      41.950      35.888      29.962      24.350    
  19.323      15.154      12.004      9.8477      8.5063      7.7504      7.5025      7.7504      8.5063      9.8477    
  12.004      15.154      19.323      24.350      29.962      35.888      41.950      48.052      54.056      59.660    
  64.348      67.506      65.305      64.348      61.629      57.536      52.537      47.023      41.238      35.327    
  29.447      23.845      18.841      14.726      11.648      9.5621      8.2672      7.5347      7.2953      7.5347    
  8.2672      9.5621      11.648      14.726      18.841      23.845      29.447      35.327      41.238      47.023    
  52.537      57.536      61.629      64.348      60.397      59.660      57.536      54.251      50.071      45.225    
  39.879      34.200      28.424      22.892      17.983      13.999      11.066      9.1039      7.8845      7.1916    
  6.9665      7.1916      7.8845      9.1039      11.066      13.999      17.983      22.892      28.424      34.200    
  39.879      45.225      50.071      54.251      57.536      59.660      54.571      54.056      52.537      50.071    
  46.725      42.567      37.700      32.319      26.748      21.408      16.723      12.987      10.287      8.5019    
  7.3816      6.7443      6.5386      6.7443      7.3816      8.5019      10.287      12.987      16.723      21.408    
  26.748      32.319      37.700      42.567      46.725      50.071      52.537      54.056      48.385      48.052    
  47.023      45.225      42.567      39.004      34.603      29.594      24.366      19.392      15.097      11.742    
  9.3618      7.7951      6.7904      6.2222      6.0399      6.2222      6.7904      7.7951      9.3618      11.742    
  15.097      19.392      24.366      29.594      34.603      39.004      42.567      45.225      47.023      48.052    
  42.168      41.950      41.238      39.879      37.700      34.603      30.652      26.107      21.388      16.966    
  13.226      10.366      8.3624      7.0248      6.1482      5.6574      5.5007      5.6574      6.1482      7.0248    
  8.3624      10.366      13.226      16.966      21.388      26.107      30.652      34.603      37.700      39.879    
  41.238      41.950      36.052      35.888      35.327      34.200      32.319      29.594      26.107      22.133    
  18.079      14.362      11.289      8.9796      7.3582      6.2336      5.4934      5.0815      4.9504      5.0815    
  5.4934      6.2336      7.3582      8.9796      11.289      14.362      18.079      22.133      26.107      29.594    
  32.319      34.200      35.327      35.888      30.114      29.962      29.447      28.424      26.748      24.366    
  21.388      18.079      14.790      11.851      9.4704      7.6885      6.3953      5.4679      4.8604      4.5226    
  4.4149      4.5226      4.8604      5.4679      6.3953      7.6885      9.4704      11.851      14.790      18.079    
  21.388      24.366      26.748      28.424      29.447      29.962      24.505      24.350      23.845      22.892    
  21.408      19.392      16.966      14.362      11.851      9.6588      7.8974      6.5441      5.5100      4.7655    
  4.2765      4.0029      3.9153      4.0029      4.2765      4.7655      5.5100      6.5441      7.8974      9.6588    
  11.851      14.362      16.966      19.392      21.408      22.892      23.845      24.350      19.476      19.323    
  18.841      17.983      16.723      15.097      13.226      11.289      9.4704      7.8974      6.6039      5.5529    
  4.7395      4.1509      3.7598      3.5384      3.4669      3.5384      3.7598      4.1509      4.7395      5.5529    
  6.6039      7.8974      9.4704      11.289      13.226      15.097      16.723      17.983      18.841      19.323    
  15.295      15.154      14.726      13.999      12.987      11.742      10.366      8.9796      7.6885      6.5441    
  5.5529      4.7369      4.1017      3.6357      3.3205      3.1392      3.0800      3.1392      3.3205      3.6357    
  4.1017      4.7369      5.5529      6.5441      7.6885      8.9796      10.366      11.742      12.987      13.999    
  14.726      15.154      12.123      12.004      11.648      11.066      10.287      9.3618      8.3624      7.3582    
  6.3953      5.5100      4.7395      4.1017      3.5983      3.2221      2.9625      2.8106      2.7607      2.8106    