unknown system                          
   2.70000000000000     
     1.000000    0.000000    0.000000
     0.000000    1.000000    0.000000
     0.000000    0.000000    1.000000
   Pt
     1
Direct
  0.000000  0.000000  0.000000
 
   32   32   32
 0.75339807200E+02 0.73882574036E+02 0.69801392581E+02 0.63849707411E+02 0.56950853576E+02
 0.49880691480E+02 0.43082152226E+02 0.36684101342E+02 0.30672847116E+02 0.25080260508E+02
 0.20064027426E+02 0.15849509963E+02 0.12603329101E+02 0.10340790143E+02 0.89211301676E+01
 0.81266876039E+01 0.78645395244E+01 0.81266876039E+01 0.89211301676E+01 0.10340790143E+02
 0.12603329101E+02 0.15849509963E+02 0.20064027426E+02 0.25080260508E+02 0.30672847116E+02
 0.36684101342E+02 0.43082152226E+02 0.49880691480E+02 0.56950853576E+02 0.63849707411E+02
 0.69801392581E+02 0.73882574036E+02 0.73882574036E+02 0.72500401121E+02 0.68623908630E+02
 0.62952650820E+02 0.56342217483E+02 0.49510141371E+02 0.42867834755E+02 0.36544383153E+02
 0.30550008768E+02 0.24948737341E+02 0.19924096067E+02 0.15713587657E+02 0.12483190066E+02
 0.10240586629E+02 0.88364801746E+01 0.80497040702E+01 0.77903805547E+01 0.80497040702E+01
 0.88364801746E+01 0.10240586629E+02 0.12483190066E+02 0.15713587657E+02 0.19924096067E+02
 0.24948737341E+02 0.30550008768E+02 0.36544383153E+02 0.42867834755E+02 0.49510141371E+02
 0.56342217483E+02 0.62952650820E+02 0.68623908630E+02 0.72500401121E+02 0.69801392581E+02
 0.68623908630E+02 0.65305227604E+02 0.60397215615E+02 0.54570544464E+02 0.48384795706E+02
 0.42167776637E+02 0.36051773862E+02 0.30113687101E+02 0.24504618752E+02 0.19475990170E+02
 0.15294947865E+02 0.12122716620E+02 0.99445332166E+01 0.85876032272E+01 0.78240188320E+01
 0.75732562387E+01 0.78240188320E+01 0.85876032272E+01 0.99445332166E+01 0.12122716620E+02
 0.15294947865E+02 0.19475990170E+02 0.24504618752E+02 0.30113687101E+02 0.36051773862E+02
 0.42167776637E+02 0.48384795706E+02 0.54570544464E+02 0.60397215615E+02 0.65305227604E+02
 0.68623908630E+02 0.63849707411E+02 0.62952650820E+02 0.60397215615E+02 0.56531162569E+02
 0.51771781070E+02 0.46465936348E+02 0.40833937708E+02 0.35019844647E+02 0.29195568703E+02
 0.23628855085E+02 0.18655777741E+02 0.14573413558E+02 0.11527532136E+02 0.94679232901E+01
 0.81893102526E+01 0.74650273230E+01 0.72286473271E+01 0.74650273230E+01 0.81893102526E+01
 0.94679232901E+01 0.11527532136E+02 0.14573413558E+02 0.18655777741E+02 0.23628855085E+02
 0.29195568703E+02 0.35019844647E+02 0.40833937708E+02 0.46465936348E+02 0.51771781070E+02
 0.56531162569E+02 0.60397215615E+02 0.62952650820E+02 0.56950853576E+02 0.56342217483E+02
 0.54570544464E+02 0.51771781070E+02 0.48104116801E+02 0.43703420165E+02 0.38692220963E+02
 0.33238766952E+02 0.27616991112E+02 0.22207198527E+02 0.17415325167E+02 0.13548898416E+02
 0.10721717126E+02 0.88395016475E+01 0.76652106873E+01 0.69969559654E+01 0.67804565454E+01
 0.69969559654E+01 0.76652106873E+01 0.88395016475E+01 0.10721717126E+02 0.13548898416E+02
 0.17415325167E+02 0.22207198527E+02 0.27616991112E+02 0.33238766952E+02 0.38692220963E+02
 0.43703420165E+02 0.48104116801E+02 0.51771781070E+02 0.54570544464E+02 0.56342217483E+02
 0.49880691480E+02 0.49510141371E+02 0.48384795706E+02 0.46465936348E+02 0.43703420165E+02
 0.40072367470E+02 0.35632748841E+02 0.30587083753E+02 0.25294622291E+02 0.20212480035E+02
 0.15775421599E+02 0.12268592261E+02 0.97568051315E+01 0.81005104755E+01 0.70480103966E+01
 0.64505160059E+01 0.62583101285E+01 0.64505160059E+01 0.70480103966E+01 0.81005104755E+01
 0.97568051315E+01 0.12268592261E+02 0.15775421599E+02 0.20212480035E+02 0.25294622291E+02
 0.30587083753E+02 0.35632748841E+02 0.40072367470E+02 0.43703420165E+02 0.46465936348E+02
 0.48384795706E+02 0.49510141371E+02 0.43082152226E+02 0.42867834755E+02 0.42167776637E+02
 0.40833937708E+02 0.38692220963E+02 0.35632748841E+02 0.31696507793E+02 0.27120920835E+02
 0.22313793739E+02 0.17753234910E+02 0.13849989828E+02 0.10832868616E+02 0.87073197625E+01
 0.72966404469E+01 0.63766795214E+01 0.58596069971E+01 0.56942257125E+01 0.58596069971E+01
 0.63766795214E+01 0.72966404469E+01 0.87073197625E+01 0.10832868616E+02 0.13849989828E+02
 0.17753234910E+02 0.22313793739E+02 0.27120920835E+02 0.31696507793E+02 0.35632748841E+02
 0.38692220963E+02 0.40833937708E+02 0.42167776637E+02 0.42867834755E+02 0.36684101342E+02
 0.36544383153E+02 0.36051773862E+02 0.35019844647E+02 0.33238766952E+02 0.30587083753E+02
 0.27120920835E+02 0.23100188490E+02 0.18933951837E+02 0.15062532324E+02 0.11825487347E+02
 0.93725346534E+01 0.76511443001E+01 0.64702168964E+01 0.56916251798E+01 0.52575877636E+01
 0.51192334207E+01 0.52575877636E+01 0.56916251798E+01 0.64702168964E+01 0.76511443001E+01
 0.93725346534E+01 0.11825487347E+02 0.15062532324E+02 0.18933951837E+02 0.23100188490E+02
 0.27120920835E+02 0.30587083753E+02 0.33238766952E+02 0.35019844647E+02 0.36051773862E+02
 0.36544383153E+02 0.30672847116E+02 0.30550008768E+02 0.30113687101E+02 0.29195568703E+02
 0.27616991112E+02 0.25294622291E+02 0.22313793739E+02 0.18933951837E+02 0.15520261069E+02
 0.12429896420E+02 0.99033093888E+01 0.80066050352E+01 0.66430469157E+01 0.56688319115E+01
 0.50294886135E+01 0.46739283580E+01 0.45606022596E+01 0.46739283580E+01 0.50294886135E+01
 0.56688319115E+01 0.66430469157E+01 0.80066050352E+01 0.99033093888E+01 0.12429896420E+02
 0.15520261069E+02 0.18933951837E+02 0.22313793739E+02 0.25294622291E+02 0.27616991112E+02
 0.29195568703E+02 0.30113687101E+02 0.30550008768E+02 0.25080260508E+02 0.24948737341E+02
 0.24504618752E+02 0.23628855085E+02 0.22207198527E+02 0.20212480035E+02 0.17753234910E+02
 0.15062532324E+02 0.12429896420E+02 0.10107347484E+02 0.82325692041E+01 0.68012608169E+01
 0.57157228863E+01 0.49330795258E+01 0.44191038758E+01 0.41319941205E+01 0.40401431776E+01
 0.41319941205E+01 0.44191038758E+01 0.49330795258E+01 0.57157228863E+01 0.68012608169E+01
 0.82325692041E+01 0.10107347484E+02 0.12429896420E+02 0.15062532324E+02 0.17753234910E+02
 0.20212480035E+02 0.22207198527E+02 0.23628855085E+02 0.24504618752E+02 0.24948737341E+02
 0.20064027426E+02 0.19924096067E+02 0.19475990170E+02 0.18655777741E+02 0.17415325167E+02
 0.15775421599E+02 0.13849989828E+02 0.11825487347E+02 0.99033093888E+01 0.82325692041E+01
 0.68649234227E+01 0.57621770857E+01 0.49075610646E+01 0.42895384397E+01 0.38797710089E+01
 0.36483084529E+01 0.35737117480E+01 0.36483084529E+01 0.38797710089E+01 0.42895384397E+01
 0.49075610646E+01 0.57621770857E+01 0.68649234227E+01 0.82325692041E+01 0.99033093888E+01
 0.11825487347E+02 0.13849989828E+02 0.15775421599E+02 0.17415325167E+02 0.18655777741E+02
 0.19475990170E+02 0.19924096067E+02 0.15849509963E+02 0.15713587657E+02 0.15294947865E+02
 0.14573413558E+02 0.13548898416E+02 0.12268592261E+02 0.10832868616E+02 0.93725346534E+01
 0.80066050352E+01 0.68012608169E+01 0.57621770857E+01 0.49054079507E+01 0.42388654205E+01
 0.37509135840E+01 0.34219336671E+01 0.32331321521E+01 0.31716931789E+01 0.32331321521E+01
 0.34219336671E+01 0.37509135840E+01 0.42388654205E+01 0.49054079507E+01 0.57621770857E+01
 0.68012608169E+01 0.80066050352E+01 0.93725346534E+01 0.10832868616E+02 0.12268592261E+02
 0.13548898416E+02 0.14573413558E+02 0.15294947865E+02 0.15713587657E+02 0.12603329101E+02
 0.12483190066E+02 0.12122716620E+02 0.11527532136E+02 0.10721717126E+02 0.97568051315E+01
 0.87073197625E+01 0.76511443001E+01 0.66430469157E+01 0.57157228863E+01 0.49075610646E+01
 0.42388654205E+01 0.37121489760E+01 0.33194827459E+01 0.30494475553E+01 0.28918502368E+01
 0.28400693105E+01 0.28918502368E+01 0.30494475553E+01 0.33194827459E+01 0.37121489760E+01
 0.42388654205E+01 0.49075610646E+01 0.57157228863E+01 0.66430469157E+01 0.76511443001E+01
 0.87073197625E+01 0.97568051315E+01 0.10721717126E+02 0.11527532136E+02 0.12122716620E+02
 0.12483190066E+02 0.10340790143E+02 0.10240586629E+02 0.99445332166E+01 0.94679232901E+01
 0.88395016475E+01 0.81005104755E+01 0.72966404469E+01 0.64702168964E+01 0.56688319115E+01
 0.49330795258E+01 0.42895384397E+01 0.37509135840E+01 0.33194827459E+01 0.29917239099E+01
 0.27623082522E+01 0.26265931429E+01 0.25816751871E+01 0.26265931429E+01 0.27623082522E+01
 0.29917239099E+01 0.33194827459E+01 0.37509135840E+01 0.42895384397E+01 0.49330795258E+01
 0.56688319115E+01 0.64702168964E+01 0.72966404469E+01 0.81005104755E+01 0.88395016475E+01
 0.94679232901E+01 0.99445332166E+01 0.10240586629E+02 0.89211301676E+01 0.88364801746E+01
 0.85876032272E+01 0.81893102526E+01 0.76652106873E+01 0.70480103966E+01 0.63766795214E+01
 0.56916251798E+01 0.50294886135E+01 0.44191038758E+01 0.38797710089E+01 0.34219336671E+01
 0.30494475553E+01 0.27623082522E+01 0.25589447107E+01 0.24376759640E+01 0.23973796595E+01
 0.24376759640E+01 0.25589447107E+01 0.27623082522E+01 0.30494475553E+01 0.34219336671E+01
 0.38797710089E+01 0.44191038758E+01 0.50294886135E+01 0.56916251798E+01 0.63766795214E+01
 0.70480103966E+01 0.76652106873E+01 0.81893102526E+01 0.85876032272E+01 0.88364801746E+01
 0.81266876039E+01 0.80497040702E+01 0.78240188320E+01 0.74650273230E+01 0.69969559654E+01
 0.64505160059E+01 0.58596069971E+01 0.52575877636E+01 0.46739283580E+01 0.41319941205E+01
 0.36483084529E+01 0.32331321521E+01 0.28918502368E+01 0.26265931429E+01 0.24376759640E+01
 0.23246659051E+01 0.22870637503E+01 0.23246659051E+01 0.24376759640E+01 0.26265931429E+01
 0.28918502368E+01 0.32331321521E+01 0.36483084529E+01 0.41319941205E+01 0.46739283580E+01
 0.52575877636E+01 0.58596069971E+01 0.64505160059E+01 0.69969559654E+01 0.74650273230E+01
 0.78240188320E+01 0.80497040702E+01 0.78645395244E+01 0.77903805547E+01 0.75732562387E+01
 0.72286473271E+01 0.67804565454E+01 0.62583101285E+01 0.56942257125E+01 0.51192334207E+01
 0.45606022596E+01 0.40401431776E+01 0.35737117480E+01 0.31716931789E+01 0.28400693105E+01
 0.25816751871E+01 0.23973796595E+01 0.22870637503E+01 0.22503509771E+01 0.22870637503E+01
 0.23973796595E+01 0.25816751871E+01 0.28400693105E+01 0.31716931789E+01 0.35737117480E+01
 0.40401431776E+01 0.45606022596E+01 0.51192334207E+01 0.56942257125E+01 0.62583101285E+01
 0.67804565454E+01 0.72286473271E+01 0.75732562387E+01 0.77903805547E+01 0.81266876039E+01
 0.80497040702E+01 0.78240188320E+01 0.74650273230E+01 0.69969559654E+01 0.64505160059E+01
 0.58596069971E+01 0.52575877636E+01 0.46739283580E+01 0.41319941205E+01 0.36483084529E+01
 0.32331321521E+01 0.28918502368E+01 0.26265931429E+01 0.24376759640E+01 0.23246659051E+01
 0.22870637503E+01 0.23246659051E+01 0.24376759640E+01 0.26265931429E+01 0.28918502368E+01
 0.32331321521E+01 0.36483084529E+01 0.41319941205E+01 0.46739283580E+01 0.52575877636E+01
 0.58596069971E+01 0.64505160059E+01 0.69969559654E+01 0.74650273230E+01 0.78240188320E+01
 0.80497040702E+01 0.89211301676E+01 0.88364801746E+01 0.85876032272E+01 0.81893102526E+01
 0.76652106873E+01 0.70480103966E+01 0.63766795214E+01 0.56916251798E+01 0.50294886135E+01
 0.44191038758E+01 0.38797710089E+01 0.34219336671E+01 0.30494475553E+01 0.27623082522E+01
 0.25589447107E+01 0.24376759640E+01 0.23973796595E+01 0.24376759640E+01 0.25589447107E+01
 0.27623082522E+01 0.30494475553E+01 0.34219336671E+01 0.38797710089E+01 0.44191038758E+01
 0.50294886135E+01 0.56916251798E+01 0.63766795214E+01 0.70480103966E+01 0.76652106873E+01
 0.81893102526E+01 0.85876032272E+01 0.88364801746E+01 0.10340790143E+02 0.10240586629E+02
 0.99445332166E+01 0.94679232901E+01 0.88395016475E+01 0.81005104755E+01 0.72966404469E+01
 0.64702168964E+01 0.56688319115E+01 0.49330795258E+01 0.42895384397E+01 0.37509135840E+01
 0.33194827459E+01 0.29917239099E+01 0.27623082522E+01 0.26265931429E+01 0.25816751871E+01
 0.26265931429E+01 0.27623082522E+01 0.29917239099E+01 0.33194827459E+01 0.37509135840E+01
 0.42895384397E+01 0.49330795258E+01 0.56688319115E+01 0.64702168964E+01 0.72966404469E+01
 0.81005104755E+01 0.88395016475E+01 0.94679232901E+01 0.99445332166E+01 0.10240586629E+02
 0.12603329101E+02 0.12483190066E+02 0.12122716620E+02 0.11527532136E+02 0.10721717126E+02
 0.97568051315E+01 0.87073197625E+01 0.76511443001E+01 0.66430469157E+01 0.57157228863E+01
 0.49075610646E+01 0.42388654205E+01 0.37121489760E+01 0.33194827459E+01 0.30494475553E+01
 0.28918502368E+01 0.28400693105E+01 0.28918502368E+01 0.30494475553E+01 0.33194827459E+01
 0.37121489760E+01 0.42388654205E+01 0.49075610646E+01 0.57157228863E+01 0.66430469157E+01
 0.76511443001E+01 0.87073197625E+01 0.97568051315E+01 0.10721717126E+02 0.11527532136E+02
 0.12122716620E+02 0.12483190066E+02 0.15849509963E+02 0.15713587657E+02 0.15294947865E+02
 0.14573413558E+02 0.13548898416E+02 0.12268592261E+02 0.10832868616E+02 0.93725346534E+01
 0.80066050352E+01 0.68012608169E+01 0.57621770857E+01 0.49054079507E+01 0.42388654205E+01
 0.37509135840E+01 0.34219336671E+01 0.32331321521E+01 0.31716931789E+01 0.32331321521E+01
 0.34219336671E+01 0.37509135840E+01 0.42388654205E+01 0.49054079507E+01 0.57621770857E+01
 0.68012608169E+01 0.80066050352E+01 0.93725346534E+01 0.10832868616E+02 0.12268592261E+02
 0.13548898416E+02 0.14573413558E+02 0.15294947865E+02 0.15713587657E+02 0.20064027426E+02
 0.19924096067E+02 0.19475990170E+02 0.18655777741E+02 0.17415325167E+02 0.15775421599E+02
 0.13849989828E+02 0.11825487347E+02 0.99033093888E+01 0.82325692041E+01 0.68649234227E+01
 0.57621770857E+01 0.49075610646E+01 0.42895384397E+01 0.38797710089E+01 0.36483084529E+01
 0.35737117480E+01 0.36483084529E+01 0.38797710089E+01 0.42895384397E+01 0.49075610646E+01
 0.57621770857E+01 0.68649234227E+01 0.82325692041E+01 0.99033093888E+01 0.11825487347E+02
 0.13849989828E+02 0.15775421599E+02 0.17415325167E+02 0.18655777741E+02 0.19475990170E+02
 0.19924096067E+02 0.25080260508E+02 0.24948737341E+02 0.24504618752E+02 0.23628855085E+02
 0.22207198527E+02 0.20212480035E+02 0.17753234910E+02 0.15062532324E+02 0.12429896420E+02
 0.10107347484E+02 0.82325692041E+01 0.68012608169E+01 0.57157228863E+01 0.49330795258E+01
 0.44191038758E+01 0.41319941205E+01 0.40401431776E+01 0.41319941205E+01 0.44191038758E+01
 0.49330795258E+01 0.57157228863E+01 0.68012608169E+01 0.82325692041E+01 0.10107347484E+02
 0.12429896420E+02 0.15062532324E+02 0.17753234910E+02 0.20212480035E+02 0.22207198527E+02
 0.23628855085E+02 0.24504618752E+02 0.24948737341E+02 0.30672847116E+02 0.30550008768E+02
 0.30113687101E+02 0.29195568703E+02 0.27616991112E+02 0.25294622291E+02 0.22313793739E+02
 0.18933951837E+02 0.15520261069E+02 0.12429896420E+02 0.99033093888E+01 0.80066050352E+01
 0.66430469157E+01 0.56688319115E+01 0.50294886135E+01 0.46739283580E+01 0.45606022596E+01
 0.46739283580E+01 0.50294886135E+01 0.56688319115E+01 0.66430469157E+01 0.80066050352E+01
 0.99033093888E+01 0.12429896420E+02 0.15520261069E+02 0.18933951837E+02 0.22313793739E+02
 0.25294622291E+02 0.27616991112E+02 0.29195568703E+02 0.30113687101E+02 0.30550008768E+02
 0.36684101342E+02 0.36544383153E+02 0.36051773862E+02 0.35019844647E+02 0.33238766952E+02
 0.30587083753E+02 0.27120920835E+02 0.23100188490E+02 0.18933951837E+02 0.15062532324E+02
 0.11825487347E+02 0.93725346534E+01 0.76511443001E+01 0.64702168964E+01 0.56916251798E+01
 0.52575877636E+01 0.51192334207E+01 0.52575877636E+01 0.56916251798E+01 0.64702168964E+01
 0.76511443001E+01 0.93725346534E+01 0.11825487347E+02 0.15062532324E+02 0.18933951837E+02
 0.23100188490E+02 0.27120920835E+02 0.30587083753E+02 0.33238766952E+02 0.35019844647E+02
 0.36051773862E+02 0.36544383153E+02 0.43082152226E+02 0.42867834755E+02 0.42167776637E+02
 0.40833937708E+02 0.38692220963E+02 0.35632748841E+02 0.31696507793E+02 0.27120920835E+02
 0.22313793739E+02 0.17753234910E+02 0.13849989828E+02 0.10832868616E+02 0.87073197625E+01
 0.72966404469E+01 0.63766795214E+01 0.58596069971E+01 0.56942257125E+01 0.58596069971E+01
 0.63766795214E+01 0.72966404469E+01 0.87073197625E+01 0.10832868616E+02 0.13849989828E+02
 0.17753234910E+02 0.22313793739E+02 0.27120920835E+02 0.31696507793E+02 0.35632748841E+02
 0.38692220963E+02 0.40833937708E+02 0.42167776637E+02 0.42867834755E+02 0.49880691480E+02
 0.49510141371E+02 0.48384795706E+02 0.46465936348E+02 0.43703420165E+02 0.40072367470E+02
 0.35632748841E+02 0.30587083753E+02 0.25294622291E+02 0.20212480035E+02 0.15775421599E+02
 0.12268592261E+02 0.97568051315E+01 0.81005104755E+01 0.70480103966E+01 0.64505160059E+01
 0.62583101285E+01 0.64505160059E+01 0.70480103966E+01 0.81005104755E+01 0.97568051315E+01
 0.12268592261E+02 0.15775421599E+02 0.20212480035E+02 0.25294622291E+02 0.30587083753E+02
 0.35632748841E+02 0.40072367470E+02 0.43703420165E+02 0.46465936348E+02 0.48384795706E+02
 0.49510141371E+02 0.56950853576E+02 0.56342217483E+02 0.54570544464E+02 0.51771781070E+02
 0.48104116801E+02 0.43703420165E+02 0.38692220963E+02 0.33238766952E+02 0.27616991112E+02
 0.22207198527E+02 0.17415325167E+02 0.13548898416E+02 0.10721717126E+02 0.88395016475E+01
 0.76652106873E+01 0.69969559654E+01 0.67804565454E+01 0.69969559654E+01 0.76652106873E+01
 0.88395016475E+01 0.10721717126E+02 0.13548898416E+02 0.17415325167E+02 0.22207198527E+02
 0.27616991112E+02 0.33238766952E+02 0.38692220963E+02 0.43703420165E+02 0.48104116801E+02
 0.51771781070E+02 0.54570544464E+02 0.56342217483E+02 0.63849707411E+02 0.62952650820E+02
 0.60397215615E+02 0.56531162569E+02 0.51771781070E+02 0.46465936348E+02 0.40833937708E+02
 0.35019844647E+02 0.29195568703E+02 0.23628855085E+02 0.18655777741E+02 0.14573413558E+02
 0.11527532136E+02 0.94679232901E+01 0.81893102526E+01 0.74650273230E+01 0.72286473271E+01
 0.74650273230E+01 0.81893102526E+01 0.94679232901E+01 0.11527532136E+02 0.14573413558E+02
 0.18655777741E+02 0.23628855085E+02 0.29195568703E+02 0.35019844647E+02 0.40833937708E+02
 0.46465936348E+02 0.51771781070E+02 0.56531162569E+02 0.60397215615E+02 0.62952650820E+02
 0.69801392581E+02 0.68623908630E+02 0.65305227604E+02 0.60397215615E+02 0.54570544464E+02
 0.48384795706E+02 0.42167776637E+02 0.36051773862E+02 0.30113687101E+02 0.24504618752E+02
 0.19475990170E+02 0.15294947865E+02 0.12122716620E+02 0.99445332166E+01 0.85876032272E+01
 0.78240188320E+01 0.75732562387E+01 0.78240188320E+01 0.85876032272E+01 0.99445332166E+01
 0.12122716620E+02 0.15294947865E+02 0.19475990170E+02 0.24504618752E+02 0.30113687101E+02
 0.36051773862E+02 0.42167776637E+02 0.48384795706E+02 0.54570544464E+02 0.60397215615E+02
 0.65305227604E+02 0.68623908630E+02 0.73882574036E+02 0.72500401121E+02 0.68623908630E+02
 0.62952650820E+02 0.56342217483E+02 0.49510141371E+02 0.42867834755E+02 0.36544383153E+02
 0.30550008768E+02 0.24948737341E+02 0.19924096067E+02 0.15713587657E+02 0.12483190066E+02
 0.10240586629E+02 0.88364801746E+01 0.80497040702E+01 0.77903805547E+01 0.80497040702E+01
 0.88364801746E+01 0.10240586629E+02 0.12483190066E+02 0.15713587657E+02 0.19924096067E+02
 0.24948737341E+02 0.30550008768E+02 0.36544383153E+02 0.42867834755E+02 0.49510141371E+02
 0.56342217483E+02 0.62952650820E+02 0.68623908630E+02 0.72500401121E+02 0.73882574036E+02
 0.72500401121E+02 0.68623908630E+02 0.62952650820E+02 0.56342217483E+02 0.49510141371E+02
 0.42867834755E+02 0.36544383153E+02 0.30550008768E+02 0.24948737341E+02 0.19924096067E+02
 0.15713587657E+02 0.12483190066E+02 0.10240586629E+02 0.88364801746E+01 0.80497040702E+01
 0.77903805547E+01 0.80497040702E+01 0.88364801746E+01 0.10240586629E+02 0.12483190066E+02
 0.15713587657E+02 0.19924096067E+02 0.24948737341E+02 0.30550008768E+02 0.36544383153E+02
 0.42867834755E+02 0.49510141371E+02 0.56342217483E+02 0.62952650820E+02 0.68623908630E+02
 0.72500401121E+02 0.72500401121E+02 0.71189121015E+02 0.67505796452E+02 0.62098734200E+02
 0.55759280218E+02 0.49149968344E+02 0.42652955380E+02 0.36398279587E+02 0.30419378024E+02
 0.24810857760E+02 0.19780363590E+02 0.15576238789E+02 0.12363178739E+02 0.10141181125E+02
 0.87526786018E+01 0.79735776494E+01 0.77170886458E+01 0.79735776494E+01 0.87526786018E+01
 0.10141181125E+02 0.12363178739E+02 0.15576238789E+02 0.19780363590E+02 0.24810857760E+02
 0.30419378024E+02 0.36398279587E+02 0.42652955380E+02 0.49149968344E+02 0.55759280218E+02
 0.62098734200E+02 0.67505796452E+02 0.71189121015E+02 0.68623908630E+02 0.67505796452E+02
 0.64348468796E+02 0.59659934532E+02 0.54056375759E+02 0.48051599671E+02 0.41950347911E+02
 0.35887752131E+02 0.29961851228E+02 0.24349874407E+02 0.19322573176E+02 0.15154394274E+02
 0.12003602606E+02 0.98476606608E+01 0.85062943887E+01 0.77504153257E+01 0.75025009068E+01
 0.77504153257E+01 0.85062943887E+01 0.98476606608E+01 0.12003602606E+02 0.15154394274E+02
 0.19322573176E+02 0.24349874407E+02 0.29961851228E+02 0.35887752131E+02 0.41950347911E+02
 0.48051599671E+02 0.54056375759E+02 0.59659934532E+02 0.64348468796E+02 0.67505796452E+02
 0.62952650820E+02 0.62098734200E+02 0.59659934532E+02 0.55950810477E+02 0.51348136154E+02
 0.46166053020E+02 0.40610324180E+02 0.34830121361E+02 0.29015128354E+02 0.23452650694E+02
 0.18491294950E+02 0.14430614065E+02 0.11411328550E+02 0.93755892984E+01 0.81119439906E+01
 0.73954621238E+01 0.71619074375E+01 0.73954621238E+01 0.81119439906E+01 0.93755892984E+01
 0.11411328550E+02 0.14430614065E+02 0.18491294950E+02 0.23452650694E+02 0.29015128354E+02
 0.34830121361E+02 0.40610324180E+02 0.46166053020E+02 0.51348136154E+02 0.55950810477E+02
 0.59659934532E+02 0.62098734200E+02 0.56342217483E+02 0.55759280218E+02 0.54056375759E+02
 0.51348136154E+02 0.47767658459E+02 0.43432192065E+02 0.38458496838E+02 0.33021638289E+02
 0.27408929303E+02 0.22012673599E+02 0.17243970420E+02 0.13407964448E+02 0.10611662638E+02
 0.87537633237E+01 0.75931727474E+01 0.69326842970E+01 0.67189069931E+01 0.69326842970E+01
 0.75931727474E+01 0.87537633237E+01 0.10611662638E+02 0.13407964448E+02 0.17243970420E+02
 0.22012673599E+02 0.27408929303E+02 0.33021638289E+02 0.38458496838E+02 0.43432192065E+02
 0.47767658459E+02 0.51348136154E+02 0.54056375759E+02 0.55759280218E+02 0.49510141371E+02
 0.49149968344E+02 0.48051599671E+02 0.46166053020E+02 0.43432192065E+02 0.39818988028E+02
 0.35387780736E+02 0.30348366872E+02 0.25068441909E+02 0.20009816555E+02 0.15605918408E+02
 0.12135747516E+02 0.96565353811E+01 0.80229262654E+01 0.69825339785E+01 0.63924298527E+01
 0.62027372257E+01 0.63924298527E+01 0.69825339785E+01 0.80229262654E+01 0.96565353811E+01
 0.12135747516E+02 0.15605918408E+02 0.20009816555E+02 0.25068441909E+02 0.30348366872E+02
 0.35387780736E+02 0.39818988028E+02 0.43432192065E+02 0.46166053020E+02 0.48051599671E+02
 0.49149968344E+02 0.42867834755E+02 0.42652955380E+02 0.41950347911E+02 0.40610324180E+02
 0.38458496838E+02 0.35387780736E+02 0.31444879926E+02 0.26873527498E+02 0.22085165204E+02
 0.17556655255E+02 0.13692832562E+02 0.10714385764E+02 0.86195815184E+01 0.72276407219E+01
 0.63185840246E+01 0.58081664625E+01 0.56449895961E+01 0.58081664625E+01 0.63185840246E+01
 0.72276407219E+01 0.86195815184E+01 0.10714385764E+02 0.13692832562E+02 0.17556655255E+02
 0.22085165204E+02 0.26873527498E+02 0.31444879926E+02 0.35387780736E+02 0.38458496838E+02
 0.40610324180E+02 0.41950347911E+02 0.42652955380E+02 0.36544383153E+02 0.36398279587E+02
 0.35887752131E+02 0.34830121361E+02 0.33021638289E+02 0.30348366872E+02 0.26873527498E+02
 0.22861303134E+02 0.18720400444E+02 0.14886003338E+02 0.11689545552E+02 0.92725240539E+01
 0.75766460734E+01 0.64100833700E+01 0.56411999042E+01 0.52128125729E+01 0.50762886470E+01
 0.52128125729E+01 0.56411999042E+01 0.64100833700E+01 0.75766460734E+01 0.92725240539E+01
 0.11689545552E+02 0.14886003338E+02 0.18720400444E+02 0.22861303134E+02 0.26873527498E+02
 0.30348366872E+02 0.33021638289E+02 0.34830121361E+02 0.35887752131E+02 0.36398279587E+02
 0.30550008768E+02 0.30419378024E+02 0.29961851228E+02 0.29015128354E+02 0.27408929303E+02
 0.25068441909E+02 0.22085165204E+02 0.18720400444E+02 0.15336256181E+02 0.12283066252E+02
 0.97930930049E+01 0.79255699782E+01 0.65801262366E+01 0.56177501809E+01 0.49864856126E+01
 0.46354567213E+01 0.45235721445E+01 0.46354567213E+01 0.49864856126E+01 0.56177501809E+01
 0.65801262366E+01 0.79255699782E+01 0.97930930049E+01 0.12283066252E+02 0.15336256181E+02
 0.18720400444E+02 0.22085165204E+02 0.25068441909E+02 0.27408929303E+02 0.29015128354E+02
 0.29961851228E+02 0.30419378024E+02 0.24948737341E+02 0.24810857760E+02 0.24349874407E+02
 0.23452650694E+02 0.22012673599E+02 0.20009816555E+02 0.17556655255E+02 0.14886003338E+02
 0.12283066252E+02 0.99931379824E+01 0.81471250282E+01 0.67359589627E+01 0.56634212189E+01
 0.48904743731E+01 0.43828392521E+01 0.40991913425E+01 0.40084266908E+01 0.40991913425E+01
 0.43828392521E+01 0.48904743731E+01 0.56634212189E+01 0.67359589627E+01 0.81471250282E+01
 0.99931379824E+01 0.12283066252E+02 0.14886003338E+02 0.17556655255E+02 0.20009816555E+02
 0.22012673599E+02 0.23452650694E+02 0.24349874407E+02 0.24810857760E+02 0.19924096067E+02
 0.19780363590E+02 0.19322573176E+02 0.18491294950E+02 0.17243970420E+02 0.15605918408E+02
 0.13692832562E+02 0.11689545552E+02 0.97930930049E+01 0.81471250282E+01 0.67986012962E+01
 0.57089804450E+01 0.48648220278E+01 0.42542873325E+01 0.38492895416E+01 0.36203908912E+01
 0.35465926670E+01 0.36203908912E+01 0.38492895416E+01 0.42542873325E+01 0.48648220278E+01
 0.57089804450E+01 0.67986012962E+01 0.81471250282E+01 0.97930930049E+01 0.11689545552E+02
 0.13692832562E+02 0.15605918408E+02 0.17243970420E+02 0.18491294950E+02 0.19322573176E+02
 0.19780363590E+02 0.15713587657E+02 0.15576238789E+02 0.15154394274E+02 0.14430614065E+02
 0.13407964448E+02 0.12135747516E+02 0.10714385764E+02 0.92725240539E+01 0.79255699782E+01
 0.67359589627E+01 0.57089804450E+01 0.48625535720E+01 0.42039876473E+01 0.37216251160E+01
 0.33961763150E+01 0.32092717887E+01 0.31484245335E+01 0.32092717887E+01 0.33961763150E+01
 0.37216251160E+01 0.42039876473E+01 0.48625535720E+01 0.57089804450E+01 0.67359589627E+01
 0.79255699782E+01 0.92725240539E+01 0.10714385764E+02 0.12135747516E+02 0.13407964448E+02
 0.14430614065E+02 0.15154394274E+02 0.15576238789E+02 0.12483190066E+02 0.12363178739E+02
 0.12003602606E+02 0.11411328550E+02 0.10611662638E+02 0.96565353811E+01 0.86195815184E+01
 0.75766460734E+01 0.65801262366E+01 0.56634212189E+01 0.48648220278E+01 0.42039876473E+01
 0.36832296999E+01 0.32947395303E+01 0.30273759186E+01 0.28712391755E+01 0.28199196680E+01
 0.28712391755E+01 0.30273759186E+01 0.32947395303E+01 0.36832296999E+01 0.42039876473E+01
 0.48648220278E+01 0.56634212189E+01 0.65801262366E+01 0.75766460734E+01 0.86195815184E+01
 0.96565353811E+01 0.10611662638E+02 0.11411328550E+02 0.12003602606E+02 0.12363178739E+02
 0.10240586629E+02 0.10141181125E+02 0.98476606608E+01 0.93755892984E+01 0.87537633237E+01
 0.80229262654E+01 0.72276407219E+01 0.64100833700E+01 0.56177501809E+01 0.48904743731E+01
 0.42542873325E+01 0.37216251160E+01 0.32947395303E+01 0.29702355184E+01 0.27429686865E+01
 0.26084664863E+01 0.25639396224E+01 0.26084664863E+01 0.27429686865E+01 0.29702355184E+01
 0.32947395303E+01 0.37216251160E+01 0.42542873325E+01 0.48904743731E+01 0.56177501809E+01
 0.64100833700E+01 0.72276407219E+01 0.80229262654E+01 0.87537633237E+01 0.93755892984E+01
 0.98476606608E+01 0.10141181125E+02 0.88364801746E+01 0.87526786018E+01 0.85062943887E+01
 0.81119439906E+01 0.75931727474E+01 0.69825339785E+01 0.63185840246E+01 0.56411999042E+01
 0.49864856126E+01 0.43828392521E+01 0.38492895416E+01 0.33961763150E+01 0.30273759186E+01
 0.27429686865E+01 0.25414801198E+01 0.24213060086E+01 0.23813696734E+01 0.24213060086E+01
 0.25414801198E+01 0.27429686865E+01 0.30273759186E+01 0.33961763150E+01 0.38492895416E+01
 0.43828392521E+01 0.49864856126E+01 0.56411999042E+01 0.63185840246E+01 0.69825339785E+01
 0.75931727474E+01 0.81119439906E+01 0.85062943887E+01 0.87526786018E+01 0.80497040702E+01
 0.79735776494E+01 0.77504153257E+01 0.73954621238E+01 0.69326842970E+01 0.63924298527E+01
 0.58081664625E+01 0.52128125729E+01 0.46354567213E+01 0.40991913425E+01 0.36203908912E+01
 0.32092717887E+01 0.28712391755E+01 0.26084664863E+01 0.24213060086E+01 0.23093455476E+01
 0.22720928942E+01 0.23093455476E+01 0.24213060086E+01 0.26084664863E+01 0.28712391755E+01
 0.32092717887E+01 0.36203908912E+01 0.40991913425E+01 0.46354567213E+01 0.52128125729E+01
 0.58081664625E+01 0.63924298527E+01 0.69326842970E+01 0.73954621238E+01 0.77504153257E+01
 0.79735776494E+01 0.77903805547E+01 0.77170886458E+01 0.75025009068E+01 0.71619074375E+01
 0.67189069931E+01 0.62027372257E+01 0.56449895961E+01 0.50762886470E+01 0.45235721445E+01
 0.40084266908E+01 0.35465926670E+01 0.31484245335E+01 0.28199196680E+01 0.25639396224E+01
 0.23813696734E+01 0.22720928942E+01 0.22357275414E+01 0.22720928942E+01 0.23813696734E+01
 0.25639396224E+01 0.28199196680E+01 0.31484245335E+01 0.35465926670E+01 0.40084266908E+01
 0.45235721445E+01 0.50762886470E+01 0.56449895961E+01 0.62027372257E+01 0.67189069931E+01
 0.71619074375E+01 0.75025009068E+01 0.77170886458E+01 0.80497040702E+01 0.79735776494E+01
 0.77504153257E+01 0.73954621238E+01 0.69326842970E+01 0.63924298527E+01 0.58081664625E+01
 0.52128125729E+01 0.46354567213E+01 0.40991913425E+01 0.36203908912E+01 0.32092717887E+01
 0.28712391755E+01 0.26084664863E+01 0.24213060086E+01 0.23093455476E+01 0.22720928942E+01
 0.23093455476E+01 0.24213060086E+01 0.26084664863E+01 0.28712391755E+01 0.32092717887E+01
 0.36203908912E+01 0.40991913425E+01 0.46354567213E+01 0.52128125729E+01 0.58081664625E+01
 0.63924298527E+01 0.69326842970E+01 0.73954621238E+01 0.77504153257E+01 0.79735776494E+01
 0.88364801746E+01 0.87526786018E+01 0.85062943887E+01 0.81119439906E+01 0.75931727474E+01
 0.69825339785E+01 0.63185840246E+01 0.56411999042E+01 0.49864856126E+01 0.43828392521E+01
 0.38492895416E+01 0.33961763150E+01 0.30273759186E+01 0.27429686865E+01 0.25414801198E+01
 0.24213060086E+01 0.23813696734E+01 0.24213060086E+01 0.25414801198E+01 0.27429686865E+01
 0.30273759186E+01 0.33961763150E+01 0.38492895416E+01 0.43828392521E+01 0.49864856126E+01
 0.56411999042E+01 0.63185840246E+01 0.69825339785E+01 0.75931727474E+01 0.81119439906E+01