   1   1   0   0
  0.1968300E+02  0.2700000E-09  0.2700000E-09  0.2700000E-09  0.5000000E-15
  1.000000000000000E-004
  CAR 
 unknown system                          
     29.36364413     -5.27618444  301      4.37758483      1.00000000
     -5.276  0.0000E+00  0.0000E+00
     -5.161  0.0000E+00  0.0000E+00
     -5.045  0.0000E+00  0.0000E+00
     -4.930  0.0000E+00  0.0000E+00
     -4.814  0.0000E+00  0.0000E+00
     -4.699  0.0000E+00  0.0000E+00
     -4.583  0.0000E+00  0.0000E+00
     -4.468  0.0000E+00  0.0000E+00
     -4.352  0.0000E+00  0.0000E+00
     -4.237  0.0000E+00  0.0000E+00
     -4.122  0.0000E+00  0.0000E+00
     -4.006  0.0000E+00  0.0000E+00
     -3.891  0.0000E+00  0.0000E+00
     -3.775  0.0000E+00  0.0000E+00
     -3.660  0.0000E+00  0.0000E+00
     -3.544  0.0000E+00  0.0000E+00
     -3.429  0.0000E+00  0.0000E+00
     -3.313  0.0000E+00  0.0000E+00
     -3.198  0.2901E-02  0.7581E-04
     -3.082  0.1774E-01  0.1147E-02
     -2.967  0.4249E-01  0.4608E-02
     -2.851  0.6019E-01  0.1063E-01
     -2.736  0.6834E-01  0.1813E-01
     -2.620  0.7607E-01  0.2643E-01
     -2.505  0.8701E-01  0.3582E-01
     -2.390  0.1001E+00  0.4661E-01
     -2.274  0.1133E+00  0.5894E-01
     -2.159  0.1257E+00  0.7274E-01
     -2.043  0.1379E+00  0.8795E-01
     -1.928  0.1516E+00  0.1047E+00
     -1.812  0.1665E+00  0.1230E+00
     -1.697  0.1820E+00  0.1431E+00
     -1.581  0.1983E+00  0.1651E+00
     -1.466  0.2184E+00  0.1891E+00
     -1.350  0.2467E+00  0.2158E+00
     -1.235  0.2793E+00  0.2462E+00
     -1.119  0.3131E+00  0.2804E+00
     -1.004  0.3489E+00  0.3185E+00
     -0.888  0.4109E+00  0.3621E+00
     -0.773  0.5025E+00  0.4147E+00
     -0.658  0.5702E+00  0.4769E+00
     -0.542  0.8047E+00  0.5514E+00
     -0.427  0.1224E+01  0.6670E+00
     -0.311  0.1695E+01  0.8347E+00
     -0.196  0.2054E+01  0.1054E+01
     -0.080  0.2329E+01  0.1309E+01
      0.035  0.2464E+01  0.1587E+01
      0.151  0.2740E+01  0.1882E+01
      0.266  0.2725E+01  0.2207E+01
      0.382  0.2990E+01  0.2533E+01
      0.497  0.2432E+01  0.2857E+01
      0.613  0.2113E+01  0.3122E+01
      0.728  0.1750E+01  0.3342E+01
      0.844  0.1533E+01  0.3529E+01
      0.959  0.1487E+01  0.3701E+01
      1.074  0.1534E+01  0.3874E+01
      1.190  0.1839E+01  0.4064E+01
      1.305  0.1996E+01  0.4298E+01
      1.421  0.1679E+01  0.4505E+01
      1.536  0.2502E+01  0.4747E+01
      1.652  0.1797E+01  0.4975E+01
      1.767  0.1442E+01  0.5162E+01
      1.883  0.1186E+01  0.5312E+01
      1.998  0.1068E+01  0.5440E+01
      2.114  0.1041E+01  0.5559E+01
      2.229  0.1323E+01  0.5694E+01
      2.345  0.1623E+01  0.5867E+01
      2.460  0.1862E+01  0.6067E+01
      2.576  0.2016E+01  0.6290E+01
      2.691  0.2338E+01  0.6538E+01
      2.806  0.2625E+01  0.6824E+01
      2.922  0.2379E+01  0.7115E+01
      3.037  0.2085E+01  0.7371E+01
      3.153  0.1563E+01  0.7585E+01
      3.268  0.1110E+01  0.7730E+01
      3.384  0.1579E+01  0.7877E+01
      3.499  0.2944E+01  0.8169E+01
      3.615  0.2569E+01  0.8483E+01
      3.730  0.2262E+01  0.8765E+01
      3.846  0.2287E+01  0.9026E+01
      3.961  0.2046E+01  0.9272E+01
      4.077  0.1804E+01  0.9496E+01
      4.192  0.1686E+01  0.9697E+01
      4.308  0.1618E+01  0.9886E+01
      4.423  0.1592E+01  0.1008E+02
      4.538  0.1462E+01  0.1025E+02
      4.654  0.9212E+00  0.1039E+02
      4.769  0.7537E+00  0.1049E+02
      4.885  0.7267E+00  0.1057E+02
      5.000  0.7161E+00  0.1065E+02
      5.116  0.6666E+00  0.1073E+02
      5.231  0.6159E+00  0.1081E+02
      5.347  0.5663E+00  0.1088E+02
      5.462  0.5133E+00  0.1094E+02
      5.578  0.4690E+00  0.1099E+02
      5.693  0.4269E+00  0.1105E+02
      5.809  0.3825E+00  0.1109E+02
      5.924  0.3349E+00  0.1113E+02
      6.039  0.2920E+00  0.1117E+02
      6.155  0.2574E+00  0.1120E+02
      6.270  0.2517E+00  0.1123E+02
      6.386  0.2458E+00  0.1126E+02
      6.501  0.2406E+00  0.1129E+02
      6.617  0.2361E+00  0.1132E+02
      6.732  0.2323E+00  0.1134E+02
      6.848  0.2292E+00  0.1137E+02
      6.963  0.2263E+00  0.1140E+02
      7.079  0.2233E+00  0.1142E+02
      7.194  0.2203E+00  0.1145E+02
      7.310  0.2171E+00  0.1147E+02
      7.425  0.2140E+00  0.1150E+02
      7.541  0.2109E+00  0.1152E+02
      7.656  0.2076E+00  0.1155E+02
      7.771  0.2042E+00  0.1157E+02
      7.887  0.2006E+00  0.1159E+02
      8.002  0.1969E+00  0.1162E+02
      8.118  0.1925E+00  0.1164E+02
      8.233  0.1876E+00  0.1166E+02
      8.349  0.2515E+00  0.1169E+02
      8.464  0.3119E+00  0.1172E+02
      8.580  0.3593E+00  0.1176E+02
      8.695  0.4037E+00  0.1180E+02
      8.811  0.4336E+00  0.1185E+02
      8.926  0.4447E+00  0.1190E+02
      9.042  0.4487E+00  0.1195E+02
      9.157  0.4417E+00  0.1200E+02
      9.273  0.4345E+00  0.1205E+02
      9.388  0.4282E+00  0.1210E+02
      9.503  0.4236E+00  0.1215E+02
      9.619  0.4177E+00  0.1220E+02
      9.734  0.4099E+00  0.1225E+02
      9.850  0.4031E+00  0.1230E+02
      9.965  0.3978E+00  0.1234E+02
     10.081  0.3923E+00  0.1239E+02
     10.196  0.3864E+00  0.1243E+02
     10.312  0.3800E+00  0.1248E+02
     10.427  0.3738E+00  0.1252E+02
     10.543  0.3683E+00  0.1256E+02
     10.658  0.3672E+00  0.1261E+02
     10.774  0.3758E+00  0.1265E+02
     10.889  0.3775E+00  0.1269E+02
     11.005  0.3728E+00  0.1274E+02
     11.120  0.3651E+00  0.1278E+02
     11.235  0.3490E+00  0.1282E+02
     11.351  0.3456E+00  0.1286E+02
     11.466  0.3422E+00  0.1290E+02
     11.582  0.3389E+00  0.1294E+02
     11.697  0.3359E+00  0.1298E+02
     11.813  0.3333E+00  0.1302E+02
     11.928  0.3305E+00  0.1305E+02
     12.044  0.3273E+00  0.1309E+02
     12.159  0.3222E+00  0.1313E+02
     12.275  0.3165E+00  0.1317E+02
     12.390  0.3115E+00  0.1320E+02
     12.506  0.3066E+00  0.1324E+02
     12.621  0.3016E+00  0.1327E+02
     12.737  0.2965E+00  0.1331E+02
     12.852  0.2931E+00  0.1334E+02
     12.967  0.3001E+00  0.1338E+02
     13.083  0.3252E+00  0.1341E+02
     13.198  0.3298E+00  0.1345E+02
     13.314  0.3303E+00  0.1349E+02
     13.429  0.3158E+00  0.1353E+02
     13.545  0.2975E+00  0.1356E+02
     13.660  0.2827E+00  0.1359E+02
     13.776  0.2812E+00  0.1363E+02
     13.891  0.2802E+00  0.1366E+02
     14.007  0.2799E+00  0.1369E+02
     14.122  0.2803E+00  0.1372E+02
     14.238  0.2820E+00  0.1376E+02
     14.353  0.3300E+00  0.1379E+02
     14.469  0.3386E+00  0.1383E+02
     14.584  0.3049E+00  0.1387E+02
     14.699  0.3090E+00  0.1390E+02
     14.815  0.3118E+00  0.1394E+02
     14.930  0.3232E+00  0.1398E+02
     15.046  0.3555E+00  0.1401E+02
     15.161  0.3975E+00  0.1406E+02
     15.277  0.4466E+00  0.1411E+02
     15.392  0.4936E+00  0.1416E+02
     15.508  0.5211E+00  0.1422E+02
     15.623  0.5167E+00  0.1428E+02
     15.739  0.4994E+00  0.1434E+02
     15.854  0.4823E+00  0.1439E+02
     15.970  0.5024E+00  0.1445E+02
     16.085  0.5181E+00  0.1451E+02
     16.201  0.5203E+00  0.1457E+02
     16.316  0.5194E+00  0.1463E+02
     16.431  0.5271E+00  0.1469E+02
     16.547  0.5348E+00  0.1475E+02
     16.662  0.5436E+00  0.1481E+02
     16.778  0.5540E+00  0.1488E+02
     16.893  0.5652E+00  0.1494E+02
     17.009  0.5654E+00  0.1501E+02
     17.124  0.5672E+00  0.1507E+02
     17.240  0.5798E+00  0.1514E+02
     17.355  0.5893E+00  0.1521E+02
     17.471  0.5934E+00  0.1528E+02
     17.586  0.6565E+00  0.1535E+02
     17.702  0.5730E+00  0.1542E+02
     17.817  0.5440E+00  0.1548E+02
     17.933  0.5192E+00  0.1554E+02
     18.048  0.5126E+00  0.1560E+02
     18.163  0.5066E+00  0.1566E+02
     18.279  0.5145E+00  0.1572E+02
     18.394  0.5236E+00  0.1578E+02
     18.510  0.5320E+00  0.1584E+02
     18.625  0.5436E+00  0.1590E+02
     18.741  0.5552E+00  0.1597E+02
     18.856  0.5647E+00  0.1603E+02
     18.972  0.5242E+00  0.1610E+02
     19.087  0.5157E+00  0.1616E+02
     19.203  0.5210E+00  0.1622E+02
     19.318  0.5267E+00  0.1628E+02
     19.434  0.5325E+00  0.1634E+02
     19.549  0.5384E+00  0.1640E+02
     19.664  0.5445E+00  0.1646E+02
     19.780  0.5568E+00  0.1653E+02
     19.895  0.5671E+00  0.1659E+02
     20.011  0.5727E+00  0.1666E+02
     20.126  0.5541E+00  0.1672E+02
     20.242  0.5390E+00  0.1679E+02
     20.357  0.5311E+00  0.1685E+02
     20.473  0.5317E+00  0.1691E+02
     20.588  0.5323E+00  0.1697E+02
     20.704  0.6281E+00  0.1704E+02
     20.819  0.5712E+00  0.1710E+02
     20.935  0.5820E+00  0.1717E+02
     21.050  0.6001E+00  0.1724E+02
     21.166  0.6214E+00  0.1731E+02
     21.281  0.7149E+00  0.1738E+02
     21.396  0.8246E+00  0.1748E+02
     21.512  0.7051E+00  0.1757E+02
     21.627  0.6845E+00  0.1765E+02
     21.743  0.7089E+00  0.1773E+02
     21.858  0.7165E+00  0.1781E+02
     21.974  0.6948E+00  0.1789E+02
     22.089  0.6706E+00  0.1797E+02
     22.205  0.6406E+00  0.1805E+02
     22.320  0.6183E+00  0.1812E+02
     22.436  0.6075E+00  0.1819E+02
     22.551  0.5960E+00  0.1826E+02
     22.667  0.5809E+00  0.1833E+02
     22.782  0.5671E+00  0.1839E+02
     22.898  0.5605E+00  0.1846E+02
     23.013  0.5861E+00  0.1852E+02
     23.128  0.5934E+00  0.1859E+02
     23.244  0.5891E+00  0.1866E+02
     23.359  0.5938E+00  0.1873E+02
     23.475  0.6161E+00  0.1880E+02
     23.590  0.6352E+00  0.1887E+02
     23.706  0.6483E+00  0.1894E+02
     23.821  0.6608E+00  0.1902E+02
     23.937  0.6714E+00  0.1910E+02
     24.052  0.6813E+00  0.1917E+02
     24.168  0.6978E+00  0.1925E+02
     24.283  0.7830E+00  0.1934E+02
     24.399  0.7880E+00  0.1943E+02
     24.514  0.5969E+00  0.1951E+02
     24.630  0.4690E+00  0.1957E+02
     24.745  0.4339E+00  0.1962E+02
     24.860  0.4074E+00  0.1967E+02
     24.976  0.3848E+00  0.1972E+02
     25.091  0.3601E+00  0.1976E+02
     25.207  0.3427E+00  0.1980E+02
     25.322  0.3118E+00  0.1984E+02
     25.438  0.2568E+00  0.1987E+02
     25.553  0.2194E+00  0.1990E+02
     25.669  0.2117E+00  0.1992E+02
     25.784  0.1331E+00  0.1994E+02
     25.900  0.1096E+00  0.1996E+02
     26.015  0.8695E-01  0.1997E+02
     26.131  0.6259E-01  0.1998E+02
     26.246  0.4558E-01  0.1998E+02
     26.362  0.3635E-01  0.1999E+02
     26.477  0.2817E-01  0.1999E+02
     26.592  0.2105E-01  0.1999E+02
     26.708  0.1499E-01  0.2000E+02
     26.823  0.9974E-02  0.2000E+02
     26.939  0.6017E-02  0.2000E+02
     27.054  0.3115E-02  0.2000E+02
     27.170  0.1220E-02  0.2000E+02
     27.285  0.1995E-03  0.2000E+02
     27.401  0.0000E+00  0.2000E+02
     27.516  0.0000E+00  0.2000E+02
     27.632  0.0000E+00  0.2000E+02
     27.747  0.0000E+00  0.2000E+02
     27.863  0.0000E+00  0.2000E+02
     27.978  0.0000E+00  0.2000E+02
     28.094  0.0000E+00  0.2000E+02
     28.209  0.0000E+00  0.2000E+02
     28.324  0.0000E+00  0.2000E+02
     28.440  0.0000E+00  0.2000E+02
     28.555  0.0000E+00  0.2000E+02
     28.671  0.0000E+00  0.2000E+02
     28.786  0.0000E+00  0.2000E+02
     28.902  0.0000E+00  0.2000E+02
     29.017  0.0000E+00  0.2000E+02
     29.133  0.0000E+00  0.2000E+02
     29.248  0.0000E+00  0.2000E+02
     29.364  0.0000E+00  0.2000E+02
