    1    1    1    1
  0.1968300E+02  0.2700000E-09  0.2700000E-09  0.2700000E-09  0.5000000E-15
  1.000000000000000E-004
  CAR 
 unknown system                          
     10     56     10
 
  0.0000000E+00  0.0000000E+00  0.0000000E+00  0.1000000E-02
    1       -3.276184   1.000000
    2       -0.597703   1.000000
    3       -0.597703   1.000000
    4        4.597429  -0.110976
    5        4.597429  -0.213845
    6        4.597429  -0.033800
    7       19.270765   0.000000
    8       19.270765   0.000000
    9       19.270765   0.000000
   10       24.295197   0.000000
 
  0.1000000E+00  0.0000000E+00  0.0000000E+00  0.6000000E-02
    1       -3.020302   1.000000
    2       -0.552602   1.000000
    3       -0.375356   1.000000
    4        4.390437   0.852815
    5        4.390437   0.534263
    6        4.614032  -0.067398
    7       17.500994   0.000000
    8       19.713998   0.000000
    9       19.713998   0.000000
   10       25.140736   0.000000
 
  0.2000000E+00  0.0000000E+00  0.0000000E+00  0.6000000E-02
    1       -2.368916   1.000000
    2       -0.432230   1.000000
    3        0.334619   1.000000
    4        3.887571   1.000188
    5        3.887571   1.006421
    6        4.657650  -0.099138
    7       14.607651   0.000000
    8       20.898151   0.000000
    9       20.898151   0.000000
   10       24.289604   0.000000
 
  0.3000000E+00  0.0000000E+00  0.0000000E+00  0.6000000E-02
    1       -1.619344   1.000000
    2       -0.278411   1.000000
    3        1.594580   1.000000
    4        3.328611   1.000000
    5        3.328611   1.000000
    6        4.712077  -0.056550
    7       11.839531   0.000000
    8       22.496951   0.000000
    9       22.496952   0.000000
   10       22.763167   0.000000
 
  0.4000000E+00  0.0000000E+00  0.0000000E+00  0.6000000E-02
    1       -1.054313   1.000000
    2       -0.149603   1.000000
    3        2.916154   1.000000
    4        2.916154   1.000000
    5        3.219346   1.078115
    6        4.756560  -0.010835
    7        9.476936   0.000000
    8       21.742839   0.000000
    9       24.091725   0.000000
   10       24.148291   0.000000
 
  0.5000000E+00  0.0000000E+00  0.0000000E+00  0.3000000E-02
    1       -0.843467   1.000000
    2       -0.099283   1.000000
    3        2.766467   1.000000
    4        2.766467   1.000000
    5        4.238863   0.946524
    6        4.773670   0.000000
    7        8.258188   0.000000
    8       21.386392   0.000000
    9       23.981812   0.000000
   10       24.889751   0.000000
 
  0.1000000E+00  0.1000000E+00  0.0000000E+00  0.1200000E-01
    1       -2.760793   1.000000
    2       -0.415900   1.000000
    3       -0.248651   1.000000
    4        4.172333   1.018789
    5        4.377858   0.793865
    6        4.440777   0.204046
    7       17.634303   0.000000
    8       18.180190   0.000000
    9       20.159871   0.000000
   10       25.443978   0.000000
 
  0.2000000E+00  0.1000000E+00  0.0000000E+00  0.2400000E-01
    1       -2.106164   1.000000
    2       -0.255748   1.000000
    3        0.410676   1.000000
    4        3.656405   1.000087
    5        3.907091   1.018936
    6        4.463010   0.319500
    7       14.967712   0.000000
    8       18.913140   0.000000
    9       21.353568   0.000000
   10       24.484684   0.000000
 
  0.3000000E+00  0.1000000E+00  0.0000000E+00  0.2400000E-01
    1       -1.364993   1.000000
    2       -0.088260   1.000000
    3        1.554127   1.000000
    4        3.210303   1.000000
    5        3.354632   1.000000
    6        4.522196   0.160641
    7       12.161902   0.000000
    8       20.143699   0.000000
    9       22.974643   0.000000
   10       23.211203   0.000000
 
  0.4000000E+00  0.1000000E+00  0.0000000E+00  0.2400000E-01
    1       -0.807992   1.000000
    2        0.060539   1.000000
    3        2.095343   1.000000
    4        2.945736   1.000000
    5        3.947880   1.046700
    6        4.571106   0.023937
    7        9.681413   0.000000
    8       21.194523   0.000000
    9       22.533149   0.000000
   10       24.627214   0.000000
 
  0.5000000E+00  0.1000000E+00  0.0000000E+00  0.1200000E-01
    1       -0.598577   1.000000
    2        0.126059   1.000000
    3        2.018183   1.000000
    4        2.797224   1.000000
    5        4.589959   0.379931
    6        5.044008   0.000000
    7        8.281944   0.000000
    8       21.387200   0.000000
    9       23.154008   0.000000
   10       23.529808   0.000000
 
  0.2000000E+00  0.2000000E+00  0.0000000E+00  0.1200000E-01
    1       -1.480976   1.000000
    2        0.189426   1.000000
    3        0.775894   1.000000
    4        3.146590   1.000000
    5        3.900584   1.000000
    6        4.045732   1.067794
    7       15.859869   0.000000
    8       15.941270   0.000000
    9       22.574844   0.000000
   10       24.178238   0.000000
 
  0.3000000E+00  0.2000000E+00  0.0000000E+00  0.2400000E-01
    1       -0.851005   1.000000
    2        0.505424   1.000000
    3        1.534915   1.000000
    4        3.063561   1.000000
    5        3.421898   1.000000
    6        4.057508   0.938690
    7       12.956014   0.000000
    8       17.182911   0.000000
    9       23.260506   0.000000
   10       24.243137   0.000000
 
  0.4000000E+00  0.2000000E+00  0.0000000E+00  0.2400000E-01
    1       -0.412253   1.000000
    2        0.747633   1.000000
    3        1.410975   1.000000
    4        3.024155   1.000000
    5        4.114334   1.003986
    6        4.654721   0.070081
    7       10.218669   0.000000
    8       18.667032   0.000000
    9       22.019337   0.000000
   10       24.377097   0.000000
 
  0.5000000E+00  0.2000000E+00  0.0000000E+00  0.1200000E-01
    1       -0.249426   1.000000
    2        0.962909   1.000000
    3        1.124585   1.000000
    4        2.878786   1.000000
    5        4.136965   1.017085
    6        6.286882   0.000000
    7        8.349319   0.000000
    8       20.147164   0.000000
    9       20.589556   0.000000
   10       23.510682   0.000000
 
  0.3000000E+00  0.3000000E+00  0.0000000E+00  0.1200000E-01
    1       -0.435244   1.000000
    2        0.584749   1.000000
    3        2.401551   1.000000
    4        3.378678   1.000000
    5        3.456342   1.007364
    6        3.584544   0.857848
    7       13.207807   0.000000
    8       15.147235   0.000000
    9       22.223666   0.000000
   10       25.891631   0.000000
 
  0.4000000E+00  0.3000000E+00  0.0000000E+00  0.2400000E-01
    1       -0.149512   1.000000
    2        0.278460   1.000000
    3        2.818459   1.000000
    4        3.122629   1.000000
    5        3.598252   1.019875
    6        5.278712  -0.013096
    7       10.820812   0.000000
    8       16.043636   0.000000
    9       20.354647   0.000000
   10       24.951579   0.000000
 
  0.5000000E+00  0.3000000E+00  0.0000000E+00  0.1200000E-01
    1        0.004462   1.000000
    2        0.096477   1.000000
    3        2.886837   1.000000
    4        2.981680   1.000000
    5        3.623982   1.025961
    6        7.487442   0.000000
    7        8.455567   0.000000
    8       17.070404   0.000000
    9       19.032253   0.000000
   10       24.468623   0.000000
 
  0.4000000E+00  0.4000000E+00  0.0000000E+00  0.1200000E-01
    1       -0.298873   1.000000
    2        0.128804   1.000000
    3        3.185565   1.000000
    4        3.230716   1.000000
    5        4.450173   0.511256
    6        6.329036  -0.017196
    7       10.554260   0.000000
    8       14.394554   0.000000
    9       18.555987   0.000000
   10       25.732376   0.000000
 
  0.5000000E+00  0.4000000E+00  0.0000000E+00  0.1200000E-01
    1       -0.461877   1.000000
    2        0.190150   1.000000
    3        3.066743   1.000000
    4        3.239993   1.000000
    5        4.901694   0.093864
    6        8.443947   0.000000
    7        8.628354   0.000000
    8       14.263231   0.000000
    9       17.692291   0.000000
   10       25.613418   0.000000
 
  0.5000000E+00  0.5000000E+00  0.0000000E+00  0.3000000E-02
    1       -0.654164   1.000000
    2        0.260789   1.000000
    3        3.099711   1.000000
    4        3.099711   1.000000
    5        5.970284   0.000000
    6        8.835596   0.000000
    7        8.835596   0.000000
    8       12.798010   0.000000
    9       17.152153   0.000000
   10       26.193912   0.000000
 
  0.1000000E+00  0.1000000E+00  0.1000000E+00  0.8000000E-02
    1       -2.495522   1.000000
    2       -0.203759   1.000000
    3       -0.203759   1.000000
    4        4.143080   1.008396
    5        4.219308   1.062460
    6        4.219308   0.934058
    7       17.746490   0.000000
    8       18.593445   0.000000
    9       18.593445   0.000000
   10       27.088462   0.000000
 
  0.2000000E+00  0.1000000E+00  0.1000000E+00  0.2400000E-01
    1       -1.830958   1.000000
    2       -0.082706   1.000000
    3        0.476394   1.000000
    4        3.680049   1.000059
    5        3.682406   1.001710
    6        4.254289   0.912153
    7       15.321959   0.000000
    8       18.983973   0.000000
    9       19.646599   0.000000
   10       25.619350   0.000000
 
  0.3000000E+00  0.1000000E+00  0.1000000E+00  0.2400000E-01
    1       -1.085061   1.000000
    2        0.075586   1.000000
    3        1.531039   1.000000
    4        3.084285   1.000000
    5        3.375977   1.000000
    6        4.320920   0.603942
    7       12.491409   0.000000
    8       20.143149   0.000000
    9       20.853827   0.000000
   10       24.420111   0.000000
 
  0.4000000E+00  0.1000000E+00  0.1000000E+00  0.2400000E-01
    1       -0.508142   1.000000
    2        0.213405   1.000000
    3        1.889178   1.000000
    4        2.638015   1.000000
    5        4.339697   0.959931
    6        4.430833   0.123356
    7        9.909303   0.000000
    8       21.458430   0.000000
    9       21.488562   0.000000
   10       24.135353   0.000000
 
  0.5000000E+00  0.1000000E+00  0.1000000E+00  0.1200000E-01
    1       -0.275246   1.000000
    2        0.269300   1.000000
    3        1.797655   1.000000
    4        2.473777   1.000000
    5        4.393597   0.823999
    6        5.685755   0.000000
    7        8.319115   0.000000
    8       21.531292   0.000000
    9       22.854145   0.000000
   10       23.163699   0.000000
 
  0.2000000E+00  0.2000000E+00  0.1000000E+00  0.2400000E-01
    1       -1.177723   1.000000
    2        0.350494   1.000000
    3        0.814949   1.000000
    4        3.177424   1.000000
    5        3.713759   1.000000
    6        3.794942   1.043222
    7       16.204954   0.000000
    8       16.293481   0.000000
    9       20.319543   0.000000
   10       25.752055   0.000000
 
  0.3000000E+00  0.2000000E+00  0.1000000E+00  0.4800000E-01
    1       -0.524005   1.000000
    2        0.616887   1.000000
    3        1.547854   1.000000
    4        2.870044   1.000000
    5        3.473611   1.000000
    6        3.850755   0.958286
    7       13.311751   0.000000
    8       17.484850   0.000000
    9       21.444953   0.000000
   10       24.544237   0.000000
 
  0.4000000E+00  0.2000000E+00  0.1000000E+00  0.4800000E-01
    1       -0.045504   1.000000
    2        0.812102   1.000000
    3        1.430501   1.000000
    4        2.576200   1.000000
    5        3.890317   1.010551
    6        5.030344  -0.016254
    7       10.504930   0.000000
    8       18.941043   0.000000
    9       22.078934   0.000000
   10       23.003908   0.000000
 
  0.5000000E+00  0.2000000E+00  0.1000000E+00  0.2400000E-01
    1        0.151925   1.000000
    2        0.973343   1.000000
    3        1.170763   1.000000
    4        2.424269   1.000000
    5        3.921689   1.008210
    6        6.855211   0.000000
    7        8.423198   0.000000
    8       20.580553   0.000000
    9       20.709158   0.000000
   10       22.694677   0.000000
 
  0.3000000E+00  0.3000000E+00  0.1000000E+00  0.2400000E-01
    1       -0.108939   1.000000
    2        0.689997   1.000000
    3        2.357852   1.000000
    4        2.863235   1.000000
    5        3.376151   1.008276
    6        3.894414   0.673746
    7       13.667779   0.000000
    8       15.356496   0.000000
    9       22.307219   0.000000
   10       22.927662   0.000000
 
  0.4000000E+00  0.3000000E+00  0.1000000E+00  0.4800000E-01
    1        0.127093   1.000000
    2        0.445848   1.000000
    3        2.664558   1.000000
    4        2.690944   1.000000
    5        3.507787   1.021317
    6        5.641247  -0.037375
    7       11.196230   0.000000
    8       16.304878   0.000000
    9       20.467369   0.000000
   10       23.388321   0.000000
 
  0.5000000E+00  0.3000000E+00  0.1000000E+00  0.2400000E-01
    1        0.154352   1.000000
    2        0.399272   1.000000
    3        2.530917   1.000000
    4        2.733016   1.000000
    5        3.566835   1.020998
    6        8.040842   0.000000
    7        8.598590   0.000000
    8       17.448390   0.000000
    9       18.968414   0.000000
   10       23.665864   0.000000
 
  0.4000000E+00  0.4000000E+00  0.1000000E+00  0.2400000E-01
    1       -0.225035   1.000000
    2        0.516319   1.000000
    3        2.752095   1.000000
    4        2.790195   1.000000
    5        4.587279   0.420728
    6        6.742008  -0.013446
    7       11.034293   0.000000
    8       14.576473   0.000000
    9       18.494694   0.000000
   10       24.369531   0.000000
 
  0.5000000E+00  0.4000000E+00  0.1000000E+00  0.2400000E-01
    1       -0.390969   1.000000
    2        0.589354   1.000000
    3        2.634018   1.000000
    4        2.810918   1.000000
    5        5.030191   0.056272
    6        8.943116   0.000000
    7        9.005985   0.000000
    8       14.488251   0.000000
    9       17.547465   0.000000
   10       24.847904   0.000000
 
  0.5000000E+00  0.5000000E+00  0.1000000E+00  0.6000000E-02
    1       -0.580375   1.000000
    2        0.665470   1.000000
    3        2.675150   1.000000
    4        2.675150   1.000000
    5        5.981570   0.000000
    6        9.408338   0.000000
    7        9.408338   0.000000
    8       12.842130   0.000000
    9       16.977389   0.000000
   10       26.171083   0.000000
 
  0.2000000E+00  0.2000000E+00  0.2000000E+00  0.8000000E-02
    1       -0.480889   1.000000
    2        0.922236   1.000000
    3        0.922236   1.000000
    4        3.194745   1.000000
    5        3.194745   1.000000
    6        3.408909   1.011244
    7       16.769658   0.000000
    8       17.416573   0.000000
    9       17.416573   0.000000
   10       27.363644   0.000000
 
  0.3000000E+00  0.2000000E+00  0.2000000E+00  0.2400000E-01
    1        0.135379   1.000000
    2        1.072875   1.000000
    3        1.605507   1.000000
    4        2.528041   1.000000
    5        3.232988   1.000000
    6        3.776593   0.848936
    7       14.201725   0.000000
    8       17.938918   0.000000
    9       18.885787   0.000000
   10       25.418164   0.000000
 
  0.4000000E+00  0.2000000E+00  0.2000000E+00  0.2400000E-01
    1        0.584748   1.000000
    2        1.238048   1.000000
    3        1.457332   1.000000
    4        2.001541   1.000000
    5        3.402295   1.000163
    6        5.635580  -0.055183
    7       11.238022   0.000000
    8       19.140321   0.000000
    9       20.441384   0.000000
   10       23.166177   0.000000
 
  0.5000000E+00  0.2000000E+00  0.2000000E+00  0.1200000E-01
    1        0.843774   1.000000
    2        1.219749   1.000000
    3        1.346364   1.000000
    4        1.766028   1.000000
    5        3.448084   1.000318
    6        8.007957   0.000000
    7        8.621554   0.000000
    8       20.265694   0.000000
    9       21.487618   0.000000
   10       21.848014   0.000000
 
  0.3000000E+00  0.3000000E+00  0.2000000E+00  0.2400000E-01
    1        0.422947   1.000000
    2        1.260711   1.000000
    3        2.097807   1.000000
    4        2.377752   1.000000
    5        3.060717   1.014005
    6        4.381571   0.343149
    7       14.845328   0.000000
    8       15.877671   0.000000
    9       19.538367   0.000000
   10       23.290296   0.000000
 
  0.4000000E+00  0.3000000E+00  0.2000000E+00  0.4800000E-01
    1        0.369433   1.000000
    2        1.313620   1.000000
    3        1.906931   1.000000
    4        2.290482   1.000000
    5        3.483296   1.016092
    6        6.307772  -0.034505
    7       12.125219   0.000000
    8       16.914448   0.000000
    9       20.040666   0.000000
   10       21.747315   0.000000
 
  0.5000000E+00  0.3000000E+00  0.2000000E+00  0.2400000E-01
    1        0.296303   1.000000
    2        1.451220   1.000000
    3        1.656835   1.000000
    4        2.312172   1.000000
    5        3.594418   0.995926
    6        8.957440   0.000000
    7        9.231296   0.000000
    8       18.428950   0.000000
    9       18.555590   0.000000
   10       22.484227   0.000000
 
  0.4000000E+00  0.4000000E+00  0.2000000E+00  0.2400000E-01
    1       -0.038237   1.000000
    2        1.466266   1.000000
    3        1.942274   1.000000
    4        2.086125   1.000000
    5        4.760529   0.293275
    6        7.572570  -0.003797
    7       12.216060   0.000000
    8       15.007843   0.000000
    9       18.175263   0.000000
   10       22.563689   0.000000
 
  0.5000000E+00  0.4000000E+00  0.2000000E+00  0.2400000E-01
    1       -0.199247   1.000000
    2        1.624614   1.000000
    3        1.750885   1.000000
    4        2.077628   1.000000
    5        5.206215   0.010170
    6        9.660838   0.000000
    7       10.260962   0.000000
    8       15.108312   0.000000
    9       17.074693   0.000000
   10       23.475844   0.000000
 
  0.5000000E+00  0.5000000E+00  0.2000000E+00  0.6000000E-02
    1       -0.379934   1.000000
    2        1.799192   1.000000
    3        1.799192   1.000000
    4        1.821987   1.000000
    5        6.011362   0.000000
    6       10.710047   0.000000
    7       10.710047   0.000000
    8       12.974312   0.000000
    9       16.459735   0.000000
   10       24.359174   0.000000
 
  0.3000000E+00  0.3000000E+00  0.3000000E+00  0.8000000E-02
    1        0.544884   1.000000
    2        1.582174   1.000000
    3        1.582174   1.000000
    4        2.984057   1.001935
    5        2.984057   1.055465
    6        5.215779  -0.027697
    7       16.373401   0.000000
    8       16.373401   0.000000
    9       16.567066   0.000000
   10       23.513438   0.000000
 
  0.4000000E+00  0.3000000E+00  0.3000000E+00  0.2400000E-01
    1        0.433705   1.000000
    2        1.146249   1.000000
    3        1.526528   1.000000
    4        3.007895   1.008654
    5        3.787429   0.918997
    6        7.125904  -0.009560
    7       13.237035   0.000000
    8       17.166030   0.000000
    9       17.918839   0.000000
   10       21.750107   0.000000
 
  0.5000000E+00  0.3000000E+00  0.3000000E+00  0.1200000E-01
    1        0.352428   1.000000
    2        0.984692   1.000000
    3        1.536747   1.000000
    4        3.024564   1.014235
    5        3.996664   0.751023
    6        9.504719   0.000000
    7       10.531750   0.000000
    8       17.503905   0.000000
    9       18.781009   0.000000
   10       20.927193   0.000000
 
  0.4000000E+00  0.4000000E+00  0.3000000E+00  0.2400000E-01
    1        0.192465   1.000000
    2        1.019899   1.000000
    3        1.143125   1.000000
    4        3.400073   1.008392
    5        4.880804   0.131431
    6        8.549593   0.000000
    7       13.652395   0.000000
    8       15.373993   0.000000
    9       17.163336   0.000000
   10       21.492633   0.000000
 
  0.5000000E+00  0.4000000E+00  0.3000000E+00  0.2400000E-01
    1        0.048751   1.000000
    2        0.918832   1.000000
    3        1.120753   1.000000
    4        3.456310   1.005496
    5        5.344840  -0.026234
    6       10.521696   0.000000
    7       11.654220   0.000000
    8       15.818371   0.000000
    9       16.297043   0.000000
   10       22.229715   0.000000
 
  0.5000000E+00  0.5000000E+00  0.3000000E+00  0.6000000E-02
    1       -0.115996   1.000000
    2        0.964207   1.000000
    3        0.964207   1.000000
    4        3.523797   0.985743
    5        6.048397   0.000000
    6       12.175707   0.000000
    7       12.175707   0.000000
    8       13.205823   0.000000
    9       15.716176   0.000000
   10       23.178021   0.000000
 
  0.4000000E+00  0.4000000E+00  0.4000000E+00  0.8000000E-02
    1        0.300068   1.000000
    2        0.601381   1.000000
    3        0.601381   1.000000
    4        4.954981   0.373919
    5        4.954981   0.011544
    6        9.926915   0.000000
    7       14.924759   0.000000
    8       14.924759   0.000000
    9       15.603983   0.000000
   10       20.887987   0.000000
 
  0.5000000E+00  0.4000000E+00  0.4000000E+00  0.1200000E-01
    1        0.211346   1.000000
    2        0.411611   1.000000
    3        0.588692   1.000000
    4        4.980654   0.223230
    5        5.586459  -0.018329
    6       11.657463   0.000000
    7       12.835683   0.000000
    8       15.476737   0.000000
    9       15.481719   0.000000
   10       20.632153   0.000000
 
  0.5000000E+00  0.5000000E+00  0.4000000E+00  0.6000000E-02
    1        0.112898   1.000000
    2        0.400965   1.000000
    3        0.400965   1.000000
    4        5.272142   0.030127
    5        6.078575   0.000000
    6       13.387266   0.000000
    7       13.387266   0.000000
    8       13.576560   0.000000
    9       15.053039   0.000000
   10       20.738466   0.000000
 
  0.5000000E+00  0.5000000E+00  0.5000000E+00  0.1000000E-02
    1        0.204441   1.000000
    2        0.204441   1.000000
    3        0.204441   1.000000
    4        6.090150   0.000000
    5        6.090150   0.000000
    6       13.884905   0.000000
    7       13.884905   0.000000
    8       13.884905   0.000000
    9       14.789373   0.000000
   10       19.087659   0.000000
