Starting job 28218118 ("jobfile") on c16-3 at Fri Sep 20 10:34:03 CEST 2019
 running on    4 total cores
 distrk:  each k-point on    4 cores,    1 groups
 distr:  one band on    2 cores,    2 groups
 using from now: INCAR     
 vasp.5.4.1 05Feb16 (build Mar 02 2016 14:09:44) complex                        
  
 POSCAR found type information on POSCAR  Pt
 POSCAR found :  1 types and       1 ions

 ----------------------------------------------------------------------------- 
|                                                                             |
|  ADVICE TO THIS USER RUNNING 'VASP/VAMP'   (HEAR YOUR MASTER'S VOICE ...):  |
|                                                                             |
|      You have a (more or less) 'small supercell' and for smaller cells      |
|      it is recommended  to use the reciprocal-space projection scheme!      |
|      The real space optimization is not  efficient for small cells and it   |
|      is also less accurate ...                                              |
|      Therefore set LREAL=.FALSE. in the  INCAR file                         |
|                                                                             |
 ----------------------------------------------------------------------------- 

 LDA part: xc-table for Pade appr. of Perdew
 POSCAR, INCAR and KPOINTS ok, starting setup
 WARNING: small aliasing (wrap around) errors must be expected
 FFT: planning ...
 WAVECAR not read
 entering main loop
       N       E                     dE             d eps       ncg     rms          rms(c)
DAV:   1     0.607847537881E+02    0.60785E+02   -0.51651E+03  1184   0.932E+02
DAV:   2    -0.447507828324E+01   -0.65260E+02   -0.61390E+02  1124   0.215E+02
DAV:   3    -0.587605484827E+01   -0.14010E+01   -0.13971E+01  1408   0.385E+01
DAV:   4    -0.588815706037E+01   -0.12102E-01   -0.12102E-01  1340   0.339E+00
DAV:   5    -0.588844736134E+01   -0.29030E-03   -0.28991E-03  1358   0.484E-01    0.350E+00
RMM:   6    -0.556546537166E+01    0.32298E+00   -0.48097E-01  1130   0.924E+00    0.890E-01
RMM:   7    -0.555278627413E+01    0.12679E-01   -0.40248E-02  1192   0.173E+00    0.383E-01
RMM:   8    -0.555092287731E+01    0.18634E-02   -0.30340E-03  1206   0.810E-01    0.567E-02
RMM:   9    -0.555063452308E+01    0.28835E-03   -0.30008E-04  1322   0.217E-01    0.126E-02
RMM:  10    -0.555066880747E+01   -0.34284E-04   -0.23575E-05  1025   0.467E-02    0.537E-03
RMM:  11    -0.555066006910E+01    0.87384E-05   -0.28941E-06   742   0.234E-02
   1 F= -.55506601E+01 E0= -.55506601E+01  d E =0.000000E+00

Currently Loaded Modulefiles:
  1) intel/2016.1       2) vasp/5.4.1.Feb16

Job script resource usage:
       JobID  MaxVMSize     MaxRSS 
------------ ---------- ---------- 
28218118.ba+    216752K      2576K 

Job step resource usage:
       JobID    JobName  AllocCPUS  MaxVMSize     MaxRSS    Elapsed ExitCode 
------------ ---------- ---------- ---------- ---------- ---------- -------- 
28218118        jobfile          4                         00:00:06      0:0 
28218118.0    pmi_proxy          1    279832K       530K   00:00:05      0:0 

Job 28218118 ("jobfile") completed on c16-3 at Fri Sep 20 10:34:08 CEST 2019
