  20  20   0   0
  0.2166373E+02  0.3946846E-09  0.3946846E-09  0.2781396E-08  0.5000000E-15
  1.000000000000000E-004
  CAR 
 unknown system                          
      9.26002821    -36.41745492  301      0.20066072      1.00000000
    -36.417  0.0000E+00  0.0000E+00
    -36.265  0.0000E+00  0.0000E+00
    -36.113  0.0000E+00  0.0000E+00
    -35.961  0.0000E+00  0.0000E+00
    -35.808  0.0000E+00  0.0000E+00
    -35.656  0.0000E+00  0.0000E+00
    -35.504  0.0000E+00  0.0000E+00
    -35.352  0.0000E+00  0.0000E+00
    -35.199  0.0000E+00  0.0000E+00
    -35.047  0.0000E+00  0.0000E+00
    -34.895  0.0000E+00  0.0000E+00
    -34.743  0.0000E+00  0.0000E+00
    -34.590  0.0000E+00  0.0000E+00
    -34.438  0.0000E+00  0.0000E+00
    -34.286  0.0000E+00  0.2000E+01
    -34.134  0.0000E+00  0.2000E+01
    -33.981  0.0000E+00  0.2000E+01
    -33.829  0.0000E+00  0.2000E+01
    -33.677  0.0000E+00  0.2000E+01
    -33.525  0.0000E+00  0.2000E+01
    -33.372  0.0000E+00  0.2000E+01
    -33.220  0.4773E+02  0.4098E+01
    -33.068  0.0000E+00  0.8000E+01
    -32.916  0.0000E+00  0.8000E+01
    -32.763  0.0000E+00  0.8000E+01
    -32.611  0.0000E+00  0.8000E+01
    -32.459  0.0000E+00  0.8000E+01
    -32.306  0.0000E+00  0.8000E+01
    -32.154  0.0000E+00  0.8000E+01
    -32.002  0.0000E+00  0.8000E+01
    -31.850  0.0000E+00  0.8000E+01
    -31.697  0.0000E+00  0.8000E+01
    -31.545  0.0000E+00  0.8000E+01
    -31.393  0.0000E+00  0.8000E+01
    -31.241  0.0000E+00  0.8000E+01
    -31.088  0.0000E+00  0.8000E+01
    -30.936  0.0000E+00  0.8000E+01
    -30.784  0.0000E+00  0.8000E+01
    -30.632  0.0000E+00  0.8000E+01
    -30.479  0.0000E+00  0.8000E+01
    -30.327  0.0000E+00  0.8000E+01
    -30.175  0.0000E+00  0.8000E+01
    -30.023  0.0000E+00  0.8000E+01
    -29.870  0.0000E+00  0.8000E+01
    -29.718  0.0000E+00  0.8000E+01
    -29.566  0.0000E+00  0.8000E+01
    -29.414  0.0000E+00  0.8000E+01
    -29.261  0.0000E+00  0.8000E+01
    -29.109  0.0000E+00  0.8000E+01
    -28.957  0.0000E+00  0.8000E+01
    -28.805  0.0000E+00  0.8000E+01
    -28.652  0.0000E+00  0.8000E+01
    -28.500  0.0000E+00  0.8000E+01
    -28.348  0.0000E+00  0.8000E+01
    -28.196  0.0000E+00  0.8000E+01
    -28.043  0.0000E+00  0.8000E+01
    -27.891  0.0000E+00  0.8000E+01
    -27.739  0.0000E+00  0.8000E+01
    -27.586  0.0000E+00  0.8000E+01
    -27.434  0.0000E+00  0.8000E+01
    -27.282  0.0000E+00  0.8000E+01
    -27.130  0.0000E+00  0.8000E+01
    -26.977  0.0000E+00  0.8000E+01
    -26.825  0.0000E+00  0.8000E+01
    -26.673  0.0000E+00  0.8000E+01
    -26.521  0.0000E+00  0.8000E+01
    -26.368  0.0000E+00  0.8000E+01
    -26.216  0.0000E+00  0.8000E+01
    -26.064  0.0000E+00  0.8000E+01
    -25.912  0.0000E+00  0.8000E+01
    -25.759  0.0000E+00  0.8000E+01
    -25.607  0.0000E+00  0.8000E+01
    -25.455  0.0000E+00  0.8000E+01
    -25.303  0.0000E+00  0.8000E+01
    -25.150  0.0000E+00  0.8000E+01
    -24.998  0.0000E+00  0.8000E+01
    -24.846  0.0000E+00  0.8000E+01
    -24.694  0.0000E+00  0.8000E+01
    -24.541  0.0000E+00  0.8000E+01
    -24.389  0.0000E+00  0.8000E+01
    -24.237  0.0000E+00  0.8000E+01
    -24.085  0.0000E+00  0.8000E+01
    -23.932  0.0000E+00  0.8000E+01
    -23.780  0.0000E+00  0.8000E+01
    -23.628  0.0000E+00  0.8000E+01
    -23.476  0.0000E+00  0.8000E+01
    -23.323  0.0000E+00  0.8000E+01
    -23.171  0.0000E+00  0.8000E+01
    -23.019  0.0000E+00  0.8000E+01
    -22.866  0.0000E+00  0.8000E+01
    -22.714  0.0000E+00  0.8000E+01
    -22.562  0.0000E+00  0.8000E+01
    -22.410  0.0000E+00  0.8000E+01
    -22.257  0.0000E+00  0.8000E+01
    -22.105  0.0000E+00  0.8000E+01
    -21.953  0.0000E+00  0.8000E+01
    -21.801  0.0000E+00  0.8000E+01
    -21.648  0.0000E+00  0.8000E+01
    -21.496  0.0000E+00  0.8000E+01
    -21.344  0.0000E+00  0.8000E+01
    -21.192  0.0000E+00  0.8000E+01
    -21.039  0.0000E+00  0.8000E+01
    -20.887  0.0000E+00  0.8000E+01
    -20.735  0.0000E+00  0.8000E+01
    -20.583  0.0000E+00  0.8000E+01
    -20.430  0.0000E+00  0.8000E+01
    -20.278  0.0000E+00  0.8000E+01
    -20.126  0.0000E+00  0.8000E+01
    -19.974  0.0000E+00  0.8000E+01
    -19.821  0.0000E+00  0.8000E+01
    -19.669  0.0000E+00  0.8000E+01
    -19.517  0.0000E+00  0.8000E+01
    -19.365  0.0000E+00  0.8000E+01
    -19.212  0.0000E+00  0.8000E+01
    -19.060  0.0000E+00  0.8000E+01
    -18.908  0.0000E+00  0.8000E+01
    -18.755  0.0000E+00  0.8000E+01
    -18.603  0.0000E+00  0.8000E+01
    -18.451  0.0000E+00  0.8000E+01
    -18.299  0.0000E+00  0.8000E+01
    -18.146  0.0000E+00  0.8000E+01
    -17.994  0.0000E+00  0.8000E+01
    -17.842  0.1302E+02  0.8930E+01
    -17.690  0.1246E+02  0.1082E+02
    -17.537  0.7017E+01  0.1208E+02
    -17.385  0.4400E+01  0.1309E+02
    -17.233  0.1030E+02  0.1450E+02
    -17.081  0.1084E+02  0.1561E+02
    -16.928  0.3257E+02  0.1897E+02
    -16.776  0.9611E+02  0.2398E+02
    -16.624  0.1078E+02  0.2702E+02
    -16.472  0.5036E+01  0.2925E+02
    -16.319  0.1313E+02  0.3025E+02
    -16.167  0.1799E+02  0.3502E+02
    -16.015  0.0000E+00  0.3600E+02
    -15.863  0.3881E+00  0.3603E+02
    -15.710  0.2249E+01  0.3628E+02
    -15.558  0.4856E+01  0.3672E+02
    -15.406  0.1179E+02  0.3780E+02
    -15.254  0.4450E+02  0.4171E+02
    -15.101  0.3184E+02  0.4744E+02
    -14.949  0.5098E+02  0.5218E+02
    -14.797  0.7634E+01  0.5595E+02
    -14.645  0.0000E+00  0.5600E+02
    -14.492  0.0000E+00  0.5600E+02
    -14.340  0.0000E+00  0.5600E+02
    -14.188  0.0000E+00  0.5600E+02
    -14.035  0.0000E+00  0.5600E+02
    -13.883  0.0000E+00  0.5600E+02
    -13.731  0.0000E+00  0.5600E+02
    -13.579  0.0000E+00  0.5600E+02
    -13.426  0.0000E+00  0.5600E+02
    -13.274  0.0000E+00  0.5600E+02
    -13.122  0.0000E+00  0.5600E+02
    -12.970  0.0000E+00  0.5600E+02
    -12.817  0.0000E+00  0.5600E+02
    -12.665  0.0000E+00  0.5600E+02
    -12.513  0.0000E+00  0.5600E+02
    -12.361  0.0000E+00  0.5600E+02
    -12.208  0.0000E+00  0.5600E+02
    -12.056  0.0000E+00  0.5600E+02
    -11.904  0.0000E+00  0.5600E+02
    -11.752  0.0000E+00  0.5600E+02
    -11.599  0.0000E+00  0.5600E+02
    -11.447  0.0000E+00  0.5600E+02
    -11.295  0.0000E+00  0.5600E+02
    -11.143  0.0000E+00  0.5600E+02
    -10.990  0.0000E+00  0.5600E+02
    -10.838  0.0000E+00  0.5600E+02
    -10.686  0.0000E+00  0.5600E+02
    -10.534  0.0000E+00  0.5600E+02
    -10.381  0.0000E+00  0.5600E+02
    -10.229  0.0000E+00  0.5600E+02
    -10.077  0.0000E+00  0.5600E+02
     -9.925  0.0000E+00  0.5600E+02
     -9.772  0.0000E+00  0.5600E+02
     -9.620  0.0000E+00  0.5600E+02
     -9.468  0.0000E+00  0.5600E+02
     -9.315  0.0000E+00  0.5600E+02
     -9.163  0.0000E+00  0.5600E+02
     -9.011  0.0000E+00  0.5600E+02
     -8.859  0.0000E+00  0.5600E+02
     -8.706  0.0000E+00  0.5600E+02
     -8.554  0.0000E+00  0.5600E+02
     -8.402  0.0000E+00  0.5600E+02
     -8.250  0.0000E+00  0.5600E+02
     -8.097  0.0000E+00  0.5600E+02
     -7.945  0.0000E+00  0.5600E+02
     -7.793  0.0000E+00  0.5600E+02
     -7.641  0.0000E+00  0.5600E+02
     -7.488  0.0000E+00  0.5600E+02
     -7.336  0.0000E+00  0.5600E+02
     -7.184  0.0000E+00  0.5600E+02
     -7.032  0.0000E+00  0.5600E+02
     -6.879  0.0000E+00  0.5600E+02
     -6.727  0.0000E+00  0.5600E+02
     -6.575  0.0000E+00  0.5600E+02
     -6.423  0.0000E+00  0.5600E+02
     -6.270  0.0000E+00  0.5600E+02
     -6.118  0.0000E+00  0.5600E+02
     -5.966  0.0000E+00  0.5600E+02
     -5.814  0.0000E+00  0.5600E+02
     -5.661  0.0000E+00  0.5600E+02
     -5.509  0.0000E+00  0.5600E+02
     -5.357  0.0000E+00  0.5600E+02
     -5.205  0.0000E+00  0.5600E+02
     -5.052  0.0000E+00  0.5600E+02
     -4.900  0.1565E+01  0.5606E+02
     -4.748  0.1011E+02  0.5713E+02
     -4.595  0.1629E+02  0.5948E+02
     -4.443  0.1460E+02  0.6182E+02
     -4.291  0.1355E+02  0.6432E+02
     -4.139  0.1359E+02  0.6667E+02
     -3.986  0.1580E+02  0.6916E+02
     -3.834  0.1805E+02  0.7180E+02
     -3.682  0.1918E+02  0.7483E+02
     -3.530  0.2276E+02  0.7809E+02
     -3.377  0.2748E+02  0.8211E+02
     -3.225  0.1789E+02  0.8569E+02
     -3.073  0.1171E+02  0.8783E+02
     -2.921  0.1521E+02  0.9004E+02
     -2.768  0.1225E+02  0.9208E+02
     -2.616  0.1376E+02  0.9417E+02
     -2.464  0.1107E+02  0.9609E+02
     -2.312  0.9189E+01  0.9771E+02
     -2.159  0.9560E+01  0.9933E+02
     -2.007  0.1252E+02  0.1013E+03
     -1.855  0.1146E+02  0.1033E+03
     -1.703  0.2224E+02  0.1062E+03
     -1.550  0.1674E+02  0.1095E+03
     -1.398  0.2198E+02  0.1130E+03
     -1.246  0.1764E+02  0.1166E+03
     -1.094  0.1732E+02  0.1193E+03
     -0.941  0.1752E+02  0.1223E+03
     -0.789  0.1090E+02  0.1246E+03
     -0.637  0.1902E+02  0.1265E+03
     -0.485  0.1611E+01  0.1273E+03
     -0.332  0.1115E+01  0.1275E+03
     -0.180  0.1186E+01  0.1277E+03
     -0.028  0.8420E+00  0.1278E+03
      0.125  0.5732E+00  0.1279E+03
      0.277  0.0000E+00  0.1280E+03
      0.429  0.0000E+00  0.1280E+03
      0.581  0.0000E+00  0.1280E+03
      0.734  0.0000E+00  0.1280E+03
      0.886  0.0000E+00  0.1280E+03
      1.038  0.0000E+00  0.1280E+03
      1.190  0.3583E+00  0.1280E+03
      1.343  0.2814E+01  0.1282E+03
      1.495  0.3965E+01  0.1288E+03
      1.647  0.4562E+01  0.1295E+03
      1.799  0.4813E+01  0.1301E+03
      1.952  0.8874E+01  0.1313E+03
      2.104  0.7212E+01  0.1325E+03
      2.256  0.7627E+01  0.1336E+03
      2.408  0.1145E+02  0.1351E+03
      2.561  0.1252E+02  0.1369E+03
      2.713  0.1301E+02  0.1388E+03
      2.865  0.2242E+02  0.1412E+03
      3.017  0.1624E+02  0.1444E+03
      3.170  0.1186E+02  0.1469E+03
      3.322  0.5783E+01  0.1486E+03
      3.474  0.1241E+01  0.1491E+03
      3.626  0.6309E+00  0.1493E+03
      3.779  0.6201E+00  0.1494E+03
      3.931  0.6093E+00  0.1495E+03
      4.083  0.5985E+00  0.1496E+03
      4.236  0.5877E+00  0.1496E+03
      4.388  0.5768E+00  0.1497E+03
      4.540  0.5660E+00  0.1498E+03
      4.692  0.5552E+00  0.1499E+03
      4.845  0.5444E+00  0.1500E+03
      4.997  0.5336E+00  0.1501E+03
      5.149  0.5935E+00  0.1502E+03
      5.301  0.7858E+00  0.1503E+03
      5.454  0.6684E+00  0.1504E+03
      5.606  0.7947E+00  0.1505E+03
      5.758  0.7909E+00  0.1507E+03
      5.910  0.7733E+00  0.1508E+03
      6.063  0.7557E+00  0.1509E+03
      6.215  0.7380E+00  0.1510E+03
      6.367  0.7579E+00  0.1511E+03
      6.519  0.8210E+00  0.1512E+03
      6.672  0.8841E+00  0.1514E+03
      6.824  0.7651E+00  0.1516E+03
      6.976  0.1502E+01  0.1517E+03
      7.128  0.9297E+00  0.1520E+03
      7.281  0.0000E+00  0.1520E+03
      7.433  0.0000E+00  0.1520E+03
      7.585  0.0000E+00  0.1520E+03
      7.737  0.0000E+00  0.1520E+03
      7.890  0.0000E+00  0.1520E+03
      8.042  0.0000E+00  0.1520E+03
      8.194  0.0000E+00  0.1520E+03
      8.346  0.0000E+00  0.1520E+03
      8.499  0.0000E+00  0.1520E+03
      8.651  0.0000E+00  0.1520E+03
      8.803  0.0000E+00  0.1520E+03
      8.956  0.0000E+00  0.1520E+03
      9.108  0.0000E+00  0.1520E+03
      9.260  0.0000E+00  0.1520E+03
