 vasp.5.4.4.18Apr17-6-g9f103f2a35 (build Jun 30 2017 11:15:00) complex          
  
 executed on    STALLO_VASP_5.4.4 date 2019.11.08  10:21:34
 running on    4 total cores
 distrk:  each k-point on    4 cores,    1 groups
 distr:  one band on NCORES_PER_BAND=   2 cores,    2 groups


--------------------------------------------------------------------------------------------------------


 INCAR:
 POTCAR:   PAW_PBE O 08Apr2002                    
 POTCAR:   PAW_PBE Sr_sv 07Sep2000                
 POTCAR:   PAW_PBE Ti 08Apr2002                   
 POTCAR:   PAW_PBE O 08Apr2002                    
   VRHFIN =O: s2p4                                                              
   LEXCH  = PE                                                                  
   EATOM  =   432.3788 eV,   31.7789 Ry                                         
                                                                                
   TITEL  = PAW_PBE O 08Apr2002                                                 
   LULTRA =        F    use ultrasoft PP ?                                      
   IUNSCR =        0    unscreen: 0-lin 1-nonlin 2-no                           
   RPACOR =     .000    partial core radius                                     
   POMASS =   16.000; ZVAL   =    6.000    mass and valenz                      
   RCORE  =    1.520    outmost cutoff radius                                   
   RWIGS  =    1.550; RWIGS  =     .820    wigner-seitz radius (au A)           
   ENMAX  =  400.000; ENMIN  =  300.000 eV                                      
   ICORE  =        2    local potential                                         
   LCOR   =        T    correct aug charges                                     
   LPAW   =        T    paw PP                                                  
   EAUG   =  605.392                                                            
   DEXC   =     .000                                                            
   RMAX   =    2.264    core radius for proj-oper                               
   RAUG   =    1.300    factor for augmentation sphere                          
   RDEP   =    1.550    radius for radial grids                                 
   QCUT   =   -5.520; QGAM   =   11.041    optimization parameters              
                                                                                
   Description                                                                  
     l     E      TYP  RCUT    TYP  RCUT                                        
     0   .000     23  1.200                                                     
     0  -.700     23  1.200                                                     
     1   .000     23  1.520                                                     
     1   .600     23  1.520                                                     
     2   .000      7  1.500                                                     
  local pseudopotential read in
  atomic valenz-charges read in
  non local Contribution for L=           0  read in
    real space projection operators read in
  non local Contribution for L=           0  read in
    real space projection operators read in
  non local Contribution for L=           1  read in
    real space projection operators read in
  non local Contribution for L=           1  read in
    real space projection operators read in
    PAW grid and wavefunctions read in
 
   number of l-projection  operators is LMAX  =           4
   number of lm-projection operators is LMMAX =           8
 
 POTCAR:   PAW_PBE Sr_sv 07Sep2000                
   VRHFIN =Sr: 4s4p5s                                                           
   LEXCH  = PE                                                                  
   EATOM  =   842.4562 eV,   61.9188 Ry                                         
                                                                                
   TITEL  = PAW_PBE Sr_sv 07Sep2000                                             
   LULTRA =        F    use ultrasoft PP ?                                      
   IUNSCR =        1    unscreen: 0-lin 1-nonlin 2-no                           
   RPACOR =    2.200    partial core radius                                     
   POMASS =   87.620; ZVAL   =   10.000    mass and valenz                      
   RCORE  =    2.500    outmost cutoff radius                                   
   RWIGS  =    4.040; RWIGS  =    2.138    wigner-seitz radius (au A)           
   ENMAX  =  229.282; ENMIN  =  171.961 eV                                      
   RCLOC  =    2.201    cutoff for local pot                                    
   LCOR   =        T    correct aug charges                                     
   LPAW   =        T    paw PP                                                  
   EAUG   =  366.804                                                            
   DEXC   =     .000                                                            
   RMAX   =    3.045    core radius for proj-oper                               
   RAUG   =    1.300    factor for augmentation sphere                          
   RDEP   =    2.562    radius for radial grids                                 
   QCUT   =   -4.105; QGAM   =    8.210    optimization parameters              
                                                                                
   Description                                                                  
     l     E      TYP  RCUT    TYP  RCUT                                        
     0   .000     23  2.480                                                     
     0   .000     23  2.480                                                     
     1   .000     23  2.500                                                     
     1   .000     23  2.500                                                     
     2   .000     23  2.500                                                     
     2   .000     23  2.500                                                     
  local pseudopotential read in
  partial core-charges read in
  atomic valenz-charges read in
  non local Contribution for L=           0  read in
    real space projection operators read in
  non local Contribution for L=           0  read in
    real space projection operators read in
  non local Contribution for L=           1  read in
    real space projection operators read in
  non local Contribution for L=           1  read in
    real space projection operators read in
  non local Contribution for L=           2  read in
    real space projection operators read in
  non local Contribution for L=           2  read in
    real space projection operators read in
    PAW grid and wavefunctions read in
 
   number of l-projection  operators is LMAX  =           6
   number of lm-projection operators is LMMAX =          18
 
 POTCAR:   PAW_PBE Ti 08Apr2002                   
   VRHFIN =Ti: d3 s1                                                            
   LEXCH  = PE                                                                  
   EATOM  =    94.7929 eV,    6.9671 Ry                                         
                                                                                
   TITEL  = PAW_PBE Ti 08Apr2002                                                
   LULTRA =        F    use ultrasoft PP ?                                      
   IUNSCR =        1    unscreen: 0-lin 1-nonlin 2-no                           
   RPACOR =    2.200    partial core radius                                     
   POMASS =   47.880; ZVAL   =    4.000    mass and valenz                      
   RCORE  =    2.800    outmost cutoff radius                                   
   RWIGS  =    2.500; RWIGS  =    1.323    wigner-seitz radius (au A)           
   ENMAX  =  178.330; ENMIN  =  133.747 eV                                      
   RCLOC  =    2.215    cutoff for local pot                                    
   LCOR   =        T    correct aug charges                                     
   LPAW   =        T    paw PP                                                  
   EAUG   =  328.883                                                            
   DEXC   =    -.043                                                            
   RMAX   =    3.453    core radius for proj-oper                               
   RAUG   =    1.300    factor for augmentation sphere                          
   RDEP   =    2.885    radius for radial grids                                 
   QCUT   =   -3.620; QGAM   =    7.241    optimization parameters              
                                                                                
   Description                                                                  
     l     E      TYP  RCUT    TYP  RCUT                                        
     2   .000     23  2.800                                                     
     2   .000     23  2.800                                                     
     0   .000     23  2.800                                                     
     0  1.500     23  2.800                                                     
     1  -.400     23  2.800                                                     
     3   .000      7   .000                                                     
  local pseudopotential read in
  partial core-charges read in
  atomic valenz-charges read in
  non local Contribution for L=           2  read in
    real space projection operators read in
  non local Contribution for L=           2  read in
    real space projection operators read in
  non local Contribution for L=           0  read in
    real space projection operators read in
  non local Contribution for L=           0  read in
    real space projection operators read in
  non local Contribution for L=           1  read in
    real space projection operators read in
    PAW grid and wavefunctions read in
 
   number of l-projection  operators is LMAX  =           5
   number of lm-projection operators is LMMAX =          15
 

 ----------------------------------------------------------------------------- 
|                                                                             |
|  ADVICE TO THIS USER RUNNING 'VASP/VAMP'   (HEAR YOUR MASTER'S VOICE ...):  |
|                                                                             |
|      You have a (more or less) 'large supercell' and for larger cells       |
|      it might be more efficient to use real space projection operators      |
|      So try LREAL= Auto  in the INCAR   file.                               |
|      Mind: If you want to do a very accurate calculations keep the          |
|      reciprocal projection scheme          (i.e. LREAL=.FALSE.)             |
|                                                                             |
 ----------------------------------------------------------------------------- 

 PAW_PBE O 08Apr2002                    :
 energy of atom  1       EATOM= -432.3788
 kinetic energy error for atom=    0.0224 (will be added to EATOM!!)
 PAW_PBE Sr_sv 07Sep2000                :
 energy of atom  2       EATOM= -842.4562
 kinetic energy error for atom=    0.0012 (will be added to EATOM!!)
 PAW_PBE Ti 08Apr2002                   :
 energy of atom  3       EATOM=  -94.7929
 kinetic energy error for atom=    0.0002 (will be added to EATOM!!)
 
 
 POSCAR:  O Sr Ti                                
  positions in direct lattice
  No initial velocities read in
 exchange correlation table for  LEXCH =        8
   RHO(1)=    0.500       N(1)  =     2000
   RHO(2)=  100.500       N(2)  =     4000
 


--------------------------------------------------------------------------------------------------------


 ion  position               nearest neighbor table
   1  0.500  0.500  0.252-  17 1.97  13 2.79  13 2.79  13 2.79  13 2.79
   2  0.500  0.000  0.323-  17 1.97  17 1.97  14 2.79  14 2.79  13 2.79  13 2.79
   3  0.000  0.500  0.323-  17 1.97  17 1.97  14 2.79  14 2.79  13 2.79  13 2.79
   4  0.500  0.500  0.394-  17 1.97  18 1.97  14 2.79  14 2.79  14 2.79  14 2.79
   5  0.500  0.000  0.465-  18 1.97  18 1.97  15 2.79  15 2.79  14 2.79  14 2.79
   6  0.000  0.500  0.465-  18 1.97  18 1.97  15 2.79  15 2.79  14 2.79  14 2.79
   7  0.500  0.500  0.535-  18 1.97  19 1.97  15 2.79  15 2.79  15 2.79  15 2.79
   8  0.500  0.000  0.606-  19 1.97  19 1.97  16 2.79  16 2.79  15 2.79  15 2.79
   9  0.000  0.500  0.606-  19 1.97  19 1.97  16 2.79  16 2.79  15 2.79  15 2.79
  10  0.500  0.500  0.677-  19 1.97  20 1.97  16 2.79  16 2.79  16 2.79  16 2.79
  11  0.500  0.000  0.748-  20 1.97  20 1.97  16 2.79  16 2.79
  12  0.000  0.500  0.748-  20 1.97  20 1.97  16 2.79  16 2.79
  13  0.000  0.000  0.252-   1 2.79   1 2.79   1 2.79   1 2.79   3 2.79   3 2.79   2 2.79   2 2.79
                            17 3.42  17 3.42  17 3.42  17 3.42  14 3.95
  14  0.000  0.000  0.394-   2 2.79   3 2.79   3 2.79   2 2.79   4 2.79   4 2.79   4 2.79   4 2.79
                             5 2.79   6 2.79   5 2.79   6 2.79  17 3.42  17 3.42  17 3.42  17 3.42
  15  0.000  0.000  0.535-   5 2.79   6 2.79   6 2.79   5 2.79   7 2.79   7 2.79   7 2.79   7 2.79
                             8 2.79   9 2.79   8 2.79   9 2.79  18 3.42  18 3.42  18 3.42  18 3.42
  16  0.000  0.000  0.677-   8 2.79   9 2.79   9 2.79   8 2.79  10 2.79  10 2.79  10 2.79  10 2.79
                            11 2.79  12 2.79  11 2.79  12 2.79  19 3.42  19 3.42  19 3.42  19 3.42
  17  0.500  0.500  0.323-   4 1.97   3 1.97   2 1.97   2 1.97   3 1.97   1 1.97  14 3.42  14 3.42
                            14 3.42  14 3.42  13 3.42  13 3.42  13 3.42  13 3.42
  18  0.500  0.500  0.465-   7 1.97   6 1.97   5 1.97   5 1.97   6 1.97   4 1.97  15 3.42  15 3.42
                            15 3.42  15 3.42  14 3.42  14 3.42  14 3.42  14 3.42
  19  0.500  0.500  0.606-  10 1.97   9 1.97   8 1.97   8 1.97   9 1.97   7 1.97  16 3.42  16 3.42
                            16 3.42  16 3.42  15 3.42  15 3.42  15 3.42  15 3.42
  20  0.500  0.500  0.748-  11 1.97  12 1.97  11 1.97  12 1.97  10 1.97  16 3.42  16 3.42  16 3.42
                            16 3.42
 
  LATTYP: Found a simple tetragonal cell.
 ALAT       =     3.9468463416
 C/A-ratio  =     7.0471358113
  
  Lattice vectors:
  
 A1 = (   3.9468463416,   0.0000000000,   0.0000000000)
 A2 = (   0.0000000000,   3.9468463416,   0.0000000000)
 A3 = (   0.0000000000,   0.0000000000,  27.8139621957)


Analysis of symmetry for initial positions (statically):
=====================================================================
 Subroutine PRICEL returns:
 Original cell was already a primitive cell.
 

 Routine SETGRP: Setting up the symmetry group for a 
 simple tetragonal supercell.


 Subroutine GETGRP returns: Found  8 space group operations
 (whereof  8 operations were pure point group operations)
 out of a pool of 16 trial point group operations.


The static configuration has the point symmetry C_4v.


Analysis of symmetry for dynamics (positions and initial velocities):
=====================================================================
 Subroutine PRICEL returns:
 Original cell was already a primitive cell.
 

 Routine SETGRP: Setting up the symmetry group for a 
 simple tetragonal supercell.


 Subroutine GETGRP returns: Found  8 space group operations
 (whereof  8 operations were pure point group operations)
 out of a pool of 16 trial point group operations.


The dynamic configuration has the point symmetry C_4v.


 Subroutine INISYM returns: Found  8 space group operations
 (whereof  8 operations are pure point group operations),
 and found     1 'primitive' translations

 
 
 KPOINTS: k-density: 4.0                          

Automatic generation of k-mesh.
Space group operators:
 irot       det(A)        alpha          n_x          n_y          n_z        tau_x        tau_y        tau_z
    1     1.000000     0.000001     1.000000     0.000000     0.000000     0.000000     0.000000     0.000000
    2     1.000000    90.000000     0.000000     0.000000    -1.000000     0.000000     0.000000     0.000000
    3     1.000000   180.000000     0.000000     0.000000     1.000000     0.000000     0.000000     0.000000
    4     1.000000    90.000000     0.000000     0.000000     1.000000     0.000000     0.000000     0.000000
    5    -1.000000   179.999999     0.000000     1.000000     0.000000     0.000000     0.000000     0.000000
    6    -1.000000   179.999999     0.707107     0.707107     0.000000     0.000000     0.000000     0.000000
    7    -1.000000   179.999999     1.000000     0.000000     0.000000     0.000000     0.000000     0.000000
    8    -1.000000   179.999999     0.707107    -0.707107     0.000000     0.000000     0.000000     0.000000
 
 Subroutine IBZKPT returns following result:
 ===========================================
 
 Found     10 irreducible k-points:
 
 Following reciprocal coordinates:
            Coordinates               Weight
  0.000000  0.000000  0.000000      1.000000
  0.142857  0.000000  0.000000      4.000000
  0.285714  0.000000  0.000000      4.000000
  0.428571  0.000000  0.000000      4.000000
  0.142857  0.142857  0.000000      4.000000
  0.285714  0.142857  0.000000      8.000000
  0.428571  0.142857  0.000000      8.000000
  0.285714  0.285714  0.000000      4.000000
  0.428571  0.285714  0.000000      8.000000
  0.428571  0.428571  0.000000      4.000000
 
 Following cartesian coordinates:
            Coordinates               Weight
  0.000000  0.000000  0.000000      1.000000
  0.036195  0.000000  0.000000      4.000000
  0.072391  0.000000  0.000000      4.000000
  0.108586  0.000000  0.000000      4.000000
  0.036195  0.036195  0.000000      4.000000
  0.072391  0.036195  0.000000      8.000000
  0.108586  0.036195  0.000000      8.000000
  0.072391  0.072391  0.000000      4.000000
  0.108586  0.072391  0.000000      8.000000
  0.108586  0.108586  0.000000      4.000000
 
 TETIRR: Found     65 inequivalent tetrahedra from      294


--------------------------------------------------------------------------------------------------------




 Dimension of arrays:
   k-points           NKPTS =     10   k-points in BZ     NKDIM =     10   number of bands    NBANDS=     76
   number of dos      NEDOS =    301   number of ions     NIONS =     20
   non local maximal  LDIM  =      6   non local SUM 2l+1 LMDIM =     18
   total plane-waves  NPLWV =  92160
   max r-space proj   IRMAX =      1   max aug-charges    IRDMAX=  14888
   dimension x,y,z NGX =    24 NGY =   24 NGZ =  160
   dimension x,y,z NGXF=    48 NGYF=   48 NGZF=  320
   support grid    NGXF=    48 NGYF=   48 NGZF=  320
   ions per type =              12   4   4
   NGX,Y,Z   is equivalent  to a cutoff of  10.11, 10.11,  9.56 a.u.
   NGXF,Y,Z  is equivalent  to a cutoff of  20.22, 20.22, 19.13 a.u.

 SYSTEM =  unknown system                          
 POSCAR =   O Sr Ti                                

 Startparameter for this run:
   NWRITE =      2    write-flag & timer
   PREC   = normal    normal or accurate (medium, high low for compatibility)
   ISTART =      0    job   : 0-new  1-cont  2-samecut
   ICHARG =      2    charge: 1-file 2-atom 10-const
   ISPIN  =      1    spin polarized calculation?
   LNONCOLLINEAR =      F non collinear calculations
   LSORBIT =      F    spin-orbit coupling
   INIWAV =      1    electr: 0-lowe 1-rand  2-diag
   LASPH  =      F    aspherical Exc in radial PAW
   METAGGA=      F    non-selfconsistent MetaGGA calc.

 Electronic Relaxation 1
   ENCUT  =  500.0 eV  36.75 Ry    6.06 a.u.   7.20  7.20 50.71*2*pi/ulx,y,z
   ENINI  =  500.0     initial cutoff
   ENAUG  =  605.4 eV  augmentation charge cutoff
   NELM   =     60;   NELMIN=  4; NELMDL= -5     # of ELM steps 
   EDIFF  = 0.1E-04   stopping-criterion for ELM
   LREAL  =      F    real-space projection
   NLSPLINE    = F    spline interpolate recip. space projectors
   LCOMPAT=      F    compatible to vasp.4.4
   GGA_COMPAT  = T    GGA compatible to vasp.4.4-vasp.4.6
   LMAXPAW     = -100 max onsite density
   LMAXMIX     =    2 max onsite mixed and CHGCAR
   VOSKOWN=      0    Vosko Wilk Nusair interpolation
   ROPT   =    0.00000   0.00000   0.00000
 Ionic relaxation
   EDIFFG = 0.1E-03   stopping-criterion for IOM
   NSW    =      0    number of steps for IOM
   NBLOCK =      1;   KBLOCK =      1    inner block; outer block 
   IBRION =     -1    ionic relax: 0-MD 1-quasi-New 2-CG
   NFREE  =      0    steps in history (QN), initial steepest desc. (CG)
   ISIF   =      2    stress and relaxation
   IWAVPR =     10    prediction:  0-non 1-charg 2-wave 3-comb
   ISYM   =      2    0-nonsym 1-usesym 2-fastsym
   LCORR  =      T    Harris-Foulkes like correction to forces

   POTIM  = 0.5000    time-step for ionic-motion
   TEIN   =    0.0    initial temperature
   TEBEG  =    0.0;   TEEND  =   0.0 temperature during run
   SMASS  =  -3.00    Nose mass-parameter (am)
   estimated Nose-frequenzy (Omega)   =  0.10E-29 period in steps =****** mass=  -0.356E-27a.u.
   SCALEE = 1.0000    scale energy and forces
   NPACO  =    256;   APACO  = 16.0  distance and # of slots for P.C.
   PSTRESS=    0.0 pullay stress

  Mass of Ions in am
   POMASS =  16.00 87.62 47.88
  Ionic Valenz
   ZVAL   =   6.00 10.00  4.00
  Atomic Wigner-Seitz radii
   RWIGS  =  -1.00 -1.00 -1.00
  virtual crystal weights 
   VCA    =   1.00  1.00  1.00
   NELECT =     128.0000    total number of electrons
   NUPDOWN=      -1.0000    fix difference up-down

 DOS related values:
   EMIN   =  10.00;   EMAX   =-10.00  energy-range for DOS
   EFERMI =   0.00
   ISMEAR =    -5;   SIGMA  =   0.20  broadening in eV -4-tet -1-fermi 0-gaus

 Electronic relaxation 2 (details)
   IALGO  =     68    algorithm
   LDIAG  =      T    sub-space diagonalisation (order eigenvalues)
   LSUBROT=      F    optimize rotation matrix (better conditioning)
   TURBO    =      0    0=normal 1=particle mesh
   IRESTART =      0    0=no restart 2=restart with 2 vectors
   NREBOOT  =      0    no. of reboots
   NMIN     =      0    reboot dimension
   EREF     =   0.00    reference energy to select bands
   IMIX   =      4    mixing-type and parameters
     AMIX     =   0.40;   BMIX     =  1.00
     AMIX_MAG =   1.60;   BMIX_MAG =  1.00
     AMIN     =   0.10
     WC   =   100.;   INIMIX=   1;  MIXPRE=   1;  MAXMIX= -45

 Intra band minimization:
   WEIMIN = 0.0000     energy-eigenvalue tresh-hold
   EBREAK =  0.33E-07  absolut break condition
   DEPER  =   0.30     relativ break condition  

   TIME   =   0.40     timestep for ELM

  volume/ion in A,a.u.               =      21.66       146.19
  Fermi-wavevector in a.u.,A,eV,Ry     =   1.090328  2.060421 16.174804  1.188815
  Thomas-Fermi vector in A             =   2.226550
 
 Write flags
   LWAVE        =      F    write WAVECAR
   LDOWNSAMPLE  =      F    k-point downsampling of WAVECAR
   LCHARG       =      T    write CHGCAR
   LVTOT        =      F    write LOCPOT, total local potential
   LVHAR        =      F    write LOCPOT, Hartree potential only
   LELF         =      F    write electronic localiz. function (ELF)
   LORBIT       =      0    0 simple, 1 ext, 2 COOP (PROOUT), +10 PAW based schemes


 Dipole corrections
   LMONO  =      F    monopole corrections only (constant potential shift)
   LDIPOL =      F    correct potential (dipole corrections)
   IDIPOL =      0    1-x, 2-y, 3-z, 4-all directions 
   EPSILON=  1.0000000 bulk dielectric constant

 Exchange correlation treatment:
   GGA     =    --    GGA type
   LEXCH   =     8    internal setting for exchange type
   VOSKOWN=      0    Vosko Wilk Nusair interpolation
   LHFCALC =     F    Hartree Fock is set to
   LHFONE  =     F    Hartree Fock one center treatment
   AEXX    =    0.0000 exact exchange contribution

 Linear response parameters
   LEPSILON=     F    determine dielectric tensor
   LRPA    =     F    only Hartree local field effects (RPA)
   LNABLA  =     F    use nabla operator in PAW spheres
   LVEL    =     F    velocity operator in full k-point grid
   LINTERFAST=   F  fast interpolation
   KINTER  =     0    interpolate to denser k-point grid
   CSHIFT  =0.1000    complex shift for real part using Kramers Kronig
   OMEGAMAX=  -1.0    maximum frequency
   DEG_THRESHOLD= 0.2000000E-02 threshold for treating states as degnerate
   RTIME   =   -0.100 relaxation time in fs
  (WPLASMAI=    0.000 imaginary part of plasma frequency in eV, 0.658/RTIME)
   DFIELD  = 0.0000000 0.0000000 0.0000000 field for delta impulse in time
 
 Orbital magnetization related:
   ORBITALMAG=     F  switch on orbital magnetization
   LCHIMAG   =     F  perturbation theory with respect to B field
   DQ        =  0.001000  dq finite difference perturbation B field
   LLRAUG    =     F  two centre corrections for induced B field



--------------------------------------------------------------------------------------------------------


 Static calculation
 charge density and potential will be updated during run
 non-spin polarized calculation
 RMM-DIIS sequential band-by-band and
  variant of blocked Davidson during initial phase
 perform sub-space diagonalisation
    before iterative eigenvector-optimisation
 modified Broyden-mixing scheme, WC =      100.0
 initial mixing is a Kerker type mixing with AMIX =  0.4000 and BMIX =      1.0000
 Hartree-type preconditioning will be used
 using additional bands           12
 reciprocal scheme for non local part
 use partial core corrections
 calculate Harris-corrections to forces 
   (improved forces if not selfconsistent)
 use gradient corrections 
 use of overlap-Matrix (Vanderbilt PP)
 Fermi weights with tetrahedron method with Bloechl corrections


--------------------------------------------------------------------------------------------------------


  energy-cutoff  :      500.00
  volume of cell :      433.27
      direct lattice vectors                 reciprocal lattice vectors
     3.946846342  0.000000000  0.000000000     0.253366844  0.000000000  0.000000000
     0.000000000  3.946846342  0.000000000     0.000000000  0.253366844  0.000000000
     0.000000000  0.000000000 27.813962196     0.000000000  0.000000000  0.035953166

  length of vectors
     3.946846342  3.946846342 27.813962196     0.253366844  0.253366844  0.035953166


 
 k-points in units of 2pi/SCALE and weight: k-density: 4.0                          
   0.00000000  0.00000000  0.00000000       0.020
   0.03619526  0.00000000  0.00000000       0.082
   0.07239053  0.00000000  0.00000000       0.082
   0.10858579  0.00000000  0.00000000       0.082
   0.03619526  0.03619526  0.00000000       0.082
   0.07239053  0.03619526  0.00000000       0.163
   0.10858579  0.03619526  0.00000000       0.163
   0.07239053  0.07239053  0.00000000       0.082
   0.10858579  0.07239053  0.00000000       0.163
   0.10858579  0.10858579  0.00000000       0.082
 
 k-points in reciprocal lattice and weights: k-density: 4.0                          
   0.00000000  0.00000000  0.00000000       0.020
   0.14285714  0.00000000  0.00000000       0.082
   0.28571429  0.00000000  0.00000000       0.082
   0.42857143  0.00000000  0.00000000       0.082
   0.14285714  0.14285714  0.00000000       0.082
   0.28571429  0.14285714  0.00000000       0.163
   0.42857143  0.14285714  0.00000000       0.163
   0.28571429  0.28571429  0.00000000       0.082
   0.42857143  0.28571429  0.00000000       0.163
   0.42857143  0.42857143  0.00000000       0.082
 
 position of ions in fractional coordinates (direct lattice) 
   0.50000000  0.50000000  0.25167216
   0.50000000  0.00000000  0.32262297
   0.00000000  0.50000000  0.32262297
   0.50000000  0.50000000  0.39357378
   0.50000000  0.00000000  0.46452459
   0.00000000  0.50000000  0.46452459
   0.50000000  0.50000000  0.53547541
   0.50000000  0.00000000  0.60642622
   0.00000000  0.50000000  0.60642622
   0.50000000  0.50000000  0.67737703
   0.50000000  0.00000000  0.74832784
   0.00000000  0.50000000  0.74832784
   0.00000000  0.00000000  0.25167216
   0.00000000  0.00000000  0.39357378
   0.00000000  0.00000000  0.53547541
   0.00000000  0.00000000  0.67737703
   0.50000000  0.50000000  0.32262297
   0.50000000  0.50000000  0.46452459
   0.50000000  0.50000000  0.60642622
   0.50000000  0.50000000  0.74832784
 
 position of ions in cartesian coordinates  (Angst):
   1.97342317  1.97342317  7.00000000
   1.97342317  0.00000000  8.97342317
   0.00000000  1.97342317  8.97342317
   1.97342317  1.97342317 10.94684634
   1.97342317  0.00000000 12.92026951
   0.00000000  1.97342317 12.92026951
   1.97342317  1.97342317 14.89369268
   1.97342317  0.00000000 16.86711585
   0.00000000  1.97342317 16.86711585
   1.97342317  1.97342317 18.84053902
   1.97342317  0.00000000 20.81396220
   0.00000000  1.97342317 20.81396220
   0.00000000  0.00000000  7.00000000
   0.00000000  0.00000000 10.94684634
   0.00000000  0.00000000 14.89369268
   0.00000000  0.00000000 18.84053902
   1.97342317  1.97342317  8.97342317
   1.97342317  1.97342317 12.92026951
   1.97342317  1.97342317 16.86711585
   1.97342317  1.97342317 20.81396220
 


--------------------------------------------------------------------------------------------------------


 k-point  1 :   0.0000 0.0000 0.0000  plane waves:   10941
 k-point  2 :   0.1429 0.0000 0.0000  plane waves:   10985
 k-point  3 :   0.2857 0.0000 0.0000  plane waves:   10998
 k-point  4 :   0.4286 0.0000 0.0000  plane waves:   11030
 k-point  5 :   0.1429 0.1429 0.0000  plane waves:   10988
 k-point  6 :   0.2857 0.1429 0.0000  plane waves:   10999
 k-point  7 :   0.4286 0.1429 0.0000  plane waves:   11021
 k-point  8 :   0.2857 0.2857 0.0000  plane waves:   11008
 k-point  9 :   0.4286 0.2857 0.0000  plane waves:   10988
 k-point 10 :   0.4286 0.4286 0.0000  plane waves:   11022

 maximum and minimum number of plane-waves per node :      5526     5466

 maximum number of plane-waves:     11030
 maximum index in each direction: 
   IXMAX=    7   IYMAX=    7   IZMAX=   50
   IXMIN=   -7   IYMIN=   -7   IZMIN=  -50


 parallel 3D FFT for wavefunctions:
    minimum data exchange during FFTs selected (reduces bandwidth)
 parallel 3D FFT for charge:
    minimum data exchange during FFTs selected (reduces bandwidth)


 total amount of memory used by VASP MPI-rank0   111254. kBytes
=======================================================================

   base      :      30000. kBytes
   nonl-proj :      25575. kBytes
   fftplans  :       7619. kBytes
   grid      :      13699. kBytes
   one-center:        155. kBytes
   wavefun   :      34206. kBytes
 
     INWAV:  cpu time    0.0000: real time    0.0002
 Broyden mixing: mesh for mixing (old mesh)
   NGX = 15   NGY = 15   NGZ =101
  (NGX  = 48   NGY  = 48   NGZ  =320)
  gives a total of  22725 points

 initial charge density was supplied:
 charge density of overlapping atoms calculated
 number of electron     128.0000000 magnetization 
 keeping initial charge density in first step


--------------------------------------------------------------------------------------------------------


 Maximum index for augmentation-charges         3565 (set IRDMAX)


--------------------------------------------------------------------------------------------------------


 First call to EWALD:  gamma=   0.234
 Maximum number of real-space cells 5x 5x 1
 Maximum number of reciprocal cells 2x 2x 9

    FEWALD:  cpu time    0.0020: real time    0.0019


--------------------------------------- Iteration      1(   1)  ---------------------------------------


    POTLOK:  cpu time    0.1240: real time    0.1422
    SETDIJ:  cpu time    0.0130: real time    0.0132
     EDDAV:  cpu time    6.3580: real time    6.3623
 BZINTS: Fermi energy: 14.448924;128.000000 electrons
         Band energy:  64.995158;  BLOECHL correction: -0.142110
       DOS:  cpu time    0.0080: real time    0.0075
    --------------------------------------------
      LOOP:  cpu time    6.5030: real time    6.5253

 eigenvalue-minimisations  :  1528
 total energy-change (2. order) : 0.1593909E+04  (-0.5543862E+04)
 number of electron     128.0000000 magnetization 
 augmentation part      128.0000000 magnetization 

 Free energy of the ion-electron system (eV)
  ---------------------------------------------------
  alpha Z        PSCENC =       407.77313441
  Ewald energy   TEWEN  =     34449.72902095
  -Hartree energ DENC   =    -42786.69698445
  -exchange      EXHF   =         0.00000000
  -V(xc)+E(xc)   XCENC  =       325.52658572
  PAW double counting   =      5334.45189010    -5139.13784255
  entropy T*S    EENTRO =         0.00000000
  eigenvalues    EBANDS =        64.99515799
  atomic energy  EATOM  =      8937.26825017
  Solvation  Ediel_sol  =         0.00000000
  ---------------------------------------------------
  free energy    TOTEN  =      1593.90921234 eV

  energy without entropy =     1593.90921234  energy(sigma->0) =     1593.90921234


--------------------------------------------------------------------------------------------------------




--------------------------------------- Iteration      1(   2)  ---------------------------------------


     EDDAV:  cpu time    7.4219: real time    7.4242
 BZINTS: Fermi energy:  4.161871;128.000000 electrons
         Band energy:***********;  BLOECHL correction: -0.098854
       DOS:  cpu time    0.0060: real time    0.0069
    --------------------------------------------
      LOOP:  cpu time    7.4279: real time    7.4312

 eigenvalue-minimisations  :  1848
 total energy-change (2. order) :-0.1410567E+04  (-0.1350008E+04)
 number of electron     128.0000000 magnetization 
 augmentation part      128.0000000 magnetization 

 Free energy of the ion-electron system (eV)
  ---------------------------------------------------
  alpha Z        PSCENC =       407.77313441
  Ewald energy   TEWEN  =     34449.72902095
  -Hartree energ DENC   =    -42786.69698445
  -exchange      EXHF   =         0.00000000
  -V(xc)+E(xc)   XCENC  =       325.52658572
  PAW double counting   =      5334.45189010    -5139.13784255
  entropy T*S    EENTRO =         0.00000000
  eigenvalues    EBANDS =     -1345.57225098
  atomic energy  EATOM  =      8937.26825017
  Solvation  Ediel_sol  =         0.00000000
  ---------------------------------------------------
  free energy    TOTEN  =       183.34180337 eV

  energy without entropy =      183.34180337  energy(sigma->0) =      183.34180337


--------------------------------------------------------------------------------------------------------




--------------------------------------- Iteration      1(   3)  ---------------------------------------


     EDDAV:  cpu time    8.0558: real time    8.0578
 BZINTS: Fermi energy: -3.224308;128.000000 electrons
         Band energy:***********;  BLOECHL correction:  0.000000
       DOS:  cpu time    0.0010: real time    0.0014
    --------------------------------------------
      LOOP:  cpu time    8.0568: real time    8.0592

 eigenvalue-minimisations  :  2056
 total energy-change (2. order) :-0.3591107E+03  (-0.3499469E+03)
 number of electron     128.0000000 magnetization 
 augmentation part      128.0000000 magnetization 

 Free energy of the ion-electron system (eV)
  ---------------------------------------------------
  alpha Z        PSCENC =       407.77313441
  Ewald energy   TEWEN  =     34449.72902095
  -Hartree energ DENC   =    -42786.69698445
  -exchange      EXHF   =         0.00000000
  -V(xc)+E(xc)   XCENC  =       325.52658572
  PAW double counting   =      5334.45189010    -5139.13784255
  entropy T*S    EENTRO =         0.00000000
  eigenvalues    EBANDS =     -1704.68290768
  atomic energy  EATOM  =      8937.26825017
  Solvation  Ediel_sol  =         0.00000000
  ---------------------------------------------------
  free energy    TOTEN  =      -175.76885333 eV

  energy without entropy =     -175.76885333  energy(sigma->0) =     -175.76885333


--------------------------------------------------------------------------------------------------------




--------------------------------------- Iteration      1(   4)  ---------------------------------------


     EDDAV:  cpu time    7.7848: real time    7.7842
 BZINTS: Fermi energy: -4.813657;128.000000 electrons
         Band energy:***********;  BLOECHL correction:  0.000000
       DOS:  cpu time    0.0010: real time    0.0012
    --------------------------------------------
      LOOP:  cpu time    7.7858: real time    7.7854

 eigenvalue-minimisations  :  1960
 total energy-change (2. order) :-0.2507159E+02  (-0.2498333E+02)
 number of electron     128.0000000 magnetization 
 augmentation part      128.0000000 magnetization 

 Free energy of the ion-electron system (eV)
  ---------------------------------------------------
  alpha Z        PSCENC =       407.77313441
  Ewald energy   TEWEN  =     34449.72902095
  -Hartree energ DENC   =    -42786.69698445
  -exchange      EXHF   =         0.00000000
  -V(xc)+E(xc)   XCENC  =       325.52658572
  PAW double counting   =      5334.45189010    -5139.13784255
  entropy T*S    EENTRO =         0.00000000
  eigenvalues    EBANDS =     -1729.75449832
  atomic energy  EATOM  =      8937.26825017
  Solvation  Ediel_sol  =         0.00000000
  ---------------------------------------------------
  free energy    TOTEN  =      -200.84044397 eV

  energy without entropy =     -200.84044397  energy(sigma->0) =     -200.84044397


--------------------------------------------------------------------------------------------------------




--------------------------------------- Iteration      1(   5)  ---------------------------------------


     EDDAV:  cpu time   10.0065: real time   10.0080
 BZINTS: Fermi energy: -4.829494;128.000000 electrons
         Band energy:***********;  BLOECHL correction:  0.000000
       DOS:  cpu time    0.0010: real time    0.0014
    CHARGE:  cpu time    0.2500: real time    0.2493
    MIXING:  cpu time    0.0030: real time    0.0039
    --------------------------------------------
      LOOP:  cpu time   10.2604: real time   10.2626

 eigenvalue-minimisations  :  2672
 total energy-change (2. order) :-0.1464943E+01  (-0.1464163E+01)
 number of electron     127.9999674 magnetization 
 augmentation part       13.5975771 magnetization 

 Broyden mixing:
  rms(total) = 0.37081E+01    rms(broyden)= 0.37075E+01
  rms(prec ) = 0.39257E+01
  weight for this iteration     100.00

 Free energy of the ion-electron system (eV)
  ---------------------------------------------------
  alpha Z        PSCENC =       407.77313441
  Ewald energy   TEWEN  =     34449.72902095
  -Hartree energ DENC   =    -42786.69698445
  -exchange      EXHF   =         0.00000000
  -V(xc)+E(xc)   XCENC  =       325.52658572
  PAW double counting   =      5334.45189010    -5139.13784255
  entropy T*S    EENTRO =         0.00000000
  eigenvalues    EBANDS =     -1731.21944150
  atomic energy  EATOM  =      8937.26825017
  Solvation  Ediel_sol  =         0.00000000
  ---------------------------------------------------
  free energy    TOTEN  =      -202.30538715 eV

  energy without entropy =     -202.30538715  energy(sigma->0) =     -202.30538715


--------------------------------------------------------------------------------------------------------




--------------------------------------- Iteration      1(   6)  ---------------------------------------


    POTLOK:  cpu time    0.1300: real time    0.1330
    SETDIJ:  cpu time    0.0130: real time    0.0125
    EDDIAG:  cpu time    0.7519: real time    0.7519
  RMM-DIIS:  cpu time    5.0682: real time    5.0667
    ORTHCH:  cpu time    0.1330: real time    0.1329
 BZINTS: Fermi energy: -0.669012;128.000000 electrons
         Band energy:***********;  BLOECHL correction: -0.054974
       DOS:  cpu time    0.0060: real time    0.0069
    CHARGE:  cpu time    0.2590: real time    0.2588
    MIXING:  cpu time    0.0040: real time    0.0041
    --------------------------------------------
      LOOP:  cpu time    6.3650: real time    6.3668

 eigenvalue-minimisations  :  1678
 total energy-change (2. order) : 0.4054495E+02  (-0.2945363E+02)
 number of electron     127.9999786 magnetization 
 augmentation part       14.2850611 magnetization 

 Broyden mixing:
  rms(total) = 0.14608E+01    rms(broyden)= 0.14597E+01
  rms(prec ) = 0.15277E+01
  weight for this iteration     100.00

 eigenvalues of (default mixing * dielectric matrix)
  average eigenvalue GAMMA=   0.7519
  0.7519

 Free energy of the ion-electron system (eV)
  ---------------------------------------------------
  alpha Z        PSCENC =       407.77313441
  Ewald energy   TEWEN  =     34449.72902095
  -Hartree energ DENC   =    -43075.52523772
  -exchange      EXHF   =         0.00000000
  -V(xc)+E(xc)   XCENC  =       345.42146826
  PAW double counting   =      5936.80894270    -5754.35782713
  entropy T*S    EENTRO =         0.00000000
  eigenvalues    EBANDS =     -1408.87818476
  atomic energy  EATOM  =      8937.26825017
  Solvation  Ediel_sol  =         0.00000000
  ---------------------------------------------------
  free energy    TOTEN  =      -161.76043312 eV

  energy without entropy =     -161.76043312  energy(sigma->0) =     -161.76043312


--------------------------------------------------------------------------------------------------------




--------------------------------------- Iteration      1(   7)  ---------------------------------------


    POTLOK:  cpu time    0.1290: real time    0.1315
    SETDIJ:  cpu time    0.0130: real time    0.0128
    EDDIAG:  cpu time    0.7639: real time    0.7645
  RMM-DIIS:  cpu time    5.3062: real time    5.3047
    ORTHCH:  cpu time    0.1320: real time    0.1327
 BZINTS: Fermi energy: -1.470759;128.000000 electrons
         Band energy:***********;  BLOECHL correction:  0.000000
       DOS:  cpu time    0.0020: real time    0.0013
    CHARGE:  cpu time    0.2510: real time    0.2513
    MIXING:  cpu time    0.0040: real time    0.0039
    --------------------------------------------
      LOOP:  cpu time    6.6010: real time    6.6026

 eigenvalue-minimisations  :  1763
 total energy-change (2. order) : 0.4019999E+01  (-0.1464409E+01)
 number of electron     127.9999764 magnetization 
 augmentation part       13.4659092 magnetization 

 Broyden mixing:
  rms(total) = 0.72672E+00    rms(broyden)= 0.72664E+00
  rms(prec ) = 0.75385E+00
  weight for this iteration     100.00

 eigenvalues of (default mixing * dielectric matrix)
  average eigenvalue GAMMA=   0.9461
  0.9461  0.9461

 Free energy of the ion-electron system (eV)
  ---------------------------------------------------
  alpha Z        PSCENC =       407.77313441
  Ewald energy   TEWEN  =     34449.72902095
  -Hartree energ DENC   =    -43087.14968888
  -exchange      EXHF   =         0.00000000
  -V(xc)+E(xc)   XCENC  =       341.33896887
  PAW double counting   =      5940.39271905    -5762.67116695
  entropy T*S    EENTRO =         0.00000000
  eigenvalues    EBANDS =     -1384.42167136
  atomic energy  EATOM  =      8937.26825017
  Solvation  Ediel_sol  =         0.00000000
  ---------------------------------------------------
  free energy    TOTEN  =      -157.74043374 eV

  energy without entropy =     -157.74043374  energy(sigma->0) =     -157.74043374


--------------------------------------------------------------------------------------------------------




--------------------------------------- Iteration      1(   8)  ---------------------------------------


    POTLOK:  cpu time    0.1290: real time    0.1317
    SETDIJ:  cpu time    0.0130: real time    0.0130
    EDDIAG:  cpu time    0.7699: real time    0.7698
  RMM-DIIS:  cpu time    6.2331: real time    6.2342
    ORTHCH:  cpu time    0.1320: real time    0.1322
 BZINTS: Fermi energy: -1.234734;128.000000 electrons
         Band energy:***********;  BLOECHL correction:  0.000000
       DOS:  cpu time    0.0010: real time    0.0013
    CHARGE:  cpu time    0.2520: real time    0.2517
    MIXING:  cpu time    0.0040: real time    0.0040
    --------------------------------------------
      LOOP:  cpu time    7.5339: real time    7.5377

 eigenvalue-minimisations  :  2064
 total energy-change (2. order) : 0.7506843E+00  (-0.3083058E+00)
 number of electron     127.9999767 magnetization 
 augmentation part       13.6919847 magnetization 

 Broyden mixing:
  rms(total) = 0.36752E+00    rms(broyden)= 0.36750E+00
  rms(prec ) = 0.38474E+00
  weight for this iteration     100.00

 eigenvalues of (default mixing * dielectric matrix)
  average eigenvalue GAMMA=   1.2549
  2.1524  0.9305  0.6818

 Free energy of the ion-electron system (eV)
  ---------------------------------------------------
  alpha Z        PSCENC =       407.77313441
  Ewald energy   TEWEN  =     34449.72902095
  -Hartree energ DENC   =    -43104.46243478
  -exchange      EXHF   =         0.00000000
  -V(xc)+E(xc)   XCENC  =       341.20602609
  PAW double counting   =      6015.13343282    -5840.98442605
  entropy T*S    EENTRO =         0.00000000
  eigenvalues    EBANDS =     -1362.65275308
  atomic energy  EATOM  =      8937.26825017
  Solvation  Ediel_sol  =         0.00000000
  ---------------------------------------------------
  free energy    TOTEN  =      -156.98974947 eV

  energy without entropy =     -156.98974947  energy(sigma->0) =     -156.98974947


--------------------------------------------------------------------------------------------------------




--------------------------------------- Iteration      1(   9)  ---------------------------------------


    POTLOK:  cpu time    0.1310: real time    0.1333
    SETDIJ:  cpu time    0.0130: real time    0.0129
    EDDIAG:  cpu time    0.7649: real time    0.7652
  RMM-DIIS:  cpu time    5.9151: real time    5.9139
    ORTHCH:  cpu time    0.1320: real time    0.1320
 BZINTS: Fermi energy: -0.582932;128.000000 electrons
         Band energy:***********;  BLOECHL correction:  0.000000
       DOS:  cpu time    0.0010: real time    0.0014
    CHARGE:  cpu time    0.2520: real time    0.2513
    MIXING:  cpu time    0.0040: real time    0.0048
    --------------------------------------------
      LOOP:  cpu time    7.2129: real time    7.2149

 eigenvalue-minimisations  :  1990
 total energy-change (2. order) : 0.2518895E+00  (-0.1554682E+00)
 number of electron     127.9999764 magnetization 
 augmentation part       13.7505978 magnetization 

 Broyden mixing:
  rms(total) = 0.10213E+00    rms(broyden)= 0.10204E+00
  rms(prec ) = 0.11975E+00
  weight for this iteration     100.00

 eigenvalues of (default mixing * dielectric matrix)
  average eigenvalue GAMMA=   1.1780
  2.2584  0.8671  0.8671  0.7193

 Free energy of the ion-electron system (eV)
  ---------------------------------------------------
  alpha Z        PSCENC =       407.77313441
  Ewald energy   TEWEN  =     34449.72902095
  -Hartree energ DENC   =    -43131.67663195
  -exchange      EXHF   =         0.00000000
  -V(xc)+E(xc)   XCENC  =       340.77781595
  PAW double counting   =      6109.60634269    -5939.53153065
  entropy T*S    EENTRO =         0.00000000
  eigenvalues    EBANDS =     -1330.68426157
  atomic energy  EATOM  =      8937.26825017
  Solvation  Ediel_sol  =         0.00000000
  ---------------------------------------------------
  free energy    TOTEN  =      -156.73786001 eV

  energy without entropy =     -156.73786001  energy(sigma->0) =     -156.73786001


--------------------------------------------------------------------------------------------------------




--------------------------------------- Iteration      1(  10)  ---------------------------------------


    POTLOK:  cpu time    0.1300: real time    0.1328
    SETDIJ:  cpu time    0.0130: real time    0.0127
    EDDIAG:  cpu time    0.7609: real time    0.7605
  RMM-DIIS:  cpu time    7.0079: real time    7.0063
    ORTHCH:  cpu time    0.1320: real time    0.1327
 BZINTS: Fermi energy: -0.486068;128.000000 electrons
         Band energy:***********;  BLOECHL correction:  0.000000
       DOS:  cpu time    0.0020: real time    0.0013
    CHARGE:  cpu time    0.2510: real time    0.2510
    MIXING:  cpu time    0.0040: real time    0.0043
    --------------------------------------------
      LOOP:  cpu time    8.3007: real time    8.3015

 eigenvalue-minimisations  :  2336
 total energy-change (2. order) : 0.4664316E-01  (-0.2601489E-01)
 number of electron     127.9999764 magnetization 
 augmentation part       13.7084148 magnetization 

 Broyden mixing:
  rms(total) = 0.71058E-01    rms(broyden)= 0.71048E-01
  rms(prec ) = 0.83254E-01
  weight for this iteration     100.00

 eigenvalues of (default mixing * dielectric matrix)
  average eigenvalue GAMMA=   1.1832
  2.2514  1.1582  1.1582  0.7203  0.6280

 Free energy of the ion-electron system (eV)
  ---------------------------------------------------
  alpha Z        PSCENC =       407.77313441
  Ewald energy   TEWEN  =     34449.72902095
  -Hartree energ DENC   =    -43153.30537470
  -exchange      EXHF   =         0.00000000
  -V(xc)+E(xc)   XCENC  =       341.09215118
  PAW double counting   =      6133.27446867    -5963.82859170
  entropy T*S    EENTRO =         0.00000000
  eigenvalues    EBANDS =     -1308.69427582
  atomic energy  EATOM  =      8937.26825017
  Solvation  Ediel_sol  =         0.00000000
  ---------------------------------------------------
  free energy    TOTEN  =      -156.69121684 eV

  energy without entropy =     -156.69121684  energy(sigma->0) =     -156.69121684


--------------------------------------------------------------------------------------------------------




--------------------------------------- Iteration      1(  11)  ---------------------------------------


    POTLOK:  cpu time    0.1320: real time    0.1357
    SETDIJ:  cpu time    0.0130: real time    0.0129
    EDDIAG:  cpu time    0.7619: real time    0.7628
  RMM-DIIS:  cpu time    6.8170: real time    6.8154
    ORTHCH:  cpu time    0.1340: real time    0.1330
 BZINTS: Fermi energy: -0.351995;128.000000 electrons
         Band energy:***********;  BLOECHL correction:  0.000000
       DOS:  cpu time    0.0000: real time    0.0013
    CHARGE:  cpu time    0.2490: real time    0.2484
    MIXING:  cpu time    0.0040: real time    0.0046
    --------------------------------------------
      LOOP:  cpu time    8.1108: real time    8.1142

 eigenvalue-minimisations  :  2270
 total energy-change (2. order) : 0.2219661E-01  (-0.1562156E-01)
 number of electron     127.9999764 magnetization 
 augmentation part       13.6373189 magnetization 

 Broyden mixing:
  rms(total) = 0.37685E-01    rms(broyden)= 0.37668E-01
  rms(prec ) = 0.48340E-01
  weight for this iteration     100.00

 eigenvalues of (default mixing * dielectric matrix)
  average eigenvalue GAMMA=   1.2530
  2.2038  2.2038  0.8732  0.8732  0.7560  0.6078

 Free energy of the ion-electron system (eV)
  ---------------------------------------------------
  alpha Z        PSCENC =       407.77313441
  Ewald energy   TEWEN  =     34449.72902095
  -Hartree energ DENC   =    -43173.42169748
  -exchange      EXHF   =         0.00000000
  -V(xc)+E(xc)   XCENC  =       341.41855024
  PAW double counting   =      6146.97874312    -5977.63582974
  entropy T*S    EENTRO =         0.00000000
  eigenvalues    EBANDS =     -1288.77919190
  atomic energy  EATOM  =      8937.26825017
  Solvation  Ediel_sol  =         0.00000000
  ---------------------------------------------------
  free energy    TOTEN  =      -156.66902023 eV

  energy without entropy =     -156.66902023  energy(sigma->0) =     -156.66902023


--------------------------------------------------------------------------------------------------------




--------------------------------------- Iteration      1(  12)  ---------------------------------------


    POTLOK:  cpu time    0.1330: real time    0.1341
    SETDIJ:  cpu time    0.0130: real time    0.0130
    EDDIAG:  cpu time    0.7689: real time    0.7684
  RMM-DIIS:  cpu time    7.0219: real time    7.0221
    ORTHCH:  cpu time    0.1330: real time    0.1328
 BZINTS: Fermi energy: -0.135054;128.000000 electrons
         Band energy:***********;  BLOECHL correction:  0.000000
       DOS:  cpu time    0.0010: real time    0.0015
    CHARGE:  cpu time    0.2490: real time    0.2491
    MIXING:  cpu time    0.0060: real time    0.0052
    --------------------------------------------
      LOOP:  cpu time    8.3257: real time    8.3262

 eigenvalue-minimisations  :  2344
 total energy-change (2. order) : 0.6460557E-02  (-0.5496129E-02)
 number of electron     127.9999764 magnetization 
 augmentation part       13.5899540 magnetization 

 Broyden mixing:
  rms(total) = 0.34921E-01    rms(broyden)= 0.34916E-01
  rms(prec ) = 0.42034E-01
  weight for this iteration     100.00

 eigenvalues of (default mixing * dielectric matrix)
  average eigenvalue GAMMA=   1.2169
  2.3077  2.3077  0.9442  0.9442  0.7848  0.6335  0.5960

 Free energy of the ion-electron system (eV)
  ---------------------------------------------------
  alpha Z        PSCENC =       407.77313441
  Ewald energy   TEWEN  =     34449.72902095
  -Hartree energ DENC   =    -43187.60084857
  -exchange      EXHF   =         0.00000000
  -V(xc)+E(xc)   XCENC  =       341.53973775
  PAW double counting   =      6149.06923683    -5979.45670173
  entropy T*S    EENTRO =         0.00000000
  eigenvalues    EBANDS =     -1274.98438949
  atomic energy  EATOM  =      8937.26825017
  Solvation  Ediel_sol  =         0.00000000
  ---------------------------------------------------
  free energy    TOTEN  =      -156.66255967 eV

  energy without entropy =     -156.66255967  energy(sigma->0) =     -156.66255967


--------------------------------------------------------------------------------------------------------




--------------------------------------- Iteration      1(  13)  ---------------------------------------


    POTLOK:  cpu time    0.1340: real time    0.1379
    SETDIJ:  cpu time    0.0130: real time    0.0129
    EDDIAG:  cpu time    0.7649: real time    0.7637
  RMM-DIIS:  cpu time    7.6678: real time    7.6665
    ORTHCH:  cpu time    0.1330: real time    0.1334
 BZINTS: Fermi energy: -0.033380;128.000000 electrons
         Band energy:***********;  BLOECHL correction:  0.000000
       DOS:  cpu time    0.0010: real time    0.0013
    CHARGE:  cpu time    0.2490: real time    0.2487
    MIXING:  cpu time    0.0050: real time    0.0049
    --------------------------------------------
      LOOP:  cpu time    8.9676: real time    8.9693

 eigenvalue-minimisations  :  2571
 total energy-change (2. order) : 0.6135827E-02  (-0.1924487E-02)
 number of electron     127.9999765 magnetization 
 augmentation part       13.5993713 magnetization 

 Broyden mixing:
  rms(total) = 0.21379E-01    rms(broyden)= 0.21377E-01
  rms(prec ) = 0.27571E-01
  weight for this iteration     100.00

 eigenvalues of (default mixing * dielectric matrix)
  average eigenvalue GAMMA=   1.3428
  2.6348  2.6348  1.1901  1.1901  0.9087  0.9087  0.6692  0.6057

 Free energy of the ion-electron system (eV)
  ---------------------------------------------------
  alpha Z        PSCENC =       407.77313441
  Ewald energy   TEWEN  =     34449.72902095
  -Hartree energ DENC   =    -43194.55388258
  -exchange      EXHF   =         0.00000000
  -V(xc)+E(xc)   XCENC  =       341.56216609
  PAW double counting   =      6150.63348769    -5980.94418295
  entropy T*S    EENTRO =         0.00000000
  eigenvalues    EBANDS =     -1268.12441762
  atomic energy  EATOM  =      8937.26825017
  Solvation  Ediel_sol  =         0.00000000
  ---------------------------------------------------
  free energy    TOTEN  =      -156.65642385 eV

  energy without entropy =     -156.65642385  energy(sigma->0) =     -156.65642385


--------------------------------------------------------------------------------------------------------




--------------------------------------- Iteration      1(  14)  ---------------------------------------


    POTLOK:  cpu time    0.1350: real time    0.1383
    SETDIJ:  cpu time    0.0130: real time    0.0128
    EDDIAG:  cpu time    0.7629: real time    0.7633
  RMM-DIIS:  cpu time    6.5750: real time    6.5737
    ORTHCH:  cpu time    0.1320: real time    0.1327
 BZINTS: Fermi energy:  0.074333;128.000000 electrons
         Band energy:***********;  BLOECHL correction:  0.000000
       DOS:  cpu time    0.0020: real time    0.0012
    CHARGE:  cpu time    0.2480: real time    0.2485
    MIXING:  cpu time    0.0060: real time    0.0051
    --------------------------------------------
      LOOP:  cpu time    7.8738: real time    7.8756

 eigenvalue-minimisations  :  2202
 total energy-change (2. order) : 0.3336345E-02  (-0.2140556E-02)
 number of electron     127.9999764 magnetization 
 augmentation part       13.6100184 magnetization 

 Broyden mixing:
  rms(total) = 0.12246E-01    rms(broyden)= 0.12238E-01
  rms(prec ) = 0.16229E-01
  weight for this iteration     100.00

 eigenvalues of (default mixing * dielectric matrix)
  average eigenvalue GAMMA=   1.3910
  3.3195  2.6565  1.4730  1.0206  1.0206  0.8961  0.8961  0.6474  0.5892

 Free energy of the ion-electron system (eV)
  ---------------------------------------------------
  alpha Z        PSCENC =       407.77313441
  Ewald energy   TEWEN  =     34449.72902095
  -Hartree energ DENC   =    -43205.52056741
  -exchange      EXHF   =         0.00000000
  -V(xc)+E(xc)   XCENC  =       341.49297548
  PAW double counting   =      6145.81800196    -5975.81008276
  entropy T*S    EENTRO =         0.00000000
  eigenvalues    EBANDS =     -1257.40382030
  atomic energy  EATOM  =      8937.26825017
  Solvation  Ediel_sol  =         0.00000000
  ---------------------------------------------------
  free energy    TOTEN  =      -156.65308750 eV

  energy without entropy =     -156.65308750  energy(sigma->0) =     -156.65308750


--------------------------------------------------------------------------------------------------------




--------------------------------------- Iteration      1(  15)  ---------------------------------------


    POTLOK:  cpu time    0.1330: real time    0.1380
    SETDIJ:  cpu time    0.0130: real time    0.0128
    EDDIAG:  cpu time    0.7689: real time    0.7680
  RMM-DIIS:  cpu time    7.3139: real time    7.3153
    ORTHCH:  cpu time    0.1330: real time    0.1328
 BZINTS: Fermi energy:  0.132375;128.000000 electrons
         Band energy:***********;  BLOECHL correction:  0.000000
       DOS:  cpu time    0.0010: real time    0.0013
    CHARGE:  cpu time    0.2480: real time    0.2481
    MIXING:  cpu time    0.0060: real time    0.0054
    --------------------------------------------
      LOOP:  cpu time    8.6167: real time    8.6217

 eigenvalue-minimisations  :  2450
 total energy-change (2. order) : 0.5576933E-03  (-0.5871562E-03)
 number of electron     127.9999765 magnetization 
 augmentation part       13.6122868 magnetization 

 Broyden mixing:
  rms(total) = 0.77281E-02    rms(broyden)= 0.77247E-02
  rms(prec ) = 0.10680E-01
  weight for this iteration     100.00

 eigenvalues of (default mixing * dielectric matrix)
  average eigenvalue GAMMA=   1.4055
  3.8012  2.3876  1.4065  1.4065  1.2186  0.9203  0.9203  0.7728  0.6243  0.5971

 Free energy of the ion-electron system (eV)
  ---------------------------------------------------
  alpha Z        PSCENC =       407.77313441
  Ewald energy   TEWEN  =     34449.72902095
  -Hartree energ DENC   =    -43212.93763439
  -exchange      EXHF   =         0.00000000
  -V(xc)+E(xc)   XCENC  =       341.53555822
  PAW double counting   =      6145.38226557    -5975.29935733
  entropy T*S    EENTRO =         0.00000000
  eigenvalues    EBANDS =     -1250.10376740
  atomic energy  EATOM  =      8937.26825017
  Solvation  Ediel_sol  =         0.00000000
  ---------------------------------------------------
  free energy    TOTEN  =      -156.65252981 eV

  energy without entropy =     -156.65252981  energy(sigma->0) =     -156.65252981


--------------------------------------------------------------------------------------------------------




--------------------------------------- Iteration      1(  16)  ---------------------------------------


    POTLOK:  cpu time    0.1340: real time    0.1376
    SETDIJ:  cpu time    0.0120: real time    0.0129
    EDDIAG:  cpu time    0.7649: real time    0.7639
  RMM-DIIS:  cpu time    6.7800: real time    6.7790
    ORTHCH:  cpu time    0.1380: real time    0.1380
 BZINTS: Fermi energy:  0.144172;128.000000 electrons
         Band energy:***********;  BLOECHL correction:  0.000000
       DOS:  cpu time    0.0020: real time    0.0014
    CHARGE:  cpu time    0.2500: real time    0.2503
    MIXING:  cpu time    0.0060: real time    0.0055
    --------------------------------------------
      LOOP:  cpu time    8.0868: real time    8.0887

 eigenvalue-minimisations  :  2280
 total energy-change (2. order) :-0.5352752E-03  (-0.5446959E-03)
 number of electron     127.9999765 magnetization 
 augmentation part       13.6039163 magnetization 

 Broyden mixing:
  rms(total) = 0.86394E-02    rms(broyden)= 0.86367E-02
  rms(prec ) = 0.10156E-01
  weight for this iteration     100.00

 eigenvalues of (default mixing * dielectric matrix)
  average eigenvalue GAMMA=   1.5644
  4.7626  2.8829  2.1684  1.3803  1.1562  1.1562  0.8788  0.8788  0.7248  0.6096
  0.6096

 Free energy of the ion-electron system (eV)
  ---------------------------------------------------
  alpha Z        PSCENC =       407.77313441
  Ewald energy   TEWEN  =     34449.72902095
  -Hartree energ DENC   =    -43219.79829591
  -exchange      EXHF   =         0.00000000
  -V(xc)+E(xc)   XCENC  =       341.57950693
  PAW double counting   =      6146.88807000    -5976.89787406
  entropy T*S    EENTRO =         0.00000000
  eigenvalues    EBANDS =     -1243.19487757
  atomic energy  EATOM  =      8937.26825017
  Solvation  Ediel_sol  =         0.00000000
  ---------------------------------------------------
  free energy    TOTEN  =      -156.65306508 eV

  energy without entropy =     -156.65306508  energy(sigma->0) =     -156.65306508


--------------------------------------------------------------------------------------------------------




--------------------------------------- Iteration      1(  17)  ---------------------------------------


    POTLOK:  cpu time    0.1300: real time    0.1338
    SETDIJ:  cpu time    0.0140: real time    0.0126
    EDDIAG:  cpu time    0.7659: real time    0.7660
  RMM-DIIS:  cpu time    6.6050: real time    6.6043
    ORTHCH:  cpu time    0.1330: real time    0.1333
 BZINTS: Fermi energy:  0.180341;128.000000 electrons
         Band energy:***********;  BLOECHL correction:  0.000000
       DOS:  cpu time    0.0010: real time    0.0014
    CHARGE:  cpu time    0.2510: real time    0.2502
    MIXING:  cpu time    0.0060: real time    0.0058
    --------------------------------------------
      LOOP:  cpu time    7.9058: real time    7.9074

 eigenvalue-minimisations  :  2207
 total energy-change (2. order) : 0.1348505E-03  (-0.2369200E-03)
 number of electron     127.9999764 magnetization 
 augmentation part       13.5990976 magnetization 

 Broyden mixing:
  rms(total) = 0.45565E-02    rms(broyden)= 0.45548E-02
  rms(prec ) = 0.55532E-02
  weight for this iteration     100.00

 eigenvalues of (default mixing * dielectric matrix)
  average eigenvalue GAMMA=   1.5412
  5.4191  2.7513  2.3955  1.1334  1.1334  1.1964  0.9874  0.8162  0.8162  0.5924
  0.6264  0.6264

 Free energy of the ion-electron system (eV)
  ---------------------------------------------------
  alpha Z        PSCENC =       407.77313441
  Ewald energy   TEWEN  =     34449.72902095
  -Hartree energ DENC   =    -43223.45206690
  -exchange      EXHF   =         0.00000000
  -V(xc)+E(xc)   XCENC  =       341.53648342
  PAW double counting   =      6144.60177118    -5974.58242491
  entropy T*S    EENTRO =         0.00000000
  eigenvalues    EBANDS =     -1239.52709855
  atomic energy  EATOM  =      8937.26825017
  Solvation  Ediel_sol  =         0.00000000
  ---------------------------------------------------
  free energy    TOTEN  =      -156.65293023 eV

  energy without entropy =     -156.65293023  energy(sigma->0) =     -156.65293023


--------------------------------------------------------------------------------------------------------




--------------------------------------- Iteration      1(  18)  ---------------------------------------


    POTLOK:  cpu time    0.1310: real time    0.1332
    SETDIJ:  cpu time    0.0130: real time    0.0129
    EDDIAG:  cpu time    0.7649: real time    0.7646
  RMM-DIIS:  cpu time    6.3970: real time    6.3962
    ORTHCH:  cpu time    0.1290: real time    0.1294
 BZINTS: Fermi energy:  0.194388;128.000000 electrons
         Band energy:***********;  BLOECHL correction:  0.000000
       DOS:  cpu time    0.0020: real time    0.0015
    CHARGE:  cpu time    0.2470: real time    0.2475
    MIXING:  cpu time    0.0060: real time    0.0062
    --------------------------------------------
      LOOP:  cpu time    7.6898: real time    7.6914

 eigenvalue-minimisations  :  2139
 total energy-change (2. order) : 0.4352401E-04  (-0.7175064E-04)
 number of electron     127.9999765 magnetization 
 augmentation part       13.6023115 magnetization 

 Broyden mixing:
  rms(total) = 0.18607E-02    rms(broyden)= 0.18594E-02
  rms(prec ) = 0.29545E-02
  weight for this iteration     100.00

 eigenvalues of (default mixing * dielectric matrix)
  average eigenvalue GAMMA=   1.6014
  5.9517  2.9355  1.9971  1.9971  1.2132  1.2132  0.9800  0.9800  0.8545  0.8545
  0.6282  0.6282  0.5858

 Free energy of the ion-electron system (eV)
  ---------------------------------------------------
  alpha Z        PSCENC =       407.77313441
  Ewald energy   TEWEN  =     34449.72902095
  -Hartree energ DENC   =    -43224.79581759
  -exchange      EXHF   =         0.00000000
  -V(xc)+E(xc)   XCENC  =       341.54863379
  PAW double counting   =      6144.86875070    -5974.84286063
  entropy T*S    EENTRO =         0.00000000
  eigenvalues    EBANDS =     -1238.20199850
  atomic energy  EATOM  =      8937.26825017
  Solvation  Ediel_sol  =         0.00000000
  ---------------------------------------------------
  free energy    TOTEN  =      -156.65288671 eV

  energy without entropy =     -156.65288671  energy(sigma->0) =     -156.65288671


--------------------------------------------------------------------------------------------------------




--------------------------------------- Iteration      1(  19)  ---------------------------------------


    POTLOK:  cpu time    0.1320: real time    0.1352
    SETDIJ:  cpu time    0.0120: real time    0.0128
    EDDIAG:  cpu time    0.7659: real time    0.7648
  RMM-DIIS:  cpu time    6.2261: real time    6.2272
    ORTHCH:  cpu time    0.1270: real time    0.1272
 BZINTS: Fermi energy:  0.217412;128.000000 electrons
         Band energy:***********;  BLOECHL correction:  0.000000
       DOS:  cpu time    0.0010: real time    0.0014
    CHARGE:  cpu time    0.2450: real time    0.2441
    MIXING:  cpu time    0.0060: real time    0.0059
    --------------------------------------------
      LOOP:  cpu time    7.5149: real time    7.5186

 eigenvalue-minimisations  :  2054
 total energy-change (2. order) :-0.8808280E-03  (-0.3964404E-04)
 number of electron     127.9999765 magnetization 
 augmentation part       13.6022555 magnetization 

 Broyden mixing:
  rms(total) = 0.13197E-02    rms(broyden)= 0.13193E-02
  rms(prec ) = 0.18072E-02
  weight for this iteration     100.00

 eigenvalues of (default mixing * dielectric matrix)
  average eigenvalue GAMMA=   1.6721
  6.2188  3.5142  2.3027  2.3027  1.3733  1.1637  1.1637  0.9322  0.9322  0.8243
  0.8243  0.5894  0.6341  0.6341

 Free energy of the ion-electron system (eV)
  ---------------------------------------------------
  alpha Z        PSCENC =       407.77313441
  Ewald energy   TEWEN  =     34449.72902095
  -Hartree energ DENC   =    -43226.08529451
  -exchange      EXHF   =         0.00000000
  -V(xc)+E(xc)   XCENC  =       341.54882755
  PAW double counting   =      6144.75506431    -5974.68917098
  entropy T*S    EENTRO =         0.00000000
  eigenvalues    EBANDS =     -1236.95359945
  atomic energy  EATOM  =      8937.26825017
  Solvation  Ediel_sol  =         0.00000000
  ---------------------------------------------------
  free energy    TOTEN  =      -156.65376754 eV

  energy without entropy =     -156.65376754  energy(sigma->0) =     -156.65376754


--------------------------------------------------------------------------------------------------------




--------------------------------------- Iteration      1(  20)  ---------------------------------------


    POTLOK:  cpu time    0.1260: real time    0.1269
    SETDIJ:  cpu time    0.0130: real time    0.0126
    EDDIAG:  cpu time    0.7439: real time    0.7441
  RMM-DIIS:  cpu time    5.4632: real time    5.4628
    ORTHCH:  cpu time    0.1330: real time    0.1326
 BZINTS: Fermi energy:  0.245890;128.000000 electrons
         Band energy:***********;  BLOECHL correction:  0.000000
       DOS:  cpu time    0.0010: real time    0.0015
    CHARGE:  cpu time    0.2490: real time    0.2483
    MIXING:  cpu time    0.0060: real time    0.0062
    --------------------------------------------
      LOOP:  cpu time    6.7350: real time    6.7350

 eigenvalue-minimisations  :  1784
 total energy-change (2. order) :-0.7879241E-03  (-0.2197125E-04)
 number of electron     127.9999765 magnetization 
 augmentation part       13.6024169 magnetization 

 Broyden mixing:
  rms(total) = 0.10312E-02    rms(broyden)= 0.10309E-02
  rms(prec ) = 0.12503E-02
  weight for this iteration     100.00

 eigenvalues of (default mixing * dielectric matrix)
  average eigenvalue GAMMA=   1.7453
  6.9188  4.1015  2.3713  2.3713  1.4034  1.4034  1.1874  1.1874  0.9076  0.9076
  0.7783  0.7783  0.5884  0.6371  0.6371

 Free energy of the ion-electron system (eV)
  ---------------------------------------------------
  alpha Z        PSCENC =       407.77313441
  Ewald energy   TEWEN  =     34449.72902095
  -Hartree energ DENC   =    -43226.59234282
  -exchange      EXHF   =         0.00000000
  -V(xc)+E(xc)   XCENC  =       341.54764268
  PAW double counting   =      6145.10448095    -5975.04708082
  entropy T*S    EENTRO =         0.00000000
  eigenvalues    EBANDS =     -1236.43766097
  atomic energy  EATOM  =      8937.26825017
  Solvation  Ediel_sol  =         0.00000000
  ---------------------------------------------------
  free energy    TOTEN  =      -156.65455546 eV

  energy without entropy =     -156.65455546  energy(sigma->0) =     -156.65455546


--------------------------------------------------------------------------------------------------------




--------------------------------------- Iteration      1(  21)  ---------------------------------------


    POTLOK:  cpu time    0.1190: real time    0.1223
    SETDIJ:  cpu time    0.0130: real time    0.0125
    EDDIAG:  cpu time    0.7139: real time    0.7140
  RMM-DIIS:  cpu time    5.4262: real time    5.4244
    ORTHCH:  cpu time    0.1320: real time    0.1330
 BZINTS: Fermi energy:  0.264993;128.000000 electrons
         Band energy:***********;  BLOECHL correction:  0.000000
       DOS:  cpu time    0.0020: real time    0.0015
    CHARGE:  cpu time    0.2510: real time    0.2513
    MIXING:  cpu time    0.0070: real time    0.0069
    --------------------------------------------
      LOOP:  cpu time    6.6640: real time    6.6658

 eigenvalue-minimisations  :  1780
 total energy-change (2. order) :-0.4504538E-03  (-0.1534601E-04)
 number of electron     127.9999765 magnetization 
 augmentation part       13.6004807 magnetization 

 Broyden mixing:
  rms(total) = 0.10139E-02    rms(broyden)= 0.10137E-02
  rms(prec ) = 0.11184E-02
  weight for this iteration     100.00

 eigenvalues of (default mixing * dielectric matrix)
  average eigenvalue GAMMA=   1.8091
  7.7216  4.5462  2.5727  2.2462  2.2462  1.1727  1.1727  1.1832  0.8970  0.8970
  0.8634  0.7946  0.7946  0.6269  0.6269  0.5843

 Free energy of the ion-electron system (eV)
  ---------------------------------------------------
  alpha Z        PSCENC =       407.77313441
  Ewald energy   TEWEN  =     34449.72902095
  -Hartree energ DENC   =    -43226.72345281
  -exchange      EXHF   =         0.00000000
  -V(xc)+E(xc)   XCENC  =       341.54398150
  PAW double counting   =      6145.08157324    -5975.02432302
  entropy T*S    EENTRO =         0.00000000
  eigenvalues    EBANDS =     -1236.30319035
  atomic energy  EATOM  =      8937.26825017
  Solvation  Ediel_sol  =         0.00000000
  ---------------------------------------------------
  free energy    TOTEN  =      -156.65500591 eV

  energy without entropy =     -156.65500591  energy(sigma->0) =     -156.65500591


--------------------------------------------------------------------------------------------------------




--------------------------------------- Iteration      1(  22)  ---------------------------------------


    POTLOK:  cpu time    0.1330: real time    0.1352
    SETDIJ:  cpu time    0.0130: real time    0.0127
    EDDIAG:  cpu time    0.7139: real time    0.7143
  RMM-DIIS:  cpu time    4.9113: real time    4.9102
    ORTHCH:  cpu time    0.1340: real time    0.1335
 BZINTS: Fermi energy:  0.280172;128.000000 electrons
         Band energy:***********;  BLOECHL correction:  0.000000
       DOS:  cpu time    0.0010: real time    0.0015
    CHARGE:  cpu time    0.2520: real time    0.2517
    MIXING:  cpu time    0.0070: real time    0.0071
    --------------------------------------------
      LOOP:  cpu time    6.1651: real time    6.1661

 eigenvalue-minimisations  :  1583
 total energy-change (2. order) :-0.2237168E-03  (-0.7520053E-05)
 number of electron     127.9999765 magnetization 
 augmentation part       13.6009357 magnetization 

 Broyden mixing:
  rms(total) = 0.34552E-03    rms(broyden)= 0.34535E-03
  rms(prec ) = 0.39593E-03
  weight for this iteration     100.00

 eigenvalues of (default mixing * dielectric matrix)
  average eigenvalue GAMMA=   1.8734
  8.2760  5.3602  2.7751  2.5842  2.0755  1.1916  1.1916  1.1857  1.1857  0.9668
  0.9668  0.8106  0.8106  0.6504  0.6180  0.6180  0.5813

 Free energy of the ion-electron system (eV)
  ---------------------------------------------------
  alpha Z        PSCENC =       407.77313441
  Ewald energy   TEWEN  =     34449.72902095
  -Hartree energ DENC   =    -43226.87391534
  -exchange      EXHF   =         0.00000000
  -V(xc)+E(xc)   XCENC  =       341.54672043
  PAW double counting   =      6145.17650667    -5975.11739101
  entropy T*S    EENTRO =         0.00000000
  eigenvalues    EBANDS =     -1236.15755591
  atomic energy  EATOM  =      8937.26825017
  Solvation  Ediel_sol  =         0.00000000
  ---------------------------------------------------
  free energy    TOTEN  =      -156.65522963 eV

  energy without entropy =     -156.65522963  energy(sigma->0) =     -156.65522963


--------------------------------------------------------------------------------------------------------




--------------------------------------- Iteration      1(  23)  ---------------------------------------


    POTLOK:  cpu time    0.1340: real time    0.1356
    SETDIJ:  cpu time    0.0120: real time    0.0125
    EDDIAG:  cpu time    0.7649: real time    0.7647
  RMM-DIIS:  cpu time    4.0834: real time    4.0826
    ORTHCH:  cpu time    0.1340: real time    0.1340
 BZINTS: Fermi energy:  0.177694;128.000000 electrons
         Band energy:***********;  BLOECHL correction:  0.000000
       DOS:  cpu time    0.0010: real time    0.0013
    CHARGE:  cpu time    0.2500: real time    0.2509
    MIXING:  cpu time    0.0080: real time    0.0072
    --------------------------------------------
      LOOP:  cpu time    5.3872: real time    5.3888

 eigenvalue-minimisations  :  1323
 total energy-change (2. order) :-0.1190841E-03  (-0.4120807E-05)
 number of electron     127.9999765 magnetization 
 augmentation part       13.6009425 magnetization 

 Broyden mixing:
  rms(total) = 0.23151E-03    rms(broyden)= 0.23136E-03
  rms(prec ) = 0.25623E-03
  weight for this iteration     100.00

 eigenvalues of (default mixing * dielectric matrix)
  average eigenvalue GAMMA=   1.8895
  8.6516  5.7421  3.0606  2.5383  2.0005  1.5388  1.3366  1.1878  1.1878  0.9604
  0.9604  0.8118  0.8118  0.7696  0.5886  0.6233  0.6202  0.6202

 Free energy of the ion-electron system (eV)
  ---------------------------------------------------
  alpha Z        PSCENC =       407.77313441
  Ewald energy   TEWEN  =     34449.72902095
  -Hartree energ DENC   =    -43226.89941321
  -exchange      EXHF   =         0.00000000
  -V(xc)+E(xc)   XCENC  =       341.54721079
  PAW double counting   =      6145.13777292    -5975.07318281
  entropy T*S    EENTRO =         0.00000000
  eigenvalues    EBANDS =     -1236.13814193
  atomic energy  EATOM  =      8937.26825017
  Solvation  Ediel_sol  =         0.00000000
  ---------------------------------------------------
  free energy    TOTEN  =      -156.65534872 eV

  energy without entropy =     -156.65534872  energy(sigma->0) =     -156.65534872


--------------------------------------------------------------------------------------------------------




--------------------------------------- Iteration      1(  24)  ---------------------------------------


    POTLOK:  cpu time    0.1330: real time    0.1365
    SETDIJ:  cpu time    0.0130: real time    0.0125
    EDDIAG:  cpu time    0.7649: real time    0.7640
  RMM-DIIS:  cpu time    3.6854: real time    3.6863
    ORTHCH:  cpu time    0.1340: real time    0.1341
 BZINTS: Fermi energy:  0.186943;128.000000 electrons
         Band energy:***********;  BLOECHL correction:  0.000000
       DOS:  cpu time    0.0010: real time    0.0013
    CHARGE:  cpu time    0.2520: real time    0.2522
    MIXING:  cpu time    0.0080: real time    0.0078
    --------------------------------------------
      LOOP:  cpu time    4.9912: real time    4.9945

 eigenvalue-minimisations  :  1171
 total energy-change (2. order) :-0.3441337E-04  (-0.1619544E-05)
 number of electron     127.9999765 magnetization 
 augmentation part       13.6009571 magnetization 

 Broyden mixing:
  rms(total) = 0.20659E-03    rms(broyden)= 0.20657E-03
  rms(prec ) = 0.22396E-03
  weight for this iteration     100.00

 eigenvalues of (default mixing * dielectric matrix)
  average eigenvalue GAMMA=   1.8802
  8.9010  5.7994  3.1925  2.4143  2.4143  1.4108  1.4108  1.1736  1.1736  1.0475
  1.0475  0.8448  0.8448  0.8248  0.8248  0.6307  0.6307  0.5871  0.5510

 Free energy of the ion-electron system (eV)
  ---------------------------------------------------
  alpha Z        PSCENC =       407.77313441
  Ewald energy   TEWEN  =     34449.72902095
  -Hartree energ DENC   =    -43226.87673463
  -exchange      EXHF   =         0.00000000
  -V(xc)+E(xc)   XCENC  =       341.54688344
  PAW double counting   =      6145.11731011    -5975.05126503
  entropy T*S    EENTRO =         0.00000000
  eigenvalues    EBANDS =     -1236.16198255
  atomic energy  EATOM  =      8937.26825017
  Solvation  Ediel_sol  =         0.00000000
  ---------------------------------------------------
  free energy    TOTEN  =      -156.65538313 eV

  energy without entropy =     -156.65538313  energy(sigma->0) =     -156.65538313


--------------------------------------------------------------------------------------------------------




[...]
     43      -3.3815      2.00000
     44      -3.3081      2.00000
     45      -3.0147      2.00000
     46      -2.8987      2.00000
     47      -2.7756      2.00000
     48      -2.7193      2.00000
     49      -2.5685      2.00000
     50      -2.2818      2.00000
     51      -2.0651      2.00000
     52      -2.0578      2.00000
     53      -1.7691      2.00000
     54      -1.6957      2.00000
     55      -1.6410      2.00000
     56      -1.6176      2.00000
     57      -1.5914      2.00000
     58      -1.4782      2.00000
     59      -1.4461      2.00000
     60      -1.3344      2.00000
     61      -1.1541      2.00000
     62      -0.9427      2.00000
     63      -0.7832      2.00000
     64      -0.6328      2.00000
     65       1.6774      0.00000
     66       2.0854      0.00000
     67       2.5333      0.00000
     68       2.8783      0.00000
     69       2.8840      0.00000
     70       2.9401      0.00000
     71       2.9860      0.00000
     72       3.0101      0.00000
     73       3.0638      0.00000
     74       3.1450      0.00000
     75       3.2552      0.00000
     76       7.1838      0.00000

 k-point     8 :       0.2857    0.2857    0.0000
  band No.  band energies     occupation 
      1     -34.3227      2.00000
      2     -33.2716      2.00000
      3     -33.2022      2.00000
      4     -33.1209      2.00000
      5     -17.6722      2.00000
      6     -17.5373      2.00000
      7     -17.3961      2.00000
      8     -17.1440      2.00000
      9     -16.9876      2.00000
     10     -16.9312      2.00000
     11     -16.8646      2.00000
     12     -16.7881      2.00000
     13     -16.7758      2.00000
     14     -16.7095      2.00000
     15     -16.4709      2.00000
     16     -16.2633      2.00000
     17     -16.2411      2.00000
     18     -16.1774      2.00000
     19     -15.5151      2.00000
     20     -15.3671      2.00000
     21     -15.2864      2.00000
     22     -15.2170      2.00000
     23     -15.1692      2.00000
     24     -15.0876      2.00000
     25     -15.0741      2.00000
     26     -14.9867      2.00000
     27     -14.9491      2.00000
     28     -14.9363      2.00000
     29      -4.6351      2.00000
     30      -4.4706      2.00000
     31      -4.3604      2.00000
     32      -4.3089      2.00000
     33      -4.0807      2.00000
     34      -3.9973      2.00000
     35      -3.9086      2.00000
     36      -3.8871      2.00000
     37      -3.8578      2.00000
     38      -3.7966      2.00000
     39      -3.7922      2.00000
     40      -3.7471      2.00000
     41      -3.6354      2.00000
     42      -3.5737      2.00000
     43      -3.5322      2.00000
     44      -3.4825      2.00000
     45      -3.4333      2.00000
     46      -3.4264      2.00000
     47      -3.0926      2.00000
     48      -3.0741      2.00000
     49      -2.8845      2.00000
     50      -2.5668      2.00000
     51      -2.4556      2.00000
     52      -1.9883      2.00000
     53      -1.8225      2.00000
     54      -1.6069      2.00000
     55      -1.3571      2.00000
     56      -1.3161      2.00000
     57      -1.2202      2.00000
     58      -1.1877      2.00000
     59      -1.1080      2.00000
     60      -1.0679      2.00000
     61      -0.9947      2.00000
     62      -0.9243      2.00000
     63      -0.8002      2.00000
     64      -0.3184      2.00000
     65       2.2143      0.00000
     66       2.4489      0.00000
     67       2.5173      0.00000
     68       2.6333      0.00000
     69       2.7227      0.00000
     70       2.7796      0.00000
     71       2.8387      0.00000
     72       2.8596      0.00000
     73       2.9389      0.00000
     74       3.0900      0.00000
     75       3.1248      0.00000
     76       3.1450      0.00000

 k-point     9 :       0.4286    0.2857    0.0000
  band No.  band energies     occupation 
      1     -34.3176      2.00000
      2     -33.2658      2.00000
      3     -33.1964      2.00000
      4     -33.1150      2.00000
      5     -17.6047      2.00000
      6     -17.4347      2.00000
      7     -17.2360      2.00000
      8     -17.0258      2.00000
      9     -16.9924      2.00000
     10     -16.9533      2.00000
     11     -16.8461      2.00000
     12     -16.8106      2.00000
     13     -16.7328      2.00000
     14     -16.5563      2.00000
     15     -16.3670      2.00000
     16     -16.3497      2.00000
     17     -16.2448      2.00000
     18     -16.1372      2.00000
     19     -15.5771      2.00000
     20     -15.4019      2.00000
     21     -15.3484      2.00000
     22     -15.2405      2.00000
     23     -15.1720      2.00000
     24     -15.1205      2.00000
     25     -15.0498      2.00000
     26     -15.0354      2.00000
     27     -14.9901      2.00000
     28     -14.9216      2.00000
     29      -4.7981      2.00000
     30      -4.7044      2.00000
     31      -4.6203      2.00000
     32      -4.4659      2.00000
     33      -4.3778      2.00000
     34      -4.3465      2.00000
     35      -4.2864      2.00000
     36      -4.1878      2.00000
     37      -4.0688      2.00000
     38      -4.0392      2.00000
     39      -3.9528      2.00000
     40      -3.9387      2.00000
     41      -3.8582      2.00000
     42      -3.7949      2.00000
     43      -3.7690      2.00000
     44      -3.6023      2.00000
     45      -3.4775      2.00000
     46      -3.4309      2.00000
     47      -3.3345      2.00000
     48      -3.2922      2.00000
     49      -2.9870      2.00000
     50      -2.8558      2.00000
     51      -2.4854      2.00000
     52      -1.9211      2.00000
     53      -1.8325      2.00000
     54      -1.6931      2.00000
     55      -1.3777      2.00000
     56      -1.3194      2.00000
     57      -1.1152      2.00000
     58      -1.0454      2.00000
     59      -0.9753      2.00000
     60      -0.9728      2.00000
     61      -0.9542      2.00000
     62      -0.8356      2.00000
     63      -0.6164      2.00000
     64      -0.1610      2.00000
     65       2.3343      0.00000
     66       2.6142      0.00000
     67       2.8816      0.00000
     68       2.9028      0.00000
     69       3.0391      0.00000
     70       3.0734      0.00000
     71       3.1772      0.00000
     72       3.1869      0.00000
     73       3.2017      0.00000
     74       3.2845      0.00000
     75       3.3521      0.00000
     76       3.4210      0.00000

 k-point    10 :       0.4286    0.4286    0.0000
  band No.  band energies     occupation 
      1     -34.3128      2.00000
      2     -33.2601      2.00000
      3     -33.1908      2.00000
      4     -33.1094      2.00000
      5     -17.3376      2.00000
      6     -17.1837      2.00000
      7     -17.0662      2.00000
      8     -17.0314      2.00000
      9     -16.9855      2.00000
     10     -16.9123      2.00000
     11     -16.7945      2.00000
     12     -16.7746      2.00000
     13     -16.7323      2.00000
     14     -16.5423      2.00000
     15     -16.2639      2.00000
     16     -16.2557      2.00000
     17     -16.2290      2.00000
     18     -16.1559      2.00000
     19     -15.8425      2.00000
     20     -15.4469      2.00000
     21     -15.3945      2.00000
     22     -15.3912      2.00000
     23     -15.2690      2.00000
     24     -15.1764      2.00000
     25     -15.1148      2.00000
     26     -15.0650      2.00000
     27     -14.9787      2.00000
     28     -14.9611      2.00000
     29      -4.9139      2.00000
     30      -4.8266      2.00000
     31      -4.7582      2.00000
     32      -4.7227      2.00000
     33      -4.5462      2.00000
     34      -4.5169      2.00000
     35      -4.4647      2.00000
     36      -4.4526      2.00000
     37      -4.3900      2.00000
     38      -4.3240      2.00000
     39      -4.2139      2.00000
     40      -4.1213      2.00000
     41      -4.0903      2.00000
     42      -4.0303      2.00000
     43      -3.8409      2.00000
     44      -3.7813      2.00000
     45      -3.7810      2.00000
     46      -3.6466      2.00000
     47      -3.4589      2.00000
     48      -3.4218      2.00000
     49      -3.0649      2.00000
     50      -2.9446      2.00000
     51      -2.7619      2.00000
     52      -1.7929      2.00000
     53      -1.7708      2.00000
     54      -1.7259      2.00000
     55      -1.3249      2.00000
     56      -1.2836      2.00000
     57      -0.9284      2.00000
     58      -0.8886      2.00000
     59      -0.6699      2.00000
     60      -0.6524      2.00000
     61      -0.6322      2.00000
     62      -0.5797      2.00000
     63      -0.5642      2.00000
     64       0.1689      2.00000
     65       2.8684      0.00000
     66       2.9193      0.00000
     67       3.0843      0.00000
     68       3.1154      0.00000
     69       3.2951      0.00000
     70       3.3205      0.00000
     71       3.3975      0.00000
     72       3.4528      0.00000
     73       3.4807      0.00000
     74       6.7447      0.00000
     75       6.8166      0.00000
     76       7.0992      0.00000


--------------------------------------------------------------------------------------------------------


 soft charge-density along one line, spin component           1
         0         1         2         3         4         5         6         7         8         9
 total charge-density along one line
 
 pseudopotential strength for first ion, spin component:           1
 12.727  -0.354  -0.000  -0.021   0.000   0.000   0.001  -0.000
 -0.354   0.085   0.000   0.002  -0.000  -0.000  -0.000   0.000
 -0.000   0.000  -9.041  -0.000   0.000  -0.068   0.000  -0.000
 -0.021   0.002  -0.000  -9.061  -0.000   0.000  -0.065   0.000
  0.000  -0.000   0.000  -0.000  -9.041  -0.000   0.000  -0.068
  0.000  -0.000  -0.068   0.000  -0.000   0.239  -0.000   0.000
  0.001  -0.000   0.000  -0.065   0.000  -0.000   0.239  -0.000
 -0.000   0.000  -0.000   0.000  -0.068   0.000  -0.000   0.239
 total augmentation occupancy for first ion, spin component:           1
  1.866   0.122   0.000  -0.008  -0.000   0.000   0.012   0.000
  0.122   0.012   0.000   0.026   0.000   0.000   0.005  -0.000
  0.000  -0.000   1.516   0.000   0.000   0.121   0.000   0.000
 -0.008   0.026   0.000   1.512  -0.000   0.000   0.131  -0.000
 -0.000   0.000   0.000   0.000   1.516   0.000   0.000   0.121
  0.000   0.000   0.121   0.000   0.000   0.011   0.000   0.000
  0.012   0.005   0.000   0.131   0.000   0.000   0.012  -0.000
  0.000   0.000   0.000   0.000   0.121   0.000   0.000   0.011


------------------------ aborting loop because EDIFF is reached ----------------------------------------


    CHARGE:  cpu time    0.2520: real time    0.2533
    FORLOC:  cpu time    0.0260: real time    0.0261
    FORNL :  cpu time    2.2857: real time    2.2844
    STRESS:  cpu time    5.3142: real time    5.3129
    FORCOR:  cpu time    0.1330: real time    0.1326
    FORHAR:  cpu time    0.0460: real time    0.0458
    MIXING:  cpu time    0.0070: real time    0.0077
    OFIELD:  cpu time    0.0000: real time    0.0000

  FORCE on cell =-STRESS in cart. coord.  units (eV):
  Direction    XX          YY          ZZ          XY          YZ          ZX
  --------------------------------------------------------------------------------------
  Alpha Z   407.77313   407.77313   407.77313
  Ewald   39507.49405 39507.49405-44565.27215     0.00000     0.00000    -0.00000
  Hartree 42002.60288 42002.60288-40778.36297    -0.00000    -0.00000    -0.00000
  E(xc)    -577.79967  -577.79967  -577.33631     0.00000     0.00000     0.00000
  Local  -83210.26013-83210.26013 83651.88999     0.00000     0.00000    -0.00000
  n-local  -488.70204  -466.96683  -479.79478    -1.62331     0.00005    -0.00002
  augment   116.02846   116.02846   115.00725     0.00000     0.00000    -0.00000
  Kinetic  2204.17255  2248.39898  2222.62656    -9.23296    -0.00001    -0.00002
  Fock        0.00000     0.00000     0.00000     0.00000     0.00000     0.00000
  -------------------------------------------------------------------------------------
  Total      -5.70994    -5.70994    -3.46928     0.00000     0.00000     0.00000
  in kB     -21.11441   -21.11441   -12.82882     0.00000     0.00000     0.00000
  external pressure =      -18.35 kB  Pullay stress =        0.00 kB


 VOLUME and BASIS-vectors are now :
 -----------------------------------------------------------------------------
  energy-cutoff  :      500.00
  volume of cell :      433.27
      direct lattice vectors                 reciprocal lattice vectors
     3.946846342  0.000000000  0.000000000     0.253366844  0.000000000  0.000000000
     0.000000000  3.946846342  0.000000000     0.000000000  0.253366844  0.000000000
     0.000000000  0.000000000 27.813962196     0.000000000  0.000000000  0.035953166

  length of vectors
     3.946846342  3.946846342 27.813962196     0.253366844  0.253366844  0.035953166


 FORCES acting on ions
    electron-ion (+dipol)            ewald-force                    non-local-force                 convergence-correction
 -----------------------------------------------------------------------------------------------
   0.153E-12 -.720E-13 0.169E+04   -.137E-13 0.378E-14 -.170E+04   0.000E+00 0.000E+00 0.788E+01   -.191E-14 0.100E-14 0.860E-03
   0.152E-12 -.101E-12 0.121E+04   0.642E-14 -.326E-14 -.121E+04   -.106E-21 0.106E-21 -.285E+00   0.319E-15 0.116E-13 -.809E-04
   -.948E-14 -.828E-13 0.121E+04   -.117E-13 -.830E-14 -.121E+04   0.000E+00 0.212E-21 -.285E+00   0.171E-15 0.544E-14 -.809E-04
   0.167E-12 0.119E-12 0.723E+03   -.239E-13 -.525E-16 -.723E+03   -.106E-21 0.000E+00 0.624E+00   0.287E-14 0.115E-13 -.438E-03
   0.151E-12 0.378E-13 0.241E+03   -.270E-14 -.101E-14 -.241E+03   0.000E+00 0.000E+00 0.174E+00   0.896E-14 0.114E-13 -.254E-03
   -.754E-14 0.702E-13 0.241E+03   -.141E-13 -.608E-15 -.241E+03   0.000E+00 0.529E-22 0.174E+00   0.608E-14 0.173E-13 -.254E-03
   0.156E-12 0.119E-12 -.241E+03   -.177E-13 0.300E-15 0.241E+03   0.000E+00 0.000E+00 0.490E+00   -.104E-14 -.357E-14 0.715E-03
   0.177E-12 0.936E-13 -.723E+03   0.788E-14 -.822E-15 0.723E+03   0.000E+00 0.000E+00 0.114E-01   -.537E-14 0.796E-14 -.167E-03
   0.119E-14 0.468E-12 -.723E+03   -.880E-14 -.851E-14 0.723E+03   -.424E-21 -.212E-21 0.114E-01   -.140E-13 0.420E-14 -.167E-03
   0.156E-12 0.187E-12 -.121E+04   -.224E-13 0.208E-15 0.120E+04   0.000E+00 0.000E+00 0.255E+01   0.737E-14 0.156E-15 -.777E-03
   0.155E-12 0.194E-12 -.166E+04   0.117E-13 -.323E-14 0.167E+04   0.000E+00 -.127E-20 -.222E+01   0.142E-13 0.112E-13 0.243E-03
   -.706E-14 0.144E-12 -.166E+04   -.109E-13 -.885E-15 0.167E+04   0.000E+00 0.424E-21 -.222E+01   0.288E-14 0.796E-14 0.243E-03
   -.713E-14 0.316E-12 0.276E+04   0.205E-13 0.263E-14 -.276E+04   0.000E+00 0.424E-21 -.498E+01   -.427E-14 0.113E-13 0.969E-03
   -.511E-14 0.140E-12 0.121E+04   0.236E-13 0.446E-14 -.121E+04   0.000E+00 0.000E+00 -.425E-02   0.140E-13 0.748E-14 -.796E-03
   0.134E-14 0.151E-12 -.402E+03   0.362E-13 -.521E-14 0.402E+03   0.000E+00 -.847E-21 0.826E-01   -.586E-14 0.318E-14 0.144E-03
   -.511E-14 0.683E-13 -.201E+04   0.120E-13 0.783E-15 0.201E+04   0.000E+00 0.000E+00 -.802E+00   -.747E-16 0.820E-14 -.133E-03
   0.403E-15 0.902E-13 0.804E+03   0.371E-14 -.452E-14 -.804E+03   -.265E-22 0.000E+00 -.332E+00   0.117E-14 -.198E-14 -.349E-04
   0.164E-14 0.700E-13 0.161E+03   0.700E-15 -.791E-15 -.161E+03   0.000E+00 0.000E+00 -.704E-01   -.179E-14 -.935E-15 -.185E-03
   0.249E-14 -.153E-12 -.482E+03   0.544E-15 -.230E-14 0.482E+03   0.000E+00 0.000E+00 0.837E-03   0.444E-14 -.389E-15 -.145E-03
   -.152E-14 -.891E-13 -.113E+04   -.412E-15 -.169E-14 0.113E+04   0.000E+00 -.132E-22 0.134E+01   0.164E-14 -.885E-15 0.265E-03
 -----------------------------------------------------------------------------------------------
   0.123E-11 0.177E-11 -.213E+01   -.305E-14 -.290E-13 -.159E-11   -.662E-21 -.112E-20 0.214E+01   0.297E-13 0.112E-12 -.739E-04
 
 
 POSITION                                       TOTAL-FORCE (eV/Angst)
 -----------------------------------------------------------------------------------
      1.97342      1.97342      7.00000         0.000000     -0.000000     -0.698046
      1.97342      0.00000      8.97342         0.000000     -0.000000     -0.019815
      0.00000      1.97342      8.97342         0.000000     -0.000000     -0.019815
      1.97342      1.97342     10.94685         0.000000      0.000000      0.341406
      1.97342      0.00000     12.92027         0.000000      0.000000      0.057451
      0.00000      1.97342     12.92027         0.000000     -0.000000      0.057451
      1.97342      1.97342     14.89369         0.000000     -0.000000      0.266471
      1.97342      0.00000     16.86712         0.000000     -0.000000      0.012703
      0.00000      1.97342     16.86712        -0.000000     -0.000000      0.012703
      1.97342      1.97342     18.84054         0.000000     -0.000000      0.973132
      1.97342      0.00000     20.81396         0.000000     -0.000000      0.369895
      0.00000      1.97342     20.81396         0.000000     -0.000000      0.369895
      0.00000      0.00000      7.00000         0.000000      0.000000      1.363513
      0.00000      0.00000     10.94685         0.000000      0.000000      0.006788
      0.00000      0.00000     14.89369         0.000000     -0.000000     -0.045103
      0.00000      0.00000     18.84054         0.000000     -0.000000      0.647557
      1.97342      1.97342      8.97342         0.000000      0.000000     -0.950005
      1.97342      1.97342     12.92027         0.000000      0.000000     -0.267675
      1.97342      1.97342     16.86712         0.000000      0.000000     -0.325712
      1.97342      1.97342     20.81396         0.000000     -0.000000     -2.152791
 -----------------------------------------------------------------------------------
    total drift:                                0.000000      0.000000      0.001433


--------------------------------------------------------------------------------------------------------



  FREE ENERGIE OF THE ION-ELECTRON SYSTEM (eV)
  ---------------------------------------------------
  free  energy   TOTEN  =      -156.65540448 eV

  energy  without entropy=     -156.65540448  energy(sigma->0) =     -156.65540448
 


--------------------------------------------------------------------------------------------------------


    POTLOK:  cpu time    0.1360: real time    0.1356


--------------------------------------------------------------------------------------------------------


     LOOP+:  cpu time  197.3750: real time  197.9311
    4ORBIT:  cpu time    0.0000: real time    0.0000
 BZINTS: Fermi energy:  0.200661;128.000000 electrons
         Band energy:***********;  BLOECHL correction:  0.000000

 total amount of memory used by VASP MPI-rank0   111254. kBytes
=======================================================================

   base      :      30000. kBytes
   nonl-proj :      25575. kBytes
   fftplans  :       7619. kBytes
   grid      :      13699. kBytes
   one-center:        155. kBytes
   wavefun   :      34206. kBytes
 
  
  
 General timing and accounting informations for this job:
 ========================================================
  
                  Total CPU time used (sec):      200.071
                            User time (sec):      196.723
                          System time (sec):        3.347
                         Elapsed time (sec):      200.835
  
                   Maximum memory used (kb):      121972.
                   Average memory used (kb):           0.
  
                          Minor page faults:        36197
                          Major page faults:          202
                 Voluntary context switches:         3735
