Starting job 28531580 ("jobname") on c16-31 at Fri Nov 8 10:21:32 CET 2019
 running on    4 total cores
 distrk:  each k-point on    4 cores,    1 groups
 distr:  one band on    2 cores,    2 groups
 using from now: INCAR     
 vasp.5.4.4.18Apr17-6-g9f103f2a35 (build Jun 30 2017 11:15:00) complex          
  
 POSCAR found type information on POSCAR  O  Sr Ti
 POSCAR found :  3 types and      20 ions
 scaLAPACK will be used

 ----------------------------------------------------------------------------- 
|                                                                             |
|  ADVICE TO THIS USER RUNNING 'VASP/VAMP'   (HEAR YOUR MASTER'S VOICE ...):  |
|                                                                             |
|      You have a (more or less) 'large supercell' and for larger cells       |
|      it might be more efficient to use real space projection operators      |
|      So try LREAL= Auto  in the INCAR   file.                               |
|      Mind: If you want to do a very accurate calculations keep the          |
|      reciprocal projection scheme          (i.e. LREAL=.FALSE.)             |
|                                                                             |
 ----------------------------------------------------------------------------- 

 LDA part: xc-table for Pade appr. of Perdew
 POSCAR, INCAR and KPOINTS ok, starting setup
 FFT: planning ...
 WAVECAR not read
 entering main loop
       N       E                     dE             d eps       ncg     rms          rms(c)
DAV:   1     0.159390921234E+04    0.15939E+04   -0.55439E+04  1528   0.149E+03
DAV:   2     0.183341803369E+03   -0.14106E+04   -0.13500E+04  1848   0.385E+02
DAV:   3    -0.175768853328E+03   -0.35911E+03   -0.34995E+03  2056   0.189E+02
DAV:   4    -0.200840443970E+03   -0.25072E+02   -0.24983E+02  1960   0.575E+01
DAV:   5    -0.202305387154E+03   -0.14649E+01   -0.14642E+01  2672   0.126E+01    0.371E+01
RMM:   6    -0.161760433118E+03    0.40545E+02   -0.29454E+02  1678   0.505E+01    0.146E+01
RMM:   7    -0.157740433743E+03    0.40200E+01   -0.14644E+01  1763   0.145E+01    0.727E+00
RMM:   8    -0.156989749471E+03    0.75068E+00   -0.30831E+00  2064   0.605E+00    0.368E+00
RMM:   9    -0.156737860006E+03    0.25189E+00   -0.15547E+00  1990   0.446E+00    0.102E+00
RMM:  10    -0.156691216844E+03    0.46643E-01   -0.26015E-01  2336   0.153E+00    0.711E-01
RMM:  11    -0.156669020230E+03    0.22197E-01   -0.15622E-01  2270   0.104E+00    0.377E-01
RMM:  12    -0.156662559674E+03    0.64606E-02   -0.54961E-02  2344   0.629E-01    0.349E-01
RMM:  13    -0.156656423847E+03    0.61358E-02   -0.19245E-02  2571   0.348E-01    0.214E-01
RMM:  14    -0.156653087501E+03    0.33363E-02   -0.21406E-02  2202   0.400E-01    0.122E-01
RMM:  15    -0.156652529808E+03    0.55769E-03   -0.58716E-03  2450   0.190E-01    0.773E-02
RMM:  16    -0.156653065083E+03   -0.53528E-03   -0.54470E-03  2280   0.179E-01    0.864E-02
RMM:  17    -0.156652930233E+03    0.13485E-03   -0.23692E-03  2207   0.131E-01    0.456E-02
RMM:  18    -0.156652886709E+03    0.43524E-04   -0.71751E-04  2139   0.688E-02    0.186E-02
RMM:  19    -0.156653767537E+03   -0.88083E-03   -0.39644E-04  2054   0.402E-02    0.132E-02
RMM:  20    -0.156654555461E+03   -0.78792E-03   -0.21971E-04  1784   0.296E-02    0.103E-02
RMM:  21    -0.156655005915E+03   -0.45045E-03   -0.15346E-04  1780   0.292E-02    0.101E-02
RMM:  22    -0.156655229632E+03   -0.22372E-03   -0.75201E-05  1583   0.193E-02    0.346E-03
RMM:  23    -0.156655348716E+03   -0.11908E-03   -0.41208E-05  1323   0.126E-02    0.232E-03
RMM:  24    -0.156655383129E+03   -0.34413E-04   -0.16195E-05  1171   0.994E-03    0.207E-03
RMM:  25    -0.156655396936E+03   -0.13807E-04   -0.10327E-05  1086   0.807E-03    0.827E-04
RMM:  26    -0.156655404485E+03   -0.75483E-05   -0.62642E-06  1023   0.693E-03
   1 F= -.15665540E+03 E0= -.15665540E+03  d E =0.000000E+00

Currently Loaded Modulefiles:
  1) intel/2017.4         2) perf-reports/7.0.6

Job script resource usage:
       JobID  MaxVMSize     MaxRSS 
------------ ---------- ---------- 
28531580.ba+    499228K      4939K 

Job step resource usage:
       JobID    JobName  AllocCPUS  MaxVMSize     MaxRSS    Elapsed ExitCode 
------------ ---------- ---------- ---------- ---------- ---------- -------- 
28531580        jobname          4                         00:03:24      0:0 
28531580.0    pmi_proxy          1   1642732K    424710K   00:03:21      0:0 

Job 28531580 ("jobname") completed on c16-31 at Fri Nov 8 10:24:55 CET 2019
