<?xml version="1.0" encoding="ISO-8859-1"?>
<modeling>
 <generator>
  <i name="program" type="string">vasp </i>
  <i name="version" type="string">5.4.4.18Apr17-6-g9f103f2a35  </i>
  <i name="subversion" type="string">(build Jun 30 2017 11:15:00) complex            parallel </i>
  <i name="platform" type="string">STALLO_VASP_5.4.4 </i>
  <i name="date" type="string">2019 11 08 </i>
  <i name="time" type="string">10:21:34 </i>
 </generator>
 <incar>
  <i type="string" name="PREC">normal    ! low/normal/accurate</i>
  <i type="string" name="ALGO"> Fast      ! Algorithm for electronic re</i>
  <i type="int" name="ISPIN">     1</i>
  <i type="int" name="NELMIN">     4</i>
  <i name="EDIFF">      0.00001000</i>
  <i type="int" name="NSW">     0</i>
  <i name="ENCUT">    500.00000000</i>
  <i type="logical" name="LREAL"> F  </i>
  <i type="int" name="ISMEAR">    -5</i>
  <i name="SIGMA">      0.20000000</i>
  <i type="logical" name="LWAVE"> F  </i>
  <v type="int" name="KPOINT_BSE">    -1     0     0     0</v>
 </incar>
 <structure name="primitive_cell" >
  <crystal>
   <varray name="basis" >
    <v>       3.94684634       0.00000000       0.00000000 </v>
    <v>       0.00000000       3.94684634       0.00000000 </v>
    <v>       0.00000000       0.00000000      27.81396220 </v>
   </varray>
   <i name="volume">    433.27466748 </i>
   <varray name="rec_basis" >
    <v>       0.25336684       0.00000000       0.00000000 </v>
    <v>       0.00000000       0.25336684       0.00000000 </v>
    <v>       0.00000000       0.00000000       0.03595317 </v>
   </varray>
  </crystal>
  <varray name="positions" >
   <v>      -0.50000000      -0.50000000       0.25167216 </v>
   <v>      -0.50000000      -0.50000000       0.32262297 </v>
   <v>       0.00000000       0.00000000       0.25167216 </v>
   <v>      -0.50000000       0.00000000       0.32262297 </v>
   <v>       0.00000000      -0.50000000       0.32262297 </v>
   <v>      -0.50000000      -0.50000000       0.39357378 </v>
   <v>       0.00000000       0.00000000       0.39357378 </v>
   <v>      -0.50000000      -0.50000000       0.46452459 </v>
   <v>      -0.50000000       0.00000000       0.46452459 </v>
   <v>       0.00000000      -0.50000000       0.46452459 </v>
   <v>      -0.50000000      -0.50000000      -0.46452459 </v>
   <v>       0.00000000       0.00000000      -0.46452459 </v>
   <v>      -0.50000000      -0.50000000      -0.39357378 </v>
   <v>      -0.50000000       0.00000000      -0.39357378 </v>
   <v>       0.00000000      -0.50000000      -0.39357378 </v>
   <v>      -0.50000000      -0.50000000      -0.32262297 </v>
   <v>       0.00000000       0.00000000      -0.32262297 </v>
   <v>      -0.50000000      -0.50000000      -0.25167216 </v>
   <v>      -0.50000000       0.00000000      -0.25167216 </v>
   <v>       0.00000000      -0.50000000      -0.25167216 </v>
  </varray>
 </structure>
 <varray name="primitive_index" >
  <v type="int" >        1 </v>
  <v type="int" >       17 </v>
  <v type="int" >       13 </v>
  <v type="int" >        2 </v>
  <v type="int" >        3 </v>
  <v type="int" >        4 </v>
  <v type="int" >       14 </v>
  <v type="int" >       18 </v>
  <v type="int" >        5 </v>
  <v type="int" >        6 </v>
  <v type="int" >        7 </v>
  <v type="int" >       15 </v>
  <v type="int" >       19 </v>
  <v type="int" >        8 </v>
  <v type="int" >        9 </v>
  <v type="int" >       10 </v>
  <v type="int" >       16 </v>
  <v type="int" >       20 </v>
  <v type="int" >       11 </v>
  <v type="int" >       12 </v>
 </varray>
 <kpoints>
  <generation param="Gamma">
   <v type="int" name="divisions">       7        7        1 </v>
   <v name="usershift">      0.00000000       0.00000000       0.00000000 </v>
   <v name="genvec1">      0.14285714       0.00000000       0.00000000 </v>
   <v name="genvec2">      0.00000000       0.14285714       0.00000000 </v>
   <v name="genvec3">      0.00000000       0.00000000       1.00000000 </v>
   <v name="shift">      0.00000000       0.00000000       0.00000000 </v>
  </generation>
  <varray name="kpointlist" >
   <v>       0.00000000       0.00000000       0.00000000 </v>
   <v>       0.14285714       0.00000000       0.00000000 </v>
   <v>       0.28571429       0.00000000       0.00000000 </v>
   <v>       0.42857143       0.00000000       0.00000000 </v>
   <v>       0.14285714       0.14285714       0.00000000 </v>
   <v>       0.28571429       0.14285714       0.00000000 </v>
   <v>       0.42857143       0.14285714       0.00000000 </v>
   <v>       0.28571429       0.28571429       0.00000000 </v>
   <v>       0.42857143       0.28571429       0.00000000 </v>
   <v>       0.42857143       0.42857143       0.00000000 </v>
  </varray>
  <varray name="weights" >
   <v>       0.02040816 </v>
   <v>       0.08163265 </v>
   <v>       0.08163265 </v>
   <v>       0.08163265 </v>
   <v>       0.08163265 </v>
   <v>       0.16326531 </v>
   <v>       0.16326531 </v>
   <v>       0.08163265 </v>
   <v>       0.16326531 </v>
   <v>       0.08163265 </v>
  </varray>
  <varray name="tetrahedronlist"  type="int" >
   <v type="int" >        4        1        1        2        5 </v>
   <v type="int" >        4        1        2        2        5 </v>
   <v type="int" >        4        1        2        5        5 </v>
   <v type="int" >        4        2        2        3        6 </v>
   <v type="int" >        4        2        2        5        6 </v>
   <v type="int" >        4        2        5        5        6 </v>
   <v type="int" >        4        2        3        3        6 </v>
   <v type="int" >        4        2        3        6        6 </v>
   <v type="int" >        4        2        5        6        6 </v>
   <v type="int" >        4        3        3        4        7 </v>
   <v type="int" >        4        3        3        6        7 </v>
   <v type="int" >        4        3        6        6        7 </v>
   <v type="int" >        4        3        4        4        7 </v>
   <v type="int" >        4        3        4        7        7 </v>
   <v type="int" >        4        3        6        7        7 </v>
   <v type="int" >        8        4        4        4        7 </v>
   <v type="int" >        8        4        4        7        7 </v>
   <v type="int" >        8        4        7        7        7 </v>
   <v type="int" >        4        3        4        4        6 </v>
   <v type="int" >        4        4        4        6        7 </v>
   <v type="int" >        4        4        6        7        7 </v>
   <v type="int" >        4        3        3        4        6 </v>
   <v type="int" >        4        3        4        6        6 </v>
   <v type="int" >        4        4        6        6        7 </v>
   <v type="int" >        4        2        3        3        5 </v>
   <v type="int" >        4        3        3        5        6 </v>
   <v type="int" >        4        3        5        6        6 </v>
   <v type="int" >        4        2        2        3        5 </v>
   <v type="int" >        4        2        3        5        5 </v>
   <v type="int" >        4        3        5        5        6 </v>
   <v type="int" >        4        1        2        2        2 </v>
   <v type="int" >        4        2        2        2        5 </v>
   <v type="int" >        2        2        2        5        5 </v>
   <v type="int" >        2        1        1        2        2 </v>
   <v type="int" >        4        5        5        6        8 </v>
   <v type="int" >        4        5        6        6        8 </v>
   <v type="int" >        4        5        6        8        8 </v>
   <v type="int" >        4        6        6        7        9 </v>
   <v type="int" >        4        6        6        8        9 </v>
   <v type="int" >        4        6        8        8        9 </v>
   <v type="int" >        4        6        7        7        9 </v>
   <v type="int" >        4        6        7        9        9 </v>
   <v type="int" >        4        6        8        9        9 </v>
   <v type="int" >        8        7        7        7        9 </v>
   <v type="int" >        8        7        7        9        9 </v>
   <v type="int" >        8        7        9        9        9 </v>
   <v type="int" >        4        6        7        7        8 </v>
   <v type="int" >        4        7        7        8        9 </v>
   <v type="int" >        4        7        8        9        9 </v>
   <v type="int" >        4        6        6        7        8 </v>
   <v type="int" >        4        6        7        8        8 </v>
   <v type="int" >        4        7        8        8        9 </v>
   <v type="int" >        4        5        6        6        6 </v>
   <v type="int" >        4        6        6        6        8 </v>
   <v type="int" >        2        6        6        8        8 </v>
   <v type="int" >        2        5        5        6        6 </v>
   <v type="int" >        4        8        8        9       10 </v>
   <v type="int" >        4        8        9        9       10 </v>
   <v type="int" >        4        8        9       10       10 </v>
   <v type="int" >       12        9        9        9       10 </v>
   <v type="int" >       10        9        9       10       10 </v>
   <v type="int" >        8        9       10       10       10 </v>
   <v type="int" >        4        8        9        9        9 </v>
   <v type="int" >        2        8        8        9        9 </v>
   <v type="int" >        6       10       10       10       10 </v>
  </varray>
  <i name="volumeweight">      0.00340136 </i>
 </kpoints>
 <parameters>
  <separator name="general" >
   <i type="string" name="SYSTEM">unknown system</i>
   <i type="logical" name="LCOMPAT"> F  </i>
  </separator>
  <separator name="electronic" >
   <i type="string" name="PREC">normal</i>
   <i name="ENMAX">    500.00000000</i>
   <i name="ENAUG">    605.39200000</i>
   <i name="EDIFF">      0.00001000</i>
   <i type="int" name="IALGO">    68</i>
   <i type="int" name="IWAVPR">    10</i>
   <i type="int" name="NBANDS">    76</i>
   <i name="NELECT">    128.00000000</i>
   <i type="int" name="TURBO">     0</i>
   <i type="int" name="IRESTART">     0</i>
   <i type="int" name="NREBOOT">     0</i>
   <i type="int" name="NMIN">     0</i>
   <i name="EREF">      0.00000000</i>
   <separator name="electronic smearing" >
    <i type="int" name="ISMEAR">    -5</i>
    <i name="SIGMA">      0.20000000</i>
    <i name="KSPACING">      0.50000000</i>
    <i type="logical" name="KGAMMA"> T  </i>
   </separator>
   <separator name="electronic projectors" >
    <i type="logical" name="LREAL"> F  </i>
    <v name="ROPT">      0.00000000      0.00000000      0.00000000</v>
    <i type="int" name="LMAXPAW">  -100</i>
    <i type="int" name="LMAXMIX">     2</i>
    <i type="logical" name="NLSPLINE"> F  </i>
   </separator>
   <separator name="electronic startup" >
    <i type="int" name="ISTART">     0</i>
    <i type="int" name="ICHARG">     2</i>
    <i type="int" name="INIWAV">     1</i>
   </separator>
   <separator name="electronic spin" >
    <i type="int" name="ISPIN">     1</i>
    <i type="logical" name="LNONCOLLINEAR"> F  </i>
    <v name="MAGMOM">      1.00000000      1.00000000      1.00000000      1.00000000      1.00000000      1.00000000      1.00000000      1.00000000      1.00000000      1.00000000      1.00000000      1.00000000      1.00000000      1.00000000      1.00000000      1.00000000      1.00000000      1.00000000      1.00000000      1.00000000
</v>
    <i name="NUPDOWN">     -1.00000000</i>
    <i type="logical" name="LSORBIT"> F  </i>
    <v name="SAXIS">      0.00000000      0.00000000      1.00000000</v>
    <i type="logical" name="LSPIRAL"> F  </i>
    <v name="QSPIRAL">      0.00000000      0.00000000      0.00000000</v>
    <i type="logical" name="LZEROZ"> F  </i>
   </separator>
   <separator name="electronic exchange-correlation" >
    <i type="logical" name="LASPH"> F  </i>
    <i type="logical" name="LMETAGGA"> F  </i>
   </separator>
   <separator name="electronic convergence" >
    <i type="int" name="NELM">    60</i>
    <i type="int" name="NELMDL">    -5</i>
    <i type="int" name="NELMIN">     4</i>
    <i name="ENINI">    500.00000000</i>
    <separator name="electronic convergence detail" >
     <i type="logical" name="LDIAG"> T  </i>
     <i type="logical" name="LSUBROT"> F  </i>
     <i name="WEIMIN">      0.00000000</i>
     <i name="EBREAK">      0.00000003</i>
     <i name="DEPER">      0.30000000</i>
     <i type="int" name="NRMM">     4</i>
     <i name="TIME">      0.40000000</i>
    </separator>
   </separator>
   <separator name="electronic mixer" >
    <i name="AMIX">      0.40000000</i>
    <i name="BMIX">      1.00000000</i>
    <i name="AMIN">      0.10000000</i>
    <i name="AMIX_MAG">      1.60000000</i>
    <i name="BMIX_MAG">      1.00000000</i>
    <separator name="electronic mixer details" >
     <i type="int" name="IMIX">     4</i>
     <i type="logical" name="MIXFIRST"> F  </i>
     <i type="int" name="MAXMIX">   -45</i>
     <i name="WC">    100.00000000</i>
     <i type="int" name="INIMIX">     1</i>
     <i type="int" name="MIXPRE">     1</i>
     <i type="int" name="MREMOVE">     5</i>
    </separator>
   </separator>
   <separator name="electronic dipolcorrection" >
    <i type="logical" name="LDIPOL"> F  </i>
    <i type="logical" name="LMONO"> F  </i>
    <i type="int" name="IDIPOL">     0</i>
    <i name="EPSILON">      1.00000000</i>
    <v name="DIPOL">   -100.00000000   -100.00000000   -100.00000000</v>
    <i name="EFIELD">      0.00000000</i>
   </separator>
  </separator>
  <separator name="grids" >
   <i type="int" name="NGX">    24</i>
   <i type="int" name="NGY">    24</i>
   <i type="int" name="NGZ">   160</i>
   <i type="int" name="NGXF">    48</i>
   <i type="int" name="NGYF">    48</i>
   <i type="int" name="NGZF">   320</i>
   <i type="logical" name="ADDGRID"> F  </i>
  </separator>
  <separator name="ionic" >
   <i type="int" name="NSW">     0</i>
   <i type="int" name="IBRION">    -1</i>
   <i type="int" name="MDALGO">     0</i>
   <i type="int" name="ISIF">     2</i>
   <i name="PSTRESS">      0.00000000</i>
   <i name="EDIFFG">      0.00010000</i>
   <i type="int" name="NFREE">     0</i>
   <i name="POTIM">      0.50000000</i>
   <i name="SMASS">     -3.00000000</i>
   <i name="SCALEE">      1.00000000</i>
  </separator>
  <separator name="ionic md" >
   <i name="TEBEG">      0.00010000</i>
   <i name="TEEND">      0.00010000</i>
   <i type="int" name="NBLOCK">     1</i>
   <i type="int" name="KBLOCK">     1</i>
   <i type="int" name="NPACO">   256</i>
   <i name="APACO">     16.00000000</i>
  </separator>
  <separator name="symmetry" >
   <i type="int" name="ISYM">     2</i>
   <i name="SYMPREC">      0.00001000</i>
  </separator>
  <separator name="dos" >
   <i type="int" name="LORBIT">     0</i>
   <v name="RWIGS">     -1.00000000     -1.00000000     -1.00000000</v>
   <i type="int" name="NEDOS">   301</i>
   <i name="EMIN">     10.00000000</i>
   <i name="EMAX">    -10.00000000</i>
   <i name="EFERMI">      0.00000000</i>
  </separator>
  <separator name="writing" >
   <i type="int" name="NWRITE">     2</i>
   <i type="logical" name="LWAVE"> F  </i>
   <i type="logical" name="LDOWNSAMPLE"> F  </i>
   <i type="logical" name="LCHARG"> T  </i>
   <i type="logical" name="LPARD"> F  </i>
   <i type="logical" name="LVTOT"> F  </i>
   <i type="logical" name="LVHAR"> F  </i>
   <i type="logical" name="LELF"> F  </i>
   <i type="logical" name="LOPTICS"> F  </i>
   <v name="STM">      0.00000000      0.00000000      0.00000000      0.00000000      0.00000000      0.00000000      0.00000000</v>
  </separator>
  <separator name="performance" >
   <i type="int" name="NPAR">     2</i>
   <i type="int" name="NSIM">     4</i>
   <i type="int" name="NBLK">    -1</i>
   <i type="logical" name="LPLANE"> T  </i>
   <i type="logical" name="LSCALAPACK"> T  </i>
   <i type="logical" name="LSCAAWARE"> F  </i>
   <i type="logical" name="LSCALU"> F  </i>
   <i type="logical" name="LASYNC"> F  </i>
   <i type="logical" name="LORBITALREAL"> F  </i>
  </separator>
  <separator name="miscellaneous" >
   <i type="int" name="IDIOT">     3</i>
   <i type="int" name="ISPECIAL">     0</i>
   <i type="logical" name="LMUSIC"> F  </i>
   <v name="POMASS">     16.00000000     87.62000000     47.88000000</v>
   <v name="DARWINR">      0.00000000      0.00000000      0.00000000</v>
   <v name="DARWINV">      1.00000000      1.00000000      1.00000000</v>
   <i type="logical" name="LCORR"> T  </i>
  </separator>
  <i type="logical" name="GGA_COMPAT"> T  </i>
  <i type="logical" name="LBERRY"> F  </i>
  <i type="int" name="ICORELEVEL">     0</i>
  <i type="logical" name="LDAU"> F  </i>
  <i type="int" name="I_CONSTRAINED_M">     0</i>
  <separator name="electronic exchange-correlation" >
   <i type="string" name="GGA">--</i>
   <i type="int" name="VOSKOWN">     0</i>
   <i type="logical" name="LHFCALC"> F  </i>
   <i type="string" name="PRECFOCK"></i>
   <i type="logical" name="LSYMGRAD"> F  </i>
   <i type="logical" name="LHFONE"> F  </i>
   <i type="logical" name="LRHFCALC"> F  </i>
   <i type="logical" name="LTHOMAS"> F  </i>
   <i type="logical" name="LMODELHF"> F  </i>
   <i name="ENCUT4O">     -1.00000000</i>
   <i type="int" name="EXXOEP">     0</i>
   <i type="int" name="FOURORBIT">     0</i>
   <i name="AEXX">      0.00000000</i>
   <i name="HFALPHA">      0.00000000</i>
   <i name="MCALPHA">      0.00000000</i>
   <i name="ALDAX">      1.00000000</i>
   <i name="AGGAX">      1.00000000</i>
   <i name="ALDAC">      1.00000000</i>
   <i name="AGGAC">      1.00000000</i>
   <i type="int" name="NKREDX">     1</i>
   <i type="int" name="NKREDY">     1</i>
   <i type="int" name="NKREDZ">     1</i>
   <i type="logical" name="SHIFTRED"> F  </i>
   <i type="logical" name="ODDONLY"> F  </i>
   <i type="logical" name="EVENONLY"> F  </i>
   <i type="int" name="LMAXFOCK">     0</i>
   <i type="int" name="NMAXFOCKAE">     0</i>
   <i type="logical" name="LFOCKAEDFT"> F  </i>
   <i name="HFSCREEN">      0.00000000</i>
   <i name="HFSCREENC">      0.00000000</i>
   <i type="int" name="NBANDSGWLOW">     0</i>
  </separator>
  <separator name="vdW DFT" >
   <i type="logical" name="LUSE_VDW"> F  </i>
   <i name="Zab_VDW">     -0.84910000</i>
   <i name="PARAM1">      0.12340000</i>
   <i name="PARAM2">      1.00000000</i>
   <i name="PARAM3">      0.00000000</i>
  </separator>
  <separator name="model GW" >
   <i type="int" name="MODEL_GW">     0</i>
   <i name="MODEL_EPS0">     12.99824002</i>
   <i name="MODEL_ALPHA">      1.00000000</i>
  </separator>
  <separator name="linear response parameters" >
   <i type="logical" name="LEPSILON"> F  </i>
   <i type="logical" name="LRPA"> F  </i>
   <i type="logical" name="LNABLA"> F  </i>
   <i type="logical" name="LVEL"> F  </i>
   <i type="int" name="KINTER">     0</i>
   <i name="CSHIFT">      0.10000000</i>
   <i name="OMEGAMAX">     -1.00000000</i>
   <i name="DEG_THRESHOLD">      0.00200000</i>
   <i name="RTIME">     -0.10000000</i>
   <i name="WPLASMAI">      0.00000000</i>
   <v name="DFIELD">      0.00000000      0.00000000      0.00000000</v>
   <v name="WPLASMA">      0.00000000      0.00000000      0.00000000      0.00000000      0.00000000      0.00000000      0.00000000      0.00000000      0.00000000</v>
  </separator>
  <separator name="orbital magnetization" >
   <i type="logical" name="NUCIND"> F  </i>
   <v name="MAGPOS">      0.00000000      0.00000000      0.00000000</v>
   <i type="logical" name="LNICSALL"> T  </i>
   <i type="logical" name="ORBITALMAG"> F  </i>
   <i type="logical" name="LMAGBLOCH"> F  </i>
   <i type="logical" name="LCHIMAG"> F  </i>
   <i type="logical" name="LGAUGE"> T  </i>
   <i type="int" name="MAGATOM">     0</i>
   <v name="MAGDIPOL">      0.00000000      0.00000000      0.00000000</v>
   <v name="AVECCONST">      0.00000000      0.00000000      0.00000000</v>
  </separator>
  <separator name="response functions" >
   <i type="logical" name="LADDER"> F  </i>
   <i type="logical" name="LRPAFORCE"> F  </i>
   <i type="logical" name="LFXC"> F  </i>
   <i type="logical" name="LHARTREE"> T  </i>
   <i type="int" name="IBSE">     0</i>
   <v type="int" name="KPOINT">    -1     0     0     0</v>
   <i type="logical" name="LTCTE"> F  </i>
   <i type="logical" name="LTETE"> F  </i>
   <i type="logical" name="LTRIPLET"> F  </i>
   <i type="logical" name="LFXCEPS"> F  </i>
   <i type="logical" name="LFXHEG"> F  </i>
   <i type="int" name="NATURALO">     2</i>
   <i type="logical" name="L2ORDER"> F  </i>
   <i type="logical" name="LMP2LT"> F  </i>
   <i type="logical" name="LUSEW"> F  </i>
   <i name="ENCUTGW">     -2.00000000</i>
   <i name="ENCUTGWSOFT">     -2.00000000</i>
   <i name="ENCUTLF">     -1.00000000</i>
   <i type="int" name="LMAXMP2">    -1</i>
   <i name="SCISSOR">      0.00000000</i>
   <i type="int" name="NOMEGA">     0</i>
   <i type="int" name="NOMEGAR">     0</i>
   <i type="int" name="NBANDSGW">    -1</i>
   <i type="int" name="NBANDSO">    -1</i>
   <i type="int" name="NBANDSV">    -1</i>
   <i type="int" name="NELM">     1</i>
   <i type="int" name="NELMHF">     1</i>
   <i type="int" name="DIM">     3</i>
   <i type="int" name="ANTIRES">     0</i>
   <i name="OMEGAMAX">    -30.00000000</i>
   <i name="OMEGAMIN">    -30.00000000</i>
   <i name="OMEGATL">   -200.00000000</i>
   <i type="int" name="OMEGAGRID">   140</i>
   <i name="CSHIFT">     -0.10000000</i>
   <i type="logical" name="SELFENERGY"> F  </i>
   <i type="logical" name="LSPECTRAL"> F  </i>
   <i type="logical" name="LSPECTRALGW"> F  </i>
   <i type="logical" name="LSINGLES"> F  </i>
   <i type="logical" name="LFERMIGW"> F  </i>
   <i type="logical" name="ODDONLYGW"> F  </i>
   <i type="logical" name="EVENONLYGW"> F  </i>
   <i type="int" name="NKREDLFX">     1</i>
   <i type="int" name="NKREDLFY">     1</i>
   <i type="int" name="NKREDLFZ">     1</i>
   <i type="int" name="MAXMEM">  2800</i>
   <i type="int" name="TELESCOPE">     0</i>
   <i type="int" name="TAUPAR">     1</i>
   <i type="int" name="OMEGAPAR">    -1</i>
   <i name="LAMBDA">      1.00000000</i>
  </separator>
  <separator name="External order field" >
   <i name="OFIELD_KAPPA">      0.00000000</i>
   <v name="OFIELD_K">      0.00000000      0.00000000      0.00000000</v>
   <i name="OFIELD_Q6_NEAR">      0.00000000</i>
   <i name="OFIELD_Q6_FAR">      0.00000000</i>
   <i name="OFIELD_A">      0.00000000</i>
  </separator>
 </parameters>
 <atominfo>
  <atoms>      20 </atoms>
  <types>       3 </types>
  <array name="atoms" >
   <dimension dim="1">ion</dimension>
   <field type="string">element</field>
   <field type="int">atomtype</field>
   <set>
    <rc><c>O </c><c>   1</c></rc>
    <rc><c>O </c><c>   1</c></rc>
    <rc><c>O </c><c>   1</c></rc>
    <rc><c>O </c><c>   1</c></rc>
    <rc><c>O </c><c>   1</c></rc>
    <rc><c>O </c><c>   1</c></rc>
    <rc><c>O </c><c>   1</c></rc>
    <rc><c>O </c><c>   1</c></rc>
    <rc><c>O </c><c>   1</c></rc>
    <rc><c>O </c><c>   1</c></rc>
    <rc><c>O </c><c>   1</c></rc>
    <rc><c>O </c><c>   1</c></rc>
    <rc><c>Sr</c><c>   2</c></rc>
    <rc><c>Sr</c><c>   2</c></rc>
    <rc><c>Sr</c><c>   2</c></rc>
    <rc><c>Sr</c><c>   2</c></rc>
    <rc><c>Ti</c><c>   3</c></rc>
    <rc><c>Ti</c><c>   3</c></rc>
    <rc><c>Ti</c><c>   3</c></rc>
    <rc><c>Ti</c><c>   3</c></rc>
   </set>
  </array>
  <array name="atomtypes" >
   <dimension dim="1">type</dimension>
   <field type="int">atomspertype</field>
   <field type="string">element</field>
   <field>mass</field>
   <field>valence</field>
   <field type="string">pseudopotential</field>
   <set>
    <rc><c>  12</c><c>O </c><c>     16.00000000</c><c>      6.00000000</c><c> PAW_PBE O 08Apr2002                    </c></rc>
    <rc><c>   4</c><c>Sr</c><c>     87.62000000</c><c>     10.00000000</c><c> PAW_PBE Sr_sv 07Sep2000                </c></rc>
    <rc><c>   4</c><c>Ti</c><c>     47.88000000</c><c>      4.00000000</c><c> PAW_PBE Ti 08Apr2002                   </c></rc>
   </set>
  </array>
 </atominfo>
 <structure name="initialpos" >
  <crystal>
   <varray name="basis" >
    <v>       3.94684634       0.00000000       0.00000000 </v>
    <v>       0.00000000       3.94684634       0.00000000 </v>
    <v>       0.00000000       0.00000000      27.81396220 </v>
   </varray>
   <i name="volume">    433.27466748 </i>
   <varray name="rec_basis" >
    <v>       0.25336684       0.00000000       0.00000000 </v>
    <v>       0.00000000       0.25336684       0.00000000 </v>
    <v>       0.00000000       0.00000000       0.03595317 </v>
   </varray>
  </crystal>
  <varray name="positions" >
   <v>       0.50000000       0.50000000       0.25167216 </v>
   <v>       0.50000000       0.00000000       0.32262297 </v>
   <v>       0.00000000       0.50000000       0.32262297 </v>
   <v>       0.50000000       0.50000000       0.39357378 </v>
   <v>       0.50000000       0.00000000       0.46452459 </v>
   <v>       0.00000000       0.50000000       0.46452459 </v>
   <v>       0.50000000       0.50000000       0.53547541 </v>
   <v>       0.50000000       0.00000000       0.60642622 </v>
   <v>       0.00000000       0.50000000       0.60642622 </v>
   <v>       0.50000000       0.50000000       0.67737703 </v>
   <v>       0.50000000       0.00000000       0.74832784 </v>
   <v>       0.00000000       0.50000000       0.74832784 </v>
   <v>       0.00000000       0.00000000       0.25167216 </v>
   <v>       0.00000000       0.00000000       0.39357378 </v>
   <v>       0.00000000       0.00000000       0.53547541 </v>
   <v>       0.00000000       0.00000000       0.67737703 </v>
   <v>       0.50000000       0.50000000       0.32262297 </v>
   <v>       0.50000000       0.50000000       0.46452459 </v>
   <v>       0.50000000       0.50000000       0.60642622 </v>
   <v>       0.50000000       0.50000000       0.74832784 </v>
  </varray>
 </structure>
 <calculation>
  <scstep>
   <time name="dav">    6.36    6.36</time>
   <time name="total">    6.50    6.53</time>
   <energy>
    <i name="alphaZ">    407.77313441 </i>
    <i name="ewald">  34449.72902095 </i>
    <i name="hartreedc"> -42786.69698445 </i>
    <i name="XCdc">    325.52658572 </i>
    <i name="pawpsdc">   5334.45189010 </i>
    <i name="pawaedc">  -5139.13784255 </i>
    <i name="eentropy">      0.00000000 </i>
    <i name="bandstr">     64.99515799 </i>
    <i name="atom">   8937.26825017 </i>
    <i name="e_fr_energy">   1593.90921234 </i>
    <i name="e_wo_entrp">   1593.90921234 </i>
    <i name="e_0_energy">   1593.90921234 </i>
   </energy>
  </scstep>
  <scstep>
   <time name="dav">    7.42    7.42</time>
   <time name="total">    7.43    7.43</time>
   <energy>
    <i name="e_fr_energy">    183.34180337 </i>
    <i name="e_wo_entrp">    183.34180337 </i>
    <i name="e_0_energy">    183.34180337 </i>
   </energy>
  </scstep>
  <scstep>
   <time name="dav">    8.06    8.06</time>
   <time name="total">    8.06    8.06</time>
   <energy>
    <i name="e_fr_energy">   -175.76885333 </i>
    <i name="e_wo_entrp">   -175.76885333 </i>
    <i name="e_0_energy">   -175.76885333 </i>
   </energy>
  </scstep>
  <scstep>
   <time name="dav">    7.78    7.78</time>
   <time name="total">    7.79    7.79</time>
   <energy>
    <i name="e_fr_energy">   -200.84044397 </i>
    <i name="e_wo_entrp">   -200.84044397 </i>
    <i name="e_0_energy">   -200.84044397 </i>
   </energy>
  </scstep>
  <scstep>
   <time name="dav">   10.01   10.01</time>
   <time name="total">   10.26   10.26</time>
   <energy>
    <i name="e_fr_energy">   -202.30538715 </i>
    <i name="e_wo_entrp">   -202.30538715 </i>
    <i name="e_0_energy">   -202.30538715 </i>
   </energy>
  </scstep>
  <scstep>
   <time name="diag">    0.75    0.75</time>
   <time name="diis">    5.07    5.07</time>
   <time name="orth">    0.13    0.13</time>
   <time name="total">    6.37    6.37</time>
   <energy>
    <i name="e_fr_energy">   -161.76043312 </i>
    <i name="e_wo_entrp">   -161.76043312 </i>
    <i name="e_0_energy">   -161.76043312 </i>
   </energy>
  </scstep>
  <scstep>
   <time name="diag">    0.76    0.76</time>
   <time name="diis">    5.31    5.30</time>
   <time name="orth">    0.13    0.13</time>
   <time name="total">    6.60    6.60</time>
   <energy>
    <i name="e_fr_energy">   -157.74043374 </i>
    <i name="e_wo_entrp">   -157.74043374 </i>
    <i name="e_0_energy">   -157.74043374 </i>
   </energy>
  </scstep>
  <scstep>
   <time name="diag">    0.77    0.77</time>
   <time name="diis">    6.23    6.23</time>
   <time name="orth">    0.13    0.13</time>
   <time name="total">    7.53    7.54</time>
   <energy>
    <i name="e_fr_energy">   -156.98974947 </i>
    <i name="e_wo_entrp">   -156.98974947 </i>
    <i name="e_0_energy">   -156.98974947 </i>
   </energy>
  </scstep>
  <scstep>
   <time name="diag">    0.76    0.77</time>
   <time name="diis">    5.92    5.91</time>
   <time name="orth">    0.13    0.13</time>
   <time name="total">    7.21    7.21</time>
   <energy>
    <i name="e_fr_energy">   -156.73786001 </i>
    <i name="e_wo_entrp">   -156.73786001 </i>
    <i name="e_0_energy">   -156.73786001 </i>
   </energy>
  </scstep>
  <scstep>
   <time name="diag">    0.76    0.76</time>
   <time name="diis">    7.01    7.01</time>
   <time name="orth">    0.13    0.13</time>
   <time name="total">    8.30    8.30</time>
   <energy>
    <i name="e_fr_energy">   -156.69121684 </i>
    <i name="e_wo_entrp">   -156.69121684 </i>
    <i name="e_0_energy">   -156.69121684 </i>
   </energy>
  </scstep>
  <scstep>
   <time name="diag">    0.76    0.76</time>
   <time name="diis">    6.82    6.82</time>
   <time name="orth">    0.13    0.13</time>
   <time name="total">    8.11    8.11</time>
   <energy>
    <i name="e_fr_energy">   -156.66902023 </i>
    <i name="e_wo_entrp">   -156.66902023 </i>
    <i name="e_0_energy">   -156.66902023 </i>
   </energy>
  </scstep>
  <scstep>
   <time name="diag">    0.77    0.77</time>
   <time name="diis">    7.02    7.02</time>
   <time name="orth">    0.13    0.13</time>
   <time name="total">    8.33    8.33</time>
   <energy>
    <i name="e_fr_energy">   -156.66255967 </i>
    <i name="e_wo_entrp">   -156.66255967 </i>
    <i name="e_0_energy">   -156.66255967 </i>
   </energy>
  </scstep>
  <scstep>
   <time name="diag">    0.76    0.76</time>
   <time name="diis">    7.67    7.67</time>
   <time name="orth">    0.13    0.13</time>
   <time name="total">    8.97    8.97</time>
   <energy>
    <i name="e_fr_energy">   -156.65642385 </i>
    <i name="e_wo_entrp">   -156.65642385 </i>
    <i name="e_0_energy">   -156.65642385 </i>
   </energy>
  </scstep>
  <scstep>
   <time name="diag">    0.76    0.76</time>
   <time name="diis">    6.57    6.57</time>
   <time name="orth">    0.13    0.13</time>
   <time name="total">    7.87    7.88</time>
   <energy>
    <i name="e_fr_energy">   -156.65308750 </i>
    <i name="e_wo_entrp">   -156.65308750 </i>
    <i name="e_0_energy">   -156.65308750 </i>
   </energy>
  </scstep>
  <scstep>
   <time name="diag">    0.77    0.77</time>
   <time name="diis">    7.31    7.32</time>
   <time name="orth">    0.13    0.13</time>
   <time name="total">    8.62    8.62</time>
   <energy>
    <i name="e_fr_energy">   -156.65252981 </i>
    <i name="e_wo_entrp">   -156.65252981 </i>
    <i name="e_0_energy">   -156.65252981 </i>
   </energy>
  </scstep>
  <scstep>
   <time name="diag">    0.76    0.76</time>
   <time name="diis">    6.78    6.78</time>
   <time name="orth">    0.14    0.14</time>
   <time name="total">    8.09    8.09</time>
   <energy>
    <i name="e_fr_energy">   -156.65306508 </i>
    <i name="e_wo_entrp">   -156.65306508 </i>
    <i name="e_0_energy">   -156.65306508 </i>
   </energy>
  </scstep>
  <scstep>
   <time name="diag">    0.77    0.77</time>
   <time name="diis">    6.60    6.60</time>
   <time name="orth">    0.13    0.13</time>
   <time name="total">    7.91    7.91</time>
   <energy>
    <i name="e_fr_energy">   -156.65293023 </i>
    <i name="e_wo_entrp">   -156.65293023 </i>
    <i name="e_0_energy">   -156.65293023 </i>
   </energy>
  </scstep>
  <scstep>
   <time name="diag">    0.76    0.76</time>
   <time name="diis">    6.40    6.40</time>
   <time name="orth">    0.13    0.13</time>
   <time name="total">    7.69    7.69</time>
   <energy>
    <i name="e_fr_energy">   -156.65288671 </i>
    <i name="e_wo_entrp">   -156.65288671 </i>
    <i name="e_0_energy">   -156.65288671 </i>
   </energy>
  </scstep>
  <scstep>
   <time name="diag">    0.77    0.76</time>
   <time name="diis">    6.23    6.23</time>
   <time name="orth">    0.13    0.13</time>
   <time name="total">    7.51    7.52</time>
   <energy>
    <i name="e_fr_energy">   -156.65376754 </i>
    <i name="e_wo_entrp">   -156.65376754 </i>
    <i name="e_0_energy">   -156.65376754 </i>
   </energy>
  </scstep>
  <scstep>
   <time name="diag">    0.74    0.74</time>
   <time name="diis">    5.46    5.46</time>
   <time name="orth">    0.13    0.13</time>
   <time name="total">    6.73    6.74</time>
   <energy>
    <i name="e_fr_energy">   -156.65455546 </i>
    <i name="e_wo_entrp">   -156.65455546 </i>
    <i name="e_0_energy">   -156.65455546 </i>
   </energy>
  </scstep>
  <scstep>
   <time name="diag">    0.71    0.71</time>
   <time name="diis">    5.43    5.42</time>
   <time name="orth">    0.13    0.13</time>
   <time name="total">    6.66    6.67</time>
   <energy>
    <i name="e_fr_energy">   -156.65500591 </i>
    <i name="e_wo_entrp">   -156.65500591 </i>
    <i name="e_0_energy">   -156.65500591 </i>
   </energy>
  </scstep>
  <scstep>
   <time name="diag">    0.71    0.71</time>
   <time name="diis">    4.91    4.91</time>
   <time name="orth">    0.13    0.13</time>
   <time name="total">    6.17    6.17</time>
   <energy>
    <i name="e_fr_energy">   -156.65522963 </i>
    <i name="e_wo_entrp">   -156.65522963 </i>
    <i name="e_0_energy">   -156.65522963 </i>
   </energy>
  </scstep>
  <scstep>
   <time name="diag">    0.76    0.76</time>
   <time name="diis">    4.08    4.08</time>
   <time name="orth">    0.13    0.13</time>
   <time name="total">    5.39    5.39</time>
   <energy>
    <i name="e_fr_energy">   -156.65534872 </i>
    <i name="e_wo_entrp">   -156.65534872 </i>
    <i name="e_0_energy">   -156.65534872 </i>
   </energy>
  </scstep>
  <scstep>
   <time name="diag">    0.76    0.76</time>
   <time name="diis">    3.69    3.69</time>
   <time name="orth">    0.13    0.13</time>
   <time name="total">    4.99    4.99</time>
   <energy>
    <i name="e_fr_energy">   -156.65538313 </i>
    <i name="e_wo_entrp">   -156.65538313 </i>
    <i name="e_0_energy">   -156.65538313 </i>
   </energy>
  </scstep>
  <scstep>
   <time name="diag">    0.77    0.77</time>
   <time name="diis">    3.51    3.51</time>
   <time name="orth">    0.13    0.13</time>
   <time name="total">    4.82    4.83</time>
   <energy>
    <i name="e_fr_energy">   -156.65539694 </i>
    <i name="e_wo_entrp">   -156.65539694 </i>
    <i name="e_0_energy">   -156.65539694 </i>
   </energy>
  </scstep>
  <scstep>
   <time name="diag">    0.77    0.77</time>
   <time name="diis">    3.43    3.43</time>
   <time name="orth">    0.14    0.13</time>
   <time name="total">    4.48    4.48</time>
   <energy>
    <i name="alphaZ">    407.77313441 </i>
    <i name="ewald">  34449.72902095 </i>
    <i name="hartreedc"> -43226.83641437 </i>
    <i name="XCdc">    341.54606386 </i>
    <i name="pawpsdc">   6145.10306103 </i>
    <i name="pawaedc">  -5975.03692504 </i>
    <i name="eentropy">      0.00000000 </i>
    <i name="bandstr">  -1236.20159550 </i>
    <i name="atom">   8937.26825017 </i>
    <i name="e_fr_energy">   -156.65540448 </i>
    <i name="e_wo_entrp">   -156.65540448 </i>
    <i name="e_0_energy">   -156.65540448 </i>
   </energy>
  </scstep>
  <structure>
   <crystal>
    <varray name="basis" >
     <v>       3.94684634       0.00000000       0.00000000 </v>
     <v>       0.00000000       3.94684634       0.00000000 </v>
     <v>       0.00000000       0.00000000      27.81396220 </v>
    </varray>
    <i name="volume">    433.27466748 </i>
    <varray name="rec_basis" >
     <v>       0.25336684       0.00000000       0.00000000 </v>
     <v>       0.00000000       0.25336684       0.00000000 </v>
     <v>       0.00000000       0.00000000       0.03595317 </v>
    </varray>
   </crystal>
   <varray name="positions" >
    <v>       0.50000000       0.50000000       0.25167216 </v>
    <v>       0.50000000       0.00000000       0.32262297 </v>
    <v>       0.00000000       0.50000000       0.32262297 </v>
    <v>       0.50000000       0.50000000       0.39357378 </v>
    <v>       0.50000000       0.00000000       0.46452459 </v>
    <v>       0.00000000       0.50000000       0.46452459 </v>
    <v>       0.50000000       0.50000000       0.53547541 </v>
    <v>       0.50000000       0.00000000       0.60642622 </v>
    <v>       0.00000000       0.50000000       0.60642622 </v>
    <v>       0.50000000       0.50000000       0.67737703 </v>
    <v>       0.50000000       0.00000000       0.74832784 </v>
    <v>       0.00000000       0.50000000       0.74832784 </v>
    <v>       0.00000000       0.00000000       0.25167216 </v>
    <v>       0.00000000       0.00000000       0.39357378 </v>
    <v>       0.00000000       0.00000000       0.53547541 </v>
    <v>       0.00000000       0.00000000       0.67737703 </v>
    <v>       0.50000000       0.50000000       0.32262297 </v>
    <v>       0.50000000       0.50000000       0.46452459 </v>
    <v>       0.50000000       0.50000000       0.60642622 </v>
    <v>       0.50000000       0.50000000       0.74832784 </v>
   </varray>
  </structure>
  <varray name="forces" >
   <v>       0.00000000      -0.00000000      -0.69804644 </v>
   <v>       0.00000000      -0.00000000      -0.01981520 </v>
   <v>       0.00000000      -0.00000000      -0.01981520 </v>
   <v>       0.00000000       0.00000000       0.34140606 </v>
   <v>       0.00000000       0.00000000       0.05745075 </v>
   <v>       0.00000000      -0.00000000       0.05745075 </v>
   <v>       0.00000000      -0.00000000       0.26647065 </v>
   <v>       0.00000000      -0.00000000       0.01270262 </v>
   <v>      -0.00000000      -0.00000000       0.01270262 </v>
   <v>       0.00000000      -0.00000000       0.97313157 </v>
   <v>       0.00000000      -0.00000000       0.36989537 </v>
   <v>       0.00000000      -0.00000000       0.36989537 </v>
   <v>       0.00000000       0.00000000       1.36351281 </v>
   <v>       0.00000000       0.00000000       0.00678829 </v>
   <v>       0.00000000      -0.00000000      -0.04510335 </v>
   <v>       0.00000000      -0.00000000       0.64755708 </v>
   <v>       0.00000000       0.00000000      -0.95000548 </v>
   <v>       0.00000000       0.00000000      -0.26767527 </v>
   <v>       0.00000000       0.00000000      -0.32571181 </v>
   <v>       0.00000000      -0.00000000      -2.15279119 </v>
  </varray>
  <varray name="stress" >
   <v>     -21.11441446       0.00000000       0.00000000 </v>
   <v>       0.00000000     -21.11441446       0.00000000 </v>
   <v>      -0.00000000       0.00000000     -12.82881654 </v>
  </varray>
  <energy>
   <i name="e_fr_energy">   -156.65540448 </i>
   <i name="e_wo_entrp">   -156.65540448 </i>
   <i name="e_0_energy">      0.00000000 </i>
  </energy>
  <time name="totalsc">  197.37  197.93</time>
  <eigenvalues>
   <array>
    <dimension dim="1">band</dimension>
    <dimension dim="2">kpoint</dimension>
    <dimension dim="3">spin</dimension>
    <field>eigene</field>
    <field>occ</field>
    <set>
     <set comment="spin 1">
      <set comment="kpoint 1">
       <r>  -34.3412    1.0000 </r>
       <r>  -33.2935    1.0000 </r>
       <r>  -33.2238    1.0000 </r>
       <r>  -33.1428    1.0000 </r>
       <r>  -17.9786    1.0000 </r>
       <r>  -17.9170    1.0000 </r>
       <r>  -17.8135    1.0000 </r>
       <r>  -17.3239    1.0000 </r>
       <r>  -16.8678    1.0000 </r>
       <r>  -16.8433    1.0000 </r>
       <r>  -16.7928    1.0000 </r>
       <r>  -16.7871    1.0000 </r>
       <r>  -16.7585    1.0000 </r>
       <r>  -16.7285    1.0000 </r>
       <r>  -16.2659    1.0000 </r>
       <r>  -16.2548    1.0000 </r>
       <r>  -16.2543    1.0000 </r>
       <r>  -16.2543    1.0000 </r>
       <r>  -16.0022    1.0000 </r>
       <r>  -15.3377    1.0000 </r>
       <r>  -15.3377    1.0000 </r>
       <r>  -15.2620    1.0000 </r>
       <r>  -15.2620    1.0000 </r>
       <r>  -15.2027    1.0000 </r>
       <r>  -15.2027    1.0000 </r>
       <r>  -15.1928    1.0000 </r>
       <r>  -14.9198    1.0000 </r>
       <r>  -14.7743    1.0000 </r>
       <r>   -4.5633    1.0000 </r>
       <r>   -4.0487    1.0000 </r>
       <r>   -3.5367    1.0000 </r>
       <r>   -3.3492    1.0000 </r>
       <r>   -3.3492    1.0000 </r>
       <r>   -3.2660    1.0000 </r>
       <r>   -3.2660    1.0000 </r>
       <r>   -3.2211    1.0000 </r>
       <r>   -3.2211    1.0000 </r>
       <r>   -2.8950    1.0000 </r>
       <r>   -2.8651    1.0000 </r>
       <r>   -2.8651    1.0000 </r>
       <r>   -2.6143    1.0000 </r>
       <r>   -2.4987    1.0000 </r>
       <r>   -2.4987    1.0000 </r>
       <r>   -2.2596    1.0000 </r>
       <r>   -2.1783    1.0000 </r>
       <r>   -2.1229    1.0000 </r>
       <r>   -2.1229    1.0000 </r>
       <r>   -2.0304    1.0000 </r>
       <r>   -1.7922    1.0000 </r>
       <r>   -1.7922    1.0000 </r>
       <r>   -1.7250    1.0000 </r>
       <r>   -1.7184    1.0000 </r>
       <r>   -1.4595    1.0000 </r>
       <r>   -1.4595    1.0000 </r>
       <r>   -1.1863    1.0000 </r>
       <r>   -1.1448    1.0000 </r>
       <r>   -1.1448    1.0000 </r>
       <r>   -1.0668    1.0000 </r>
       <r>   -1.0128    1.0000 </r>
       <r>   -1.0128    1.0000 </r>
       <r>   -0.8033    1.0000 </r>
       <r>   -0.8033    1.0000 </r>
       <r>   -0.4456    1.0000 </r>
       <r>   -0.4456    1.0000 </r>
       <r>    1.1514    0.0000 </r>
       <r>    1.2549    0.0000 </r>
       <r>    1.2549    0.0000 </r>
       <r>    1.2714    0.0000 </r>
       <r>    1.3840    0.0000 </r>
       <r>    1.5385    0.0000 </r>
       <r>    1.7910    0.0000 </r>
       <r>    1.7922    0.0000 </r>
       <r>    1.8065    0.0000 </r>
       <r>    2.6149    0.0000 </r>
       <r>    4.9999    0.0000 </r>
       <r>    5.1487    0.0000 </r>
      </set>
      <set comment="kpoint 2">
       <r>  -34.3383    1.0000 </r>
       <r>  -33.2900    1.0000 </r>
       <r>  -33.2204    1.0000 </r>
       <r>  -33.1393    1.0000 </r>
       <r>  -17.9015    1.0000 </r>
       <r>  -17.8618    1.0000 </r>
       <r>  -17.7956    1.0000 </r>
       <r>  -17.3229    1.0000 </r>
       <r>  -16.8957    1.0000 </r>
       <r>  -16.8688    1.0000 </r>
       <r>  -16.8487    1.0000 </r>
       <r>  -16.7795    1.0000 </r>
       <r>  -16.7652    1.0000 </r>
       <r>  -16.7511    1.0000 </r>
       <r>  -16.4980    1.0000 </r>
       <r>  -16.2511    1.0000 </r>
       <r>  -16.2474    1.0000 </r>
       <r>  -16.2359    1.0000 </r>
       <r>  -15.7350    1.0000 </r>
       <r>  -15.3292    1.0000 </r>
       <r>  -15.2534    1.0000 </r>
       <r>  -15.2399    1.0000 </r>
       <r>  -15.2121    1.0000 </r>
       <r>  -15.1939    1.0000 </r>
       <r>  -15.1503    1.0000 </r>
       <r>  -15.1058    1.0000 </r>
       <r>  -14.9393    1.0000 </r>
       <r>  -14.8051    1.0000 </r>
       <r>   -4.5754    1.0000 </r>
       <r>   -4.0927    1.0000 </r>
       <r>   -3.6895    1.0000 </r>
       <r>   -3.6070    1.0000 </r>
       <r>   -3.5651    1.0000 </r>
       <r>   -3.4588    1.0000 </r>
       <r>   -3.3688    1.0000 </r>
       <r>   -3.3530    1.0000 </r>
       <r>   -3.2694    1.0000 </r>
       <r>   -3.2186    1.0000 </r>
       <r>   -3.1478    1.0000 </r>
       <r>   -2.9244    1.0000 </r>
       <r>   -2.8463    1.0000 </r>
       <r>   -2.6304    1.0000 </r>
       <r>   -2.5768    1.0000 </r>
       <r>   -2.3816    1.0000 </r>
       <r>   -2.3532    1.0000 </r>
       <r>   -2.2100    1.0000 </r>
       <r>   -2.0650    1.0000 </r>
       <r>   -1.9399    1.0000 </r>
       <r>   -1.8590    1.0000 </r>
       <r>   -1.7328    1.0000 </r>
       <r>   -1.7135    1.0000 </r>
       <r>   -1.6354    1.0000 </r>
       <r>   -1.5983    1.0000 </r>
       <r>   -1.5401    1.0000 </r>
       <r>   -1.4687    1.0000 </r>
       <r>   -1.3961    1.0000 </r>
       <r>   -1.3595    1.0000 </r>
       <r>   -1.3309    1.0000 </r>
       <r>   -1.2137    1.0000 </r>
       <r>   -1.2024    1.0000 </r>
       <r>   -0.9361    1.0000 </r>
       <r>   -0.9255    1.0000 </r>
       <r>   -0.8146    1.0000 </r>
       <r>   -0.7527    1.0000 </r>
       <r>    1.2708    0.0000 </r>
       <r>    1.5578    0.0000 </r>
       <r>    1.6088    0.0000 </r>
       <r>    1.6727    0.0000 </r>
       <r>    1.7649    0.0000 </r>
       <r>    1.8181    0.0000 </r>
       <r>    1.9072    0.0000 </r>
       <r>    1.9563    0.0000 </r>
       <r>    2.0364    0.0000 </r>
       <r>    2.4682    0.0000 </r>
       <r>    5.3487    0.0000 </r>
       <r>    5.7082    0.0000 </r>
      </set>
      <set comment="kpoint 3">
       <r>  -34.3317    1.0000 </r>
       <r>  -33.2822    1.0000 </r>
       <r>  -33.2126    1.0000 </r>
       <r>  -33.1315    1.0000 </r>
       <r>  -17.8691    1.0000 </r>
       <r>  -17.7589    1.0000 </r>
       <r>  -17.6693    1.0000 </r>
       <r>  -17.3230    1.0000 </r>
       <r>  -17.0321    1.0000 </r>
       <r>  -16.9399    1.0000 </r>
       <r>  -16.9024    1.0000 </r>
       <r>  -16.8420    1.0000 </r>
       <r>  -16.7570    1.0000 </r>
       <r>  -16.6472    1.0000 </r>
       <r>  -16.5853    1.0000 </r>
       <r>  -16.2329    1.0000 </r>
       <r>  -16.2319    1.0000 </r>
       <r>  -16.2255    1.0000 </r>
       <r>  -15.4316    1.0000 </r>
       <r>  -15.3102    1.0000 </r>
       <r>  -15.2339    1.0000 </r>
       <r>  -15.2061    1.0000 </r>
       <r>  -15.1739    1.0000 </r>
       <r>  -15.0719    1.0000 </r>
       <r>  -14.9860    1.0000 </r>
       <r>  -14.9511    1.0000 </r>
       <r>  -14.9302    1.0000 </r>
       <r>  -14.8556    1.0000 </r>
       <r>   -4.6172    1.0000 </r>
       <r>   -4.4249    1.0000 </r>
       <r>   -4.1994    1.0000 </r>
       <r>   -4.1807    1.0000 </r>
       <r>   -4.0544    1.0000 </r>
       <r>   -3.9295    1.0000 </r>
       <r>   -3.8484    1.0000 </r>
       <r>   -3.5765    1.0000 </r>
       <r>   -3.4879    1.0000 </r>
       <r>   -3.3524    1.0000 </r>
       <r>   -3.2718    1.0000 </r>
       <r>   -3.2049    1.0000 </r>
       <r>   -3.2007    1.0000 </r>
       <r>   -3.0670    1.0000 </r>
       <r>   -2.7817    1.0000 </r>
       <r>   -2.6524    1.0000 </r>
       <r>   -2.5209    1.0000 </r>
       <r>   -2.4874    1.0000 </r>
       <r>   -2.2095    1.0000 </r>
       <r>   -2.1976    1.0000 </r>
       <r>   -2.1529    1.0000 </r>
       <r>   -2.1370    1.0000 </r>
       <r>   -2.0833    1.0000 </r>
       <r>   -1.9762    1.0000 </r>
       <r>   -1.8293    1.0000 </r>
       <r>   -1.7913    1.0000 </r>
       <r>   -1.7413    1.0000 </r>
       <r>   -1.6051    1.0000 </r>
       <r>   -1.5015    1.0000 </r>
       <r>   -1.3630    1.0000 </r>
       <r>   -1.2172    1.0000 </r>
       <r>   -1.2159    1.0000 </r>
       <r>   -1.0938    1.0000 </r>
       <r>   -1.0807    1.0000 </r>
       <r>   -1.0025    1.0000 </r>
       <r>   -0.8435    1.0000 </r>
       <r>    1.3141    0.0000 </r>
       <r>    1.8284    0.0000 </r>
       <r>    2.3070    0.0000 </r>
       <r>    2.3096    0.0000 </r>
       <r>    2.3606    0.0000 </r>
       <r>    2.3928    0.0000 </r>
       <r>    2.4403    0.0000 </r>
       <r>    2.5060    0.0000 </r>
       <r>    2.5670    0.0000 </r>
       <r>    2.7434    0.0000 </r>
       <r>    2.8225    0.0000 </r>
       <r>    6.2965    0.0000 </r>
      </set>
      <set comment="kpoint 4">
       <r>  -34.3264    1.0000 </r>
       <r>  -33.2759    1.0000 </r>
       <r>  -33.2064    1.0000 </r>
       <r>  -33.1252    1.0000 </r>
       <r>  -17.9360    1.0000 </r>
       <r>  -17.7551    1.0000 </r>
       <r>  -17.5247    1.0000 </r>
       <r>  -17.2386    1.0000 </r>
       <r>  -17.0976    1.0000 </r>
       <r>  -17.0246    1.0000 </r>
       <r>  -16.9035    1.0000 </r>
       <r>  -16.8293    1.0000 </r>
       <r>  -16.7765    1.0000 </r>
       <r>  -16.6171    1.0000 </r>
       <r>  -16.5363    1.0000 </r>
       <r>  -16.2194    1.0000 </r>
       <r>  -16.2168    1.0000 </r>
       <r>  -16.1858    1.0000 </r>
       <r>  -15.2948    1.0000 </r>
       <r>  -15.2619    1.0000 </r>
       <r>  -15.2182    1.0000 </r>
       <r>  -15.2002    1.0000 </r>
       <r>  -15.1577    1.0000 </r>
       <r>  -15.0131    1.0000 </r>
       <r>  -14.9479    1.0000 </r>
       <r>  -14.8786    1.0000 </r>
       <r>  -14.8362    1.0000 </r>
       <r>  -14.7954    1.0000 </r>
       <r>   -4.8013    1.0000 </r>
       <r>   -4.7774    1.0000 </r>
       <r>   -4.6666    1.0000 </r>
       <r>   -4.5822    1.0000 </r>
       <r>   -4.4723    1.0000 </r>
       <r>   -4.3626    1.0000 </r>
       <r>   -4.2235    1.0000 </r>
       <r>   -3.9695    1.0000 </r>
       <r>   -3.7254    1.0000 </r>
       <r>   -3.4471    1.0000 </r>
       <r>   -3.3230    1.0000 </r>
       <r>   -3.2733    1.0000 </r>
       <r>   -3.1884    1.0000 </r>
       <r>   -3.1524    1.0000 </r>
       <r>   -2.9899    1.0000 </r>
       <r>   -2.9675    1.0000 </r>
       <r>   -2.7831    1.0000 </r>
       <r>   -2.6924    1.0000 </r>
       <r>   -2.5434    1.0000 </r>
       <r>   -2.4851    1.0000 </r>
       <r>   -2.3208    1.0000 </r>
       <r>   -2.1912    1.0000 </r>
       <r>   -2.0904    1.0000 </r>
       <r>   -2.0391    1.0000 </r>
       <r>   -2.0254    1.0000 </r>
       <r>   -1.9858    1.0000 </r>
       <r>   -1.7361    1.0000 </r>
       <r>   -1.7095    1.0000 </r>
       <r>   -1.6019    1.0000 </r>
       <r>   -1.4723    1.0000 </r>
       <r>   -1.4351    1.0000 </r>
       <r>   -1.3224    1.0000 </r>
       <r>   -1.1854    1.0000 </r>
       <r>   -1.1502    1.0000 </r>
       <r>   -0.8949    1.0000 </r>
       <r>   -0.6462    1.0000 </r>
       <r>    1.3501    0.0000 </r>
       <r>    1.8586    0.0000 </r>
       <r>    2.3997    0.0000 </r>
       <r>    2.8236    0.0000 </r>
       <r>    2.8483    0.0000 </r>
       <r>    2.8763    0.0000 </r>
       <r>    2.9307    0.0000 </r>
       <r>    2.9912    0.0000 </r>
       <r>    3.0246    0.0000 </r>
       <r>    3.1518    0.0000 </r>
       <r>    3.2208    0.0000 </r>
       <r>    6.9489    0.0000 </r>
      </set>
      <set comment="kpoint 5">
       <r>  -34.3354    1.0000 </r>
       <r>  -33.2866    1.0000 </r>
       <r>  -33.2170    1.0000 </r>
       <r>  -33.1359    1.0000 </r>
       <r>  -17.8397    1.0000 </r>
       <r>  -17.7975    1.0000 </r>
       <r>  -17.7546    1.0000 </r>
       <r>  -17.3045    1.0000 </r>
       <r>  -16.8951    1.0000 </r>
       <r>  -16.8878    1.0000 </r>
       <r>  -16.8384    1.0000 </r>
       <r>  -16.8323    1.0000 </r>
       <r>  -16.7765    1.0000 </r>
       <r>  -16.7157    1.0000 </r>
       <r>  -16.6216    1.0000 </r>
       <r>  -16.2525    1.0000 </r>
       <r>  -16.2350    1.0000 </r>
       <r>  -16.2217    1.0000 </r>
       <r>  -15.6286    1.0000 </r>
       <r>  -15.3288    1.0000 </r>
       <r>  -15.2417    1.0000 </r>
       <r>  -15.2267    1.0000 </r>
       <r>  -15.1893    1.0000 </r>
       <r>  -15.1752    1.0000 </r>
       <r>  -15.0824    1.0000 </r>
       <r>  -15.0505    1.0000 </r>
       <r>  -14.9550    1.0000 </r>
       <r>  -14.8399    1.0000 </r>
       <r>   -4.5853    1.0000 </r>
       <r>   -4.1476    1.0000 </r>
       <r>   -3.8403    1.0000 </r>
       <r>   -3.7362    1.0000 </r>
       <r>   -3.6862    1.0000 </r>
       <r>   -3.5419    1.0000 </r>
       <r>   -3.4578    1.0000 </r>
       <r>   -3.4158    1.0000 </r>
       <r>   -3.3914    1.0000 </r>
       <r>   -3.3538    1.0000 </r>
       <r>   -3.2455    1.0000 </r>
       <r>   -3.2185    1.0000 </r>
       <r>   -3.0001    1.0000 </r>
       <r>   -2.8902    1.0000 </r>
       <r>   -2.7162    1.0000 </r>
       <r>   -2.6172    1.0000 </r>
       <r>   -2.4066    1.0000 </r>
       <r>   -2.3989    1.0000 </r>
       <r>   -2.2065    1.0000 </r>
       <r>   -2.1501    1.0000 </r>
       <r>   -2.0447    1.0000 </r>
       <r>   -1.9234    1.0000 </r>
       <r>   -1.7784    1.0000 </r>
       <r>   -1.6769    1.0000 </r>
       <r>   -1.5497    1.0000 </r>
       <r>   -1.5091    1.0000 </r>
       <r>   -1.4642    1.0000 </r>
       <r>   -1.4598    1.0000 </r>
       <r>   -1.4328    1.0000 </r>
       <r>   -1.3845    1.0000 </r>
       <r>   -1.3783    1.0000 </r>
       <r>   -1.2787    1.0000 </r>
       <r>   -1.1720    1.0000 </r>
       <r>   -1.0927    1.0000 </r>
       <r>   -0.9684    1.0000 </r>
       <r>   -0.6343    1.0000 </r>
       <r>    1.5442    0.0000 </r>
       <r>    1.7004    0.0000 </r>
       <r>    1.8056    0.0000 </r>
       <r>    1.9183    0.0000 </r>
       <r>    1.9354    0.0000 </r>
       <r>    2.0293    0.0000 </r>
       <r>    2.0362    0.0000 </r>
       <r>    2.1564    0.0000 </r>
       <r>    2.2101    0.0000 </r>
       <r>    2.5495    0.0000 </r>
       <r>    2.6478    0.0000 </r>
       <r>    5.6339    0.0000 </r>
      </set>
      <set comment="kpoint 6">
       <r>  -34.3289    1.0000 </r>
       <r>  -33.2789    1.0000 </r>
       <r>  -33.2094    1.0000 </r>
       <r>  -33.1282    1.0000 </r>
       <r>  -17.8039    1.0000 </r>
       <r>  -17.6894    1.0000 </r>
       <r>  -17.5884    1.0000 </r>
       <r>  -17.2696    1.0000 </r>
       <r>  -16.9889    1.0000 </r>
       <r>  -16.9260    1.0000 </r>
       <r>  -16.8739    1.0000 </r>
       <r>  -16.8625    1.0000 </r>
       <r>  -16.7736    1.0000 </r>
       <r>  -16.6465    1.0000 </r>
       <r>  -16.5962    1.0000 </r>
       <r>  -16.2771    1.0000 </r>
       <r>  -16.2413    1.0000 </r>
       <r>  -16.1745    1.0000 </r>
       <r>  -15.4543    1.0000 </r>
       <r>  -15.3270    1.0000 </r>
       <r>  -15.2580    1.0000 </r>
       <r>  -15.2064    1.0000 </r>
       <r>  -15.1410    1.0000 </r>
       <r>  -15.1025    1.0000 </r>
       <r>  -15.0058    1.0000 </r>
       <r>  -14.9529    1.0000 </r>
       <r>  -14.9332    1.0000 </r>
       <r>  -14.8956    1.0000 </r>
       <r>   -4.6198    1.0000 </r>
       <r>   -4.4063    1.0000 </r>
       <r>   -4.2253    1.0000 </r>
       <r>   -4.2089    1.0000 </r>
       <r>   -4.0545    1.0000 </r>
       <r>   -3.9192    1.0000 </r>
       <r>   -3.8299    1.0000 </r>
       <r>   -3.6048    1.0000 </r>
       <r>   -3.5607    1.0000 </r>
       <r>   -3.5258    1.0000 </r>
       <r>   -3.4862    1.0000 </r>
       <r>   -3.4383    1.0000 </r>
       <r>   -3.3455    1.0000 </r>
       <r>   -3.1946    1.0000 </r>
       <r>   -3.1086    1.0000 </r>
       <r>   -3.0309    1.0000 </r>
       <r>   -2.8641    1.0000 </r>
       <r>   -2.7198    1.0000 </r>
       <r>   -2.6289    1.0000 </r>
       <r>   -2.5668    1.0000 </r>
       <r>   -2.4198    1.0000 </r>
       <r>   -2.1888    1.0000 </r>
       <r>   -2.0200    1.0000 </r>
       <r>   -1.9132    1.0000 </r>
       <r>   -1.7291    1.0000 </r>
       <r>   -1.6285    1.0000 </r>
       <r>   -1.5905    1.0000 </r>
       <r>   -1.5232    1.0000 </r>
       <r>   -1.4728    1.0000 </r>
       <r>   -1.4661    1.0000 </r>
       <r>   -1.3881    1.0000 </r>
       <r>   -1.1988    1.0000 </r>
       <r>   -1.0970    1.0000 </r>
       <r>   -1.0133    1.0000 </r>
       <r>   -0.8599    1.0000 </r>
       <r>   -0.7104    1.0000 </r>
       <r>    1.6420    0.0000 </r>
       <r>    2.0370    0.0000 </r>
       <r>    2.3344    0.0000 </r>
       <r>    2.4052    0.0000 </r>
       <r>    2.4668    0.0000 </r>
       <r>    2.5145    0.0000 </r>
       <r>    2.5385    0.0000 </r>
       <r>    2.6087    0.0000 </r>
       <r>    2.7622    0.0000 </r>
       <r>    2.8957    0.0000 </r>
       <r>    2.9090    0.0000 </r>
       <r>    6.8217    0.0000 </r>
      </set>
      <set comment="kpoint 7">
       <r>  -34.3237    1.0000 </r>
       <r>  -33.2728    1.0000 </r>
       <r>  -33.2033    1.0000 </r>
       <r>  -33.1220    1.0000 </r>
       <r>  -17.8441    1.0000 </r>
       <r>  -17.6656    1.0000 </r>
       <r>  -17.4422    1.0000 </r>
       <r>  -17.1690    1.0000 </r>
       <r>  -17.0593    1.0000 </r>
       <r>  -16.9818    1.0000 </r>
       <r>  -16.8710    1.0000 </r>
       <r>  -16.8386    1.0000 </r>
       <r>  -16.7728    1.0000 </r>
       <r>  -16.5841    1.0000 </r>
       <r>  -16.4778    1.0000 </r>
       <r>  -16.3361    1.0000 </r>
       <r>  -16.2346    1.0000 </r>
       <r>  -16.1292    1.0000 </r>
       <r>  -15.3502    1.0000 </r>
       <r>  -15.3261    1.0000 </r>
       <r>  -15.2875    1.0000 </r>
       <r>  -15.1789    1.0000 </r>
       <r>  -15.1065    1.0000 </r>
       <r>  -15.0539    1.0000 </r>
       <r>  -15.0141    1.0000 </r>
       <r>  -14.9296    1.0000 </r>
       <r>  -14.8910    1.0000 </r>
       <r>  -14.8393    1.0000 </r>
       <r>   -4.7936    1.0000 </r>
       <r>   -4.6922    1.0000 </r>
       <r>   -4.6378    1.0000 </r>
       <r>   -4.5832    1.0000 </r>
       <r>   -4.4651    1.0000 </r>
       <r>   -4.3021    1.0000 </r>
       <r>   -4.2024    1.0000 </r>
       <r>   -3.9685    1.0000 </r>
       <r>   -3.7990    1.0000 </r>
       <r>   -3.6396    1.0000 </r>
       <r>   -3.5345    1.0000 </r>
       <r>   -3.4906    1.0000 </r>
       <r>   -3.4702    1.0000 </r>
       <r>   -3.4165    1.0000 </r>
       <r>   -3.3815    1.0000 </r>
       <r>   -3.3081    1.0000 </r>
       <r>   -3.0147    1.0000 </r>
       <r>   -2.8987    1.0000 </r>
       <r>   -2.7756    1.0000 </r>
       <r>   -2.7193    1.0000 </r>
       <r>   -2.5685    1.0000 </r>
       <r>   -2.2818    1.0000 </r>
       <r>   -2.0651    1.0000 </r>
       <r>   -2.0578    1.0000 </r>
       <r>   -1.7691    1.0000 </r>
       <r>   -1.6957    1.0000 </r>
       <r>   -1.6410    1.0000 </r>
       <r>   -1.6176    1.0000 </r>
       <r>   -1.5914    1.0000 </r>
       <r>   -1.4782    1.0000 </r>
       <r>   -1.4461    1.0000 </r>
       <r>   -1.3344    1.0000 </r>
       <r>   -1.1541    1.0000 </r>
       <r>   -0.9427    1.0000 </r>
       <r>   -0.7832    1.0000 </r>
       <r>   -0.6328    1.0000 </r>
       <r>    1.6774    0.0000 </r>
       <r>    2.0854    0.0000 </r>
       <r>    2.5333    0.0000 </r>
       <r>    2.8783    0.0000 </r>
       <r>    2.8840    0.0000 </r>
       <r>    2.9401    0.0000 </r>
       <r>    2.9860    0.0000 </r>
       <r>    3.0101    0.0000 </r>
       <r>    3.0638    0.0000 </r>
       <r>    3.1450    0.0000 </r>
       <r>    3.2552    0.0000 </r>
       <r>    7.1838    0.0000 </r>
      </set>
      <set comment="kpoint 8">
       <r>  -34.3227    1.0000 </r>
       <r>  -33.2716    1.0000 </r>
       <r>  -33.2022    1.0000 </r>
       <r>  -33.1209    1.0000 </r>
       <r>  -17.6722    1.0000 </r>
       <r>  -17.5373    1.0000 </r>
       <r>  -17.3961    1.0000 </r>
       <r>  -17.1440    1.0000 </r>
       <r>  -16.9876    1.0000 </r>
       <r>  -16.9312    1.0000 </r>
       <r>  -16.8646    1.0000 </r>
       <r>  -16.7881    1.0000 </r>
       <r>  -16.7758    1.0000 </r>
       <r>  -16.7095    1.0000 </r>
       <r>  -16.4709    1.0000 </r>
       <r>  -16.2633    1.0000 </r>
       <r>  -16.2411    1.0000 </r>
       <r>  -16.1774    1.0000 </r>
       <r>  -15.5151    1.0000 </r>
       <r>  -15.3671    1.0000 </r>
       <r>  -15.2864    1.0000 </r>
       <r>  -15.2170    1.0000 </r>
       <r>  -15.1692    1.0000 </r>
       <r>  -15.0876    1.0000 </r>
       <r>  -15.0741    1.0000 </r>
       <r>  -14.9867    1.0000 </r>
       <r>  -14.9491    1.0000 </r>
       <r>  -14.9363    1.0000 </r>
       <r>   -4.6351    1.0000 </r>
       <r>   -4.4706    1.0000 </r>
       <r>   -4.3604    1.0000 </r>
       <r>   -4.3089    1.0000 </r>
       <r>   -4.0807    1.0000 </r>
       <r>   -3.9973    1.0000 </r>
       <r>   -3.9086    1.0000 </r>
       <r>   -3.8871    1.0000 </r>
       <r>   -3.8578    1.0000 </r>
       <r>   -3.7966    1.0000 </r>
       <r>   -3.7922    1.0000 </r>
       <r>   -3.7471    1.0000 </r>
       <r>   -3.6354    1.0000 </r>
       <r>   -3.5737    1.0000 </r>
       <r>   -3.5322    1.0000 </r>
       <r>   -3.4825    1.0000 </r>
       <r>   -3.4333    1.0000 </r>
       <r>   -3.4264    1.0000 </r>
       <r>   -3.0926    1.0000 </r>
       <r>   -3.0741    1.0000 </r>
       <r>   -2.8845    1.0000 </r>
       <r>   -2.5668    1.0000 </r>
       <r>   -2.4556    1.0000 </r>
       <r>   -1.9883    1.0000 </r>
       <r>   -1.8225    1.0000 </r>
       <r>   -1.6069    1.0000 </r>
       <r>   -1.3571    1.0000 </r>
       <r>   -1.3161    1.0000 </r>
       <r>   -1.2202    1.0000 </r>
       <r>   -1.1877    1.0000 </r>
       <r>   -1.1080    1.0000 </r>
       <r>   -1.0679    1.0000 </r>
       <r>   -0.9947    1.0000 </r>
       <r>   -0.9243    1.0000 </r>
       <r>   -0.8002    1.0000 </r>
       <r>   -0.3184    1.0000 </r>
       <r>    2.2143    0.0000 </r>
       <r>    2.4489    0.0000 </r>
       <r>    2.5173    0.0000 </r>
       <r>    2.6333    0.0000 </r>
       <r>    2.7227    0.0000 </r>
       <r>    2.7796    0.0000 </r>
       <r>    2.8387    0.0000 </r>
       <r>    2.8596    0.0000 </r>
       <r>    2.9389    0.0000 </r>
       <r>    3.0900    0.0000 </r>
       <r>    3.1248    0.0000 </r>
       <r>    3.1450    0.0000 </r>
      </set>
      <set comment="kpoint 9">
       <r>  -34.3176    1.0000 </r>
       <r>  -33.2658    1.0000 </r>
       <r>  -33.1964    1.0000 </r>
       <r>  -33.1150    1.0000 </r>
       <r>  -17.6047    1.0000 </r>
       <r>  -17.4347    1.0000 </r>
       <r>  -17.2360    1.0000 </r>
       <r>  -17.0258    1.0000 </r>
       <r>  -16.9924    1.0000 </r>
       <r>  -16.9533    1.0000 </r>
       <r>  -16.8461    1.0000 </r>
       <r>  -16.8106    1.0000 </r>
       <r>  -16.7328    1.0000 </r>
       <r>  -16.5563    1.0000 </r>
       <r>  -16.3670    1.0000 </r>
       <r>  -16.3497    1.0000 </r>
       <r>  -16.2448    1.0000 </r>
       <r>  -16.1372    1.0000 </r>
       <r>  -15.5771    1.0000 </r>
       <r>  -15.4019    1.0000 </r>
       <r>  -15.3484    1.0000 </r>
       <r>  -15.2405    1.0000 </r>
       <r>  -15.1720    1.0000 </r>
       <r>  -15.1205    1.0000 </r>
       <r>  -15.0498    1.0000 </r>
       <r>  -15.0354    1.0000 </r>
       <r>  -14.9901    1.0000 </r>
       <r>  -14.9216    1.0000 </r>
       <r>   -4.7981    1.0000 </r>
       <r>   -4.7044    1.0000 </r>
       <r>   -4.6203    1.0000 </r>
       <r>   -4.4659    1.0000 </r>
       <r>   -4.3778    1.0000 </r>
       <r>   -4.3465    1.0000 </r>
       <r>   -4.2864    1.0000 </r>
       <r>   -4.1878    1.0000 </r>
       <r>   -4.0688    1.0000 </r>
       <r>   -4.0392    1.0000 </r>
       <r>   -3.9528    1.0000 </r>
       <r>   -3.9387    1.0000 </r>
       <r>   -3.8582    1.0000 </r>
       <r>   -3.7949    1.0000 </r>
       <r>   -3.7690    1.0000 </r>
       <r>   -3.6023    1.0000 </r>
       <r>   -3.4775    1.0000 </r>
       <r>   -3.4309    1.0000 </r>
       <r>   -3.3345    1.0000 </r>
       <r>   -3.2922    1.0000 </r>
       <r>   -2.9870    1.0000 </r>
       <r>   -2.8558    1.0000 </r>
       <r>   -2.4854    1.0000 </r>
       <r>   -1.9211    1.0000 </r>
       <r>   -1.8325    1.0000 </r>
       <r>   -1.6931    1.0000 </r>
       <r>   -1.3777    1.0000 </r>
       <r>   -1.3194    1.0000 </r>
       <r>   -1.1152    1.0000 </r>
       <r>   -1.0454    1.0000 </r>
       <r>   -0.9753    1.0000 </r>
       <r>   -0.9728    1.0000 </r>
       <r>   -0.9542    1.0000 </r>
       <r>   -0.8356    1.0000 </r>
       <r>   -0.6164    1.0000 </r>
       <r>   -0.1610    1.0000 </r>
       <r>    2.3343    0.0000 </r>
       <r>    2.6142    0.0000 </r>
       <r>    2.8816    0.0000 </r>
       <r>    2.9028    0.0000 </r>
       <r>    3.0391    0.0000 </r>
       <r>    3.0734    0.0000 </r>
       <r>    3.1772    0.0000 </r>
       <r>    3.1869    0.0000 </r>
       <r>    3.2017    0.0000 </r>
       <r>    3.2845    0.0000 </r>
       <r>    3.3521    0.0000 </r>
       <r>    3.4210    0.0000 </r>
      </set>
      <set comment="kpoint 10">
       <r>  -34.3128    1.0000 </r>
       <r>  -33.2601    1.0000 </r>
       <r>  -33.1908    1.0000 </r>
       <r>  -33.1094    1.0000 </r>
       <r>  -17.3376    1.0000 </r>
       <r>  -17.1837    1.0000 </r>
       <r>  -17.0662    1.0000 </r>
       <r>  -17.0314    1.0000 </r>
       <r>  -16.9855    1.0000 </r>
       <r>  -16.9123    1.0000 </r>
       <r>  -16.7945    1.0000 </r>
       <r>  -16.7746    1.0000 </r>
       <r>  -16.7323    1.0000 </r>
       <r>  -16.5423    1.0000 </r>
       <r>  -16.2639    1.0000 </r>
       <r>  -16.2557    1.0000 </r>
       <r>  -16.2290    1.0000 </r>
       <r>  -16.1559    1.0000 </r>
       <r>  -15.8425    1.0000 </r>
       <r>  -15.4469    1.0000 </r>
       <r>  -15.3945    1.0000 </r>
       <r>  -15.3912    1.0000 </r>
       <r>  -15.2690    1.0000 </r>
       <r>  -15.1764    1.0000 </r>
       <r>  -15.1148    1.0000 </r>
       <r>  -15.0650    1.0000 </r>
       <r>  -14.9787    1.0000 </r>
       <r>  -14.9611    1.0000 </r>
       <r>   -4.9139    1.0000 </r>
       <r>   -4.8266    1.0000 </r>
       <r>   -4.7582    1.0000 </r>
       <r>   -4.7227    1.0000 </r>
       <r>   -4.5462    1.0000 </r>
       <r>   -4.5169    1.0000 </r>
       <r>   -4.4647    1.0000 </r>
       <r>   -4.4526    1.0000 </r>
       <r>   -4.3900    1.0000 </r>
       <r>   -4.3240    1.0000 </r>
       <r>   -4.2139    1.0000 </r>
       <r>   -4.1213    1.0000 </r>
       <r>   -4.0903    1.0000 </r>
       <r>   -4.0303    1.0000 </r>
       <r>   -3.8409    1.0000 </r>
       <r>   -3.7813    1.0000 </r>
       <r>   -3.7810    1.0000 </r>
       <r>   -3.6466    1.0000 </r>
       <r>   -3.4589    1.0000 </r>
       <r>   -3.4218    1.0000 </r>
       <r>   -3.0649    1.0000 </r>
       <r>   -2.9446    1.0000 </r>
       <r>   -2.7619    1.0000 </r>
       <r>   -1.7929    1.0000 </r>
       <r>   -1.7708    1.0000 </r>
       <r>   -1.7259    1.0000 </r>
       <r>   -1.3249    1.0000 </r>
       <r>   -1.2836    1.0000 </r>
       <r>   -0.9284    1.0000 </r>
       <r>   -0.8886    1.0000 </r>
       <r>   -0.6699    1.0000 </r>
       <r>   -0.6524    1.0000 </r>
       <r>   -0.6322    1.0000 </r>
       <r>   -0.5797    1.0000 </r>
       <r>   -0.5642    1.0000 </r>
       <r>    0.1689    1.0000 </r>
       <r>    2.8684    0.0000 </r>
       <r>    2.9193    0.0000 </r>
       <r>    3.0843    0.0000 </r>
       <r>    3.1154    0.0000 </r>
       <r>    3.2951    0.0000 </r>
       <r>    3.3205    0.0000 </r>
       <r>    3.3975    0.0000 </r>
       <r>    3.4528    0.0000 </r>
       <r>    3.4807    0.0000 </r>
       <r>    6.7447    0.0000 </r>
       <r>    6.8166    0.0000 </r>
       <r>    7.0992    0.0000 </r>
      </set>
     </set>
    </set>
   </array>
  </eigenvalues>
  <separator name="orbital magnetization" >
   <v name="MAGDIPOLOUT">      0.00000000      0.00000000      0.00000000</v>
  </separator>
  <dos>
   <i name="efermi">      0.20066072 </i>
   <total>
    <array>
     <dimension dim="1">gridpoints</dimension>
     <dimension dim="2">spin</dimension>
     <field>energy</field>
     <field>total</field>
     <field>integrated</field>
     <set>
      <set comment="spin 1">
       <r>   -36.4175     0.0000     0.0000 </r>
       <r>   -36.2652     0.0000     0.0000 </r>
       <r>   -36.1129     0.0000     0.0000 </r>
       <r>   -35.9607     0.0000     0.0000 </r>
       <r>   -35.8084     0.0000     0.0000 </r>
       <r>   -35.6562     0.0000     0.0000 </r>
       <r>   -35.5039     0.0000     0.0000 </r>
       <r>   -35.3516     0.0000     0.0000 </r>
       <r>   -35.1994     0.0000     0.0000 </r>
       <r>   -35.0471     0.0000     0.0000 </r>
       <r>   -34.8949     0.0000     0.0000 </r>
       <r>   -34.7426     0.0000     0.0000 </r>
       <r>   -34.5904     0.0000     0.0000 </r>
       <r>   -34.4381     0.0000     0.0000 </r>
       <r>   -34.2858     0.0000     2.0000 </r>
       <r>   -34.1336     0.0000     2.0000 </r>
       <r>   -33.9813     0.0000     2.0000 </r>
       <r>   -33.8291     0.0000     2.0000 </r>
       <r>   -33.6768     0.0000     2.0000 </r>
       <r>   -33.5245     0.0000     2.0000 </r>
       <r>   -33.3723     0.0000     2.0000 </r>
       <r>   -33.2200    47.7262     4.0985 </r>
       <r>   -33.0678     0.0000     8.0000 </r>
       <r>   -32.9155     0.0000     8.0000 </r>
       <r>   -32.7633     0.0000     8.0000 </r>
       <r>   -32.6110     0.0000     8.0000 </r>
       <r>   -32.4587     0.0000     8.0000 </r>
       <r>   -32.3065     0.0000     8.0000 </r>
       <r>   -32.1542     0.0000     8.0000 </r>
       <r>   -32.0020     0.0000     8.0000 </r>
       <r>   -31.8497     0.0000     8.0000 </r>
       <r>   -31.6974     0.0000     8.0000 </r>
       <r>   -31.5452     0.0000     8.0000 </r>
       <r>   -31.3929     0.0000     8.0000 </r>
       <r>   -31.2407     0.0000     8.0000 </r>
       <r>   -31.0884     0.0000     8.0000 </r>
       <r>   -30.9362     0.0000     8.0000 </r>
       <r>   -30.7839     0.0000     8.0000 </r>
       <r>   -30.6316     0.0000     8.0000 </r>
       <r>   -30.4794     0.0000     8.0000 </r>
       <r>   -30.3271     0.0000     8.0000 </r>
       <r>   -30.1749     0.0000     8.0000 </r>
       <r>   -30.0226     0.0000     8.0000 </r>
       <r>   -29.8703     0.0000     8.0000 </r>
       <r>   -29.7181     0.0000     8.0000 </r>
       <r>   -29.5658     0.0000     8.0000 </r>
       <r>   -29.4136     0.0000     8.0000 </r>
       <r>   -29.2613     0.0000     8.0000 </r>
       <r>   -29.1091     0.0000     8.0000 </r>
       <r>   -28.9568     0.0000     8.0000 </r>
       <r>   -28.8045     0.0000     8.0000 </r>
       <r>   -28.6523     0.0000     8.0000 </r>
       <r>   -28.5000     0.0000     8.0000 </r>
       <r>   -28.3478     0.0000     8.0000 </r>
       <r>   -28.1955     0.0000     8.0000 </r>
       <r>   -28.0432     0.0000     8.0000 </r>
       <r>   -27.8910     0.0000     8.0000 </r>
       <r>   -27.7387     0.0000     8.0000 </r>
       <r>   -27.5865     0.0000     8.0000 </r>
       <r>   -27.4342     0.0000     8.0000 </r>
       <r>   -27.2820     0.0000     8.0000 </r>
       <r>   -27.1297     0.0000     8.0000 </r>
       <r>   -26.9774     0.0000     8.0000 </r>
       <r>   -26.8252     0.0000     8.0000 </r>
       <r>   -26.6729     0.0000     8.0000 </r>
       <r>   -26.5207     0.0000     8.0000 </r>
       <r>   -26.3684     0.0000     8.0000 </r>
       <r>   -26.2162     0.0000     8.0000 </r>
       <r>   -26.0639     0.0000     8.0000 </r>
       <r>   -25.9116     0.0000     8.0000 </r>
       <r>   -25.7594     0.0000     8.0000 </r>
       <r>   -25.6071     0.0000     8.0000 </r>
       <r>   -25.4549     0.0000     8.0000 </r>
       <r>   -25.3026     0.0000     8.0000 </r>
       <r>   -25.1503     0.0000     8.0000 </r>
       <r>   -24.9981     0.0000     8.0000 </r>
       <r>   -24.8458     0.0000     8.0000 </r>
       <r>   -24.6936     0.0000     8.0000 </r>
       <r>   -24.5413     0.0000     8.0000 </r>
       <r>   -24.3891     0.0000     8.0000 </r>
       <r>   -24.2368     0.0000     8.0000 </r>
       <r>   -24.0845     0.0000     8.0000 </r>
       <r>   -23.9323     0.0000     8.0000 </r>
       <r>   -23.7800     0.0000     8.0000 </r>
       <r>   -23.6278     0.0000     8.0000 </r>
       <r>   -23.4755     0.0000     8.0000 </r>
       <r>   -23.3232     0.0000     8.0000 </r>
       <r>   -23.1710     0.0000     8.0000 </r>
       <r>   -23.0187     0.0000     8.0000 </r>
       <r>   -22.8665     0.0000     8.0000 </r>
       <r>   -22.7142     0.0000     8.0000 </r>
       <r>   -22.5620     0.0000     8.0000 </r>
       <r>   -22.4097     0.0000     8.0000 </r>
       <r>   -22.2574     0.0000     8.0000 </r>
       <r>   -22.1052     0.0000     8.0000 </r>
       <r>   -21.9529     0.0000     8.0000 </r>
       <r>   -21.8007     0.0000     8.0000 </r>
       <r>   -21.6484     0.0000     8.0000 </r>
       <r>   -21.4961     0.0000     8.0000 </r>
       <r>   -21.3439     0.0000     8.0000 </r>
       <r>   -21.1916     0.0000     8.0000 </r>
       <r>   -21.0394     0.0000     8.0000 </r>
       <r>   -20.8871     0.0000     8.0000 </r>
       <r>   -20.7349     0.0000     8.0000 </r>
       <r>   -20.5826     0.0000     8.0000 </r>
       <r>   -20.4303     0.0000     8.0000 </r>
       <r>   -20.2781     0.0000     8.0000 </r>
       <r>   -20.1258     0.0000     8.0000 </r>
       <r>   -19.9736     0.0000     8.0000 </r>
       <r>   -19.8213     0.0000     8.0000 </r>
       <r>   -19.6690     0.0000     8.0000 </r>
       <r>   -19.5168     0.0000     8.0000 </r>
       <r>   -19.3645     0.0000     8.0000 </r>
       <r>   -19.2123     0.0000     8.0000 </r>
       <r>   -19.0600     0.0000     8.0000 </r>
       <r>   -18.9078     0.0000     8.0000 </r>
       <r>   -18.7555     0.0000     8.0000 </r>
       <r>   -18.6032     0.0000     8.0000 </r>
       <r>   -18.4510     0.0000     8.0000 </r>
       <r>   -18.2987     0.0000     8.0000 </r>
       <r>   -18.1465     0.0000     8.0000 </r>
       <r>   -17.9942     0.0000     8.0000 </r>
       <r>   -17.8419    13.0223     8.9299 </r>
       <r>   -17.6897    12.4555    10.8151 </r>
       <r>   -17.5374     7.0173    12.0814 </r>
       <r>   -17.3852     4.3997    13.0940 </r>
       <r>   -17.2329    10.3033    14.4994 </r>
       <r>   -17.0807    10.8384    15.6116 </r>
       <r>   -16.9284    32.5709    18.9703 </r>
       <r>   -16.7761    96.1143    23.9757 </r>
       <r>   -16.6239    10.7786    27.0199 </r>
       <r>   -16.4716     5.0363    29.2543 </r>
       <r>   -16.3194    13.1331    30.2517 </r>
       <r>   -16.1671    17.9913    35.0205 </r>
       <r>   -16.0148     0.0000    36.0000 </r>
       <r>   -15.8626     0.3881    36.0271 </r>
       <r>   -15.7103     2.2486    36.2779 </r>
       <r>   -15.5581     4.8558    36.7168 </r>
       <r>   -15.4058    11.7939    37.8043 </r>
       <r>   -15.2536    44.5050    41.7131 </r>
       <r>   -15.1013    31.8352    47.4389 </r>
       <r>   -14.9490    50.9792    52.1802 </r>
       <r>   -14.7968     7.6338    55.9527 </r>
       <r>   -14.6445     0.0000    56.0000 </r>
       <r>   -14.4923     0.0000    56.0000 </r>
       <r>   -14.3400     0.0000    56.0000 </r>
       <r>   -14.1877     0.0000    56.0000 </r>
       <r>   -14.0355     0.0000    56.0000 </r>
       <r>   -13.8832     0.0000    56.0000 </r>
       <r>   -13.7310     0.0000    56.0000 </r>
       <r>   -13.5787     0.0000    56.0000 </r>
       <r>   -13.4265     0.0000    56.0000 </r>
       <r>   -13.2742     0.0000    56.0000 </r>
       <r>   -13.1219     0.0000    56.0000 </r>
       <r>   -12.9697     0.0000    56.0000 </r>
       <r>   -12.8174     0.0000    56.0000 </r>
       <r>   -12.6652     0.0000    56.0000 </r>
       <r>   -12.5129     0.0000    56.0000 </r>
       <r>   -12.3606     0.0000    56.0000 </r>
       <r>   -12.2084     0.0000    56.0000 </r>
       <r>   -12.0561     0.0000    56.0000 </r>
       <r>   -11.9039     0.0000    56.0000 </r>
       <r>   -11.7516     0.0000    56.0000 </r>
       <r>   -11.5994     0.0000    56.0000 </r>
       <r>   -11.4471     0.0000    56.0000 </r>
       <r>   -11.2948     0.0000    56.0000 </r>
       <r>   -11.1426     0.0000    56.0000 </r>
       <r>   -10.9903     0.0000    56.0000 </r>
       <r>   -10.8381     0.0000    56.0000 </r>
       <r>   -10.6858     0.0000    56.0000 </r>
       <r>   -10.5335     0.0000    56.0000 </r>
       <r>   -10.3813     0.0000    56.0000 </r>
       <r>   -10.2290     0.0000    56.0000 </r>
       <r>   -10.0768     0.0000    56.0000 </r>
       <r>    -9.9245     0.0000    56.0000 </r>
       <r>    -9.7723     0.0000    56.0000 </r>
       <r>    -9.6200     0.0000    56.0000 </r>
       <r>    -9.4677     0.0000    56.0000 </r>
       <r>    -9.3155     0.0000    56.0000 </r>
       <r>    -9.1632     0.0000    56.0000 </r>
       <r>    -9.0110     0.0000    56.0000 </r>
       <r>    -8.8587     0.0000    56.0000 </r>
       <r>    -8.7064     0.0000    56.0000 </r>
       <r>    -8.5542     0.0000    56.0000 </r>
       <r>    -8.4019     0.0000    56.0000 </r>
       <r>    -8.2497     0.0000    56.0000 </r>
       <r>    -8.0974     0.0000    56.0000 </r>
       <r>    -7.9452     0.0000    56.0000 </r>
       <r>    -7.7929     0.0000    56.0000 </r>
       <r>    -7.6406     0.0000    56.0000 </r>
       <r>    -7.4884     0.0000    56.0000 </r>
       <r>    -7.3361     0.0000    56.0000 </r>
       <r>    -7.1839     0.0000    56.0000 </r>
       <r>    -7.0316     0.0000    56.0000 </r>
       <r>    -6.8793     0.0000    56.0000 </r>
       <r>    -6.7271     0.0000    56.0000 </r>
       <r>    -6.5748     0.0000    56.0000 </r>
       <r>    -6.4226     0.0000    56.0000 </r>
       <r>    -6.2703     0.0000    56.0000 </r>
       <r>    -6.1181     0.0000    56.0000 </r>
       <r>    -5.9658     0.0000    56.0000 </r>
       <r>    -5.8135     0.0000    56.0000 </r>
       <r>    -5.6613     0.0000    56.0000 </r>
       <r>    -5.5090     0.0000    56.0000 </r>
       <r>    -5.3568     0.0000    56.0000 </r>
       <r>    -5.2045     0.0000    56.0000 </r>
       <r>    -5.0522     0.0000    56.0000 </r>
       <r>    -4.9000     1.5652    56.0615 </r>
       <r>    -4.7477    10.1082    57.1262 </r>
       <r>    -4.5955    16.2921    59.4754 </r>
       <r>    -4.4432    14.6009    61.8225 </r>
       <r>    -4.2910    13.5505    64.3219 </r>
       <r>    -4.1387    13.5883    66.6666 </r>
       <r>    -3.9864    15.8001    69.1638 </r>
       <r>    -3.8342    18.0510    71.8014 </r>
       <r>    -3.6819    19.1785    74.8338 </r>
       <r>    -3.5297    22.7628    78.0911 </r>
       <r>    -3.3774    27.4822    82.1084 </r>
       <r>    -3.2252    17.8944    85.6889 </r>
       <r>    -3.0729    11.7134    87.8342 </r>
       <r>    -2.9206    15.2114    90.0419 </r>
       <r>    -2.7684    12.2465    92.0846 </r>
       <r>    -2.6161    13.7633    94.1672 </r>
       <r>    -2.4639    11.0727    96.0878 </r>
       <r>    -2.3116     9.1891    97.7118 </r>
       <r>    -2.1593     9.5595    99.3329 </r>
       <r>    -2.0071    12.5210   101.2720 </r>
       <r>    -1.8548    11.4636   103.2512 </r>
       <r>    -1.7026    22.2358   106.1747 </r>
       <r>    -1.5503    16.7365   109.4514 </r>
       <r>    -1.3981    21.9811   113.0039 </r>
       <r>    -1.2458    17.6371   116.5505 </r>
       <r>    -1.0935    17.3199   119.3114 </r>
       <r>    -0.9413    17.5229   122.2541 </r>
       <r>    -0.7890    10.8957   124.6081 </r>
       <r>    -0.6368    19.0173   126.4997 </r>
       <r>    -0.4845     1.6109   127.3083 </r>
       <r>    -0.3322     1.1153   127.5045 </r>
       <r>    -0.1800     1.1862   127.6772 </r>
       <r>    -0.0277     0.8420   127.8277 </r>
       <r>     0.1245     0.5732   127.9355 </r>
       <r>     0.2768     0.0000   128.0000 </r>
       <r>     0.4290     0.0000   128.0000 </r>
       <r>     0.5813     0.0000   128.0000 </r>
       <r>     0.7336     0.0000   128.0000 </r>
       <r>     0.8858     0.0000   128.0000 </r>
       <r>     1.0381     0.0000   128.0000 </r>
       <r>     1.1903     0.3583   128.0070 </r>
       <r>     1.3426     2.8141   128.1935 </r>
       <r>     1.4949     3.9653   128.7557 </r>
       <r>     1.6471     4.5624   129.4514 </r>
       <r>     1.7994     4.8134   130.1238 </r>
       <r>     1.9516     8.8739   131.2795 </r>
       <r>     2.1039     7.2123   132.5344 </r>
       <r>     2.2561     7.6265   133.6438 </r>
       <r>     2.4084    11.4547   135.0561 </r>
       <r>     2.5607    12.5164   136.9250 </r>
       <r>     2.7129    13.0052   138.8004 </r>
       <r>     2.8652    22.4233   141.1755 </r>
       <r>     3.0174    16.2437   144.4109 </r>
       <r>     3.1697    11.8580   146.9305 </r>
       <r>     3.3220     5.7831   148.6020 </r>
       <r>     3.4742     1.2408   149.1370 </r>
       <r>     3.6265     0.6309   149.2785 </r>
       <r>     3.7787     0.6201   149.3737 </r>
       <r>     3.9310     0.6093   149.4673 </r>
       <r>     4.0832     0.5985   149.5593 </r>
       <r>     4.2355     0.5877   149.6496 </r>
       <r>     4.3878     0.5768   149.7382 </r>
       <r>     4.5400     0.5660   149.8252 </r>
       <r>     4.6923     0.5552   149.9106 </r>
       <r>     4.8445     0.5444   149.9943 </r>
       <r>     4.9968     0.5336   150.0764 </r>
       <r>     5.1491     0.5935   150.1620 </r>
       <r>     5.3013     0.7858   150.2670 </r>
       <r>     5.4536     0.6684   150.3712 </r>
       <r>     5.6058     0.7947   150.4826 </r>
       <r>     5.7581     0.7909   150.6511 </r>
       <r>     5.9103     0.7733   150.7701 </r>
       <r>     6.0626     0.7557   150.8865 </r>
       <r>     6.2149     0.7380   151.0003 </r>
       <r>     6.3671     0.7579   151.1126 </r>
       <r>     6.5194     0.8210   151.2328 </r>
       <r>     6.6716     0.8841   151.3626 </r>
       <r>     6.8239     0.7651   151.5794 </r>
       <r>     6.9762     1.5019   151.7258 </r>
       <r>     7.1284     0.9297   151.9538 </r>
       <r>     7.2807     0.0000   152.0000 </r>
       <r>     7.4329     0.0000   152.0000 </r>
       <r>     7.5852     0.0000   152.0000 </r>
       <r>     7.7374     0.0000   152.0000 </r>
       <r>     7.8897     0.0000   152.0000 </r>
       <r>     8.0420     0.0000   152.0000 </r>
       <r>     8.1942     0.0000   152.0000 </r>
       <r>     8.3465     0.0000   152.0000 </r>
       <r>     8.4987     0.0000   152.0000 </r>
       <r>     8.6510     0.0000   152.0000 </r>
       <r>     8.8033     0.0000   152.0000 </r>
       <r>     8.9555     0.0000   152.0000 </r>
       <r>     9.1078     0.0000   152.0000 </r>
       <r>     9.2600     0.0000   152.0000 </r>
      </set>
     </set>
    </array>
   </total>
  </dos>
 </calculation>
 <structure name="finalpos" >
  <crystal>
   <varray name="basis" >
    <v>       3.94684634       0.00000000       0.00000000 </v>
    <v>       0.00000000       3.94684634       0.00000000 </v>
    <v>       0.00000000       0.00000000      27.81396220 </v>
   </varray>
   <i name="volume">    433.27466748 </i>
   <varray name="rec_basis" >
    <v>       0.25336684       0.00000000       0.00000000 </v>
    <v>       0.00000000       0.25336684       0.00000000 </v>
    <v>       0.00000000       0.00000000       0.03595317 </v>
   </varray>
  </crystal>
  <varray name="positions" >
   <v>       0.50000000       0.50000000       0.25167216 </v>
   <v>       0.50000000       0.00000000       0.32262297 </v>
   <v>       0.00000000       0.50000000       0.32262297 </v>
   <v>       0.50000000       0.50000000       0.39357378 </v>
   <v>       0.50000000       0.00000000       0.46452459 </v>
   <v>       0.00000000       0.50000000       0.46452459 </v>
   <v>       0.50000000       0.50000000       0.53547541 </v>
   <v>       0.50000000       0.00000000       0.60642622 </v>
   <v>       0.00000000       0.50000000       0.60642622 </v>
   <v>       0.50000000       0.50000000       0.67737703 </v>
   <v>       0.50000000       0.00000000       0.74832784 </v>
   <v>       0.00000000       0.50000000       0.74832784 </v>
   <v>       0.00000000       0.00000000       0.25167216 </v>
   <v>       0.00000000       0.00000000       0.39357378 </v>
   <v>       0.00000000       0.00000000       0.53547541 </v>
   <v>       0.00000000       0.00000000       0.67737703 </v>
   <v>       0.50000000       0.50000000       0.32262297 </v>
   <v>       0.50000000       0.50000000       0.46452459 </v>
   <v>       0.50000000       0.50000000       0.60642622 </v>
   <v>       0.50000000       0.50000000       0.74832784 </v>
  </varray>
 </structure>
</modeling>
