unknown system                          
           1
     3.946846    0.000000    0.000000
     0.000000    3.946846    0.000000
     0.000000    0.000000   27.813962
   O    Sr   Ti
  12   4   4
Direct configuration=     1
   0.50000000  0.50000000  0.25167216
   0.50000000  0.00000000  0.32262297
   0.00000000  0.50000000  0.32262297
   0.50000000  0.50000000  0.39357378
   0.50000000  0.00000000  0.46452459
   0.00000000  0.50000000  0.46452459
   0.50000000  0.50000000  0.53547541
   0.50000000  0.00000000  0.60642622
   0.00000000  0.50000000  0.60642622
   0.50000000  0.50000000  0.67737703
   0.50000000  0.00000000  0.74832784
   0.00000000  0.50000000  0.74832784
   0.00000000  0.00000000  0.25167216
   0.00000000  0.00000000  0.39357378
   0.00000000  0.00000000  0.53547541
   0.00000000  0.00000000  0.67737703
   0.50000000  0.50000000  0.32262297
   0.50000000  0.50000000  0.46452459
   0.50000000  0.50000000  0.60642622
   0.50000000  0.50000000  0.74832784
