  20  20   0   0
  0.2789477E+02  0.3946846E-09  0.3946846E-09  0.3581396E-08  0.5000000E-15
  1.000000000000000E-004
  CAR 
 unknown system                          
      8.63266549    -37.34941276  301     -0.52543176      1.00000000
    -37.349  0.0000E+00  0.0000E+00
    -37.196  0.0000E+00  0.0000E+00
    -37.043  0.0000E+00  0.0000E+00
    -36.890  0.0000E+00  0.0000E+00
    -36.736  0.0000E+00  0.0000E+00
    -36.583  0.0000E+00  0.0000E+00
    -36.430  0.0000E+00  0.0000E+00
    -36.276  0.0000E+00  0.0000E+00
    -36.123  0.0000E+00  0.0000E+00
    -35.970  0.0000E+00  0.0000E+00
    -35.817  0.0000E+00  0.0000E+00
    -35.663  0.0000E+00  0.0000E+00
    -35.510  0.0000E+00  0.0000E+00
    -35.357  0.0000E+00  0.0000E+00
    -35.204  0.0000E+00  0.2000E+01
    -35.050  0.0000E+00  0.2000E+01
    -34.897  0.0000E+00  0.2000E+01
    -34.744  0.0000E+00  0.2000E+01
    -34.590  0.0000E+00  0.2000E+01
    -34.437  0.0000E+00  0.2000E+01
    -34.284  0.0000E+00  0.2000E+01
    -34.131  0.0000E+00  0.2000E+01
    -33.977  0.0000E+00  0.6000E+01
    -33.824  0.0000E+00  0.8000E+01
    -33.671  0.0000E+00  0.8000E+01
    -33.518  0.0000E+00  0.8000E+01
    -33.364  0.0000E+00  0.8000E+01
    -33.211  0.0000E+00  0.8000E+01
    -33.058  0.0000E+00  0.8000E+01
    -32.904  0.0000E+00  0.8000E+01
    -32.751  0.0000E+00  0.8000E+01
    -32.598  0.0000E+00  0.8000E+01
    -32.445  0.0000E+00  0.8000E+01
    -32.291  0.0000E+00  0.8000E+01
    -32.138  0.0000E+00  0.8000E+01
    -31.985  0.0000E+00  0.8000E+01
    -31.832  0.0000E+00  0.8000E+01
    -31.678  0.0000E+00  0.8000E+01
    -31.525  0.0000E+00  0.8000E+01
    -31.372  0.0000E+00  0.8000E+01
    -31.218  0.0000E+00  0.8000E+01
    -31.065  0.0000E+00  0.8000E+01
    -30.912  0.0000E+00  0.8000E+01
    -30.759  0.0000E+00  0.8000E+01
    -30.605  0.0000E+00  0.8000E+01
    -30.452  0.0000E+00  0.8000E+01
    -30.299  0.0000E+00  0.8000E+01
    -30.146  0.0000E+00  0.8000E+01
    -29.992  0.0000E+00  0.8000E+01
    -29.839  0.0000E+00  0.8000E+01
    -29.686  0.0000E+00  0.8000E+01
    -29.532  0.0000E+00  0.8000E+01
    -29.379  0.0000E+00  0.8000E+01
    -29.226  0.0000E+00  0.8000E+01
    -29.073  0.0000E+00  0.8000E+01
    -28.919  0.0000E+00  0.8000E+01
    -28.766  0.0000E+00  0.8000E+01
    -28.613  0.0000E+00  0.8000E+01
    -28.460  0.0000E+00  0.8000E+01
    -28.306  0.0000E+00  0.8000E+01
    -28.153  0.0000E+00  0.8000E+01
    -28.000  0.0000E+00  0.8000E+01
    -27.846  0.0000E+00  0.8000E+01
    -27.693  0.0000E+00  0.8000E+01
    -27.540  0.0000E+00  0.8000E+01
    -27.387  0.0000E+00  0.8000E+01
    -27.233  0.0000E+00  0.8000E+01
    -27.080  0.0000E+00  0.8000E+01
    -26.927  0.0000E+00  0.8000E+01
    -26.774  0.0000E+00  0.8000E+01
    -26.620  0.0000E+00  0.8000E+01
    -26.467  0.0000E+00  0.8000E+01
    -26.314  0.0000E+00  0.8000E+01
    -26.160  0.0000E+00  0.8000E+01
    -26.007  0.0000E+00  0.8000E+01
    -25.854  0.0000E+00  0.8000E+01
    -25.701  0.0000E+00  0.8000E+01
    -25.547  0.0000E+00  0.8000E+01
    -25.394  0.0000E+00  0.8000E+01
    -25.241  0.0000E+00  0.8000E+01
    -25.088  0.0000E+00  0.8000E+01
    -24.934  0.0000E+00  0.8000E+01
    -24.781  0.0000E+00  0.8000E+01
    -24.628  0.0000E+00  0.8000E+01
    -24.474  0.0000E+00  0.8000E+01
    -24.321  0.0000E+00  0.8000E+01
    -24.168  0.0000E+00  0.8000E+01
    -24.015  0.0000E+00  0.8000E+01
    -23.861  0.0000E+00  0.8000E+01
    -23.708  0.0000E+00  0.8000E+01
    -23.555  0.0000E+00  0.8000E+01
    -23.402  0.0000E+00  0.8000E+01
    -23.248  0.0000E+00  0.8000E+01
    -23.095  0.0000E+00  0.8000E+01
    -22.942  0.0000E+00  0.8000E+01
    -22.788  0.0000E+00  0.8000E+01
    -22.635  0.0000E+00  0.8000E+01
    -22.482  0.0000E+00  0.8000E+01
    -22.329  0.0000E+00  0.8000E+01
    -22.175  0.0000E+00  0.8000E+01
    -22.022  0.0000E+00  0.8000E+01
    -21.869  0.0000E+00  0.8000E+01
    -21.716  0.0000E+00  0.8000E+01
    -21.562  0.0000E+00  0.8000E+01
    -21.409  0.0000E+00  0.8000E+01
    -21.256  0.0000E+00  0.8000E+01
    -21.102  0.0000E+00  0.8000E+01
    -20.949  0.0000E+00  0.8000E+01
    -20.796  0.0000E+00  0.8000E+01
    -20.643  0.0000E+00  0.8000E+01
    -20.489  0.0000E+00  0.8000E+01
    -20.336  0.0000E+00  0.8000E+01
    -20.183  0.0000E+00  0.8000E+01
    -20.029  0.0000E+00  0.8000E+01
    -19.876  0.0000E+00  0.8000E+01
    -19.723  0.0000E+00  0.8000E+01
    -19.570  0.0000E+00  0.8000E+01
    -19.416  0.0000E+00  0.8000E+01
    -19.263  0.0000E+00  0.8000E+01
    -19.110  0.0000E+00  0.8000E+01
    -18.957  0.0000E+00  0.8000E+01
    -18.803  0.1151E+01  0.8023E+01
    -18.650  0.1761E+02  0.9299E+01
    -18.497  0.8348E+01  0.1122E+02
    -18.343  0.8164E+01  0.1242E+02
    -18.190  0.4025E+01  0.1327E+02
    -18.037  0.1116E+02  0.1469E+02
    -17.884  0.1133E+02  0.1666E+02
    -17.730  0.3323E+02  0.1995E+02
    -17.577  0.4295E+01  0.2609E+02
    -17.424  0.6120E+01  0.2818E+02
    -17.271  0.2055E+02  0.2928E+02
    -17.117  0.1449E+02  0.3214E+02
    -16.964  0.0000E+00  0.3600E+02
    -16.811  0.3036E+00  0.3602E+02
    -16.657  0.1660E+01  0.3621E+02
    -16.504  0.3206E+01  0.3660E+02
    -16.351  0.4969E+01  0.3740E+02
    -16.198  0.1698E+02  0.3881E+02
    -16.044  0.3205E+02  0.4396E+02
    -15.891  0.2560E+02  0.4845E+02
    -15.738  0.2656E+02  0.5307E+02
    -15.585  0.3515E+01  0.5597E+02
    -15.431  0.0000E+00  0.5600E+02
    -15.278  0.0000E+00  0.5600E+02
    -15.125  0.0000E+00  0.5600E+02
    -14.971  0.0000E+00  0.5600E+02
    -14.818  0.0000E+00  0.5600E+02
    -14.665  0.0000E+00  0.5600E+02
    -14.512  0.0000E+00  0.5600E+02
    -14.358  0.0000E+00  0.5600E+02
    -14.205  0.0000E+00  0.5600E+02
    -14.052  0.0000E+00  0.5600E+02
    -13.899  0.0000E+00  0.5600E+02
    -13.745  0.0000E+00  0.5600E+02
    -13.592  0.0000E+00  0.5600E+02
    -13.439  0.0000E+00  0.5600E+02
    -13.285  0.0000E+00  0.5600E+02
    -13.132  0.0000E+00  0.5600E+02
    -12.979  0.0000E+00  0.5600E+02
    -12.826  0.0000E+00  0.5600E+02
    -12.672  0.0000E+00  0.5600E+02
    -12.519  0.0000E+00  0.5600E+02
    -12.366  0.0000E+00  0.5600E+02
    -12.213  0.0000E+00  0.5600E+02
    -12.059  0.0000E+00  0.5600E+02
    -11.906  0.0000E+00  0.5600E+02
    -11.753  0.0000E+00  0.5600E+02
    -11.599  0.0000E+00  0.5600E+02
    -11.446  0.0000E+00  0.5600E+02
    -11.293  0.0000E+00  0.5600E+02
    -11.140  0.0000E+00  0.5600E+02
    -10.986  0.0000E+00  0.5600E+02
    -10.833  0.0000E+00  0.5600E+02
    -10.680  0.0000E+00  0.5600E+02
    -10.527  0.0000E+00  0.5600E+02
    -10.373  0.0000E+00  0.5600E+02
    -10.220  0.0000E+00  0.5600E+02
    -10.067  0.0000E+00  0.5600E+02
     -9.913  0.0000E+00  0.5600E+02
     -9.760  0.0000E+00  0.5600E+02
     -9.607  0.0000E+00  0.5600E+02
     -9.454  0.0000E+00  0.5600E+02
     -9.300  0.0000E+00  0.5600E+02
     -9.147  0.0000E+00  0.5600E+02
     -8.994  0.0000E+00  0.5600E+02
     -8.841  0.0000E+00  0.5600E+02
     -8.687  0.0000E+00  0.5600E+02
     -8.534  0.0000E+00  0.5600E+02
     -8.381  0.0000E+00  0.5600E+02
     -8.227  0.0000E+00  0.5600E+02
     -8.074  0.0000E+00  0.5600E+02
     -7.921  0.0000E+00  0.5600E+02
     -7.768  0.0000E+00  0.5600E+02
     -7.614  0.0000E+00  0.5600E+02
     -7.461  0.0000E+00  0.5600E+02
     -7.308  0.0000E+00  0.5600E+02
     -7.155  0.0000E+00  0.5600E+02
     -7.001  0.0000E+00  0.5600E+02
     -6.848  0.0000E+00  0.5600E+02
     -6.695  0.0000E+00  0.5600E+02
     -6.541  0.0000E+00  0.5600E+02
     -6.388  0.0000E+00  0.5600E+02
     -6.235  0.0000E+00  0.5600E+02
     -6.082  0.0000E+00  0.5600E+02
     -5.928  0.0000E+00  0.5600E+02
     -5.775  0.0000E+00  0.5600E+02
     -5.622  0.1767E+02  0.5644E+02
     -5.469  0.1877E+02  0.5889E+02
     -5.315  0.1041E+02  0.6112E+02
     -5.162  0.1642E+02  0.6364E+02
     -5.009  0.1399E+02  0.6592E+02
     -4.855  0.1546E+02  0.6853E+02
     -4.702  0.1567E+02  0.7130E+02
     -4.549  0.1845E+02  0.7429E+02
     -4.396  0.2122E+02  0.7731E+02
     -4.242  0.2859E+02  0.8121E+02
     -4.089  0.1733E+02  0.8527E+02
     -3.936  0.1224E+02  0.8747E+02
     -3.782  0.1238E+02  0.8955E+02
     -3.629  0.1268E+02  0.9174E+02
     -3.476  0.1424E+02  0.9380E+02
     -3.323  0.1062E+02  0.9576E+02
     -3.169  0.1049E+02  0.9748E+02
     -3.016  0.1039E+02  0.9892E+02
     -2.863  0.2368E+02  0.1008E+03
     -2.710  0.1027E+02  0.1031E+03
     -2.556  0.2547E+02  0.1058E+03
     -2.403  0.1976E+02  0.1090E+03
     -2.250  0.2013E+02  0.1125E+03
     -2.096  0.1638E+02  0.1162E+03
     -1.943  0.1736E+02  0.1194E+03
     -1.790  0.1686E+02  0.1221E+03
     -1.637  0.1020E+02  0.1244E+03
     -1.483  0.1681E+02  0.1261E+03
     -1.330  0.2104E+01  0.1272E+03
     -1.177  0.1170E+01  0.1274E+03
     -1.024  0.1027E+01  0.1276E+03
     -0.870  0.9952E+00  0.1277E+03
     -0.717  0.7255E+00  0.1279E+03
     -0.564  0.0000E+00  0.1280E+03
     -0.410  0.0000E+00  0.1280E+03
     -0.257  0.0000E+00  0.1280E+03
     -0.104  0.0000E+00  0.1280E+03
      0.049  0.0000E+00  0.1280E+03
      0.203  0.0000E+00  0.1280E+03
      0.356  0.1096E+00  0.1280E+03
      0.509  0.1837E+01  0.1281E+03
      0.662  0.4014E+01  0.1286E+03
      0.816  0.5608E+01  0.1293E+03
      0.969  0.5707E+01  0.1302E+03
      1.122  0.8433E+01  0.1314E+03
      1.276  0.7164E+01  0.1326E+03
      1.429  0.8130E+01  0.1338E+03
      1.582  0.1161E+02  0.1353E+03
      1.735  0.1200E+02  0.1372E+03
      1.889  0.1328E+02  0.1391E+03
      2.042  0.2037E+02  0.1414E+03
      2.195  0.1712E+02  0.1449E+03
      2.348  0.1258E+02  0.1471E+03
      2.502  0.4820E+01  0.1486E+03
      2.655  0.4738E+00  0.1491E+03
      2.808  0.4666E+00  0.1492E+03
      2.962  0.4595E+00  0.1492E+03
      3.115  0.4524E+00  0.1493E+03
      3.268  0.4452E+00  0.1494E+03
      3.421  0.4381E+00  0.1494E+03
      3.575  0.4309E+00  0.1495E+03
      3.728  0.4238E+00  0.1496E+03
      3.881  0.4167E+00  0.1496E+03
      4.034  0.4145E+00  0.1497E+03
      4.188  0.4144E+00  0.1498E+03
      4.341  0.5272E+00  0.1498E+03
      4.494  0.3187E+00  0.1499E+03
      4.648  0.1289E+01  0.1500E+03
      4.801  0.1132E+01  0.1502E+03
      4.954  0.8003E+00  0.1503E+03
      5.107  0.8223E+00  0.1505E+03
      5.261  0.8443E+00  0.1506E+03
      5.414  0.8533E+00  0.1507E+03
      5.567  0.6927E+00  0.1508E+03
      5.720  0.6999E+00  0.1509E+03
      5.874  0.7071E+00  0.1511E+03
      6.027  0.6231E+00  0.1512E+03
      6.180  0.1456E+01  0.1514E+03
      6.334  0.1348E+01  0.1516E+03
      6.487  0.1832E+01  0.1519E+03
      6.640  0.0000E+00  0.1520E+03
      6.793  0.0000E+00  0.1520E+03
      6.947  0.0000E+00  0.1520E+03
      7.100  0.0000E+00  0.1520E+03
      7.253  0.0000E+00  0.1520E+03
      7.406  0.0000E+00  0.1520E+03
      7.560  0.0000E+00  0.1520E+03
      7.713  0.0000E+00  0.1520E+03
      7.866  0.0000E+00  0.1520E+03
      8.020  0.0000E+00  0.1520E+03
      8.173  0.0000E+00  0.1520E+03
      8.326  0.0000E+00  0.1520E+03
      8.479  0.0000E+00  0.1520E+03
      8.633  0.0000E+00  0.1520E+03
