       N       E                     dE             d eps       ncg     rms          rms(c)
DAV:   1     0.158838489683E+04    0.15884E+04   -0.54866E+04  1544   0.143E+03
DAV:   2     0.184409221692E+03   -0.14040E+04   -0.13486E+04  1860   0.373E+02
DAV:   3    -0.177023534728E+03   -0.36143E+03   -0.35406E+03  2040   0.185E+02
DAV:   4    -0.200942102157E+03   -0.23919E+02   -0.23852E+02  1960   0.569E+01
DAV:   5    -0.202300824836E+03   -0.13587E+01   -0.13580E+01  2576   0.123E+01    0.371E+01
RMM:   6    -0.161878703889E+03    0.40422E+02   -0.29743E+02  1689   0.505E+01    0.147E+01
RMM:   7    -0.157753038532E+03    0.41257E+01   -0.15106E+01  1764   0.148E+01    0.727E+00
RMM:   8    -0.156986262975E+03    0.76678E+00   -0.30672E+00  2030   0.614E+00    0.360E+00
RMM:   9    -0.156735196838E+03    0.25107E+00   -0.15208E+00  2000   0.438E+00    0.106E+00
RMM:  10    -0.156686176376E+03    0.49020E-01   -0.24483E-01  2306   0.154E+00    0.695E-01
RMM:  11    -0.156661952610E+03    0.24224E-01   -0.16829E-01  2191   0.111E+00    0.380E-01
RMM:  12    -0.156651996456E+03    0.99562E-02   -0.49412E-02  2354   0.581E-01    0.324E-01
RMM:  13    -0.156646122030E+03    0.58744E-02   -0.18323E-02  2580   0.339E-01    0.214E-01
RMM:  14    -0.156642590946E+03    0.35311E-02   -0.20641E-02  2190   0.387E-01    0.140E-01
RMM:  15    -0.156642138006E+03    0.45294E-03   -0.60700E-03  2430   0.198E-01    0.879E-02
RMM:  16    -0.156643157233E+03   -0.10192E-02   -0.61632E-03  2259   0.189E-01    0.101E-01
RMM:  17    -0.156644248653E+03   -0.10914E-02   -0.29871E-03  2088   0.159E-01    0.536E-02
RMM:  18    -0.156644577657E+03   -0.32900E-03   -0.82950E-04  2175   0.746E-02    0.210E-02
RMM:  19    -0.156645665047E+03   -0.10874E-02   -0.59345E-04  2007   0.665E-02    0.328E-02
RMM:  20    -0.156646241988E+03   -0.57694E-03   -0.25823E-04  1860   0.436E-02    0.848E-03
RMM:  21    -0.156646599805E+03   -0.35782E-03   -0.10390E-04  1686   0.233E-02    0.796E-03
RMM:  22    -0.156646865657E+03   -0.26585E-03   -0.59328E-05  1528   0.186E-02    0.326E-03
RMM:  23    -0.156646970786E+03   -0.10513E-03   -0.26346E-05  1286   0.122E-02    0.142E-03
RMM:  24    -0.156647010995E+03   -0.40209E-04   -0.16572E-05  1164   0.103E-02    0.160E-03
RMM:  25    -0.156647034364E+03   -0.23368E-04   -0.91182E-06  1084   0.837E-03    0.871E-04
RMM:  26    -0.156647044165E+03   -0.98010E-05   -0.64575E-06   989   0.714E-03
   1 F= -.15664704E+03 E0= -.15664704E+03  d E =0.000000E+00
