unknown system                          
           1
     3.946846    0.000000    0.000000
     0.000000    3.946846    0.000000
     0.000000    0.000000   35.813962
   O    Sr   Ti
  12   4   4
Direct configuration=     1
   0.50000000  0.50000000  0.30714278
   0.50000000  0.00000000  0.36224484
   0.00000000  0.50000000  0.36224484
   0.50000000  0.50000000  0.41734691
   0.50000000  0.00000000  0.47244897
   0.00000000  0.50000000  0.47244897
   0.50000000  0.50000000  0.52755103
   0.50000000  0.00000000  0.58265309
   0.00000000  0.50000000  0.58265309
   0.50000000  0.50000000  0.63775516
   0.50000000  0.00000000  0.69285722
   0.00000000  0.50000000  0.69285722
   0.00000000  0.00000000  0.30714278
   0.00000000  0.00000000  0.41734691
   0.00000000  0.00000000  0.52755103
   0.00000000  0.00000000  0.63775516
   0.50000000  0.50000000  0.36224484
   0.50000000  0.50000000  0.47244897
   0.50000000  0.50000000  0.58265309
   0.50000000  0.50000000  0.69285722
