unknown system                          
   1.00000000000000     
     3.905268    0.000000    0.000000
     0.000000    3.905268    0.000000
     0.000000    0.000000    3.905268
   Sr   Ti   O 
     1     1     3
Direct
  0.000000  0.000000  0.000000
  0.500000  0.500000  0.500000
  0.500000  0.500000  0.000000
  0.500000  0.000000  0.500000
  0.000000  0.500000  0.500000
 
   48   48   48
  193.34      193.37      192.97      190.83      185.41      175.47      160.57      141.22      118.79      95.212    
  72.597      52.717      36.661      24.692      16.381      10.894      7.3800      5.1921      3.8517      3.0376    
  2.5485      2.2619      2.1024      2.0239      2.0006      2.0239      2.1024      2.2619      2.5485      3.0376    
  3.8517      5.1921      7.3800      10.894      16.381      24.692      36.661      52.717      72.597      95.212    
  118.79      141.22      160.57      175.47      185.41      190.83      192.97      193.37      193.37      193.32    
  192.68      190.21      184.44      174.21      159.13      139.71      117.34      93.924      71.539      51.912    
  36.095      24.324      16.158      10.768      7.3158      5.1665      3.8495      3.0496      2.5692      2.2880    
  2.1318      2.0550      2.0322      2.0550      2.1318      2.2880      2.5692      3.0496      3.8495      5.1665    
  7.3158      10.768      16.158      24.324      36.095      51.912      71.539      93.924      117.34      139.71    
  159.13      174.21      184.44      190.21      192.68      193.32      192.97      192.68      191.39      188.03    
  181.33      170.32      154.74      135.19      113.03      90.129      68.437      49.566      34.453      23.261    
  15.518      10.407      7.1353      5.0982      3.8498      3.0918      2.6374      2.3723      2.2258      2.1542    
  2.1330      2.1542      2.2258      2.3723      2.6374      3.0918      3.8498      5.0982      7.1353      10.407    
  15.518      23.261      34.453      49.566      68.437      90.129      113.03      135.19      154.74      170.32    
  181.33      188.03      191.39      192.68      190.83      190.21      188.03      183.45      175.48      163.45    
  147.29      127.70      106.03      84.036      63.514      45.878      31.895      21.617      14.536      9.8616    
  6.8714      5.0104      3.8703      3.1792      2.7668      2.5281      2.3977      2.3347      2.3161      2.3347    
  2.3977      2.5281      2.7668      3.1792      3.8703      5.0104      6.8714      9.8616      14.536      21.617    
  31.895      45.878      63.514      84.036      106.03      127.70      147.29      163.45      175.48      183.45    
  188.03      190.21      185.41      184.44      181.33      175.48      166.25      153.28      136.74      117.41    
  96.627      76.012      57.134      41.164      28.665      19.565      13.323      9.2025      6.5709      4.9347    
  3.9344      3.3313      2.9753      2.7730      2.6651      2.6144      2.5998      2.6144      2.6651      2.7730    
  2.9753      3.3313      3.9344      4.9347      6.5709      9.2025      13.323      19.565      28.665      41.164    
  57.134      76.012      96.627      117.41      136.74      153.28      166.25      175.48      181.33      184.44    
  175.47      174.21      170.32      163.45      153.28      139.77      123.29      104.72      85.333      66.584    
  49.780      35.824      25.062      17.308      12.009      8.5132      6.2882      4.9099      4.0733      3.5766    
  3.2915      3.1368      3.0598      3.0265      3.0175      3.0265      3.0598      3.1368      3.2915      3.5766    
  4.0733      4.9099      6.2882      8.5132      12.009      17.308      25.062      35.824      49.780      66.584    
  85.333      104.72      123.29      139.77      153.28      163.45      170.32      174.21      160.57      159.13    
  154.74      147.29      136.74      123.29      107.49      90.284      72.845      56.409      42.014      30.292    
  21.395      15.048      10.720      7.8789      6.0831      4.9834      4.3312      3.9607      3.7649      3.6736    
  3.6394      3.6311      3.6304      3.6311      3.6394      3.6736      3.7649      3.9607      4.3312      4.9834    
  6.0831      7.8789      10.720      15.048      21.395      30.292      42.014      56.409      72.845      90.284    
  107.49      123.29      136.74      147.29      154.74      159.13      141.22      139.71      135.19      127.70    
  117.41      104.72      90.284      75.031      60.006      46.210      34.405      24.984      17.942      12.959    
  9.5761      7.3811      6.0191      5.2138      4.7687      4.5507      4.4700      4.4650      4.4916      4.5197    
  4.5310      4.5197      4.4916      4.4650      4.4700      4.5507      4.7687      5.2138      6.0191      7.3811    
  9.5761      12.959      17.942      24.984      34.405      46.210      60.006      75.031      90.284      104.72    
  117.41      127.70      135.19      139.71      118.79      117.34      113.03      106.03      96.627      85.333    
  72.845      60.006      47.694      36.671      27.451      20.233      14.912      11.174      8.6743      7.0958    
  6.1656      5.6729      5.4658      5.4365      5.5079      5.6220      5.7353      5.8162      5.8453      5.8162    
  5.7353      5.6220      5.5079      5.4365      5.4658      5.6729      6.1656      7.0958      8.6743      11.174    
  14.912      20.233      27.451      36.671      47.694      60.006      72.845      85.333      96.627      106.03    
  113.03      117.34      95.212      93.924      90.129      84.036      76.012      66.584      56.409      46.210    
  36.671      28.330      21.503      16.253      12.429      9.7904      8.0913      7.0946      6.5993      6.4486    
  6.5243      6.7358      7.0113      7.2919      7.5294      7.6873      7.7426      7.6873      7.5294      7.2919    
  7.0113      6.7358      6.5243      6.4486      6.5993      7.0946      8.0913      9.7904      12.429      16.253    
  21.503      28.330      36.671      46.210      56.409      66.584      76.012      84.036      90.129      93.924    
  72.597      71.539      68.437      63.514      57.134      49.780      42.014      34.405      27.451      21.503    
  16.731      13.122      10.551      8.8643      7.8849      7.4460      7.4047      7.6445      8.0695      8.5974    
  9.1540      9.6717      10.091      10.363      10.457      10.363      10.091      9.6717      9.1540      8.5974    
  8.0695      7.6445      7.4047      7.4460      7.8849      8.8643      10.551      13.122      16.731      21.503    
  27.451      34.405      42.014      49.780      57.134      63.514      68.437      71.539      52.717      51.912    
  49.566      45.878      41.164      35.824      30.292      24.984      20.233      16.253      13.122      10.822    
  9.2883      8.4187      8.0976      8.2147      8.6711      9.3782      10.253      11.212      12.170      13.039    
  13.734      14.184      14.340      14.184      13.734      13.039      12.170      11.212      10.253      9.3782    
  8.6711      8.2147      8.0976      8.4187      9.2883      10.822      13.122      16.253      20.233      24.984    
  30.292      35.824      41.164      45.878      49.566      51.912      36.661      36.095      34.453      31.895    
  28.665      25.062      21.395      17.942      14.912      12.429      10.551      9.2883      8.6075      8.4530    
  8.7599      9.4621      10.495      11.790      13.272      14.850      16.412      17.831      18.972      19.714    
  19.971      19.714      18.972      17.831      16.412      14.850      13.272      11.790      10.495      9.4621    
  8.7599      8.4530      8.6075      9.2883      10.551      12.429      14.912      17.942      21.395      25.062    
  28.665      31.895      34.453      36.095      24.692      24.324      23.261      21.617      19.565      17.308    
  15.048      12.959      11.174      9.7904      8.8643      8.4187      8.4530      8.9524      9.8939      11.250    
  12.989      15.066      17.415      19.928      22.449      24.771      26.660      27.900      28.332      27.900    
  26.660      24.771      22.449      19.928      17.415      15.066      12.989      11.250      9.8939      8.9524    
  8.4530      8.4187      8.8643      9.7904      11.174      12.959      15.048      17.308      19.565      21.617    
  23.261      24.324      16.381      16.158      15.518      14.536      13.323      12.009      10.720      9.5761    
  8.6743      8.0913      7.8849      8.0976      8.7599      9.8939      11.518      13.650      16.303      19.475    
  23.115      27.091      31.163      34.981      38.133      40.218      40.949      40.218      38.133      34.981    
  31.163      27.091      23.115      19.475      16.303      13.650      11.518      9.8939      8.7599      8.0976    
  7.8849      8.0913      8.6743      9.5761      10.720      12.009      13.323      14.536      15.518      16.158    
  10.894      10.768      10.407      9.8616      9.2025      8.5132      7.8789      7.3811      7.0958      7.0946    
  7.4460      8.2147      9.4621      11.250      13.650      16.746      20.633      25.377      30.964      37.220    
  43.758      49.983      55.172      58.626      59.839      58.626      55.172      49.983      43.758      37.220    
  30.964      25.377      20.633      16.746      13.650      11.250      9.4621      8.2147      7.4460      7.0946    
  7.0958      7.3811      7.8789      8.5132      9.2025      9.8616      10.407      10.768      7.3800      7.3158    
  7.1353      6.8714      6.5709      6.2882      6.0831      6.0191      6.1656      6.5993      7.4047      8.6711    
  10.495      12.989      16.303      20.633      26.200      33.192      41.646      51.313      61.561      71.419    
  79.803      85.505      87.534      85.505      79.803      71.419      61.561      51.313      41.646      33.192    
  26.200      20.633      16.303      12.989      10.495      8.6711      7.4047      6.5993      6.1656      6.0191    
  6.0831      6.2882      6.5709      6.8714      7.1353      7.3158      5.1921      5.1665      5.0982      5.0104    
  4.9347      4.9099      4.9834      5.2138      5.6729      6.4486      7.6445      9.3782      11.790      15.066    
  19.475      25.377      33.192      43.277      55.732      70.169      85.927      101.81      115.73      125.31    
  128.73      125.31      115.73      101.81      85.927      70.169      55.732      43.277      33.192      25.377    
  19.475      15.066      11.790      9.3782      7.6445      6.4486      5.6729      5.2138      4.9834      4.9099    
  4.9347      5.0104      5.0982      5.1665      3.8517      3.8495      3.8498      3.8703      3.9344      4.0733    
  4.3312      4.7687      5.4658      6.5243      8.0695      10.253      13.272      17.415      23.115      30.964    
  41.646      55.732      73.385      94.737      119.15      144.15      166.01      180.95      186.26      180.95    
  166.01      144.15      119.15      94.737      73.385      55.732      41.646      30.964      23.115      17.415    
  13.272      10.253      8.0695      6.5243      5.4658      4.7687      4.3312      4.0733      3.9344      3.8703    
  3.8498      3.8495      3.0376      3.0496      3.0918      3.1792      3.3313      3.5766      3.9607      4.5507    
  5.4365      6.7358      8.5974      11.212      14.850      19.928      27.091      37.220      51.313      70.169    
  94.737      125.79      161.56      197.75      228.78      249.61      256.92      249.61      228.78      197.75    
  161.56      125.79      94.737      70.169      51.313      37.220      27.091      19.928      14.850      11.212    
  8.5974      6.7358      5.4365      4.5507      3.9607      3.5766      3.3313      3.1792      3.0918      3.0496    
  2.5485      2.5692      2.6374      2.7668      2.9753      3.2915      3.7649      4.4700      5.5079      7.0113    
  9.1540      12.170      16.412      22.449      31.163      43.758      61.561      85.927      119.15      161.56    
  209.72      257.14      296.58      322.36      331.27      322.36      296.58      257.14      209.72      161.56    
  119.15      85.927      61.561      43.758      31.163      22.449      16.412      12.170      9.1540      7.0113    
  5.5079      4.4700      3.7649      3.2915      2.9753      2.7668      2.6374      2.5692      2.2619      2.2880    
  2.3723      2.5281      2.7730      3.1368      3.6736      4.4650      5.6220      7.2919      9.6717      13.039    
  17.831      24.771      34.981      49.983      71.419      101.81      144.15      197.75      257.14      313.69    
  359.00      387.62      397.31      387.62      359.00      313.69      257.14      197.75      144.15      101.81    
  71.419      49.983      34.981      24.771      17.831      13.039      9.6717      7.2919      5.6220      4.4650    
  3.6736      3.1368      2.7730      2.5281      2.3723      2.2880      2.1024      2.1318      2.2258      2.3977    
  2.6651      3.0598      3.6394      4.4916      5.7353      7.5294      10.091      13.734      18.972      26.660    
  38.133      55.172      79.803      115.73      166.01      228.78      296.58      359.00      407.10      436.35    
  446.01      436.35      407.10      359.00      296.58      228.78      166.01      115.73      79.803      55.172    
  38.133      26.660      18.972      13.734      10.091      7.5294      5.7353      4.4916      3.6394      3.0598    
  2.6651      2.3977      2.2258      2.1318      2.0239      2.0550      2.1542      2.3347      2.6144      3.0265    
  3.6311      4.5197      5.8162      7.6873      10.363      14.184      19.714      27.900      40.218      58.626    
  85.505      125.31      180.95      249.61      322.36      387.62      436.35      465.03      474.29      465.03    
  436.35      387.62      322.36      249.61      180.95      125.31      85.505      58.626      40.218      27.900    
  19.714      14.184      10.363      7.6873      5.8162      4.5197      3.6311      3.0265      2.6144      2.3347    
  2.1542      2.0550      2.0006      2.0322      2.1330      2.3161      2.5998      3.0175      3.6304      4.5310    
  5.8453      7.7426      10.457      14.340      19.971      28.332      40.949      59.839      87.534      128.73    
  186.26      256.92      331.27      397.31      446.01      474.29      483.34      474.29      446.01      397.31    
  331.27      256.92      186.26      128.73      87.534      59.839      40.949      28.332      19.971      14.340    
  10.457      7.7426      5.8453      4.5310      3.6304      3.0175      2.5998      2.3161      2.1330      2.0322    
  2.0239      2.0550      2.1542      2.3347      2.6144      3.0265      3.6311      4.5197      5.8162      7.6873    
  10.363      14.184      19.714      27.900      40.218      58.626      85.505      125.31      180.95      249.61    
  322.36      387.62      436.35      465.03      474.29      465.03      436.35      387.62      322.36      249.61    
  180.95      125.31      85.505      58.626      40.218      27.900      19.714      14.184      10.363      7.6873    
  5.8162      4.5197      3.6311      3.0265      2.6144      2.3347      2.1542      2.0550      2.1024      2.1318    
  2.2258      2.3977      2.6651      3.0598      3.6394      4.4916      5.7353      7.5294      10.091      13.734    
  18.972      26.660      38.133      55.172      79.803      115.73      166.01      228.78      296.58      359.00    
  407.10      436.35      446.01      436.35      407.10      359.00      296.58      228.78      166.01      115.73    
  79.803      55.172      38.133      26.660      18.972      13.734      10.091      7.5294      5.7353      4.4916    
  3.6394      3.0598      2.6651      2.3977      2.2258      2.1318      2.2619      2.2880      2.3723      2.5281    
  2.7730      3.1368      3.6736      4.4650      5.6220      7.2919      9.6717      13.039      17.831      24.771    
  34.981      49.983      71.419      101.81      144.15      197.75      257.14      313.69      359.00      387.62    
  397.31      387.62      359.00      313.69      257.14      197.75      144.15      101.81      71.419      49.983    
  34.981      24.771      17.831      13.039      9.6717      7.2919      5.6220      4.4650      3.6736      3.1368    
  2.7730      2.5281      2.3723      2.2880      2.5485      2.5692      2.6374      2.7668      2.9753      3.2915    
  3.7649      4.4700      5.5079      7.0113      9.1540      12.170      16.412      22.449      31.163      43.758    
  61.561      85.927      119.15      161.56      209.72      257.14      296.58      322.36      331.27      322.36    
  296.58      257.14      209.72      161.56      119.15      85.927      61.561      43.758      31.163      22.449    
  16.412      12.170      9.1540      7.0113      5.5079      4.4700      3.7649      3.2915      2.9753      2.7668    
  2.6374      2.5692      3.0376      3.0496      3.0918      3.1792      3.3313      3.5766      3.9607      4.5507    
  5.4365      6.7358      8.5974      11.212      14.850      19.928      27.091      37.220      51.313      70.169    
  94.737      125.79      161.56      197.75      228.78      249.61      256.92      249.61      228.78      197.75    
  161.56      125.79      94.737      70.169      51.313      37.220      27.091      19.928      14.850      11.212    
  8.5974      6.7358      5.4365      4.5507      3.9607      3.5766      3.3313      3.1792      3.0918      3.0496    
  3.8517      3.8495      3.8498      3.8703      3.9344      4.0733      4.3312      4.7687      5.4658      6.5243    
  8.0695      10.253      13.272      17.415      23.115      30.964      41.646      55.732      73.385      94.737    
  119.15      144.15      166.01      180.95      186.26      180.95      166.01      144.15      119.15      94.737    
  73.385      55.732      41.646      30.964      23.115      17.415      13.272      10.253      8.0695      6.5243    
  5.4658      4.7687      4.3312      4.0733      3.9344      3.8703      3.8498      3.8495      5.1921      5.1665    
  5.0982      5.0104      4.9347      4.9099      4.9834      5.2138      5.6729      6.4486      7.6445      9.3782    
  11.790      15.066      19.475      25.377      33.192      43.277      55.732      70.169      85.927      101.81    
  115.73      125.31      128.73      125.31      115.73      101.81      85.927      70.169      55.732      43.277    
  33.192      25.377      19.475      15.066      11.790      9.3782      7.6445      6.4486      5.6729      5.2138    
  4.9834      4.9099      4.9347      5.0104      5.0982      5.1665      7.3800      7.3158      7.1353      6.8714    
  6.5709      6.2882      6.0831      6.0191      6.1656      6.5993      7.4047      8.6711      10.495      12.989    
  16.303      20.633      26.200      33.192      41.646      51.313      61.561      71.419      79.803      85.505    
  87.534      85.505      79.803      71.419      61.561      51.313      41.646      33.192      26.200      20.633    
  16.303      12.989      10.495      8.6711      7.4047      6.5993      6.1656      6.0191      6.0831      6.2882    
  6.5709      6.8714      7.1353      7.3158      10.894      10.768      10.407      9.8616      9.2025      8.5132    
  7.8789      7.3811      7.0958      7.0946      7.4460      8.2147      9.4621      11.250      13.650      16.746    
  20.633      25.377      30.964      37.220      43.758      49.983      55.172      58.626      59.839      58.626    
  55.172      49.983      43.758      37.220      30.964      25.377      20.633      16.746      13.650      11.250    
  9.4621      8.2147      7.4460      7.0946      7.0958      7.3811      7.8789      8.5132      9.2025      9.8616    
  10.407      10.768      16.381      16.158      15.518      14.536      13.323      12.009      10.720      9.5761    
  8.6743      8.0913      7.8849      8.0976      8.7599      9.8939      11.518      13.650      16.303      19.475    
  23.115      27.091      31.163      34.981      38.133      40.218      40.949      40.218      38.133      34.981    
  31.163      27.091      23.115      19.475      16.303      13.650      11.518      9.8939      8.7599      8.0976    
  7.8849      8.0913      8.6743      9.5761      10.720      12.009      13.323      14.536      15.518      16.158    
  24.692      24.324      23.261      21.617      19.565      17.308      15.048      12.959      11.174      9.7904    
  8.8643      8.4187      8.4530      8.9524      9.8939      11.250      12.989      15.066      17.415      19.928    
  22.449      24.771      26.660      27.900      28.332      27.900      26.660      24.771      22.449      19.928    
  17.415      15.066      12.989      11.250      9.8939      8.9524      8.4530      8.4187      8.8643      9.7904    
  11.174      12.959      15.048      17.308      19.565      21.617      23.261      24.324      36.661      36.095    
  34.453      31.895      28.665      25.062      21.395      17.942      14.912      12.429      10.551      9.2883    
  8.6075      8.4530      8.7599      9.4621      10.495      11.790      13.272      14.850      16.412      17.831    
  18.972      19.714      19.971      19.714      18.972      17.831      16.412      14.850      13.272      11.790    
  10.495      9.4621      8.7599      8.4530      8.6075      9.2883      10.551      12.429      14.912      17.942    
  21.395      25.062      28.665      31.895      34.453      36.095      52.717      51.912      49.566      45.878    
  41.164      35.824      30.292      24.984      20.233      16.253      13.122      10.822      9.2883      8.4187    
  8.0976      8.2147      8.6711      9.3782      10.253      11.212      12.170      13.039      13.734      14.184    
  14.340      14.184      13.734      13.039      12.170      11.212      10.253      9.3782      8.6711      8.2147    
  8.0976      8.4187      9.2883      10.822      13.122      16.253      20.233      24.984      30.292      35.824    
  41.164      45.878      49.566      51.912      72.597      71.539      68.437      63.514      57.134      49.780    
  42.014      34.405      27.451      21.503      16.731      13.122      10.551      8.8643      7.8849      7.4460    
  7.4047      7.6445      8.0695      8.5974      9.1540      9.6717      10.091      10.363      10.457      10.363    
  10.091      9.6717      9.1540      8.5974      8.0695      7.6445      7.4047      7.4460      7.8849      8.8643    
  10.551      13.122      16.731      21.503      27.451      34.405      42.014      49.780      57.134      63.514    
  68.437      71.539      95.212      93.924      90.129      84.036      76.012      66.584      56.409      46.210    
  36.671      28.330      21.503      16.253      12.429      9.7904      8.0913      7.0946      6.5993      6.4486    
  6.5243      6.7358      7.0113      7.2919      7.5294      7.6873      7.7426      7.6873      7.5294      7.2919    
  7.0113      6.7358      6.5243      6.4486      6.5993      7.0946      8.0913      9.7904      12.429      16.253    
  21.503      28.330      36.671      46.210      56.409      66.584      76.012      84.036      90.129      93.924    
  118.79      117.34      113.03      106.03      96.627      85.333      72.845      60.006      47.694      36.671    
  27.451      20.233      14.912      11.174      8.6743      7.0958      6.1656      5.6729      5.4658      5.4365    
  5.5079      5.6220      5.7353      5.8162      5.8453      5.8162      5.7353      5.6220      5.5079      5.4365    
  5.4658      5.6729      6.1656      7.0958      8.6743      11.174      14.912      20.233      27.451      36.671    
  47.694      60.006      72.845      85.333      96.627      106.03      113.03      117.34      141.22      139.71    
  135.19      127.70      117.41      104.72      90.284      75.031      60.006      46.210      34.405      24.984    
  17.942      12.959      9.5761      7.3811      6.0191      5.2138      4.7687      4.5507      4.4700      4.4650    
  4.4916      4.5197      4.5310      4.5197      4.4916      4.4650      4.4700      4.5507      4.7687      5.2138    
  6.0191      7.3811      9.5761      12.959      17.942      24.984      34.405      46.210      60.006      75.031    
  90.284      104.72      117.41      127.70      135.19      139.71      160.57      159.13      154.74      147.29    
  136.74      123.29      107.49      90.284      72.845      56.409      42.014      30.292      21.395      15.048    
  10.720      7.8789      6.0831      4.9834      4.3312      3.9607      3.7649      3.6736      3.6394      3.6311    
  3.6304      3.6311      3.6394      3.6736      3.7649      3.9607      4.3312      4.9834      6.0831      7.8789    
  10.720      15.048      21.395      30.292      42.014      56.409      72.845      90.284      107.49      123.29    
  136.74      147.29      154.74      159.13      175.47      174.21      170.32      163.45      153.28      139.77    
  123.29      104.72      85.333      66.584      49.780      35.824      25.062      17.308      12.009      8.5132    
  6.2882      4.9099      4.0733      3.5766      3.2915      3.1368      3.0598      3.0265      3.0175      3.0265    
  3.0598      3.1368      3.2915      3.5766      4.0733      4.9099      6.2882      8.5132      12.009      17.308    
  25.062      35.824      49.780      66.584      85.333      104.72      123.29      139.77      153.28      163.45    
  170.32      174.21      185.41      184.44      181.33      175.48      166.25      153.28      136.74      117.41    
  96.627      76.012      57.134      41.164      28.665      19.565      13.323      9.2025      6.5709      4.9347    
  3.9344      3.3313      2.9753      2.7730      2.6651      2.6144      2.5998      2.6144      2.6651      2.7730    
  2.9753      3.3313      3.9344      4.9347      6.5709      9.2025      13.323      19.565      28.665      41.164    
  57.134      76.012      96.627      117.41      136.74      153.28      166.25      175.48      181.33      184.44    
  190.83      190.21      188.03      183.45      175.48      163.45      147.29      127.70      106.03      84.036    
  63.514      45.878      31.895      21.617      14.536      9.8616      6.8714      5.0104      3.8703      3.1792    
  2.7668      2.5281      2.3977      2.3347      2.3161      2.3347      2.3977      2.5281      2.7668      3.1792    
  3.8703      5.0104      6.8714      9.8616      14.536      21.617      31.895      45.878      63.514      84.036    
  106.03      127.70      147.29      163.45      175.48      183.45      188.03      190.21      192.97      192.68    
  191.39      188.03      181.33      170.32      154.74      135.19      113.03      90.129      68.437      49.566    
  34.453      23.261      15.518      10.407      7.1353      5.0982      3.8498      3.0918      2.6374      2.3723    
  2.2258      2.1542      2.1330      2.1542      2.2258      2.3723      2.6374      3.0918      3.8498      5.0982    
  7.1353      10.407      15.518      23.261      34.453      49.566      68.437      90.129      113.03      135.19    
  154.74      170.32      181.33      188.03      191.39      192.68      193.37      193.32      192.68      190.21    
  184.44      174.21      159.13      139.71      117.34      93.924      71.539      51.912      36.095      24.324    
  16.158      10.768      7.3158      5.1665      3.8495      3.0496      2.5692      2.2880      2.1318      2.0550    
  2.0322      2.0550      2.1318      2.2880      2.5692      3.0496      3.8495      5.1665      7.3158      10.768    
  16.158      24.324      36.095      51.912      71.539      93.924      117.34      139.71      159.13      174.21    
  184.44      190.21      192.68      193.32      193.37      193.32      192.68      190.21      184.44      174.21    
  159.13      139.71      117.34      93.924      71.539      51.912      36.095      24.324      16.158      10.768    
  7.3158      5.1665      3.8495      3.0496      2.5692      2.2880      2.1318      2.0550      2.0322      2.0550    
  2.1318      2.2880      2.5692      3.0496      3.8495      5.1665      7.3158      10.768      16.158      24.324    
  36.095      51.912      71.539      93.924      117.34      139.71      159.13      174.21      184.44      190.21    
  192.68      193.32      193.32      193.18      192.32      189.54      183.44      172.94      157.68      138.20    
  115.89      92.647      70.492      51.119      35.538      23.962      15.940      10.644      7.2526      5.1411    
  3.8471      3.0612      2.5895      2.3136      2.1606      2.0855      2.0632      2.0855      2.1606      2.3136    
  2.5895      3.0612      3.8471      5.1411      7.2526      10.644      15.940      23.962      35.538      51.119    
  70.492      92.647      115.89      138.20      157.68      172.94      183.44      189.54      192.32      193.18    
  192.68      192.32      190.83      187.20      180.22      168.98      153.26      133.69      111.61      88.886    
  67.427      48.805      33.922      22.917      15.310      10.289      7.0748      5.0736      3.8471      3.1024    
  2.6563      2.3963      2.2529      2.1829      2.1622      2.1829      2.2529      2.3963      2.6563      3.1024    
  3.8471      5.0736      7.0748      10.289      15.310      22.917      33.922      48.805      67.427      88.886    