unknown system                          
   1.00000000000000     
     3.905268    0.000000    0.000000
     0.000000    3.905268    0.000000
     0.000000    0.000000    3.905268
   Sr   Ti   O 
     1     1     3
Direct
  0.000000  0.000000  0.000000
  0.500000  0.500000  0.500000
  0.500000  0.500000  0.000000
  0.500000  0.000000  0.500000
  0.000000  0.500000  0.500000
 
   48   48   48
 0.19333589208E+03 0.19336937900E+03 0.19296663278E+03 0.19083140592E+03 0.18540541591E+03
 0.17546744731E+03 0.16057158619E+03 0.14122095101E+03 0.11878502588E+03 0.95211510535E+02
 0.72597006748E+02 0.52717260193E+02 0.36660585058E+02 0.24692452910E+02 0.16381076409E+02
 0.10893992620E+02 0.73800202436E+01 0.51921202285E+01 0.38517165957E+01 0.30375893138E+01
 0.25485192033E+01 0.22618815872E+01 0.21024402557E+01 0.20239401806E+01 0.20005690343E+01
 0.20239401806E+01 0.21024402557E+01 0.22618815872E+01 0.25485192033E+01 0.30375893138E+01
 0.38517165957E+01 0.51921202285E+01 0.73800202436E+01 0.10893992620E+02 0.16381076409E+02
 0.24692452910E+02 0.36660585058E+02 0.52717260193E+02 0.72597006748E+02 0.95211510535E+02
 0.11878502588E+03 0.14122095101E+03 0.16057158619E+03 0.17546744731E+03 0.18540541591E+03
 0.19083140592E+03 0.19296663278E+03 0.19336937900E+03 0.19336937900E+03 0.19331654403E+03
 0.19267731394E+03 0.19021439497E+03 0.18444435646E+03 0.17421489760E+03 0.15912878217E+03
 0.13971265956E+03 0.11733547321E+03 0.93923892148E+02 0.71538514976E+02 0.51912421030E+02
 0.36094824639E+02 0.24324393554E+02 0.16158488200E+02 0.10767890597E+02 0.73158398999E+01
 0.51664597391E+01 0.38494750434E+01 0.30495677838E+01 0.25692356400E+01 0.22880041328E+01
 0.21318117209E+01 0.20550380799E+01 0.20322058345E+01 0.20550380799E+01 0.21318117209E+01
 0.22880041328E+01 0.25692356400E+01 0.30495677838E+01 0.38494750434E+01 0.51664597391E+01
 0.73158398999E+01 0.10767890597E+02 0.16158488200E+02 0.24324393554E+02 0.36094824639E+02
 0.51912421030E+02 0.71538514976E+02 0.93923892148E+02 0.11733547321E+03 0.13971265956E+03
 0.15912878217E+03 0.17421489760E+03 0.18444435646E+03 0.19021439497E+03 0.19267731394E+03
 0.19331654403E+03 0.19296663278E+03 0.19267731394E+03 0.19139083738E+03 0.18803328481E+03
 0.18132931381E+03 0.17031911800E+03 0.15474212961E+03 0.13519098140E+03 0.11303169238E+03
 0.90128667983E+02 0.68437065599E+02 0.49566131888E+02 0.34452934399E+02 0.23260703955E+02
 0.15517886830E+02 0.10407281154E+02 0.71353456695E+01 0.50982117496E+01 0.38497824899E+01
 0.30917904665E+01 0.26374025211E+01 0.23723018029E+01 0.22258179276E+01 0.21541999733E+01
 0.21329757355E+01 0.21541999733E+01 0.22258179276E+01 0.23723018029E+01 0.26374025211E+01
 0.30917904665E+01 0.38497824899E+01 0.50982117496E+01 0.71353456695E+01 0.10407281154E+02
 0.15517886830E+02 0.23260703955E+02 0.34452934399E+02 0.49566131888E+02 0.68437065599E+02
 0.90128667983E+02 0.11303169238E+03 0.13519098140E+03 0.15474212961E+03 0.17031911800E+03
 0.18132931381E+03 0.18803328481E+03 0.19139083738E+03 0.19267731394E+03 0.19083140592E+03
 0.19021439497E+03 0.18803328481E+03 0.18344713481E+03 0.17547913604E+03 0.16344799501E+03
 0.14729237000E+03 0.12769997268E+03 0.10602695498E+03 0.84035909818E+02 0.63514264157E+02
 0.45878302397E+02 0.31894715291E+02 0.21616686806E+02 0.14535638200E+02 0.98615518441E+01
 0.68714337863E+01 0.50103748951E+01 0.38702526431E+01 0.31792249314E+01 0.27668280728E+01
 0.25281418705E+01 0.23976984610E+01 0.23346556048E+01 0.23161167803E+01 0.23346556048E+01
 0.23976984610E+01 0.25281418705E+01 0.27668280728E+01 0.31792249314E+01 0.38702526431E+01
 0.50103748951E+01 0.68714337863E+01 0.98615518441E+01 0.14535638200E+02 0.21616686806E+02
 0.31894715291E+02 0.45878302397E+02 0.63514264157E+02 0.84035909818E+02 0.10602695498E+03
 0.12769997268E+03 0.14729237000E+03 0.16344799501E+03 0.17547913604E+03 0.18344713481E+03
 0.18803328481E+03 0.19021439497E+03 0.18540541591E+03 0.18444435646E+03 0.18132931381E+03
 0.17547913604E+03 0.16625254193E+03 0.15328430116E+03 0.13673992855E+03 0.11741076233E+03
 0.96627398252E+02 0.76012306242E+02 0.57133626630E+02 0.41164314338E+02 0.28665024501E+02
 0.19564727167E+02 0.13323290100E+02 0.92024785262E+01 0.65708538048E+01 0.49347025423E+01
 0.39344098976E+01 0.33313385515E+01 0.29753300365E+01 0.27729839271E+01 0.26651451964E+01
 0.26144475691E+01 0.25998273593E+01 0.26144475691E+01 0.26651451964E+01 0.27729839271E+01
 0.29753300365E+01 0.33313385515E+01 0.39344098976E+01 0.49347025423E+01 0.65708538048E+01
 0.92024785262E+01 0.13323290100E+02 0.19564727167E+02 0.28665024501E+02 0.41164314338E+02
 0.57133626630E+02 0.76012306242E+02 0.96627398252E+02 0.11741076233E+03 0.13673992855E+03
 0.15328430116E+03 0.16625254193E+03 0.17547913604E+03 0.18132931381E+03 0.18444435646E+03
 0.17546744731E+03 0.17421489760E+03 0.17031911800E+03 0.16344799501E+03 0.15328430116E+03
 0.13976978547E+03 0.12328749307E+03 0.10471625521E+03 0.85333404545E+02 0.66584113133E+02
 0.49779793876E+02 0.35823655751E+02 0.25061810106E+02 0.17307598358E+02 0.12008571819E+02
 0.85132123819E+01 0.62882354590E+01 0.49098919778E+01 0.40733260980E+01 0.35765820071E+01
 0.32914822737E+01 0.31367899283E+01 0.30597940919E+01 0.30265016497E+01 0.30175135587E+01
 0.30265016497E+01 0.30597940919E+01 0.31367899283E+01 0.32914822737E+01 0.35765820071E+01
 0.40733260980E+01 0.49098919778E+01 0.62882354590E+01 0.85132123819E+01 0.12008571819E+02
 0.17307598358E+02 0.25061810106E+02 0.35823655751E+02 0.49779793876E+02 0.66584113133E+02
 0.85333404545E+02 0.10471625521E+03 0.12328749307E+03 0.13976978547E+03 0.15328430116E+03
 0.16344799501E+03 0.17031911800E+03 0.17421489760E+03 0.16057158619E+03 0.15912878217E+03
 0.15474212961E+03 0.14729237000E+03 0.13673992855E+03 0.12328749307E+03 0.10749350273E+03
 0.90284184653E+02 0.72844633721E+02 0.56409431838E+02 0.42013973798E+02 0.30292275743E+02
 0.21394723631E+02 0.15047704300E+02 0.10720249908E+02 0.78789423464E+01 0.60830684865E+01
 0.49834139403E+01 0.43311525023E+01 0.39606965286E+01 0.37648891751E+01 0.36735566866E+01
 0.36394462509E+01 0.36311486453E+01 0.36303887423E+01 0.36311486453E+01 0.36394462509E+01
 0.36735566866E+01 0.37648891751E+01 0.39606965286E+01 0.43311525023E+01 0.49834139403E+01
 0.60830684865E+01 0.78789423464E+01 0.10720249908E+02 0.15047704300E+02 0.21394723631E+02
 0.30292275743E+02 0.42013973798E+02 0.56409431838E+02 0.72844633721E+02 0.90284184653E+02
 0.10749350273E+03 0.12328749307E+03 0.13673992855E+03 0.14729237000E+03 0.15474212961E+03
 0.15912878217E+03 0.14122095101E+03 0.13971265956E+03 0.13519098140E+03 0.12769997268E+03
 0.11741076233E+03 0.10471625521E+03 0.90284184653E+02 0.75030990687E+02 0.60005971642E+02
 0.46210058845E+02 0.34405439961E+02 0.24983978113E+02 0.17941505946E+02 0.12958921393E+02
 0.95761496121E+01 0.73811305833E+01 0.60190888225E+01 0.52137880461E+01 0.47687014441E+01
 0.45506521497E+01 0.44700444738E+01 0.44650021947E+01 0.44916475252E+01 0.45196763405E+01
 0.45310261068E+01 0.45196763405E+01 0.44916475252E+01 0.44650021947E+01 0.44700444738E+01
 0.45506521497E+01 0.47687014441E+01 0.52137880461E+01 0.60190888225E+01 0.73811305833E+01
 0.95761496121E+01 0.12958921393E+02 0.17941505946E+02 0.24983978113E+02 0.34405439961E+02
 0.46210058845E+02 0.60005971642E+02 0.75030990687E+02 0.90284184653E+02 0.10471625521E+03
 0.11741076233E+03 0.12769997268E+03 0.13519098140E+03 0.13971265956E+03 0.11878502588E+03
 0.11733547321E+03 0.11303169238E+03 0.10602695498E+03 0.96627398252E+02 0.85333404545E+02
 0.72844633721E+02 0.60005971642E+02 0.47693979526E+02 0.36670574627E+02 0.27450937336E+02
 0.20232984228E+02 0.14911923506E+02 0.11174136443E+02 0.86742790992E+01 0.70958063710E+01
 0.61655741899E+01 0.56729374194E+01 0.54657727589E+01 0.54365427234E+01 0.55078590409E+01
 0.56220034163E+01 0.57352890504E+01 0.58161658001E+01 0.58453025009E+01 0.58161658001E+01
 0.57352890504E+01 0.56220034163E+01 0.55078590409E+01 0.54365427234E+01 0.54657727589E+01
 0.56729374194E+01 0.61655741899E+01 0.70958063710E+01 0.86742790992E+01 0.11174136443E+02
 0.14911923506E+02 0.20232984228E+02 0.27450937336E+02 0.36670574627E+02 0.47693979526E+02
 0.60005971642E+02 0.72844633721E+02 0.85333404545E+02 0.96627398252E+02 0.10602695498E+03
 0.11303169238E+03 0.11733547321E+03 0.95211510535E+02 0.93923892148E+02 0.90128667983E+02
 0.84035909818E+02 0.76012306242E+02 0.66584113133E+02 0.56409431838E+02 0.46210058845E+02
 0.36670574627E+02 0.28330352923E+02 0.21503246226E+02 0.16252640935E+02 0.12429213698E+02
 0.97904187080E+01 0.80912944871E+01 0.70946249464E+01 0.65993351617E+01 0.64486487308E+01
 0.65242632684E+01 0.67357794992E+01 0.70113322673E+01 0.72919065359E+01 0.75294051286E+01
 0.76873267569E+01 0.77426059578E+01 0.76873267569E+01 0.75294051286E+01 0.72919065359E+01
 0.70113322673E+01 0.67357794992E+01 0.65242632684E+01 0.64486487308E+01 0.65993351617E+01
 0.70946249464E+01 0.80912944871E+01 0.97904187080E+01 0.12429213698E+02 0.16252640935E+02
 0.21503246226E+02 0.28330352923E+02 0.36670574627E+02 0.46210058845E+02 0.56409431838E+02
 0.66584113133E+02 0.76012306242E+02 0.84035909818E+02 0.90128667983E+02 0.93923892148E+02
 0.72597006748E+02 0.71538514976E+02 0.68437065599E+02 0.63514264157E+02 0.57133626630E+02
 0.49779793876E+02 0.42013973798E+02 0.34405439961E+02 0.27450937336E+02 0.21503246226E+02
 0.16730949668E+02 0.13121861352E+02 0.10551348130E+02 0.88643028182E+01 0.78849371985E+01
 0.74459906738E+01 0.74046687115E+01 0.76444561676E+01 0.80695063477E+01 0.85974249021E+01
 0.91540464211E+01 0.96716519122E+01 0.10090520857E+02 0.10362801306E+02 0.10457201499E+02
 0.10362801306E+02 0.10090520857E+02 0.96716519122E+01 0.91540464211E+01 0.85974249021E+01
 0.80695063477E+01 0.76444561676E+01 0.74046687115E+01 0.74459906738E+01 0.78849371985E+01
 0.88643028182E+01 0.10551348130E+02 0.13121861352E+02 0.16730949668E+02 0.21503246226E+02
 0.27450937336E+02 0.34405439961E+02 0.42013973798E+02 0.49779793876E+02 0.57133626630E+02
 0.63514264157E+02 0.68437065599E+02 0.71538514976E+02 0.52717260193E+02 0.51912421030E+02
 0.49566131888E+02 0.45878302397E+02 0.41164314338E+02 0.35823655751E+02 0.30292275743E+02
 0.24983978113E+02 0.20232984228E+02 0.16252640935E+02 0.13121861352E+02 0.10821818018E+02
 0.92882913646E+01 0.84186842068E+01 0.80976274730E+01 0.82147108642E+01 0.86710798396E+01
 0.93782145599E+01 0.10252970138E+02 0.11212316438E+02 0.12170327766E+02 0.13039108686E+02
 0.13734257650E+02 0.14184016722E+02 0.14339699764E+02 0.14184016722E+02 0.13734257650E+02
 0.13039108686E+02 0.12170327766E+02 0.11212316438E+02 0.10252970138E+02 0.93782145599E+01
 0.86710798396E+01 0.82147108642E+01 0.80976274730E+01 0.84186842068E+01 0.92882913646E+01
 0.10821818018E+02 0.13121861352E+02 0.16252640935E+02 0.20232984228E+02 0.24983978113E+02
 0.30292275743E+02 0.35823655751E+02 0.41164314338E+02 0.45878302397E+02 0.49566131888E+02
 0.51912421030E+02 0.36660585058E+02 0.36094824639E+02 0.34452934399E+02 0.31894715291E+02
 0.28665024501E+02 0.25061810106E+02 0.21394723631E+02 0.17941505946E+02 0.14911923506E+02
 0.12429213698E+02 0.10551348130E+02 0.92882913646E+01 0.86075255697E+01 0.84530261695E+01
 0.87598636539E+01 0.94621070601E+01 0.10494564181E+02 0.11789773697E+02 0.13271880959E+02
 0.14849679033E+02 0.16412254551E+02 0.17831209187E+02 0.18972022334E+02 0.19713615247E+02
 0.19971026986E+02 0.19713615247E+02 0.18972022334E+02 0.17831209187E+02 0.16412254551E+02
 0.14849679033E+02 0.13271880959E+02 0.11789773697E+02 0.10494564181E+02 0.94621070601E+01
 0.87598636539E+01 0.84530261695E+01 0.86075255697E+01 0.92882913646E+01 0.10551348130E+02
 0.12429213698E+02 0.14911923506E+02 0.17941505946E+02 0.21394723631E+02 0.25061810106E+02
 0.28665024501E+02 0.31894715291E+02 0.34452934399E+02 0.36094824639E+02 0.24692452910E+02
 0.24324393554E+02 0.23260703955E+02 0.21616686806E+02 0.19564727167E+02 0.17307598358E+02
 0.15047704300E+02 0.12958921393E+02 0.11174136443E+02 0.97904187080E+01 0.88643028182E+01
 0.84186842068E+01 0.84530261695E+01 0.89523778428E+01 0.98938617950E+01 0.11250127517E+02
 0.12988781749E+02 0.15066169306E+02 0.17414940518E+02 0.19928383136E+02 0.22448957085E+02
 0.24770502575E+02 0.26660429602E+02 0.27900109589E+02 0.28332425582E+02 0.27900109589E+02
 0.26660429602E+02 0.24770502575E+02 0.22448957085E+02 0.19928383136E+02 0.17414940518E+02
 0.15066169306E+02 0.12988781749E+02 0.11250127517E+02 0.98938617950E+01 0.89523778428E+01
 0.84530261695E+01 0.84186842068E+01 0.88643028182E+01 0.97904187080E+01 0.11174136443E+02
 0.12958921393E+02 0.15047704300E+02 0.17307598358E+02 0.19564727167E+02 0.21616686806E+02
 0.23260703955E+02 0.24324393554E+02 0.16381076409E+02 0.16158488200E+02 0.15517886830E+02
 0.14535638200E+02 0.13323290100E+02 0.12008571819E+02 0.10720249908E+02 0.95761496121E+01
 0.86742790992E+01 0.80912944871E+01 0.78849371985E+01 0.80976274730E+01 0.87598636539E+01
 0.98938617950E+01 0.11517904003E+02 0.13649579664E+02 0.16303078740E+02 0.19474743762E+02
 0.23114731332E+02 0.27091173737E+02 0.31162968277E+02 0.34981289487E+02 0.38132569736E+02
 0.40218366902E+02 0.40948989792E+02 0.40218366902E+02 0.38132569736E+02 0.34981289487E+02
 0.31162968277E+02 0.27091173737E+02 0.23114731332E+02 0.19474743762E+02 0.16303078740E+02
 0.13649579664E+02 0.11517904003E+02 0.98938617950E+01 0.87598636539E+01 0.80976274730E+01
 0.78849371985E+01 0.80912944871E+01 0.86742790992E+01 0.95761496121E+01 0.10720249908E+02
 0.12008571819E+02 0.13323290100E+02 0.14535638200E+02 0.15517886830E+02 0.16158488200E+02
 0.10893992620E+02 0.10767890597E+02 0.10407281154E+02 0.98615518441E+01 0.92024785262E+01
 0.85132123819E+01 0.78789423464E+01 0.73811305833E+01 0.70958063710E+01 0.70946249464E+01
 0.74459906738E+01 0.82147108642E+01 0.94621070601E+01 0.11250127517E+02 0.13649579664E+02
 0.16746083926E+02 0.20632517068E+02 0.25377070186E+02 0.30963881086E+02 0.37219516266E+02
 0.43757773043E+02 0.49982611047E+02 0.55171685640E+02 0.58626190968E+02 0.59839364371E+02
 0.58626190968E+02 0.55171685640E+02 0.49982611047E+02 0.43757773043E+02 0.37219516266E+02
 0.30963881086E+02 0.25377070186E+02 0.20632517068E+02 0.16746083926E+02 0.13649579664E+02
 0.11250127517E+02 0.94621070601E+01 0.82147108642E+01 0.74459906738E+01 0.70946249464E+01
 0.70958063710E+01 0.73811305833E+01 0.78789423464E+01 0.85132123819E+01 0.92024785262E+01
 0.98615518441E+01 0.10407281154E+02 0.10767890597E+02 0.73800202436E+01 0.73158398999E+01
 0.71353456695E+01 0.68714337863E+01 0.65708538048E+01 0.62882354590E+01 0.60830684865E+01
 0.60190888225E+01 0.61655741899E+01 0.65993351617E+01 0.74046687115E+01 0.86710798396E+01
 0.10494564181E+02 0.12988781749E+02 0.16303078740E+02 0.20632517068E+02 0.26199783288E+02
 0.33191628229E+02 0.41645603913E+02 0.51312852738E+02 0.61561023924E+02 0.71419280494E+02
 0.79802818831E+02 0.85505245071E+02 0.87533538776E+02 0.85505245071E+02 0.79802818831E+02
 0.71419280494E+02 0.61561023924E+02 0.51312852738E+02 0.41645603913E+02 0.33191628229E+02
 0.26199783288E+02 0.20632517068E+02 0.16303078740E+02 0.12988781749E+02 0.10494564181E+02
 0.86710798396E+01 0.74046687115E+01 0.65993351617E+01 0.61655741899E+01 0.60190888225E+01
 0.60830684865E+01 0.62882354590E+01 0.65708538048E+01 0.68714337863E+01 0.71353456695E+01
 0.73158398999E+01 0.51921202285E+01 0.51664597391E+01 0.50982117496E+01 0.50103748951E+01
 0.49347025423E+01 0.49098919778E+01 0.49834139403E+01 0.52137880461E+01 0.56729374194E+01
 0.64486487308E+01 0.76444561676E+01 0.93782145599E+01 0.11789773697E+02 0.15066169306E+02
 0.19474743762E+02 0.25377070186E+02 0.33191628229E+02 0.43277441117E+02 0.55731859640E+02
 0.70168818283E+02 0.85926579563E+02 0.10181233526E+03 0.11572944669E+03 0.12531274855E+03
 0.12873465564E+03 0.12531274855E+03 0.11572944669E+03 0.10181233526E+03 0.85926579563E+02
 0.70168818283E+02 0.55731859640E+02 0.43277441117E+02 0.33191628229E+02 0.25377070186E+02
 0.19474743762E+02 0.15066169306E+02 0.11789773697E+02 0.93782145599E+01 0.76444561676E+01
 0.64486487308E+01 0.56729374194E+01 0.52137880461E+01 0.49834139403E+01 0.49098919778E+01
 0.49347025423E+01 0.50103748951E+01 0.50982117496E+01 0.51664597391E+01 0.38517165957E+01
 0.38494750434E+01 0.38497824899E+01 0.38702526431E+01 0.39344098976E+01 0.40733260980E+01
 0.43311525023E+01 0.47687014441E+01 0.54657727589E+01 0.65242632684E+01 0.80695063477E+01
 0.10252970138E+02 0.13271880959E+02 0.17414940518E+02 0.23114731332E+02 0.30963881086E+02
 0.41645603913E+02 0.55731859640E+02 0.73384623374E+02 0.94737228099E+02 0.11914992762E+03
 0.14414534922E+03 0.16600663234E+03 0.18095347921E+03 0.18626221556E+03 0.18095347921E+03
 0.16600663234E+03 0.14414534922E+03 0.11914992762E+03 0.94737228099E+02 0.73384623374E+02
 0.55731859640E+02 0.41645603913E+02 0.30963881086E+02 0.23114731332E+02 0.17414940518E+02
 0.13271880959E+02 0.10252970138E+02 0.80695063477E+01 0.65242632684E+01 0.54657727589E+01
 0.47687014441E+01 0.43311525023E+01 0.40733260980E+01 0.39344098976E+01 0.38702526431E+01
 0.38497824899E+01 0.38494750434E+01 0.30375893138E+01 0.30495677838E+01 0.30917904665E+01
 0.31792249314E+01 0.33313385515E+01 0.35765820071E+01 0.39606965286E+01 0.45506521497E+01
 0.54365427234E+01 0.67357794992E+01 0.85974249021E+01 0.11212316438E+02 0.14849679033E+02
 0.19928383136E+02 0.27091173737E+02 0.37219516266E+02 0.51312852738E+02 0.70168818283E+02
 0.94737228099E+02 0.12578562980E+03 0.16156409988E+03 0.19774918282E+03 0.22877943787E+03
 0.24960692521E+03 0.25692326337E+03 0.24960692521E+03 0.22877943787E+03 0.19774918282E+03
 0.16156409988E+03 0.12578562980E+03 0.94737228099E+02 0.70168818283E+02 0.51312852738E+02
 0.37219516266E+02 0.27091173737E+02 0.19928383136E+02 0.14849679033E+02 0.11212316438E+02
 0.85974249021E+01 0.67357794992E+01 0.54365427234E+01 0.45506521497E+01 0.39606965286E+01
 0.35765820071E+01 0.33313385515E+01 0.31792249314E+01 0.30917904665E+01 0.30495677838E+01
 0.25485192033E+01 0.25692356400E+01 0.26374025211E+01 0.27668280728E+01 0.29753300365E+01
 0.32914822737E+01 0.37648891751E+01 0.44700444738E+01 0.55078590409E+01 0.70113322673E+01
 0.91540464211E+01 0.12170327766E+02 0.16412254551E+02 0.22448957085E+02 0.31162968277E+02
 0.43757773043E+02 0.61561023924E+02 0.85926579563E+02 0.11914992762E+03 0.16156409988E+03
 0.20972242349E+03 0.25713967013E+03 0.29658219487E+03 0.32235630184E+03 0.33126752655E+03
 0.32235630184E+03 0.29658219487E+03 0.25713967013E+03 0.20972242349E+03 0.16156409988E+03
 0.11914992762E+03 0.85926579563E+02 0.61561023924E+02 0.43757773043E+02 0.31162968277E+02
 0.22448957085E+02 0.16412254551E+02 0.12170327766E+02 0.91540464211E+01 0.70113322673E+01
 0.55078590409E+01 0.44700444738E+01 0.37648891751E+01 0.32914822737E+01 0.29753300365E+01
 0.27668280728E+01 0.26374025211E+01 0.25692356400E+01 0.22618815872E+01 0.22880041328E+01
 0.23723018029E+01 0.25281418705E+01 0.27729839271E+01 0.31367899283E+01 0.36735566866E+01
 0.44650021947E+01 0.56220034163E+01 0.72919065359E+01 0.96716519122E+01 0.13039108686E+02
 0.17831209187E+02 0.24770502575E+02 0.34981289487E+02 0.49982611047E+02 0.71419280494E+02
 0.10181233526E+03 0.14414534922E+03 0.19774918282E+03 0.25713967013E+03 0.31368615690E+03
 0.35899927059E+03 0.38762153607E+03 0.39731285027E+03 0.38762153607E+03 0.35899927059E+03
 0.31368615690E+03 0.25713967013E+03 0.19774918282E+03 0.14414534922E+03 0.10181233526E+03
 0.71419280494E+02 0.49982611047E+02 0.34981289487E+02 0.24770502575E+02 0.17831209187E+02
 0.13039108686E+02 0.96716519122E+01 0.72919065359E+01 0.56220034163E+01 0.44650021947E+01
 0.36735566866E+01 0.31367899283E+01 0.27729839271E+01 0.25281418705E+01 0.23723018029E+01
 0.22880041328E+01 0.21024402557E+01 0.21318117209E+01 0.22258179276E+01 0.23976984610E+01
 0.26651451964E+01 0.30597940919E+01 0.36394462509E+01 0.44916475252E+01 0.57352890504E+01
 0.75294051286E+01 0.10090520857E+02 0.13734257650E+02 0.18972022334E+02 0.26660429602E+02
 0.38132569736E+02 0.55171685640E+02 0.79802818831E+02 0.11572944669E+03 0.16600663234E+03
 0.22877943787E+03 0.29658219487E+03 0.35899927059E+03 0.40709806786E+03 0.43634989400E+03
 0.44601317506E+03 0.43634989400E+03 0.40709806786E+03 0.35899927059E+03 0.29658219487E+03
 0.22877943787E+03 0.16600663234E+03 0.11572944669E+03 0.79802818831E+02 0.55171685640E+02
 0.38132569736E+02 0.26660429602E+02 0.18972022334E+02 0.13734257650E+02 0.10090520857E+02
 0.75294051286E+01 0.57352890504E+01 0.44916475252E+01 0.36394462509E+01 0.30597940919E+01
 0.26651451964E+01 0.23976984610E+01 0.22258179276E+01 0.21318117209E+01 0.20239401806E+01
 0.20550380799E+01 0.21541999733E+01 0.23346556048E+01 0.26144475691E+01 0.30265016497E+01
 0.36311486453E+01 0.45196763405E+01 0.58161658001E+01 0.76873267569E+01 0.10362801306E+02
 0.14184016722E+02 0.19713615247E+02 0.27900109589E+02 0.40218366902E+02 0.58626190968E+02
 0.85505245071E+02 0.12531274855E+03 0.18095347921E+03 0.24960692521E+03 0.32235630184E+03
 0.38762153607E+03 0.43634989400E+03 0.46502953914E+03 0.47429235226E+03 0.46502953914E+03
 0.43634989400E+03 0.38762153607E+03 0.32235630184E+03 0.24960692521E+03 0.18095347921E+03
 0.12531274855E+03 0.85505245071E+02 0.58626190968E+02 0.40218366902E+02 0.27900109589E+02
 0.19713615247E+02 0.14184016722E+02 0.10362801306E+02 0.76873267569E+01 0.58161658001E+01
 0.45196763405E+01 0.36311486453E+01 0.30265016497E+01 0.26144475691E+01 0.23346556048E+01
 0.21541999733E+01 0.20550380799E+01 0.20005690343E+01 0.20322058345E+01 0.21329757355E+01
 0.23161167803E+01 0.25998273593E+01 0.30175135587E+01 0.36303887423E+01 0.45310261068E+01
 0.58453025009E+01 0.77426059578E+01 0.10457201499E+02 0.14339699764E+02 0.19971026986E+02
 0.28332425582E+02 0.40948989792E+02 0.59839364371E+02 0.87533538776E+02 0.12873465564E+03
 0.18626221556E+03 0.25692326337E+03 0.33126752655E+03 0.39731285027E+03 0.44601317506E+03
 0.47429235226E+03 0.48333801846E+03 0.47429235226E+03 0.44601317506E+03 0.39731285027E+03
 0.33126752655E+03 0.25692326337E+03 0.18626221556E+03 0.12873465564E+03 0.87533538776E+02
 0.59839364371E+02 0.40948989792E+02 0.28332425582E+02 0.19971026986E+02 0.14339699764E+02
 0.10457201499E+02 0.77426059578E+01 0.58453025009E+01 0.45310261068E+01 0.36303887423E+01
 0.30175135587E+01 0.25998273593E+01 0.23161167803E+01 0.21329757355E+01 0.20322058345E+01
 0.20239401806E+01 0.20550380799E+01 0.21541999733E+01 0.23346556048E+01 0.26144475691E+01
 0.30265016497E+01 0.36311486453E+01 0.45196763405E+01 0.58161658001E+01 0.76873267569E+01
 0.10362801306E+02 0.14184016722E+02 0.19713615247E+02 0.27900109589E+02 0.40218366902E+02
 0.58626190968E+02 0.85505245071E+02 0.12531274855E+03 0.18095347921E+03 0.24960692521E+03
 0.32235630184E+03 0.38762153607E+03 0.43634989400E+03 0.46502953914E+03 0.47429235226E+03
 0.46502953914E+03 0.43634989400E+03 0.38762153607E+03 0.32235630184E+03 0.24960692521E+03
 0.18095347921E+03 0.12531274855E+03 0.85505245071E+02 0.58626190968E+02 0.40218366902E+02
 0.27900109589E+02 0.19713615247E+02 0.14184016722E+02 0.10362801306E+02 0.76873267569E+01
 0.58161658001E+01 0.45196763405E+01 0.36311486453E+01 0.30265016497E+01 0.26144475691E+01
 0.23346556048E+01 0.21541999733E+01 0.20550380799E+01 0.21024402557E+01 0.21318117209E+01
 0.22258179276E+01 0.23976984610E+01 0.26651451964E+01 0.30597940919E+01 0.36394462509E+01
 0.44916475252E+01 0.57352890504E+01 0.75294051286E+01 0.10090520857E+02 0.13734257650E+02
 0.18972022334E+02 0.26660429602E+02 0.38132569736E+02 0.55171685640E+02 0.79802818831E+02
 0.11572944669E+03 0.16600663234E+03 0.22877943787E+03 0.29658219487E+03 0.35899927059E+03
 0.40709806786E+03 0.43634989400E+03 0.44601317506E+03 0.43634989400E+03 0.40709806786E+03
 0.35899927059E+03 0.29658219487E+03 0.22877943787E+03 0.16600663234E+03 0.11572944669E+03
 0.79802818831E+02 0.55171685640E+02 0.38132569736E+02 0.26660429602E+02 0.18972022334E+02
 0.13734257650E+02 0.10090520857E+02 0.75294051286E+01 0.57352890504E+01 0.44916475252E+01
 0.36394462509E+01 0.30597940919E+01 0.26651451964E+01 0.23976984610E+01 0.22258179276E+01
 0.21318117209E+01 0.22618815872E+01 0.22880041328E+01 0.23723018029E+01 0.25281418705E+01
 0.27729839271E+01 0.31367899283E+01 0.36735566866E+01 0.44650021947E+01 0.56220034163E+01
 0.72919065359E+01 0.96716519122E+01 0.13039108686E+02 0.17831209187E+02 0.24770502575E+02
 0.34981289487E+02 0.49982611047E+02 0.71419280494E+02 0.10181233526E+03 0.14414534922E+03
 0.19774918282E+03 0.25713967013E+03 0.31368615690E+03 0.35899927059E+03 0.38762153607E+03
 0.39731285027E+03 0.38762153607E+03 0.35899927059E+03 0.31368615690E+03 0.25713967013E+03
 0.19774918282E+03 0.14414534922E+03 0.10181233526E+03 0.71419280494E+02 0.49982611047E+02
 0.34981289487E+02 0.24770502575E+02 0.17831209187E+02 0.13039108686E+02 0.96716519122E+01
 0.72919065359E+01 0.56220034163E+01 0.44650021947E+01 0.36735566866E+01 0.31367899283E+01
 0.27729839271E+01 0.25281418705E+01 0.23723018029E+01 0.22880041328E+01 0.25485192033E+01
 0.25692356400E+01 0.26374025211E+01 0.27668280728E+01 0.29753300365E+01 0.32914822737E+01
 0.37648891751E+01 0.44700444738E+01 0.55078590409E+01 0.70113322673E+01 0.91540464211E+01
 0.12170327766E+02 0.16412254551E+02 0.22448957085E+02 0.31162968277E+02 0.43757773043E+02
 0.61561023924E+02 0.85926579563E+02 0.11914992762E+03 0.16156409988E+03 0.20972242349E+03
 0.25713967013E+03 0.29658219487E+03 0.32235630184E+03 0.33126752655E+03 0.32235630184E+03
 0.29658219487E+03 0.25713967013E+03 0.20972242349E+03 0.16156409988E+03 0.11914992762E+03
 0.85926579563E+02 0.61561023924E+02 0.43757773043E+02 0.31162968277E+02 0.22448957085E+02
 0.16412254551E+02 0.12170327766E+02 0.91540464211E+01 0.70113322673E+01 0.55078590409E+01
 0.44700444738E+01 0.37648891751E+01 0.32914822737E+01 0.29753300365E+01 0.27668280728E+01
 0.26374025211E+01 0.25692356400E+01 0.30375893138E+01 0.30495677838E+01 0.30917904665E+01
 0.31792249314E+01 0.33313385515E+01 0.35765820071E+01 0.39606965286E+01 0.45506521497E+01
 0.54365427234E+01 0.67357794992E+01 0.85974249021E+01 0.11212316438E+02 0.14849679033E+02
 0.19928383136E+02 0.27091173737E+02 0.37219516266E+02 0.51312852738E+02 0.70168818283E+02
 0.94737228099E+02 0.12578562980E+03 0.16156409988E+03 0.19774918282E+03 0.22877943787E+03
 0.24960692521E+03 0.25692326337E+03 0.24960692521E+03 0.22877943787E+03 0.19774918282E+03
 0.16156409988E+03 0.12578562980E+03 0.94737228099E+02 0.70168818283E+02 0.51312852738E+02
 0.37219516266E+02 0.27091173737E+02 0.19928383136E+02 0.14849679033E+02 0.11212316438E+02
 0.85974249021E+01 0.67357794992E+01 0.54365427234E+01 0.45506521497E+01 0.39606965286E+01
 0.35765820071E+01 0.33313385515E+01 0.31792249314E+01 0.30917904665E+01 0.30495677838E+01
 0.38517165957E+01 0.38494750434E+01 0.38497824899E+01 0.38702526431E+01 0.39344098976E+01
 0.40733260980E+01 0.43311525023E+01 0.47687014441E+01 0.54657727589E+01 0.65242632684E+01
 0.80695063477E+01 0.10252970138E+02 0.13271880959E+02 0.17414940518E+02 0.23114731332E+02
 0.30963881086E+02 0.41645603913E+02 0.55731859640E+02 0.73384623374E+02 0.94737228099E+02
 0.11914992762E+03 0.14414534922E+03 0.16600663234E+03 0.18095347921E+03 0.18626221556E+03
 0.18095347921E+03 0.16600663234E+03 0.14414534922E+03 0.11914992762E+03 0.94737228099E+02
 0.73384623374E+02 0.55731859640E+02 0.41645603913E+02 0.30963881086E+02 0.23114731332E+02
 0.17414940518E+02 0.13271880959E+02 0.10252970138E+02 0.80695063477E+01 0.65242632684E+01
 0.54657727589E+01 0.47687014441E+01 0.43311525023E+01 0.40733260980E+01 0.39344098976E+01
 0.38702526431E+01 0.38497824899E+01 0.38494750434E+01 0.51921202285E+01 0.51664597391E+01
 0.50982117496E+01 0.50103748951E+01 0.49347025423E+01 0.49098919778E+01 0.49834139403E+01
 0.52137880461E+01 0.56729374194E+01 0.64486487308E+01 0.76444561676E+01 0.93782145599E+01
 0.11789773697E+02 0.15066169306E+02 0.19474743762E+02 0.25377070186E+02 0.33191628229E+02
 0.43277441117E+02 0.55731859640E+02 0.70168818283E+02 0.85926579563E+02 0.10181233526E+03
 0.11572944669E+03 0.12531274855E+03 0.12873465564E+03 0.12531274855E+03 0.11572944669E+03
 0.10181233526E+03 0.85926579563E+02 0.70168818283E+02 0.55731859640E+02 0.43277441117E+02
 0.33191628229E+02 0.25377070186E+02 0.19474743762E+02 0.15066169306E+02 0.11789773697E+02
 0.93782145599E+01 0.76444561676E+01 0.64486487308E+01 0.56729374194E+01 0.52137880461E+01
 0.49834139403E+01 0.49098919778E+01 0.49347025423E+01 0.50103748951E+01 0.50982117496E+01
 0.51664597391E+01 0.73800202436E+01 0.73158398999E+01 0.71353456695E+01 0.68714337863E+01
 0.65708538048E+01 0.62882354590E+01 0.60830684865E+01 0.60190888225E+01 0.61655741899E+01
 0.65993351617E+01 0.74046687115E+01 0.86710798396E+01 0.10494564181E+02 0.12988781749E+02
 0.16303078740E+02 0.20632517068E+02 0.26199783288E+02 0.33191628229E+02 0.41645603913E+02
 0.51312852738E+02 0.61561023924E+02 0.71419280494E+02 0.79802818831E+02 0.85505245071E+02
 0.87533538776E+02 0.85505245071E+02 0.79802818831E+02 0.71419280494E+02 0.61561023924E+02
 0.51312852738E+02 0.41645603913E+02 0.33191628229E+02 0.26199783288E+02 0.20632517068E+02
 0.16303078740E+02 0.12988781749E+02 0.10494564181E+02 0.86710798396E+01 0.74046687115E+01
 0.65993351617E+01 0.61655741899E+01 0.60190888225E+01 0.60830684865E+01 0.62882354590E+01
 0.65708538048E+01 0.68714337863E+01 0.71353456695E+01 0.73158398999E+01 0.10893992620E+02
 0.10767890597E+02 0.10407281154E+02 0.98615518441E+01 0.92024785262E+01 0.85132123819E+01
 0.78789423464E+01 0.73811305833E+01 0.70958063710E+01 0.70946249464E+01 0.74459906738E+01
 0.82147108642E+01 0.94621070601E+01 0.11250127517E+02 0.13649579664E+02 0.16746083926E+02
 0.20632517068E+02 0.25377070186E+02 0.30963881086E+02 0.37219516266E+02 0.43757773043E+02
 0.49982611047E+02 0.55171685640E+02 0.58626190968E+02 0.59839364371E+02 0.58626190968E+02
 0.55171685640E+02 0.49982611047E+02 0.43757773043E+02 0.37219516266E+02 0.30963881086E+02
 0.25377070186E+02 0.20632517068E+02 0.16746083926E+02 0.13649579664E+02 0.11250127517E+02
 0.94621070601E+01 0.82147108642E+01 0.74459906738E+01 0.70946249464E+01 0.70958063710E+01