   5   5   0   0
  0.1191194E+02  0.3905268E-09  0.3905268E-09  0.3905268E-09  0.5000000E-15
  1.000000000000000E-004
  CAR 
 unknown system                          
     12.66669079    -32.11680918  301      2.59040329      1.00000000
    -32.117  0.0000E+00  0.0000E+00
    -31.968  0.0000E+00  0.0000E+00
    -31.818  0.0000E+00  0.0000E+00
    -31.669  0.0000E+00  0.0000E+00
    -31.520  0.0000E+00  0.0000E+00
    -31.370  0.0000E+00  0.0000E+00
    -31.221  0.0000E+00  0.0000E+00
    -31.072  0.0000E+00  0.0000E+00
    -30.923  0.0000E+00  0.0000E+00
    -30.773  0.0000E+00  0.0000E+00
    -30.624  0.0000E+00  0.0000E+00
    -30.475  0.0000E+00  0.0000E+00
    -30.325  0.0000E+00  0.0000E+00
    -30.176  0.0000E+00  0.0000E+00
    -30.027  0.1592E+02  0.1944E+01
    -29.878  0.0000E+00  0.2000E+01
    -29.728  0.0000E+00  0.2000E+01
    -29.579  0.0000E+00  0.2000E+01
    -29.430  0.0000E+00  0.2000E+01
    -29.281  0.0000E+00  0.2000E+01
    -29.131  0.0000E+00  0.2000E+01
    -28.982  0.0000E+00  0.2000E+01
    -28.833  0.0000E+00  0.2000E+01
    -28.683  0.0000E+00  0.2000E+01
    -28.534  0.0000E+00  0.2000E+01
    -28.385  0.0000E+00  0.2000E+01
    -28.236  0.0000E+00  0.2000E+01
    -28.086  0.0000E+00  0.2000E+01
    -27.937  0.0000E+00  0.2000E+01
    -27.788  0.0000E+00  0.2000E+01
    -27.638  0.0000E+00  0.2000E+01
    -27.489  0.0000E+00  0.2000E+01
    -27.340  0.0000E+00  0.2000E+01
    -27.191  0.0000E+00  0.2000E+01
    -27.041  0.0000E+00  0.2000E+01
    -26.892  0.0000E+00  0.2000E+01
    -26.743  0.0000E+00  0.2000E+01
    -26.594  0.0000E+00  0.2000E+01
    -26.444  0.0000E+00  0.2000E+01
    -26.295  0.0000E+00  0.2000E+01
    -26.146  0.0000E+00  0.2000E+01
    -25.996  0.0000E+00  0.2000E+01
    -25.847  0.0000E+00  0.2000E+01
    -25.698  0.0000E+00  0.2000E+01
    -25.549  0.0000E+00  0.2000E+01
    -25.399  0.0000E+00  0.2000E+01
    -25.250  0.0000E+00  0.2000E+01
    -25.101  0.0000E+00  0.2000E+01
    -24.951  0.0000E+00  0.2000E+01
    -24.802  0.0000E+00  0.2000E+01
    -24.653  0.0000E+00  0.2000E+01
    -24.504  0.0000E+00  0.2000E+01
    -24.354  0.0000E+00  0.2000E+01
    -24.205  0.0000E+00  0.2000E+01
    -24.056  0.0000E+00  0.2000E+01
    -23.907  0.0000E+00  0.2000E+01
    -23.757  0.0000E+00  0.2000E+01
    -23.608  0.0000E+00  0.2000E+01
    -23.459  0.0000E+00  0.2000E+01
    -23.309  0.0000E+00  0.2000E+01
    -23.160  0.0000E+00  0.2000E+01
    -23.011  0.0000E+00  0.2000E+01
    -22.862  0.0000E+00  0.2000E+01
    -22.712  0.0000E+00  0.2000E+01
    -22.563  0.0000E+00  0.2000E+01
    -22.414  0.0000E+00  0.2000E+01
    -22.264  0.0000E+00  0.2000E+01
    -22.115  0.0000E+00  0.2000E+01
    -21.966  0.0000E+00  0.2000E+01
    -21.817  0.0000E+00  0.2000E+01
    -21.667  0.0000E+00  0.2000E+01
    -21.518  0.0000E+00  0.2000E+01
    -21.369  0.0000E+00  0.2000E+01
    -21.219  0.0000E+00  0.2000E+01
    -21.070  0.0000E+00  0.2000E+01
    -20.921  0.0000E+00  0.2000E+01
    -20.772  0.0000E+00  0.2000E+01
    -20.622  0.0000E+00  0.2000E+01
    -20.473  0.0000E+00  0.2000E+01
    -20.324  0.0000E+00  0.2000E+01
    -20.175  0.0000E+00  0.2000E+01
    -20.025  0.0000E+00  0.2000E+01
    -19.876  0.0000E+00  0.2000E+01
    -19.727  0.0000E+00  0.2000E+01
    -19.577  0.0000E+00  0.2000E+01
    -19.428  0.0000E+00  0.2000E+01
    -19.279  0.0000E+00  0.2000E+01
    -19.130  0.0000E+00  0.2000E+01
    -18.980  0.0000E+00  0.2000E+01
    -18.831  0.0000E+00  0.2000E+01
    -18.682  0.0000E+00  0.2000E+01
    -18.532  0.0000E+00  0.2000E+01
    -18.383  0.0000E+00  0.2000E+01
    -18.234  0.0000E+00  0.2000E+01
    -18.085  0.0000E+00  0.2000E+01
    -17.935  0.0000E+00  0.2000E+01
    -17.786  0.0000E+00  0.2000E+01
    -17.637  0.0000E+00  0.2000E+01
    -17.488  0.0000E+00  0.2000E+01
    -17.338  0.0000E+00  0.2000E+01
    -17.189  0.0000E+00  0.2000E+01
    -17.040  0.0000E+00  0.2000E+01
    -16.890  0.0000E+00  0.2000E+01
    -16.741  0.0000E+00  0.2000E+01
    -16.592  0.0000E+00  0.2000E+01
    -16.443  0.0000E+00  0.2000E+01
    -16.293  0.0000E+00  0.2000E+01
    -16.144  0.0000E+00  0.2000E+01
    -15.995  0.0000E+00  0.2000E+01
    -15.845  0.0000E+00  0.2000E+01
    -15.696  0.0000E+00  0.2000E+01
    -15.547  0.0000E+00  0.2000E+01
    -15.398  0.0000E+00  0.2000E+01
    -15.248  0.0000E+00  0.2000E+01
    -15.099  0.0000E+00  0.2000E+01
    -14.950  0.8497E+00  0.2024E+01
    -14.801  0.5130E+01  0.2511E+01
    -14.651  0.2863E+01  0.3000E+01
    -14.502  0.1929E+01  0.3341E+01
    -14.353  0.1874E+01  0.3599E+01
    -14.203  0.8851E+00  0.3797E+01
    -14.054  0.5455E+00  0.3902E+01
    -13.905  0.9372E+01  0.4504E+01
    -13.756  0.2166E+02  0.6791E+01
    -13.606  0.0000E+00  0.8000E+01
    -13.457  0.0000E+00  0.8000E+01
    -13.308  0.0000E+00  0.8000E+01
    -13.158  0.0000E+00  0.8000E+01
    -13.009  0.0000E+00  0.8000E+01
    -12.860  0.0000E+00  0.8000E+01
    -12.711  0.0000E+00  0.8000E+01
    -12.561  0.0000E+00  0.8000E+01
    -12.412  0.0000E+00  0.8000E+01
    -12.263  0.2367E+01  0.8188E+01
    -12.114  0.3192E+02  0.9398E+01
    -11.964  0.9962E+01  0.1124E+02
    -11.815  0.7236E+01  0.1255E+02
    -11.666  0.3145E+01  0.1387E+02
    -11.516  0.0000E+00  0.1400E+02
    -11.367  0.0000E+00  0.1400E+02
    -11.218  0.0000E+00  0.1400E+02
    -11.069  0.0000E+00  0.1400E+02
    -10.919  0.0000E+00  0.1400E+02
    -10.770  0.0000E+00  0.1400E+02
    -10.621  0.0000E+00  0.1400E+02
    -10.471  0.0000E+00  0.1400E+02
    -10.322  0.0000E+00  0.1400E+02
    -10.173  0.0000E+00  0.1400E+02
    -10.024  0.0000E+00  0.1400E+02
     -9.874  0.0000E+00  0.1400E+02
     -9.725  0.0000E+00  0.1400E+02
     -9.576  0.0000E+00  0.1400E+02
     -9.427  0.0000E+00  0.1400E+02
     -9.277  0.0000E+00  0.1400E+02
     -9.128  0.0000E+00  0.1400E+02
     -8.979  0.0000E+00  0.1400E+02
     -8.829  0.0000E+00  0.1400E+02
     -8.680  0.0000E+00  0.1400E+02
     -8.531  0.0000E+00  0.1400E+02
     -8.382  0.0000E+00  0.1400E+02
     -8.232  0.0000E+00  0.1400E+02
     -8.083  0.0000E+00  0.1400E+02
     -7.934  0.0000E+00  0.1400E+02
     -7.784  0.0000E+00  0.1400E+02
     -7.635  0.0000E+00  0.1400E+02
     -7.486  0.0000E+00  0.1400E+02
     -7.337  0.0000E+00  0.1400E+02
     -7.187  0.0000E+00  0.1400E+02
     -7.038  0.0000E+00  0.1400E+02
     -6.889  0.0000E+00  0.1400E+02
     -6.739  0.0000E+00  0.1400E+02
     -6.590  0.0000E+00  0.1400E+02
     -6.441  0.0000E+00  0.1400E+02
     -6.292  0.0000E+00  0.1400E+02
     -6.142  0.0000E+00  0.1400E+02
     -5.993  0.0000E+00  0.1400E+02
     -5.844  0.0000E+00  0.1400E+02
     -5.695  0.0000E+00  0.1400E+02
     -5.545  0.0000E+00  0.1400E+02
     -5.396  0.0000E+00  0.1400E+02
     -5.247  0.0000E+00  0.1400E+02
     -5.097  0.0000E+00  0.1400E+02
     -4.948  0.0000E+00  0.1400E+02
     -4.799  0.0000E+00  0.1400E+02
     -4.650  0.0000E+00  0.1400E+02
     -4.500  0.0000E+00  0.1400E+02
     -4.351  0.0000E+00  0.1400E+02
     -4.202  0.0000E+00  0.1400E+02
     -4.052  0.0000E+00  0.1400E+02
     -3.903  0.0000E+00  0.1400E+02
     -3.754  0.0000E+00  0.1400E+02
     -3.605  0.0000E+00  0.1400E+02
     -3.455  0.0000E+00  0.1400E+02
     -3.306  0.0000E+00  0.1400E+02
     -3.157  0.0000E+00  0.1400E+02
     -3.008  0.0000E+00  0.1400E+02
     -2.858  0.0000E+00  0.1400E+02
     -2.709  0.0000E+00  0.1400E+02
     -2.560  0.0000E+00  0.1400E+02
     -2.410  0.0000E+00  0.1400E+02
     -2.261  0.0000E+00  0.1400E+02
     -2.112  0.0000E+00  0.1400E+02
     -1.963  0.0000E+00  0.1400E+02
     -1.813  0.3517E+01  0.1415E+02
     -1.664  0.6542E+01  0.1494E+02
     -1.515  0.3186E+01  0.1555E+02
     -1.365  0.4748E+01  0.1635E+02
     -1.216  0.3385E+01  0.1691E+02
     -1.067  0.3458E+01  0.1742E+02
     -0.918  0.5178E+01  0.1809E+02
     -0.768  0.4996E+01  0.1884E+02
     -0.619  0.5278E+01  0.1961E+02
     -0.470  0.6540E+01  0.2048E+02
     -0.321  0.9216E+01  0.2160E+02
     -0.171  0.3596E+01  0.2270E+02
     -0.022  0.3108E+01  0.2320E+02
      0.127  0.2396E+01  0.2360E+02
      0.277  0.2059E+01  0.2394E+02
      0.426  0.1887E+01  0.2421E+02
      0.575  0.2830E+01  0.2456E+02
      0.724  0.3194E+01  0.2502E+02
      0.874  0.3314E+01  0.2551E+02
      1.023  0.1171E+01  0.2579E+02
      1.172  0.2392E+01  0.2603E+02
      1.322  0.5256E+01  0.2658E+02
      1.471  0.6181E+01  0.2753E+02
      1.620  0.5794E+01  0.2858E+02
      1.769  0.5958E+01  0.2945E+02
      1.919  0.4631E+01  0.3025E+02
      2.068  0.3451E+01  0.3084E+02
      2.217  0.2676E+01  0.3131E+02
      2.366  0.1958E+01  0.3164E+02
      2.516  0.1424E+01  0.3195E+02
      2.665  0.0000E+00  0.3200E+02
      2.814  0.0000E+00  0.3200E+02
      2.964  0.0000E+00  0.3200E+02
      3.113  0.0000E+00  0.3200E+02
      3.262  0.0000E+00  0.3200E+02
      3.411  0.0000E+00  0.3200E+02
      3.561  0.0000E+00  0.3200E+02
      3.710  0.0000E+00  0.3200E+02
      3.859  0.0000E+00  0.3200E+02
      4.009  0.0000E+00  0.3200E+02
      4.158  0.0000E+00  0.3200E+02
      4.307  0.0000E+00  0.3200E+02
      4.456  0.1686E+00  0.3201E+02
      4.606  0.5474E+00  0.3206E+02
      4.755  0.9609E+00  0.3217E+02
      4.904  0.1589E+01  0.3238E+02
      5.053  0.1481E+01  0.3261E+02
      5.203  0.1465E+01  0.3282E+02
      5.352  0.1667E+01  0.3305E+02
      5.501  0.1876E+01  0.3332E+02
      5.651  0.2654E+01  0.3363E+02
      5.800  0.3126E+01  0.3408E+02
      5.949  0.3520E+01  0.3457E+02
      6.098  0.4027E+01  0.3514E+02
      6.248  0.6813E+01  0.3623E+02
      6.397  0.4068E+01  0.3694E+02
      6.546  0.2164E+01  0.3745E+02
      6.696  0.1118E+01  0.3773E+02
      6.845  0.1162E+00  0.3780E+02
      6.994  0.1098E+00  0.3782E+02
      7.143  0.1036E+00  0.3783E+02
      7.293  0.9758E-01  0.3785E+02
      7.442  0.9172E-01  0.3786E+02
      7.591  0.8603E-01  0.3788E+02
      7.741  0.8051E-01  0.3789E+02
      7.890  0.7517E-01  0.3790E+02
      8.039  0.7004E-01  0.3791E+02
      8.188  0.7941E-01  0.3792E+02
      8.338  0.1149E+00  0.3794E+02
      8.487  0.1779E+00  0.3796E+02
      8.636  0.2177E+00  0.3799E+02
      8.785  0.2345E+00  0.3802E+02
      8.935  0.2660E+00  0.3806E+02
      9.084  0.3116E+00  0.3810E+02
      9.233  0.3639E+00  0.3815E+02
      9.383  0.4290E+00  0.3821E+02
      9.532  0.5165E+00  0.3828E+02
      9.681  0.6050E+00  0.3836E+02
      9.830  0.6804E+00  0.3847E+02
      9.980  0.1522E+01  0.3865E+02
     10.129  0.1468E+01  0.3886E+02
     10.278  0.1875E+01  0.3911E+02
     10.428  0.2276E+01  0.3942E+02
     10.577  0.3097E+01  0.3992E+02
     10.726  0.0000E+00  0.4000E+02
     10.875  0.0000E+00  0.4000E+02
     11.025  0.0000E+00  0.4000E+02
     11.174  0.0000E+00  0.4000E+02
     11.323  0.0000E+00  0.4000E+02
     11.472  0.0000E+00  0.4000E+02
     11.622  0.0000E+00  0.4000E+02
     11.771  0.0000E+00  0.4000E+02
     11.920  0.0000E+00  0.4000E+02
     12.070  0.0000E+00  0.4000E+02
     12.219  0.0000E+00  0.4000E+02
     12.368  0.0000E+00  0.4000E+02
     12.517  0.0000E+00  0.4000E+02
     12.667  0.0000E+00  0.4000E+02
