    5    5    1    1
  0.1191194E+02  0.3905268E-09  0.3905268E-09  0.3905268E-09  0.5000000E-15
  1.000000000000000E-004
  CAR 
 unknown system                          
     32     20     20
 
  0.0000000E+00  0.0000000E+00  0.0000000E+00  0.2915452E-02
    1      -30.081196   1.000000
    2      -14.818441   1.000000
    3      -13.811883   1.000000
    4      -13.811883   1.000000
    5      -12.145372   1.000000
    6      -12.145372   1.000000
    7      -12.145372   1.000000
    8       -0.210118   1.000000
    9       -0.210118   1.000000
   10       -0.210118   1.000000
   11        1.478150   1.000000
   12        1.478150   1.000000
   13        1.478150   1.000000
   14        2.318504   1.000000
   15        2.318504   1.000000
   16        2.318505   1.000000
   17        4.344120   0.000000
   18        4.344120   0.000000
   19        4.344121   0.000000
   20        8.030942   0.000000
 
  0.1428571E+00  0.0000000E+00  0.0000000E+00  0.1749271E-01
    1      -30.076782   1.000000
    2      -14.831183   1.000000
    3      -13.834124   1.000000
    4      -13.804249   1.000000
    5      -12.136292   1.000000
    6      -12.136292   1.000000
    7      -12.010571   1.000000
    8       -0.474686   1.000000
    9       -0.223511   1.000000
   10       -0.223511   1.000000
   11        1.208940   1.000000
   12        1.208940   1.000000
   13        1.301437   1.000000
   14        1.715897   1.000000
   15        2.192121   1.000000
   16        2.192121   1.000000
   17        4.373057   0.000000
   18        4.793968   0.000000
   19        4.793968   0.000000
   20        8.388507   0.000000
 
  0.2857143E+00  0.0000000E+00  0.0000000E+00  0.1749271E-01
    1      -30.066833   1.000000
    2      -14.916423   1.000000
    3      -13.787077   1.000000
    4      -13.768156   1.000000
    5      -12.115740   1.000000
    6      -12.115740   1.000000
    7      -11.756066   1.000000
    8       -1.098645   1.000000
    9       -0.242933   1.000000
   10       -0.242933   1.000000
   11        0.690372   1.000000
   12        0.690373   1.000000
   13        0.773231   1.000000
   14        0.947955   1.000000
   15        2.033312   1.000000
   16        2.033312   1.000000
   17        4.439849   0.000000
   18        5.604407   0.000000
   19        5.604408   0.000000
   20        9.204809   0.000000
 
  0.4285714E+00  0.0000000E+00  0.0000000E+00  0.1749271E-01
    1      -30.058823   1.000000
    2      -15.017403   1.000000
    3      -13.773260   1.000000
    4      -13.638397   1.000000
    5      -12.099098   1.000000
    6      -12.099098   1.000000
    7      -11.584666   1.000000
    8       -1.629614   1.000000
    9       -0.231786   1.000000
   10       -0.231786   1.000000
   11        0.238131   1.000000
   12        0.317201   1.000000
   13        0.317201   1.000000
   14        0.697035   1.000000
   15        1.943731   1.000000
   16        1.943731   1.000000
   17        4.495304   0.000000
   18        6.170200   0.000000
   19        6.170201   0.000000
   20        9.848933   0.000000
 
  0.1428571E+00  0.1428571E+00  0.0000000E+00  0.3498542E-01
    1      -30.072498   1.000000
    2      -14.817415   1.000000
    3      -13.868297   1.000000
    4      -13.798153   1.000000
    5      -12.126934   1.000000
    6      -12.062752   1.000000
    7      -11.965347   1.000000
    8       -0.636629   1.000000
    9       -0.341951   1.000000
   10       -0.235348   1.000000
   11        0.672725   1.000000
   12        1.005470   1.000000
   13        1.482039   1.000000
   14        1.536842   1.000000
   15        1.876960   1.000000
   16        2.011136   1.000000
   17        4.760174   0.000000
   18        4.864373   0.000000
   19        5.044633   0.000000
   20        8.681387   0.000000
 
  0.2857143E+00  0.1428571E+00  0.0000000E+00  0.6997085E-01
    1      -30.062840   1.000000
    2      -14.846836   1.000000
    3      -13.859430   1.000000
    4      -13.759257   1.000000
    5      -12.105743   1.000000
    6      -12.029944   1.000000
    7      -11.771896   1.000000
    8       -1.152987   1.000000
    9       -0.508962   1.000000
   10       -0.251574   1.000000
   11        0.001912   1.000000
   12        0.563641   1.000000
   13        0.900766   1.000000
   14        1.460311   1.000000
   15        1.695923   1.000000
   16        1.787368   1.000000
   17        4.852755   0.000000
   18        5.614822   0.000000
   19        5.670109   0.000000
   20        9.406061   0.000000
 
  0.4285714E+00  0.1428571E+00  0.0000000E+00  0.6997085E-01
    1      -30.055070   1.000000
    2      -14.917384   1.000000
    3      -13.774369   1.000000
    4      -13.721156   1.000000
    5      -12.088595   1.000000
    6      -12.018819   1.000000
    7      -11.628244   1.000000
    8       -1.643980   1.000000
    9       -0.695360   1.000000
   10       -0.355306   1.000000
   11       -0.234916   1.000000
   12        0.216503   1.000000
   13        0.598591   1.000000
   14        1.397193   1.000000
   15        1.544719   1.000000
   16        1.673664   1.000000
   17        4.895124   0.000000
   18        6.171075   0.000000
   19        6.191555   0.000000
   20       10.012315   0.000000
 
  0.2857143E+00  0.2857143E+00  0.0000000E+00  0.3498542E-01
    1      -30.053849   1.000000
    2      -14.710869   1.000000
    3      -13.977199   1.000000
    4      -13.727930   1.000000
    5      -12.083115   1.000000
    6      -11.890678   1.000000
    7      -11.778652   1.000000
    8       -1.387155   1.000000
    9       -0.921224   1.000000
   10       -0.776393   1.000000
   11       -0.264346   1.000000
   12        0.266659   1.000000
   13        0.867809   1.000000
   14        1.216709   1.000000
   15        1.428369   1.000000
   16        2.008437   1.000000
   17        5.565618   0.000000
   18        5.689897   0.000000
   19        5.982103   0.000000
   20       10.007543   0.000000
 
  0.4285714E+00  0.2857143E+00  0.0000000E+00  0.6997085E-01
    1      -30.046614   1.000000
    2      -14.654655   1.000000
    3      -13.937617   1.000000
    4      -13.761008   1.000000
    5      -12.064803   1.000000
    6      -11.864092   1.000000
    7      -11.709479   1.000000
    8       -1.698957   1.000000
    9       -1.442124   1.000000
   10       -0.992619   1.000000
   11       -0.244201   1.000000
   12       -0.002464   1.000000
   13        0.831517   1.000000
   14        1.143051   1.000000
   15        1.236953   1.000000
   16        2.130078   1.000000
   17        5.642502   0.000000
   18        6.174731   0.000000
   19        6.356101   0.000000
   20       10.504892   0.000000
 
  0.4285714E+00  0.4285714E+00  0.0000000E+00  0.3498542E-01
    1      -30.039811   1.000000
    2      -14.354548   1.000000
    3      -14.051764   1.000000
    4      -13.891122   1.000000
    5      -12.045517   1.000000
    6      -11.760588   1.000000
    7      -11.745865   1.000000
    8       -1.918008   1.000000
    9       -1.789188   1.000000
   10       -1.494514   1.000000
   11       -0.246657   1.000000
   12       -0.180278   1.000000
   13        0.976105   1.000000
   14        1.009421   1.000000
   15        1.088514   1.000000
   16        2.454526   1.000000
   17        6.166277   0.000000
   18        6.187890   0.000000
   19        6.604306   0.000000
   20       10.628897   0.000000
 
  0.1428571E+00  0.1428571E+00  0.1428571E+00  0.2332362E-01
    1      -30.068324   1.000000
    2      -14.787450   1.000000
    3      -13.845176   1.000000
    4      -13.845176   1.000000
    5      -12.078859   1.000000
    6      -12.078859   1.000000
    7      -11.902609   1.000000
    8       -0.803661   1.000000
    9       -0.347596   1.000000
   10       -0.347596   1.000000
   11        0.567722   1.000000
   12        0.567722   1.000000
   13        1.164761   1.000000
   14        1.675076   1.000000
   15        1.821517   1.000000
   16        1.821517   1.000000
   17        5.010043   0.000000
   18        5.102357   0.000000
   19        5.102358   0.000000
   20        8.966022   0.000000
 
  0.2857143E+00  0.1428571E+00  0.1428571E+00  0.6997085E-01
    1      -30.058928   1.000000
    2      -14.775301   1.000000
    3      -13.856645   1.000000
    4      -13.791138   1.000000
    5      -12.117484   1.000000
    6      -11.993237   1.000000
    7      -11.768958   1.000000
    8       -1.220322   1.000000
    9       -0.623771   1.000000
   10       -0.362192   1.000000
   11       -0.012878   1.000000
   12        0.043485   1.000000
   13        0.887922   1.000000
   14        1.564174   1.000000
   15        1.654861   1.000000
   16        1.691326   1.000000
   17        5.124964   0.000000
   18        5.693650   0.000000
   19        5.700941   0.000000
   20        9.607453   0.000000
 
  0.4285714E+00  0.1428571E+00  0.1428571E+00  0.6997085E-01
    1      -30.051367   1.000000
    2      -14.818019   1.000000
    3      -13.781460   1.000000
    4      -13.745193   1.000000
    5      -12.151187   1.000000
    6      -11.929852   1.000000
    7      -11.677394   1.000000
    8       -1.655727   1.000000
    9       -0.849615   1.000000
   10       -0.448864   1.000000
   11       -0.390208   1.000000
   12       -0.231536   1.000000
   13        0.975065   1.000000
   14        1.308457   1.000000
   15        1.516845   1.000000
   16        1.604097   1.000000
   17        5.173994   0.000000
   18        6.201333   0.000000
   19        6.217444   0.000000
   20       10.244147   0.000000
 
  0.2857143E+00  0.2857143E+00  0.1428571E+00  0.6997085E-01
    1      -30.050116   1.000000
    2      -14.630288   1.000000
    3      -13.927177   1.000000
    4      -13.748204   1.000000
    5      -12.122326   1.000000
    6      -11.955703   1.000000
    7      -11.750832   1.000000
    8       -1.429430   1.000000
    9       -0.916456   1.000000
   10       -0.716372   1.000000
   11       -0.484524   1.000000
   12       -0.101567   1.000000
   13        0.447020   1.000000
   14        1.499017   1.000000
   15        1.559403   1.000000
   16        2.017882   1.000000
   17        5.699353   0.000000
   18        5.795194   0.000000
   19        6.020232   0.000000
   20       10.213772   0.000000
 
  0.4285714E+00  0.2857143E+00  0.1428571E+00  0.1399417E+00
    1      -30.043028   1.000000
    2      -14.557718   1.000000
    3      -13.902334   1.000000
    4      -13.731862   1.000000
    5      -12.159116   1.000000
    6      -11.872640   1.000000
    7      -11.764453   1.000000
    8       -1.696388   1.000000
    9       -1.374706   1.000000
   10       -0.982861   1.000000
   11       -0.505430   1.000000
   12       -0.359618   1.000000
   13        0.470240   1.000000
   14        1.393438   1.000000
   15        1.491720   1.000000
   16        2.139620   1.000000
   17        5.785966   0.000000
   18        6.246809   0.000000
   19        6.391402   0.000000
   20       10.560883   0.000000
 
  0.4285714E+00  0.4285714E+00  0.1428571E+00  0.6997085E-01
    1      -30.036318   1.000000
    2      -14.260450   1.000000
    3      -13.985234   1.000000
    4      -13.829600   1.000000
    5      -12.128529   1.000000
    6      -11.859738   1.000000
    7      -11.817411   1.000000
    8       -1.822074   1.000000
    9       -1.725806   1.000000
   10       -1.490781   1.000000
   11       -0.520618   1.000000
   12       -0.462618   1.000000
   13        0.334426   1.000000
   14        1.432832   1.000000
   15        1.476715   1.000000
   16        2.468915   1.000000
   17        6.263621   0.000000
   18        6.283713   0.000000
   19        6.643205   0.000000
   20       10.486304   0.000000
 
  0.2857143E+00  0.2857143E+00  0.2857143E+00  0.2332362E-01
    1      -30.041705   1.000000
    2      -14.447474   1.000000
    3      -13.800782   1.000000
    4      -13.800782   1.000000
    5      -12.115787   1.000000
    6      -12.115787   1.000000
    7      -11.767368   1.000000
    8       -1.519783   1.000000
    9       -0.904997   1.000000
   10       -0.904997   1.000000
   11       -0.566049   1.000000
   12       -0.566049   1.000000
   13       -0.542114   1.000000
   14        1.806272   1.000000
   15        1.806272   1.000000
   16        2.147057   1.000000
   17        6.071216   0.000000
   18        6.119692   0.000000
   19        6.119692   0.000000
   20       10.386684   0.000000
 
  0.4285714E+00  0.2857143E+00  0.2857143E+00  0.6997085E-01
    1      -30.034944   1.000000
    2      -14.307425   1.000000
    3      -13.836910   1.000000
    4      -13.679159   1.000000
    5      -12.264513   1.000000
    6      -12.010083   1.000000
    7      -11.868036   1.000000
    8       -1.697544   1.000000
    9       -1.307711   1.000000
   10       -0.998797   1.000000
   11       -0.893897   1.000000
   12       -0.821995   1.000000
   13       -0.433194   1.000000
   14        1.836791   1.000000
   15        1.970604   1.000000
   16        2.249733   1.000000
   17        6.168260   0.000000
   18        6.458270   0.000000
   19        6.482752   0.000000
   20       10.631077   0.000000
 
  0.4285714E+00  0.4285714E+00  0.2857143E+00  0.6997085E-01
    1      -30.028446   1.000000
    2      -14.024877   1.000000
    3      -13.809558   1.000000
    4      -13.691629   1.000000
    5      -12.285426   1.000000
    6      -12.107626   1.000000
    7      -12.013564   1.000000
    8       -1.789526   1.000000
    9       -1.481928   1.000000
   10       -1.411968   1.000000
   11       -0.938776   1.000000
   12       -0.848668   1.000000
   13       -0.743341   1.000000
   14        2.060062   1.000000
   15        2.096261   1.000000
   16        2.505613   1.000000
   17        6.527592   0.000000
   18        6.539645   0.000000
   19        6.732436   0.000000
   20       10.021802   0.000000
 
  0.4285714E+00  0.4285714E+00  0.4285714E+00  0.2332362E-01
    1      -30.022113   1.000000
    2      -13.767589   1.000000
    3      -13.623460   1.000000
    4      -13.623460   1.000000
    5      -12.350852   1.000000
    6      -12.350852   1.000000
    7      -12.237466   1.000000
    8       -1.877863   1.000000
    9       -1.474038   1.000000
   10       -1.474037   1.000000
   11       -1.173295   1.000000
   12       -1.065588   1.000000
   13       -1.065588   1.000000
   14        2.472815   1.000000
   15        2.472816   1.000000
   16        2.560567   1.000000
   17        6.808986   0.000000
   18        9.784441   0.000000
   19        9.818648   0.000000
   20        9.863456   0.000000
