       N       E                     dE             d eps       ncg     rms          rms(c)
DAV:   1     0.325212499727E+03    0.32521E+03   -0.16498E+04   800   0.169E+03
DAV:   2    -0.110678900829E+02   -0.33628E+03   -0.32155E+03  1064   0.375E+02
DAV:   3    -0.484626412768E+02   -0.37395E+02   -0.35070E+02   956   0.136E+02
DAV:   4    -0.501786687179E+02   -0.17160E+01   -0.17072E+01  1272   0.265E+01
DAV:   5    -0.502267732016E+02   -0.48104E-01   -0.48063E-01  1056   0.372E+00    0.183E+01
RMM:   6    -0.403975540120E+02    0.98292E+01   -0.58500E+01   867   0.445E+01    0.625E+00
RMM:   7    -0.397927758313E+02    0.60478E+00   -0.15376E+00   957   0.102E+01    0.321E+00
RMM:   8    -0.397110593704E+02    0.81716E-01   -0.93699E-01   961   0.758E+00    0.851E-01
RMM:   9    -0.396965248531E+02    0.14535E-01   -0.59172E-02  1088   0.195E+00    0.575E-01
RMM:  10    -0.396934932767E+02    0.30316E-02   -0.13050E-01   954   0.210E+00    0.326E-01
RMM:  11    -0.396914424331E+02    0.20508E-02   -0.13393E-02  1050   0.679E-01    0.982E-02
RMM:  12    -0.396924770583E+02   -0.10346E-02   -0.11730E-02  1051   0.585E-01    0.195E-01
RMM:  13    -0.396920466640E+02    0.43039E-03   -0.90464E-03  1004   0.516E-01    0.892E-02
RMM:  14    -0.396918739551E+02    0.17271E-03   -0.18743E-03   963   0.251E-01    0.276E-02
RMM:  15    -0.396919099270E+02   -0.35972E-04   -0.55000E-04   894   0.681E-02    0.224E-02
RMM:  16    -0.396919078079E+02    0.21191E-05   -0.13636E-04   882   0.598E-02    0.907E-03
RMM:  17    -0.396919145743E+02   -0.67664E-05   -0.72071E-05   810   0.452E-02
   1 F= -.39691915E+02 E0= -.39691915E+02  d E =0.000000E+00
