<?xml version="1.0" encoding="ISO-8859-1"?>
<modeling>
 <generator>
  <i name="program" type="string">vasp </i>
  <i name="version" type="string">5.4.4.18Apr17-6-g9f103f2a35  </i>
  <i name="subversion" type="string">(build Jun 30 2017 11:15:00) complex            parallel </i>
  <i name="platform" type="string">STALLO_VASP_5.4.4 </i>
  <i name="date" type="string">2019 11 06 </i>
  <i name="time" type="string">13:08:20 </i>
 </generator>
 <incar>
  <i type="string" name="PREC">normal    ! low/normal/accurate</i>
  <i type="string" name="ALGO"> Fast      ! Algorithm for electronic re</i>
  <i type="int" name="ISPIN">     1</i>
  <i type="int" name="NELMIN">     4</i>
  <i name="EDIFF">      0.00001000</i>
  <i type="int" name="NSW">     0</i>
  <i name="ENCUT">    550.00000000</i>
  <i type="logical" name="LREAL"> F  </i>
  <i type="int" name="ISMEAR">    -5</i>
  <i name="SIGMA">      0.20000000</i>
  <i type="logical" name="LWAVE"> F  </i>
  <v type="int" name="KPOINT_BSE">    -1     0     0     0</v>
 </incar>
 <structure name="primitive_cell" >
  <crystal>
   <varray name="basis" >
    <v>       3.90526800       0.00000000       0.00000000 </v>
    <v>       0.00000000       3.90526800       0.00000000 </v>
    <v>       0.00000000       0.00000000       3.90526800 </v>
   </varray>
   <i name="volume">     59.55970368 </i>
   <varray name="rec_basis" >
    <v>       0.25606437       0.00000000       0.00000000 </v>
    <v>       0.00000000       0.25606437       0.00000000 </v>
    <v>       0.00000000       0.00000000       0.25606437 </v>
   </varray>
  </crystal>
  <varray name="positions" >
   <v>       0.00000000       0.00000000       0.00000000 </v>
   <v>      -0.50000000      -0.50000000       0.00000000 </v>
   <v>      -0.50000000       0.00000000      -0.50000000 </v>
   <v>       0.00000000      -0.50000000      -0.50000000 </v>
   <v>      -0.50000000      -0.50000000      -0.50000000 </v>
  </varray>
 </structure>
 <varray name="primitive_index" >
  <v type="int" >        1 </v>
  <v type="int" >        3 </v>
  <v type="int" >        4 </v>
  <v type="int" >        5 </v>
  <v type="int" >        2 </v>
 </varray>
 <kpoints>
  <generation param="Gamma">
   <v type="int" name="divisions">       7        7        7 </v>
   <v name="usershift">      0.00000000       0.00000000       0.00000000 </v>
   <v name="genvec1">      0.14285714       0.00000000       0.00000000 </v>
   <v name="genvec2">      0.00000000       0.14285714       0.00000000 </v>
   <v name="genvec3">      0.00000000       0.00000000       0.14285714 </v>
   <v name="shift">      0.00000000       0.00000000       0.00000000 </v>
  </generation>
  <varray name="kpointlist" >
   <v>       0.00000000       0.00000000       0.00000000 </v>
   <v>       0.14285714       0.00000000       0.00000000 </v>
   <v>       0.28571429       0.00000000       0.00000000 </v>
   <v>       0.42857143       0.00000000       0.00000000 </v>
   <v>       0.14285714       0.14285714       0.00000000 </v>
   <v>       0.28571429       0.14285714       0.00000000 </v>
   <v>       0.42857143       0.14285714       0.00000000 </v>
   <v>       0.28571429       0.28571429       0.00000000 </v>
   <v>       0.42857143       0.28571429       0.00000000 </v>
   <v>       0.42857143       0.42857143       0.00000000 </v>
   <v>       0.14285714       0.14285714       0.14285714 </v>
   <v>       0.28571429       0.14285714       0.14285714 </v>
   <v>       0.42857143       0.14285714       0.14285714 </v>
   <v>       0.28571429       0.28571429       0.14285714 </v>
   <v>       0.42857143       0.28571429       0.14285714 </v>
   <v>       0.42857143       0.42857143       0.14285714 </v>
   <v>       0.28571429       0.28571429       0.28571429 </v>
   <v>       0.42857143       0.28571429       0.28571429 </v>
   <v>       0.42857143       0.42857143       0.28571429 </v>
   <v>       0.42857143       0.42857143       0.42857143 </v>
  </varray>
  <varray name="weights" >
   <v>       0.00291545 </v>
   <v>       0.01749271 </v>
   <v>       0.01749271 </v>
   <v>       0.01749271 </v>
   <v>       0.03498542 </v>
   <v>       0.06997085 </v>
   <v>       0.06997085 </v>
   <v>       0.03498542 </v>
   <v>       0.06997085 </v>
   <v>       0.03498542 </v>
   <v>       0.02332362 </v>
   <v>       0.06997085 </v>
   <v>       0.06997085 </v>
   <v>       0.06997085 </v>
   <v>       0.13994169 </v>
   <v>       0.06997085 </v>
   <v>       0.02332362 </v>
   <v>       0.06997085 </v>
   <v>       0.06997085 </v>
   <v>       0.02332362 </v>
  </varray>
  <varray name="tetrahedronlist"  type="int" >
   <v type="int" >       12        1        2        2        5 </v>
   <v type="int" >       12        2        2        5        5 </v>
   <v type="int" >       12        2        5        5       11 </v>
   <v type="int" >       12        2        3        5        6 </v>
   <v type="int" >       12        2        5        5        6 </v>
   <v type="int" >       12        5        5        6       11 </v>
   <v type="int" >       12        3        5        6        6 </v>
   <v type="int" >       24        5        6        6       12 </v>
   <v type="int" >       24        5        6       11       12 </v>
   <v type="int" >       12        3        4        6        7 </v>
   <v type="int" >       12        3        6        6        7 </v>
   <v type="int" >       12        6        6        7       12 </v>
   <v type="int" >       12        4        6        7        7 </v>
   <v type="int" >       12        6        7        7       13 </v>
   <v type="int" >       12        6        7       12       13 </v>
   <v type="int" >        6        4        4        7        7 </v>
   <v type="int" >       12        4        7        7        7 </v>
   <v type="int" >       12        7        7        7       13 </v>
   <v type="int" >        6        7        7       13       13 </v>
   <v type="int" >       12        5        6        8       11 </v>
   <v type="int" >       12        6        8       11       12 </v>
   <v type="int" >       12        8       11       12       14 </v>
   <v type="int" >       12        6        7        9       12 </v>
   <v type="int" >       12        6        8        9       12 </v>
   <v type="int" >       12        8        9       12       14 </v>
   <v type="int" >       12        7        9       12       13 </v>
   <v type="int" >       12        9       12       13       15 </v>
   <v type="int" >       12        9       12       14       15 </v>
   <v type="int" >       12        7        7        9       13 </v>
   <v type="int" >       12        7        9        9       13 </v>
   <v type="int" >       12        9        9       13       15 </v>
   <v type="int" >       12        7        9       13       13 </v>
   <v type="int" >       12        9       13       13       15 </v>
   <v type="int" >       12        9       13       15       15 </v>
   <v type="int" >       12        6        7        8       13 </v>
   <v type="int" >       12        7        8        9       13 </v>
   <v type="int" >       12        8        9       13       15 </v>
   <v type="int" >       12        6        8       12       13 </v>
   <v type="int" >       12        8       12       13       14 </v>
   <v type="int" >       12        8       13       14       15 </v>
   <v type="int" >       12        6        6        8       12 </v>
   <v type="int" >       12        6        8       12       14 </v>
   <v type="int" >       12        6       11       12       12 </v>
   <v type="int" >       12        6       12       12       14 </v>
   <v type="int" >       12        2        3        5       11 </v>
   <v type="int" >       12        3        5        6       11 </v>
   <v type="int" >       12        3        6       11       12 </v>
   <v type="int" >       12        8        9       10       14 </v>
   <v type="int" >       12        9       10       14       15 </v>
   <v type="int" >       12       10       14       15       16 </v>
   <v type="int" >       24        9        9       10       15 </v>
   <v type="int" >       12        9       10       10       15 </v>
   <v type="int" >       12       10       10       15       16 </v>
   <v type="int" >       12        9       10       15       15 </v>
   <v type="int" >       12       10       15       15       16 </v>
   <v type="int" >       12       10       15       16       16 </v>
   <v type="int" >       12        8        9        9       15 </v>
   <v type="int" >       12        9       10       15       16 </v>
   <v type="int" >       12        8        9       14       15 </v>
   <v type="int" >       12        9       14       15       15 </v>
   <v type="int" >       24        9       15       15       16 </v>
   <v type="int" >       12        6        7        8       14 </v>
   <v type="int" >       12        7        8        9       14 </v>
   <v type="int" >       12        7        9       14       15 </v>
   <v type="int" >       12        6        7       12       14 </v>
   <v type="int" >       12        7       12       13       14 </v>
   <v type="int" >       12        7       13       14       15 </v>
   <v type="int" >       12        3        4        6       12 </v>
   <v type="int" >       12        4        6        7       12 </v>
   <v type="int" >       12        4        7       12       13 </v>
   <v type="int" >       12       10       10       10       16 </v>
   <v type="int" >       12       10       10       16       16 </v>
   <v type="int" >       12       10       16       16       16 </v>
   <v type="int" >       12        9        9       10       16 </v>
   <v type="int" >       12        9       10       10       16 </v>
   <v type="int" >       12        9       10       16       16 </v>
   <v type="int" >       12        9        9       15       16 </v>
   <v type="int" >       12        9       15       16       16 </v>
   <v type="int" >       12        7        7        9       15 </v>
   <v type="int" >       12        7        9        9       15 </v>
   <v type="int" >       12        7        9       15       15 </v>
   <v type="int" >       12        7        7       13       15 </v>
   <v type="int" >       12        7       13       13       15 </v>
   <v type="int" >       12        7       13       15       15 </v>
   <v type="int" >       12        4        4        7       13 </v>
   <v type="int" >       12        4        7        7       13 </v>
   <v type="int" >       12        4        7       13       13 </v>
   <v type="int" >       12        8        9       10       16 </v>
   <v type="int" >       12        8        9       15       16 </v>
   <v type="int" >       12        8       14       15       16 </v>
   <v type="int" >       12        6        7        9       15 </v>
   <v type="int" >       12        6        8        9       15 </v>
   <v type="int" >       12        6        8       14       15 </v>
   <v type="int" >       12        6        7       13       15 </v>
   <v type="int" >       12        6       12       13       15 </v>
   <v type="int" >       12        6       12       14       15 </v>
   <v type="int" >       12        3        4        7       13 </v>
   <v type="int" >       12        3        6        7       13 </v>
   <v type="int" >       12        3        6       12       13 </v>
   <v type="int" >       12        5        6        8       14 </v>
   <v type="int" >       12        5        6       12       14 </v>
   <v type="int" >       12        5       11       12       14 </v>
   <v type="int" >       12        2        3        6       12 </v>
   <v type="int" >       12        2        5        6       12 </v>
   <v type="int" >       12        2        5       11       12 </v>
   <v type="int" >       12        1        2        5       11 </v>
   <v type="int" >       12       11       12       12       14 </v>
   <v type="int" >       12       12       12       14       14 </v>
   <v type="int" >       12       12       14       14       17 </v>
   <v type="int" >       12       12       13       14       15 </v>
   <v type="int" >       12       12       14       14       15 </v>
   <v type="int" >       12       14       14       15       17 </v>
   <v type="int" >       12       13       14       15       15 </v>
   <v type="int" >       24       14       15       15       18 </v>
   <v type="int" >       24       14       15       17       18 </v>
   <v type="int" >        6       13       13       15       15 </v>
   <v type="int" >       12       13       15       15       15 </v>
   <v type="int" >       12       15       15       15       18 </v>
   <v type="int" >        6       15       15       18       18 </v>
   <v type="int" >       12       14       15       16       17 </v>
   <v type="int" >       12       15       16       17       18 </v>
   <v type="int" >       12       16       17       18       19 </v>
   <v type="int" >       24       15       15       16       18 </v>
   <v type="int" >       12       15       16       16       18 </v>
   <v type="int" >       12       16       16       18       19 </v>
   <v type="int" >       12       15       16       18       18 </v>
   <v type="int" >       12       16       18       18       19 </v>
   <v type="int" >       12       16       18       19       19 </v>
   <v type="int" >       12       15       16       18       19 </v>
   <v type="int" >       12       15       17       18       18 </v>
   <v type="int" >       24       15       18       18       19 </v>
   <v type="int" >       12       12       13       14       17 </v>
   <v type="int" >       12       13       14       15       17 </v>
   <v type="int" >       12       13       15       17       18 </v>
   <v type="int" >       12       16       16       16       19 </v>
   <v type="int" >       12       16       16       19       19 </v>
   <v type="int" >       12       16       19       19       19 </v>
   <v type="int" >       12       15       15       16       19 </v>
   <v type="int" >       12       15       16       16       19 </v>
   <v type="int" >       12       15       16       19       19 </v>
   <v type="int" >       12       15       15       18       19 </v>
   <v type="int" >       12       15       18       19       19 </v>
   <v type="int" >       12       13       13       15       18 </v>
   <v type="int" >       12       13       15       15       18 </v>
   <v type="int" >       12       13       15       18       18 </v>
   <v type="int" >       12       14       15       16       19 </v>
   <v type="int" >       12       14       15       18       19 </v>
   <v type="int" >       12       14       17       18       19 </v>
   <v type="int" >       12       12       13       15       18 </v>
   <v type="int" >       12       12       14       15       18 </v>
   <v type="int" >       12       12       14       17       18 </v>
   <v type="int" >       12       11       12       14       17 </v>
   <v type="int" >       12       17       18       18       19 </v>
   <v type="int" >       18       18       18       19       19 </v>
   <v type="int" >       24       18       19       19       20 </v>
   <v type="int" >       12       18       19       19       19 </v>
   <v type="int" >       24       19       19       19       20 </v>
   <v type="int" >       18       19       19       20       20 </v>
   <v type="int" >       12       19       20       20       20 </v>
   <v type="int" >       12       18       18       19       20 </v>
   <v type="int" >       12       18       19       20       20 </v>
   <v type="int" >       12       17       18       19       20 </v>
   <v type="int" >        6       20       20       20       20 </v>
  </varray>
  <i name="volumeweight">      0.00048591 </i>
 </kpoints>
 <parameters>
  <separator name="general" >
   <i type="string" name="SYSTEM">unknown system</i>
   <i type="logical" name="LCOMPAT"> F  </i>
  </separator>
  <separator name="electronic" >
   <i type="string" name="PREC">normal</i>
   <i name="ENMAX">    550.00000000</i>
   <i name="ENAUG">    605.39200000</i>
   <i name="EDIFF">      0.00001000</i>
   <i type="int" name="IALGO">    68</i>
   <i type="int" name="IWAVPR">    10</i>
   <i type="int" name="NBANDS">    20</i>
   <i name="NELECT">     32.00000000</i>
   <i type="int" name="TURBO">     0</i>
   <i type="int" name="IRESTART">     0</i>
   <i type="int" name="NREBOOT">     0</i>
   <i type="int" name="NMIN">     0</i>
   <i name="EREF">      0.00000000</i>
   <separator name="electronic smearing" >
    <i type="int" name="ISMEAR">    -5</i>
    <i name="SIGMA">      0.20000000</i>
    <i name="KSPACING">      0.50000000</i>
    <i type="logical" name="KGAMMA"> T  </i>
   </separator>
   <separator name="electronic projectors" >
    <i type="logical" name="LREAL"> F  </i>
    <v name="ROPT">      0.00000000      0.00000000      0.00000000</v>
    <i type="int" name="LMAXPAW">  -100</i>
    <i type="int" name="LMAXMIX">     2</i>
    <i type="logical" name="NLSPLINE"> F  </i>
   </separator>
   <separator name="electronic startup" >
    <i type="int" name="ISTART">     0</i>
    <i type="int" name="ICHARG">     2</i>
    <i type="int" name="INIWAV">     1</i>
   </separator>
   <separator name="electronic spin" >
    <i type="int" name="ISPIN">     1</i>
    <i type="logical" name="LNONCOLLINEAR"> F  </i>
    <v name="MAGMOM">      1.00000000      1.00000000      1.00000000      1.00000000      1.00000000</v>
    <i name="NUPDOWN">     -1.00000000</i>
    <i type="logical" name="LSORBIT"> F  </i>
    <v name="SAXIS">      0.00000000      0.00000000      1.00000000</v>
    <i type="logical" name="LSPIRAL"> F  </i>
    <v name="QSPIRAL">      0.00000000      0.00000000      0.00000000</v>
    <i type="logical" name="LZEROZ"> F  </i>
   </separator>
   <separator name="electronic exchange-correlation" >
    <i type="logical" name="LASPH"> F  </i>
    <i type="logical" name="LMETAGGA"> F  </i>
   </separator>
   <separator name="electronic convergence" >
    <i type="int" name="NELM">    60</i>
    <i type="int" name="NELMDL">    -5</i>
    <i type="int" name="NELMIN">     4</i>
    <i name="ENINI">    550.00000000</i>
    <separator name="electronic convergence detail" >
     <i type="logical" name="LDIAG"> T  </i>
     <i type="logical" name="LSUBROT"> F  </i>
     <i name="WEIMIN">      0.00000000</i>
     <i name="EBREAK">      0.00000013</i>
     <i name="DEPER">      0.30000000</i>
     <i type="int" name="NRMM">     4</i>
     <i name="TIME">      0.40000000</i>
    </separator>
   </separator>
   <separator name="electronic mixer" >
    <i name="AMIX">      0.40000000</i>
    <i name="BMIX">      1.00000000</i>
    <i name="AMIN">      0.10000000</i>
    <i name="AMIX_MAG">      1.60000000</i>
    <i name="BMIX_MAG">      1.00000000</i>
    <separator name="electronic mixer details" >
     <i type="int" name="IMIX">     4</i>
     <i type="logical" name="MIXFIRST"> F  </i>
     <i type="int" name="MAXMIX">   -45</i>
     <i name="WC">    100.00000000</i>
     <i type="int" name="INIMIX">     1</i>
     <i type="int" name="MIXPRE">     1</i>
     <i type="int" name="MREMOVE">     5</i>
    </separator>
   </separator>
   <separator name="electronic dipolcorrection" >
    <i type="logical" name="LDIPOL"> F  </i>
    <i type="logical" name="LMONO"> F  </i>
    <i type="int" name="IDIPOL">     0</i>
    <i name="EPSILON">      1.00000000</i>
    <v name="DIPOL">   -100.00000000   -100.00000000   -100.00000000</v>
    <i name="EFIELD">      0.00000000</i>
   </separator>
  </separator>
  <separator name="grids" >
   <i type="int" name="NGX">    24</i>
   <i type="int" name="NGY">    24</i>
   <i type="int" name="NGZ">    24</i>
   <i type="int" name="NGXF">    48</i>
   <i type="int" name="NGYF">    48</i>
   <i type="int" name="NGZF">    48</i>
   <i type="logical" name="ADDGRID"> F  </i>
  </separator>
  <separator name="ionic" >
   <i type="int" name="NSW">     0</i>
   <i type="int" name="IBRION">    -1</i>
   <i type="int" name="MDALGO">     0</i>
   <i type="int" name="ISIF">     2</i>
   <i name="PSTRESS">      0.00000000</i>
   <i name="EDIFFG">      0.00010000</i>
   <i type="int" name="NFREE">     0</i>
   <i name="POTIM">      0.50000000</i>
   <i name="SMASS">     -3.00000000</i>
   <i name="SCALEE">      1.00000000</i>
  </separator>
  <separator name="ionic md" >
   <i name="TEBEG">      0.00010000</i>
   <i name="TEEND">      0.00010000</i>
   <i type="int" name="NBLOCK">     1</i>
   <i type="int" name="KBLOCK">     1</i>
   <i type="int" name="NPACO">   256</i>
   <i name="APACO">     16.00000000</i>
  </separator>
  <separator name="symmetry" >
   <i type="int" name="ISYM">     2</i>
   <i name="SYMPREC">      0.00001000</i>
  </separator>
  <separator name="dos" >
   <i type="int" name="LORBIT">     0</i>
   <v name="RWIGS">     -1.00000000     -1.00000000     -1.00000000</v>
   <i type="int" name="NEDOS">   301</i>
   <i name="EMIN">     10.00000000</i>
   <i name="EMAX">    -10.00000000</i>
   <i name="EFERMI">      0.00000000</i>
  </separator>
  <separator name="writing" >
   <i type="int" name="NWRITE">     2</i>
   <i type="logical" name="LWAVE"> F  </i>
   <i type="logical" name="LDOWNSAMPLE"> F  </i>
   <i type="logical" name="LCHARG"> T  </i>
   <i type="logical" name="LPARD"> F  </i>
   <i type="logical" name="LVTOT"> F  </i>
   <i type="logical" name="LVHAR"> F  </i>
   <i type="logical" name="LELF"> F  </i>
   <i type="logical" name="LOPTICS"> F  </i>
   <v name="STM">      0.00000000      0.00000000      0.00000000      0.00000000      0.00000000      0.00000000      0.00000000</v>
  </separator>
  <separator name="performance" >
   <i type="int" name="NPAR">     2</i>
   <i type="int" name="NSIM">     4</i>
   <i type="int" name="NBLK">    -1</i>
   <i type="logical" name="LPLANE"> T  </i>
   <i type="logical" name="LSCALAPACK"> T  </i>
   <i type="logical" name="LSCAAWARE"> F  </i>
   <i type="logical" name="LSCALU"> F  </i>
   <i type="logical" name="LASYNC"> F  </i>
   <i type="logical" name="LORBITALREAL"> F  </i>
  </separator>
  <separator name="miscellaneous" >
   <i type="int" name="IDIOT">     3</i>
   <i type="int" name="ISPECIAL">     0</i>
   <i type="logical" name="LMUSIC"> F  </i>
   <v name="POMASS">     87.62000000     47.88000000     16.00000000</v>
   <v name="DARWINR">      0.00000000      0.00000000      0.00000000</v>
   <v name="DARWINV">      1.00000000      1.00000000      1.00000000</v>
   <i type="logical" name="LCORR"> T  </i>
  </separator>
  <i type="logical" name="GGA_COMPAT"> T  </i>
  <i type="logical" name="LBERRY"> F  </i>
  <i type="int" name="ICORELEVEL">     0</i>
  <i type="logical" name="LDAU"> F  </i>
  <i type="int" name="I_CONSTRAINED_M">     0</i>
  <separator name="electronic exchange-correlation" >
   <i type="string" name="GGA">--</i>
   <i type="int" name="VOSKOWN">     0</i>
   <i type="logical" name="LHFCALC"> F  </i>
   <i type="string" name="PRECFOCK"></i>
   <i type="logical" name="LSYMGRAD"> F  </i>
   <i type="logical" name="LHFONE"> F  </i>
   <i type="logical" name="LRHFCALC"> F  </i>
   <i type="logical" name="LTHOMAS"> F  </i>
   <i type="logical" name="LMODELHF"> F  </i>
   <i name="ENCUT4O">     -1.00000000</i>
   <i type="int" name="EXXOEP">     0</i>
   <i type="int" name="FOURORBIT">     0</i>
   <i name="AEXX">      0.00000000</i>
   <i name="HFALPHA">      0.00000000</i>
   <i name="MCALPHA">      0.00000000</i>
   <i name="ALDAX">      1.00000000</i>
   <i name="AGGAX">      1.00000000</i>
   <i name="ALDAC">      1.00000000</i>
   <i name="AGGAC">      1.00000000</i>
   <i type="int" name="NKREDX">     1</i>
   <i type="int" name="NKREDY">     1</i>
   <i type="int" name="NKREDZ">     1</i>
   <i type="logical" name="SHIFTRED"> F  </i>
   <i type="logical" name="ODDONLY"> F  </i>
   <i type="logical" name="EVENONLY"> F  </i>
   <i type="int" name="LMAXFOCK">     0</i>
   <i type="int" name="NMAXFOCKAE">     0</i>
   <i type="logical" name="LFOCKAEDFT"> F  </i>
   <i name="HFSCREEN">      0.00000000</i>
   <i name="HFSCREENC">      0.00000000</i>
   <i type="int" name="NBANDSGWLOW">     0</i>
  </separator>
  <separator name="vdW DFT" >
   <i type="logical" name="LUSE_VDW"> F  </i>
   <i name="Zab_VDW">     -0.84910000</i>
   <i name="PARAM1">      0.12340000</i>
   <i name="PARAM2">      1.00000000</i>
   <i name="PARAM3">      0.00000000</i>
  </separator>
  <separator name="model GW" >
   <i type="int" name="MODEL_GW">     0</i>
   <i name="MODEL_EPS0">      7.14716444</i>
   <i name="MODEL_ALPHA">      1.00000000</i>
  </separator>
  <separator name="linear response parameters" >
   <i type="logical" name="LEPSILON"> F  </i>
   <i type="logical" name="LRPA"> F  </i>
   <i type="logical" name="LNABLA"> F  </i>
   <i type="logical" name="LVEL"> F  </i>
   <i type="int" name="KINTER">     0</i>
   <i name="CSHIFT">      0.10000000</i>
   <i name="OMEGAMAX">     -1.00000000</i>
   <i name="DEG_THRESHOLD">      0.00200000</i>
   <i name="RTIME">     -0.10000000</i>
   <i name="WPLASMAI">      0.00000000</i>
   <v name="DFIELD">      0.00000000      0.00000000      0.00000000</v>
   <v name="WPLASMA">      0.00000000      0.00000000      0.00000000      0.00000000      0.00000000      0.00000000      0.00000000      0.00000000      0.00000000</v>
  </separator>
  <separator name="orbital magnetization" >
   <i type="logical" name="NUCIND"> F  </i>
   <v name="MAGPOS">      0.00000000      0.00000000      0.00000000</v>
   <i type="logical" name="LNICSALL"> T  </i>
   <i type="logical" name="ORBITALMAG"> F  </i>
   <i type="logical" name="LMAGBLOCH"> F  </i>
   <i type="logical" name="LCHIMAG"> F  </i>
   <i type="logical" name="LGAUGE"> T  </i>
   <i type="int" name="MAGATOM">     0</i>
   <v name="MAGDIPOL">      0.00000000      0.00000000      0.00000000</v>
   <v name="AVECCONST">      0.00000000      0.00000000      0.00000000</v>
  </separator>
  <separator name="response functions" >
   <i type="logical" name="LADDER"> F  </i>
   <i type="logical" name="LRPAFORCE"> F  </i>
   <i type="logical" name="LFXC"> F  </i>
   <i type="logical" name="LHARTREE"> T  </i>
   <i type="int" name="IBSE">     0</i>
   <v type="int" name="KPOINT">    -1     0     0     0</v>
   <i type="logical" name="LTCTE"> F  </i>
   <i type="logical" name="LTETE"> F  </i>
   <i type="logical" name="LTRIPLET"> F  </i>
   <i type="logical" name="LFXCEPS"> F  </i>
   <i type="logical" name="LFXHEG"> F  </i>
   <i type="int" name="NATURALO">     2</i>
   <i type="logical" name="L2ORDER"> F  </i>
   <i type="logical" name="LMP2LT"> F  </i>
   <i type="logical" name="LUSEW"> F  </i>
   <i name="ENCUTGW">     -2.00000000</i>
   <i name="ENCUTGWSOFT">     -2.00000000</i>
   <i name="ENCUTLF">     -1.00000000</i>
   <i type="int" name="LMAXMP2">    -1</i>
   <i name="SCISSOR">      0.00000000</i>
   <i type="int" name="NOMEGA">     0</i>
   <i type="int" name="NOMEGAR">     0</i>
   <i type="int" name="NBANDSGW">    -1</i>
   <i type="int" name="NBANDSO">    -1</i>
   <i type="int" name="NBANDSV">    -1</i>
   <i type="int" name="NELM">     1</i>
   <i type="int" name="NELMHF">     1</i>
   <i type="int" name="DIM">     3</i>
   <i type="int" name="ANTIRES">     0</i>
   <i name="OMEGAMAX">    -30.00000000</i>
   <i name="OMEGAMIN">    -30.00000000</i>
   <i name="OMEGATL">   -200.00000000</i>
   <i type="int" name="OMEGAGRID">   140</i>
   <i name="CSHIFT">     -0.10000000</i>
   <i type="logical" name="SELFENERGY"> F  </i>
   <i type="logical" name="LSPECTRAL"> F  </i>
   <i type="logical" name="LSPECTRALGW"> F  </i>
   <i type="logical" name="LSINGLES"> F  </i>
   <i type="logical" name="LFERMIGW"> F  </i>
   <i type="logical" name="ODDONLYGW"> F  </i>
   <i type="logical" name="EVENONLYGW"> F  </i>
   <i type="int" name="NKREDLFX">     1</i>
   <i type="int" name="NKREDLFY">     1</i>
   <i type="int" name="NKREDLFZ">     1</i>
   <i type="int" name="MAXMEM">  2800</i>
   <i type="int" name="TELESCOPE">     0</i>
   <i type="int" name="TAUPAR">     1</i>
   <i type="int" name="OMEGAPAR">    -1</i>
   <i name="LAMBDA">      1.00000000</i>
  </separator>
  <separator name="External order field" >
   <i name="OFIELD_KAPPA">      0.00000000</i>
   <v name="OFIELD_K">      0.00000000      0.00000000      0.00000000</v>
   <i name="OFIELD_Q6_NEAR">      0.00000000</i>
   <i name="OFIELD_Q6_FAR">      0.00000000</i>
   <i name="OFIELD_A">      0.00000000</i>
  </separator>
 </parameters>
 <atominfo>
  <atoms>       5 </atoms>
  <types>       3 </types>
  <array name="atoms" >
   <dimension dim="1">ion</dimension>
   <field type="string">element</field>
   <field type="int">atomtype</field>
   <set>
    <rc><c>Sr</c><c>   1</c></rc>
    <rc><c>Ti</c><c>   2</c></rc>
    <rc><c>O </c><c>   3</c></rc>
    <rc><c>O </c><c>   3</c></rc>
    <rc><c>O </c><c>   3</c></rc>
   </set>
  </array>
  <array name="atomtypes" >
   <dimension dim="1">type</dimension>
   <field type="int">atomspertype</field>
   <field type="string">element</field>
   <field>mass</field>
   <field>valence</field>
   <field type="string">pseudopotential</field>
   <set>
    <rc><c>   1</c><c>Sr</c><c>     87.62000000</c><c>     10.00000000</c><c> PAW_PBE Sr_sv 07Sep2000                </c></rc>
    <rc><c>   1</c><c>Ti</c><c>     47.88000000</c><c>      4.00000000</c><c> PAW_PBE Ti 08Apr2002                   </c></rc>
    <rc><c>   3</c><c>O </c><c>     16.00000000</c><c>      6.00000000</c><c> PAW_PBE O 08Apr2002                    </c></rc>
   </set>
  </array>
 </atominfo>
 <structure name="initialpos" >
  <crystal>
   <varray name="basis" >
    <v>       3.90526800       0.00000000       0.00000000 </v>
    <v>       0.00000000       3.90526800       0.00000000 </v>
    <v>       0.00000000       0.00000000       3.90526800 </v>
   </varray>
   <i name="volume">     59.55970368 </i>
   <varray name="rec_basis" >
    <v>       0.25606437       0.00000000       0.00000000 </v>
    <v>       0.00000000       0.25606437       0.00000000 </v>
    <v>       0.00000000       0.00000000       0.25606437 </v>
   </varray>
  </crystal>
  <varray name="positions" >
   <v>       0.00000000       0.00000000       0.00000000 </v>
   <v>       0.50000000       0.50000000       0.50000000 </v>
   <v>       0.50000000       0.50000000       0.00000000 </v>
   <v>       0.50000000       0.00000000       0.50000000 </v>
   <v>       0.00000000       0.50000000       0.50000000 </v>
  </varray>
 </structure>
 <calculation>
  <scstep>
   <time name="dav">    0.23    0.24</time>
   <time name="total">    0.26    0.32</time>
   <energy>
    <i name="alphaZ">    185.39985751 </i>
    <i name="ewald">  -1934.07799583 </i>
    <i name="hartreedc">   -403.14003404 </i>
    <i name="XCdc">     82.31788258 </i>
    <i name="pawpsdc">   1333.61297253 </i>
    <i name="pawaedc">  -1284.78446064 </i>
    <i name="eentropy">      0.00000000 </i>
    <i name="bandstr">    111.55790584 </i>
    <i name="atom">   2234.32637178 </i>
    <i name="e_fr_energy">    325.21249973 </i>
    <i name="e_wo_entrp">    325.21249973 </i>
    <i name="e_0_energy">    325.21249973 </i>
   </energy>
  </scstep>
  <scstep>
   <time name="dav">    0.29    0.29</time>
   <time name="total">    0.29    0.30</time>
   <energy>
    <i name="e_fr_energy">    -11.06789008 </i>
    <i name="e_wo_entrp">    -11.06789008 </i>
    <i name="e_0_energy">    -11.06789008 </i>
   </energy>
  </scstep>
  <scstep>
   <time name="dav">    0.26    0.26</time>
   <time name="total">    0.26    0.27</time>
   <energy>
    <i name="e_fr_energy">    -48.46264128 </i>
    <i name="e_wo_entrp">    -48.46264128 </i>
    <i name="e_0_energy">    -48.46264128 </i>
   </energy>
  </scstep>
  <scstep>
   <time name="dav">    0.34    0.34</time>
   <time name="total">    0.34    0.34</time>
   <energy>
    <i name="e_fr_energy">    -50.17866872 </i>
    <i name="e_wo_entrp">    -50.17866872 </i>
    <i name="e_0_energy">    -50.17866872 </i>
   </energy>
  </scstep>
  <scstep>
   <time name="dav">    0.29    0.29</time>
   <time name="total">    0.31    0.31</time>
   <energy>
    <i name="e_fr_energy">    -50.22677320 </i>
    <i name="e_wo_entrp">    -50.22677320 </i>
    <i name="e_0_energy">    -50.22677320 </i>
   </energy>
  </scstep>
  <scstep>
   <time name="diag">    0.05    0.05</time>
   <time name="diis">    0.18    0.18</time>
   <time name="orth">    0.00    0.01</time>
   <time name="total">    0.27    0.27</time>
   <energy>
    <i name="e_fr_energy">    -40.39755401 </i>
    <i name="e_wo_entrp">    -40.39755401 </i>
    <i name="e_0_energy">    -40.39755401 </i>
   </energy>
  </scstep>
  <scstep>
   <time name="diag">    0.05    0.05</time>
   <time name="diis">    0.19    0.19</time>
   <time name="orth">    0.01    0.01</time>
   <time name="total">    0.29    0.29</time>
   <energy>
    <i name="e_fr_energy">    -39.79277583 </i>
    <i name="e_wo_entrp">    -39.79277583 </i>
    <i name="e_0_energy">    -39.79277583 </i>
   </energy>
  </scstep>
  <scstep>
   <time name="diag">    0.05    0.05</time>
   <time name="diis">    0.19    0.19</time>
   <time name="orth">    0.01    0.01</time>
   <time name="total">    0.28    0.29</time>
   <energy>
    <i name="e_fr_energy">    -39.71105937 </i>
    <i name="e_wo_entrp">    -39.71105937 </i>
    <i name="e_0_energy">    -39.71105937 </i>
   </energy>
  </scstep>
  <scstep>
   <time name="diag">    0.05    0.05</time>
   <time name="diis">    0.22    0.22</time>
   <time name="orth">    0.01    0.01</time>
   <time name="total">    0.31    0.31</time>
   <energy>
    <i name="e_fr_energy">    -39.69652485 </i>
    <i name="e_wo_entrp">    -39.69652485 </i>
    <i name="e_0_energy">    -39.69652485 </i>
   </energy>
  </scstep>
  <scstep>
   <time name="diag">    0.05    0.05</time>
   <time name="diis">    0.19    0.19</time>
   <time name="orth">    0.01    0.01</time>
   <time name="total">    0.28    0.28</time>
   <energy>
    <i name="e_fr_energy">    -39.69349328 </i>
    <i name="e_wo_entrp">    -39.69349328 </i>
    <i name="e_0_energy">    -39.69349328 </i>
   </energy>
  </scstep>
  <scstep>
   <time name="diag">    0.05    0.05</time>
   <time name="diis">    0.21    0.21</time>
   <time name="orth">    0.01    0.01</time>
   <time name="total">    0.30    0.30</time>
   <energy>
    <i name="e_fr_energy">    -39.69144243 </i>
    <i name="e_wo_entrp">    -39.69144243 </i>
    <i name="e_0_energy">    -39.69144243 </i>
   </energy>
  </scstep>
  <scstep>
   <time name="diag">    0.05    0.05</time>
   <time name="diis">    0.20    0.20</time>
   <time name="orth">    0.01    0.01</time>
   <time name="total">    0.30    0.30</time>
   <energy>
    <i name="e_fr_energy">    -39.69247706 </i>
    <i name="e_wo_entrp">    -39.69247706 </i>
    <i name="e_0_energy">    -39.69247706 </i>
   </energy>
  </scstep>
  <scstep>
   <time name="diag">    0.05    0.05</time>
   <time name="diis">    0.19    0.19</time>
   <time name="orth">    0.01    0.01</time>
   <time name="total">    0.29    0.29</time>
   <energy>
    <i name="e_fr_energy">    -39.69204666 </i>
    <i name="e_wo_entrp">    -39.69204666 </i>
    <i name="e_0_energy">    -39.69204666 </i>
   </energy>
  </scstep>
  <scstep>
   <time name="diag">    0.05    0.05</time>
   <time name="diis">    0.19    0.19</time>
   <time name="orth">    0.01    0.01</time>
   <time name="total">    0.29    0.29</time>
   <energy>
    <i name="e_fr_energy">    -39.69187396 </i>
    <i name="e_wo_entrp">    -39.69187396 </i>
    <i name="e_0_energy">    -39.69187396 </i>
   </energy>
  </scstep>
  <scstep>
   <time name="diag">    0.05    0.05</time>
   <time name="diis">    0.19    0.19</time>
   <time name="orth">    0.01    0.01</time>
   <time name="total">    0.28    0.28</time>
   <energy>
    <i name="e_fr_energy">    -39.69190993 </i>
    <i name="e_wo_entrp">    -39.69190993 </i>
    <i name="e_0_energy">    -39.69190993 </i>
   </energy>
  </scstep>
  <scstep>
   <time name="diag">    0.05    0.05</time>
   <time name="diis">    0.18    0.18</time>
   <time name="orth">    0.00    0.01</time>
   <time name="total">    0.28    0.28</time>
   <energy>
    <i name="e_fr_energy">    -39.69190781 </i>
    <i name="e_wo_entrp">    -39.69190781 </i>
    <i name="e_0_energy">    -39.69190781 </i>
   </energy>
  </scstep>
  <scstep>
   <time name="diag">    0.05    0.05</time>
   <time name="diis">    0.17    0.17</time>
   <time name="orth">    0.01    0.01</time>
   <time name="total">    0.24    0.24</time>
   <energy>
    <i name="alphaZ">    185.39985751 </i>
    <i name="ewald">  -1934.07799583 </i>
    <i name="hartreedc">   -441.36723068 </i>
    <i name="XCdc">     86.19577451 </i>
    <i name="pawpsdc">   1561.17432931 </i>
    <i name="pawaedc">  -1518.83113997 </i>
    <i name="eentropy">      0.00000000 </i>
    <i name="bandstr">   -212.51188120 </i>
    <i name="atom">   2234.32637178 </i>
    <i name="e_fr_energy">    -39.69191457 </i>
    <i name="e_wo_entrp">    -39.69191457 </i>
    <i name="e_0_energy">    -39.69191457 </i>
   </energy>
  </scstep>
  <structure>
   <crystal>
    <varray name="basis" >
     <v>       3.90526800       0.00000000       0.00000000 </v>
     <v>       0.00000000       3.90526800       0.00000000 </v>
     <v>       0.00000000       0.00000000       3.90526800 </v>
    </varray>
    <i name="volume">     59.55970368 </i>
    <varray name="rec_basis" >
     <v>       0.25606437       0.00000000       0.00000000 </v>
     <v>       0.00000000       0.25606437       0.00000000 </v>
     <v>       0.00000000       0.00000000       0.25606437 </v>
    </varray>
   </crystal>
   <varray name="positions" >
    <v>       0.00000000       0.00000000       0.00000000 </v>
    <v>       0.50000000       0.50000000       0.50000000 </v>
    <v>       0.50000000       0.50000000       0.00000000 </v>
    <v>       0.50000000       0.00000000       0.50000000 </v>
    <v>       0.00000000       0.50000000       0.50000000 </v>
   </varray>
  </structure>
  <varray name="forces" >
   <v>       0.00000000       0.00000000       0.00000000 </v>
   <v>       0.00000000       0.00000000       0.00000000 </v>
   <v>       0.00000000       0.00000000       0.00000000 </v>
   <v>       0.00000000       0.00000000       0.00000000 </v>
   <v>       0.00000000       0.00000000       0.00000000 </v>
  </varray>
  <varray name="stress" >
   <v>      62.88960328       0.00000000      -0.00000000 </v>
   <v>      -0.00000000      62.88960328       0.00000000 </v>
   <v>       0.00000000       0.00000000      62.88960328 </v>
  </varray>
  <energy>
   <i name="e_fr_energy">    -39.69191457 </i>
   <i name="e_wo_entrp">    -39.69191457 </i>
   <i name="e_0_energy">      0.00000000 </i>
  </energy>
  <time name="totalsc">    5.34    6.29</time>
  <eigenvalues>
   <array>
    <dimension dim="1">band</dimension>
    <dimension dim="2">kpoint</dimension>
    <dimension dim="3">spin</dimension>
    <field>eigene</field>
    <field>occ</field>
    <set>
     <set comment="spin 1">
      <set comment="kpoint 1">
       <r>  -30.0812    1.0000 </r>
       <r>  -14.8184    1.0000 </r>
       <r>  -13.8119    1.0000 </r>
       <r>  -13.8119    1.0000 </r>
       <r>  -12.1454    1.0000 </r>
       <r>  -12.1454    1.0000 </r>
       <r>  -12.1454    1.0000 </r>
       <r>   -0.2101    1.0000 </r>
       <r>   -0.2101    1.0000 </r>
       <r>   -0.2101    1.0000 </r>
       <r>    1.4781    1.0000 </r>
       <r>    1.4781    1.0000 </r>
       <r>    1.4782    1.0000 </r>
       <r>    2.3185    1.0000 </r>
       <r>    2.3185    1.0000 </r>
       <r>    2.3185    1.0000 </r>
       <r>    4.3441    0.0000 </r>
       <r>    4.3441    0.0000 </r>
       <r>    4.3441    0.0000 </r>
       <r>    8.0309    0.0000 </r>
      </set>
      <set comment="kpoint 2">
       <r>  -30.0768    1.0000 </r>
       <r>  -14.8312    1.0000 </r>
       <r>  -13.8341    1.0000 </r>
       <r>  -13.8042    1.0000 </r>
       <r>  -12.1363    1.0000 </r>
       <r>  -12.1363    1.0000 </r>
       <r>  -12.0106    1.0000 </r>
       <r>   -0.4747    1.0000 </r>
       <r>   -0.2235    1.0000 </r>
       <r>   -0.2235    1.0000 </r>
       <r>    1.2089    1.0000 </r>
       <r>    1.2089    1.0000 </r>
       <r>    1.3014    1.0000 </r>
       <r>    1.7159    1.0000 </r>
       <r>    2.1921    1.0000 </r>
       <r>    2.1921    1.0000 </r>
       <r>    4.3731    0.0000 </r>
       <r>    4.7940    0.0000 </r>
       <r>    4.7940    0.0000 </r>
       <r>    8.3885    0.0000 </r>
      </set>
      <set comment="kpoint 3">
       <r>  -30.0668    1.0000 </r>
       <r>  -14.9164    1.0000 </r>
       <r>  -13.7871    1.0000 </r>
       <r>  -13.7682    1.0000 </r>
       <r>  -12.1157    1.0000 </r>
       <r>  -12.1157    1.0000 </r>
       <r>  -11.7561    1.0000 </r>
       <r>   -1.0986    1.0000 </r>
       <r>   -0.2429    1.0000 </r>
       <r>   -0.2429    1.0000 </r>
       <r>    0.6904    1.0000 </r>
       <r>    0.6904    1.0000 </r>
       <r>    0.7732    1.0000 </r>
       <r>    0.9480    1.0000 </r>
       <r>    2.0333    1.0000 </r>
       <r>    2.0333    1.0000 </r>
       <r>    4.4398    0.0000 </r>
       <r>    5.6044    0.0000 </r>
       <r>    5.6044    0.0000 </r>
       <r>    9.2048    0.0000 </r>
      </set>
      <set comment="kpoint 4">
       <r>  -30.0588    1.0000 </r>
       <r>  -15.0174    1.0000 </r>
       <r>  -13.7733    1.0000 </r>
       <r>  -13.6384    1.0000 </r>
       <r>  -12.0991    1.0000 </r>
       <r>  -12.0991    1.0000 </r>
       <r>  -11.5847    1.0000 </r>
       <r>   -1.6296    1.0000 </r>
       <r>   -0.2318    1.0000 </r>
       <r>   -0.2318    1.0000 </r>
       <r>    0.2381    1.0000 </r>
       <r>    0.3172    1.0000 </r>
       <r>    0.3172    1.0000 </r>
       <r>    0.6970    1.0000 </r>
       <r>    1.9437    1.0000 </r>
       <r>    1.9437    1.0000 </r>
       <r>    4.4953    0.0000 </r>
       <r>    6.1702    0.0000 </r>
       <r>    6.1702    0.0000 </r>
       <r>    9.8489    0.0000 </r>
      </set>
      <set comment="kpoint 5">
       <r>  -30.0725    1.0000 </r>
       <r>  -14.8174    1.0000 </r>
       <r>  -13.8683    1.0000 </r>
       <r>  -13.7982    1.0000 </r>
       <r>  -12.1269    1.0000 </r>
       <r>  -12.0628    1.0000 </r>
       <r>  -11.9653    1.0000 </r>
       <r>   -0.6366    1.0000 </r>
       <r>   -0.3420    1.0000 </r>
       <r>   -0.2353    1.0000 </r>
       <r>    0.6727    1.0000 </r>
       <r>    1.0055    1.0000 </r>
       <r>    1.4820    1.0000 </r>
       <r>    1.5368    1.0000 </r>
       <r>    1.8770    1.0000 </r>
       <r>    2.0111    1.0000 </r>
       <r>    4.7602    0.0000 </r>
       <r>    4.8644    0.0000 </r>
       <r>    5.0446    0.0000 </r>
       <r>    8.6814    0.0000 </r>
      </set>
      <set comment="kpoint 6">
       <r>  -30.0628    1.0000 </r>
       <r>  -14.8468    1.0000 </r>
       <r>  -13.8594    1.0000 </r>
       <r>  -13.7593    1.0000 </r>
       <r>  -12.1057    1.0000 </r>
       <r>  -12.0299    1.0000 </r>
       <r>  -11.7719    1.0000 </r>
       <r>   -1.1530    1.0000 </r>
       <r>   -0.5090    1.0000 </r>
       <r>   -0.2516    1.0000 </r>
       <r>    0.0019    1.0000 </r>
       <r>    0.5636    1.0000 </r>
       <r>    0.9008    1.0000 </r>
       <r>    1.4603    1.0000 </r>
       <r>    1.6959    1.0000 </r>
       <r>    1.7874    1.0000 </r>
       <r>    4.8528    0.0000 </r>
       <r>    5.6148    0.0000 </r>
       <r>    5.6701    0.0000 </r>
       <r>    9.4061    0.0000 </r>
      </set>
      <set comment="kpoint 7">
       <r>  -30.0551    1.0000 </r>
       <r>  -14.9174    1.0000 </r>
       <r>  -13.7744    1.0000 </r>
       <r>  -13.7212    1.0000 </r>
       <r>  -12.0886    1.0000 </r>
       <r>  -12.0188    1.0000 </r>
       <r>  -11.6282    1.0000 </r>
       <r>   -1.6440    1.0000 </r>
       <r>   -0.6954    1.0000 </r>
       <r>   -0.3553    1.0000 </r>
       <r>   -0.2349    1.0000 </r>
       <r>    0.2165    1.0000 </r>
       <r>    0.5986    1.0000 </r>
       <r>    1.3972    1.0000 </r>
       <r>    1.5447    1.0000 </r>
       <r>    1.6737    1.0000 </r>
       <r>    4.8951    0.0000 </r>
       <r>    6.1711    0.0000 </r>
       <r>    6.1916    0.0000 </r>
       <r>   10.0123    0.0000 </r>
      </set>
      <set comment="kpoint 8">
       <r>  -30.0538    1.0000 </r>
       <r>  -14.7109    1.0000 </r>
       <r>  -13.9772    1.0000 </r>
       <r>  -13.7279    1.0000 </r>
       <r>  -12.0831    1.0000 </r>
       <r>  -11.8907    1.0000 </r>
       <r>  -11.7787    1.0000 </r>
       <r>   -1.3872    1.0000 </r>
       <r>   -0.9212    1.0000 </r>
       <r>   -0.7764    1.0000 </r>
       <r>   -0.2643    1.0000 </r>
       <r>    0.2667    1.0000 </r>
       <r>    0.8678    1.0000 </r>
       <r>    1.2167    1.0000 </r>
       <r>    1.4284    1.0000 </r>
       <r>    2.0084    1.0000 </r>
       <r>    5.5656    0.0000 </r>
       <r>    5.6899    0.0000 </r>
       <r>    5.9821    0.0000 </r>
       <r>   10.0075    0.0000 </r>
      </set>
      <set comment="kpoint 9">
       <r>  -30.0466    1.0000 </r>
       <r>  -14.6547    1.0000 </r>
       <r>  -13.9376    1.0000 </r>
       <r>  -13.7610    1.0000 </r>
       <r>  -12.0648    1.0000 </r>
       <r>  -11.8641    1.0000 </r>
       <r>  -11.7095    1.0000 </r>
       <r>   -1.6990    1.0000 </r>
       <r>   -1.4421    1.0000 </r>
       <r>   -0.9926    1.0000 </r>
       <r>   -0.2442    1.0000 </r>
       <r>   -0.0025    1.0000 </r>
       <r>    0.8315    1.0000 </r>
       <r>    1.1431    1.0000 </r>
       <r>    1.2370    1.0000 </r>
       <r>    2.1301    1.0000 </r>
       <r>    5.6425    0.0000 </r>
       <r>    6.1747    0.0000 </r>
       <r>    6.3561    0.0000 </r>
       <r>   10.5049    0.0000 </r>
      </set>
      <set comment="kpoint 10">
       <r>  -30.0398    1.0000 </r>
       <r>  -14.3545    1.0000 </r>
       <r>  -14.0518    1.0000 </r>
       <r>  -13.8911    1.0000 </r>
       <r>  -12.0455    1.0000 </r>
       <r>  -11.7606    1.0000 </r>
       <r>  -11.7459    1.0000 </r>
       <r>   -1.9180    1.0000 </r>
       <r>   -1.7892    1.0000 </r>
       <r>   -1.4945    1.0000 </r>
       <r>   -0.2467    1.0000 </r>
       <r>   -0.1803    1.0000 </r>
       <r>    0.9761    1.0000 </r>
       <r>    1.0094    1.0000 </r>
       <r>    1.0885    1.0000 </r>
       <r>    2.4545    1.0000 </r>
       <r>    6.1663    0.0000 </r>
       <r>    6.1879    0.0000 </r>
       <r>    6.6043    0.0000 </r>
       <r>   10.6289    0.0000 </r>
      </set>
      <set comment="kpoint 11">
       <r>  -30.0683    1.0000 </r>
       <r>  -14.7875    1.0000 </r>
       <r>  -13.8452    1.0000 </r>
       <r>  -13.8452    1.0000 </r>
       <r>  -12.0789    1.0000 </r>
       <r>  -12.0789    1.0000 </r>
       <r>  -11.9026    1.0000 </r>
       <r>   -0.8037    1.0000 </r>
       <r>   -0.3476    1.0000 </r>
       <r>   -0.3476    1.0000 </r>
       <r>    0.5677    1.0000 </r>
       <r>    0.5677    1.0000 </r>
       <r>    1.1648    1.0000 </r>
       <r>    1.6751    1.0000 </r>
       <r>    1.8215    1.0000 </r>
       <r>    1.8215    1.0000 </r>
       <r>    5.0100    0.0000 </r>
       <r>    5.1024    0.0000 </r>
       <r>    5.1024    0.0000 </r>
       <r>    8.9660    0.0000 </r>
      </set>
      <set comment="kpoint 12">
       <r>  -30.0589    1.0000 </r>
       <r>  -14.7753    1.0000 </r>
       <r>  -13.8566    1.0000 </r>
       <r>  -13.7911    1.0000 </r>
       <r>  -12.1175    1.0000 </r>
       <r>  -11.9932    1.0000 </r>
       <r>  -11.7690    1.0000 </r>
       <r>   -1.2203    1.0000 </r>
       <r>   -0.6238    1.0000 </r>
       <r>   -0.3622    1.0000 </r>
       <r>   -0.0129    1.0000 </r>
       <r>    0.0435    1.0000 </r>
       <r>    0.8879    1.0000 </r>
       <r>    1.5642    1.0000 </r>
       <r>    1.6549    1.0000 </r>
       <r>    1.6913    1.0000 </r>
       <r>    5.1250    0.0000 </r>
       <r>    5.6936    0.0000 </r>
       <r>    5.7009    0.0000 </r>
       <r>    9.6075    0.0000 </r>
      </set>
      <set comment="kpoint 13">
       <r>  -30.0514    1.0000 </r>
       <r>  -14.8180    1.0000 </r>
       <r>  -13.7815    1.0000 </r>
       <r>  -13.7452    1.0000 </r>
       <r>  -12.1512    1.0000 </r>
       <r>  -11.9299    1.0000 </r>
       <r>  -11.6774    1.0000 </r>
       <r>   -1.6557    1.0000 </r>
       <r>   -0.8496    1.0000 </r>
       <r>   -0.4489    1.0000 </r>
       <r>   -0.3902    1.0000 </r>
       <r>   -0.2315    1.0000 </r>
       <r>    0.9751    1.0000 </r>
       <r>    1.3085    1.0000 </r>
       <r>    1.5168    1.0000 </r>
       <r>    1.6041    1.0000 </r>
       <r>    5.1740    0.0000 </r>
       <r>    6.2013    0.0000 </r>
       <r>    6.2174    0.0000 </r>
       <r>   10.2441    0.0000 </r>
      </set>
      <set comment="kpoint 14">
       <r>  -30.0501    1.0000 </r>
       <r>  -14.6303    1.0000 </r>
       <r>  -13.9272    1.0000 </r>
       <r>  -13.7482    1.0000 </r>
       <r>  -12.1223    1.0000 </r>
       <r>  -11.9557    1.0000 </r>
       <r>  -11.7508    1.0000 </r>
       <r>   -1.4294    1.0000 </r>
       <r>   -0.9165    1.0000 </r>
       <r>   -0.7164    1.0000 </r>
       <r>   -0.4845    1.0000 </r>
       <r>   -0.1016    1.0000 </r>
       <r>    0.4470    1.0000 </r>
       <r>    1.4990    1.0000 </r>
       <r>    1.5594    1.0000 </r>
       <r>    2.0179    1.0000 </r>
       <r>    5.6994    0.0000 </r>
       <r>    5.7952    0.0000 </r>
       <r>    6.0202    0.0000 </r>
       <r>   10.2138    0.0000 </r>
      </set>
      <set comment="kpoint 15">
       <r>  -30.0430    1.0000 </r>
       <r>  -14.5577    1.0000 </r>
       <r>  -13.9023    1.0000 </r>
       <r>  -13.7319    1.0000 </r>
       <r>  -12.1591    1.0000 </r>
       <r>  -11.8726    1.0000 </r>
       <r>  -11.7645    1.0000 </r>
       <r>   -1.6964    1.0000 </r>
       <r>   -1.3747    1.0000 </r>
       <r>   -0.9829    1.0000 </r>
       <r>   -0.5054    1.0000 </r>
       <r>   -0.3596    1.0000 </r>
       <r>    0.4702    1.0000 </r>
       <r>    1.3934    1.0000 </r>
       <r>    1.4917    1.0000 </r>
       <r>    2.1396    1.0000 </r>
       <r>    5.7860    0.0000 </r>
       <r>    6.2468    0.0000 </r>
       <r>    6.3914    0.0000 </r>
       <r>   10.5609    0.0000 </r>
      </set>
      <set comment="kpoint 16">
       <r>  -30.0363    1.0000 </r>
       <r>  -14.2604    1.0000 </r>
       <r>  -13.9852    1.0000 </r>
       <r>  -13.8296    1.0000 </r>
       <r>  -12.1285    1.0000 </r>
       <r>  -11.8597    1.0000 </r>
       <r>  -11.8174    1.0000 </r>
       <r>   -1.8221    1.0000 </r>
       <r>   -1.7258    1.0000 </r>
       <r>   -1.4908    1.0000 </r>
       <r>   -0.5206    1.0000 </r>
       <r>   -0.4626    1.0000 </r>
       <r>    0.3344    1.0000 </r>
       <r>    1.4328    1.0000 </r>
       <r>    1.4767    1.0000 </r>
       <r>    2.4689    1.0000 </r>
       <r>    6.2636    0.0000 </r>
       <r>    6.2837    0.0000 </r>
       <r>    6.6432    0.0000 </r>
       <r>   10.4863    0.0000 </r>
      </set>
      <set comment="kpoint 17">
       <r>  -30.0417    1.0000 </r>
       <r>  -14.4475    1.0000 </r>
       <r>  -13.8008    1.0000 </r>
       <r>  -13.8008    1.0000 </r>
       <r>  -12.1158    1.0000 </r>
       <r>  -12.1158    1.0000 </r>
       <r>  -11.7674    1.0000 </r>
       <r>   -1.5198    1.0000 </r>
       <r>   -0.9050    1.0000 </r>
       <r>   -0.9050    1.0000 </r>
       <r>   -0.5660    1.0000 </r>
       <r>   -0.5660    1.0000 </r>
       <r>   -0.5421    1.0000 </r>
       <r>    1.8063    1.0000 </r>
       <r>    1.8063    1.0000 </r>
       <r>    2.1471    1.0000 </r>
       <r>    6.0712    0.0000 </r>
       <r>    6.1197    0.0000 </r>
       <r>    6.1197    0.0000 </r>
       <r>   10.3867    0.0000 </r>
      </set>
      <set comment="kpoint 18">
       <r>  -30.0349    1.0000 </r>
       <r>  -14.3074    1.0000 </r>
       <r>  -13.8369    1.0000 </r>
       <r>  -13.6792    1.0000 </r>
       <r>  -12.2645    1.0000 </r>
       <r>  -12.0101    1.0000 </r>
       <r>  -11.8680    1.0000 </r>
       <r>   -1.6975    1.0000 </r>
       <r>   -1.3077    1.0000 </r>
       <r>   -0.9988    1.0000 </r>
       <r>   -0.8939    1.0000 </r>
       <r>   -0.8220    1.0000 </r>
       <r>   -0.4332    1.0000 </r>
       <r>    1.8368    1.0000 </r>
       <r>    1.9706    1.0000 </r>
       <r>    2.2497    1.0000 </r>
       <r>    6.1683    0.0000 </r>
       <r>    6.4583    0.0000 </r>
       <r>    6.4828    0.0000 </r>
       <r>   10.6311    0.0000 </r>
      </set>
      <set comment="kpoint 19">
       <r>  -30.0284    1.0000 </r>
       <r>  -14.0249    1.0000 </r>
       <r>  -13.8096    1.0000 </r>
       <r>  -13.6916    1.0000 </r>
       <r>  -12.2854    1.0000 </r>
       <r>  -12.1076    1.0000 </r>
       <r>  -12.0136    1.0000 </r>
       <r>   -1.7895    1.0000 </r>
       <r>   -1.4819    1.0000 </r>
       <r>   -1.4120    1.0000 </r>
       <r>   -0.9388    1.0000 </r>
       <r>   -0.8487    1.0000 </r>
       <r>   -0.7433    1.0000 </r>
       <r>    2.0601    1.0000 </r>
       <r>    2.0963    1.0000 </r>
       <r>    2.5056    1.0000 </r>
       <r>    6.5276    0.0000 </r>
       <r>    6.5396    0.0000 </r>
       <r>    6.7324    0.0000 </r>
       <r>   10.0218    0.0000 </r>
      </set>
      <set comment="kpoint 20">
       <r>  -30.0221    1.0000 </r>
       <r>  -13.7676    1.0000 </r>
       <r>  -13.6235    1.0000 </r>
       <r>  -13.6235    1.0000 </r>
       <r>  -12.3509    1.0000 </r>
       <r>  -12.3509    1.0000 </r>
       <r>  -12.2375    1.0000 </r>
       <r>   -1.8779    1.0000 </r>
       <r>   -1.4740    1.0000 </r>
       <r>   -1.4740    1.0000 </r>
       <r>   -1.1733    1.0000 </r>
       <r>   -1.0656    1.0000 </r>
       <r>   -1.0656    1.0000 </r>
       <r>    2.4728    1.0000 </r>
       <r>    2.4728    1.0000 </r>
       <r>    2.5606    1.0000 </r>
       <r>    6.8090    0.0000 </r>
       <r>    9.7844    0.0000 </r>
       <r>    9.8186    0.0000 </r>
       <r>    9.8635    0.0000 </r>
      </set>
     </set>
    </set>
   </array>
  </eigenvalues>
  <separator name="orbital magnetization" >
   <v name="MAGDIPOLOUT">      0.00000000      0.00000000      0.00000000</v>
  </separator>
  <dos>
   <i name="efermi">      2.59040329 </i>
   <total>
    <array>
     <dimension dim="1">gridpoints</dimension>
     <dimension dim="2">spin</dimension>
     <field>energy</field>
     <field>total</field>
     <field>integrated</field>
     <set>
      <set comment="spin 1">
       <r>   -32.1168     0.0000     0.0000 </r>
       <r>   -31.9675     0.0000     0.0000 </r>
       <r>   -31.8183     0.0000     0.0000 </r>
       <r>   -31.6690     0.0000     0.0000 </r>
       <r>   -31.5197     0.0000     0.0000 </r>
       <r>   -31.3704     0.0000     0.0000 </r>
       <r>   -31.2211     0.0000     0.0000 </r>
       <r>   -31.0719     0.0000     0.0000 </r>
       <r>   -30.9226     0.0000     0.0000 </r>
       <r>   -30.7733     0.0000     0.0000 </r>
       <r>   -30.6240     0.0000     0.0000 </r>
       <r>   -30.4747     0.0000     0.0000 </r>
       <r>   -30.3255     0.0000     0.0000 </r>
       <r>   -30.1762     0.0000     0.0000 </r>
       <r>   -30.0269    15.9173     1.9444 </r>
       <r>   -29.8776     0.0000     2.0000 </r>
       <r>   -29.7284     0.0000     2.0000 </r>
       <r>   -29.5791     0.0000     2.0000 </r>
       <r>   -29.4298     0.0000     2.0000 </r>
       <r>   -29.2805     0.0000     2.0000 </r>
       <r>   -29.1312     0.0000     2.0000 </r>
       <r>   -28.9820     0.0000     2.0000 </r>
       <r>   -28.8327     0.0000     2.0000 </r>
       <r>   -28.6834     0.0000     2.0000 </r>
       <r>   -28.5341     0.0000     2.0000 </r>
       <r>   -28.3849     0.0000     2.0000 </r>
       <r>   -28.2356     0.0000     2.0000 </r>
       <r>   -28.0863     0.0000     2.0000 </r>
       <r>   -27.9370     0.0000     2.0000 </r>
       <r>   -27.7877     0.0000     2.0000 </r>
       <r>   -27.6385     0.0000     2.0000 </r>
       <r>   -27.4892     0.0000     2.0000 </r>
       <r>   -27.3399     0.0000     2.0000 </r>
       <r>   -27.1906     0.0000     2.0000 </r>
       <r>   -27.0413     0.0000     2.0000 </r>
       <r>   -26.8921     0.0000     2.0000 </r>
       <r>   -26.7428     0.0000     2.0000 </r>
       <r>   -26.5935     0.0000     2.0000 </r>
       <r>   -26.4442     0.0000     2.0000 </r>
       <r>   -26.2950     0.0000     2.0000 </r>
       <r>   -26.1457     0.0000     2.0000 </r>
       <r>   -25.9964     0.0000     2.0000 </r>
       <r>   -25.8471     0.0000     2.0000 </r>
       <r>   -25.6978     0.0000     2.0000 </r>
       <r>   -25.5486     0.0000     2.0000 </r>
       <r>   -25.3993     0.0000     2.0000 </r>
       <r>   -25.2500     0.0000     2.0000 </r>
       <r>   -25.1007     0.0000     2.0000 </r>
       <r>   -24.9514     0.0000     2.0000 </r>
       <r>   -24.8022     0.0000     2.0000 </r>
       <r>   -24.6529     0.0000     2.0000 </r>
       <r>   -24.5036     0.0000     2.0000 </r>
       <r>   -24.3543     0.0000     2.0000 </r>
       <r>   -24.2051     0.0000     2.0000 </r>
       <r>   -24.0558     0.0000     2.0000 </r>
       <r>   -23.9065     0.0000     2.0000 </r>
       <r>   -23.7572     0.0000     2.0000 </r>
       <r>   -23.6079     0.0000     2.0000 </r>
       <r>   -23.4587     0.0000     2.0000 </r>
       <r>   -23.3094     0.0000     2.0000 </r>
       <r>   -23.1601     0.0000     2.0000 </r>
       <r>   -23.0108     0.0000     2.0000 </r>
       <r>   -22.8616     0.0000     2.0000 </r>
       <r>   -22.7123     0.0000     2.0000 </r>
       <r>   -22.5630     0.0000     2.0000 </r>
       <r>   -22.4137     0.0000     2.0000 </r>
       <r>   -22.2644     0.0000     2.0000 </r>
       <r>   -22.1152     0.0000     2.0000 </r>
       <r>   -21.9659     0.0000     2.0000 </r>
       <r>   -21.8166     0.0000     2.0000 </r>
       <r>   -21.6673     0.0000     2.0000 </r>
       <r>   -21.5180     0.0000     2.0000 </r>
       <r>   -21.3688     0.0000     2.0000 </r>
       <r>   -21.2195     0.0000     2.0000 </r>
       <r>   -21.0702     0.0000     2.0000 </r>
       <r>   -20.9209     0.0000     2.0000 </r>
       <r>   -20.7717     0.0000     2.0000 </r>
       <r>   -20.6224     0.0000     2.0000 </r>
       <r>   -20.4731     0.0000     2.0000 </r>
       <r>   -20.3238     0.0000     2.0000 </r>
       <r>   -20.1745     0.0000     2.0000 </r>
       <r>   -20.0253     0.0000     2.0000 </r>
       <r>   -19.8760     0.0000     2.0000 </r>
       <r>   -19.7267     0.0000     2.0000 </r>
       <r>   -19.5774     0.0000     2.0000 </r>
       <r>   -19.4282     0.0000     2.0000 </r>
       <r>   -19.2789     0.0000     2.0000 </r>
       <r>   -19.1296     0.0000     2.0000 </r>
       <r>   -18.9803     0.0000     2.0000 </r>
       <r>   -18.8310     0.0000     2.0000 </r>
       <r>   -18.6818     0.0000     2.0000 </r>
       <r>   -18.5325     0.0000     2.0000 </r>
       <r>   -18.3832     0.0000     2.0000 </r>
       <r>   -18.2339     0.0000     2.0000 </r>
       <r>   -18.0846     0.0000     2.0000 </r>
       <r>   -17.9354     0.0000     2.0000 </r>
       <r>   -17.7861     0.0000     2.0000 </r>
       <r>   -17.6368     0.0000     2.0000 </r>
       <r>   -17.4875     0.0000     2.0000 </r>
       <r>   -17.3383     0.0000     2.0000 </r>
       <r>   -17.1890     0.0000     2.0000 </r>
       <r>   -17.0397     0.0000     2.0000 </r>
       <r>   -16.8904     0.0000     2.0000 </r>
       <r>   -16.7411     0.0000     2.0000 </r>
       <r>   -16.5919     0.0000     2.0000 </r>
       <r>   -16.4426     0.0000     2.0000 </r>
       <r>   -16.2933     0.0000     2.0000 </r>
       <r>   -16.1440     0.0000     2.0000 </r>
       <r>   -15.9947     0.0000     2.0000 </r>
       <r>   -15.8455     0.0000     2.0000 </r>
       <r>   -15.6962     0.0000     2.0000 </r>
       <r>   -15.5469     0.0000     2.0000 </r>
       <r>   -15.3976     0.0000     2.0000 </r>
       <r>   -15.2484     0.0000     2.0000 </r>
       <r>   -15.0991     0.0000     2.0000 </r>
       <r>   -14.9498     0.8497     2.0245 </r>
       <r>   -14.8005     5.1300     2.5113 </r>
       <r>   -14.6512     2.8630     2.9995 </r>
       <r>   -14.5020     1.9286     3.3411 </r>
       <r>   -14.3527     1.8742     3.5987 </r>
       <r>   -14.2034     0.8851     3.7967 </r>
       <r>   -14.0541     0.5455     3.9022 </r>
       <r>   -13.9049     9.3721     4.5043 </r>
       <r>   -13.7556    21.6558     6.7911 </r>
       <r>   -13.6063     0.0000     8.0000 </r>
       <r>   -13.4570     0.0000     8.0000 </r>
       <r>   -13.3077     0.0000     8.0000 </r>
       <r>   -13.1585     0.0000     8.0000 </r>
       <r>   -13.0092     0.0000     8.0000 </r>
       <r>   -12.8599     0.0000     8.0000 </r>
       <r>   -12.7106     0.0000     8.0000 </r>
       <r>   -12.5613     0.0000     8.0000 </r>
       <r>   -12.4121     0.0000     8.0000 </r>
       <r>   -12.2628     2.3672     8.1879 </r>
       <r>   -12.1135    31.9173     9.3975 </r>
       <r>   -11.9642     9.9620    11.2351 </r>
       <r>   -11.8150     7.2356    12.5518 </r>
       <r>   -11.6657     3.1445    13.8656 </r>
       <r>   -11.5164     0.0000    14.0000 </r>
       <r>   -11.3671     0.0000    14.0000 </r>
       <r>   -11.2178     0.0000    14.0000 </r>
       <r>   -11.0686     0.0000    14.0000 </r>
       <r>   -10.9193     0.0000    14.0000 </r>
       <r>   -10.7700     0.0000    14.0000 </r>
       <r>   -10.6207     0.0000    14.0000 </r>
       <r>   -10.4715     0.0000    14.0000 </r>
       <r>   -10.3222     0.0000    14.0000 </r>
       <r>   -10.1729     0.0000    14.0000 </r>
       <r>   -10.0236     0.0000    14.0000 </r>
       <r>    -9.8743     0.0000    14.0000 </r>
       <r>    -9.7251     0.0000    14.0000 </r>
       <r>    -9.5758     0.0000    14.0000 </r>
       <r>    -9.4265     0.0000    14.0000 </r>
       <r>    -9.2772     0.0000    14.0000 </r>
       <r>    -9.1279     0.0000    14.0000 </r>
       <r>    -8.9787     0.0000    14.0000 </r>
       <r>    -8.8294     0.0000    14.0000 </r>
       <r>    -8.6801     0.0000    14.0000 </r>
       <r>    -8.5308     0.0000    14.0000 </r>
       <r>    -8.3816     0.0000    14.0000 </r>
       <r>    -8.2323     0.0000    14.0000 </r>
       <r>    -8.0830     0.0000    14.0000 </r>
       <r>    -7.9337     0.0000    14.0000 </r>
       <r>    -7.7844     0.0000    14.0000 </r>
       <r>    -7.6352     0.0000    14.0000 </r>
       <r>    -7.4859     0.0000    14.0000 </r>
       <r>    -7.3366     0.0000    14.0000 </r>
       <r>    -7.1873     0.0000    14.0000 </r>
       <r>    -7.0380     0.0000    14.0000 </r>
       <r>    -6.8888     0.0000    14.0000 </r>
       <r>    -6.7395     0.0000    14.0000 </r>
       <r>    -6.5902     0.0000    14.0000 </r>
       <r>    -6.4409     0.0000    14.0000 </r>
       <r>    -6.2917     0.0000    14.0000 </r>
       <r>    -6.1424     0.0000    14.0000 </r>
       <r>    -5.9931     0.0000    14.0000 </r>
       <r>    -5.8438     0.0000    14.0000 </r>
       <r>    -5.6945     0.0000    14.0000 </r>
       <r>    -5.5453     0.0000    14.0000 </r>
       <r>    -5.3960     0.0000    14.0000 </r>
       <r>    -5.2467     0.0000    14.0000 </r>
       <r>    -5.0974     0.0000    14.0000 </r>
       <r>    -4.9482     0.0000    14.0000 </r>
       <r>    -4.7989     0.0000    14.0000 </r>
       <r>    -4.6496     0.0000    14.0000 </r>
       <r>    -4.5003     0.0000    14.0000 </r>
       <r>    -4.3510     0.0000    14.0000 </r>
       <r>    -4.2018     0.0000    14.0000 </r>
       <r>    -4.0525     0.0000    14.0000 </r>
       <r>    -3.9032     0.0000    14.0000 </r>
       <r>    -3.7539     0.0000    14.0000 </r>
       <r>    -3.6046     0.0000    14.0000 </r>
       <r>    -3.4554     0.0000    14.0000 </r>
       <r>    -3.3061     0.0000    14.0000 </r>
       <r>    -3.1568     0.0000    14.0000 </r>
       <r>    -3.0075     0.0000    14.0000 </r>
       <r>    -2.8583     0.0000    14.0000 </r>
       <r>    -2.7090     0.0000    14.0000 </r>
       <r>    -2.5597     0.0000    14.0000 </r>
       <r>    -2.4104     0.0000    14.0000 </r>
       <r>    -2.2611     0.0000    14.0000 </r>
       <r>    -2.1119     0.0000    14.0000 </r>
       <r>    -1.9626     0.0000    14.0000 </r>
       <r>    -1.8133     3.5174    14.1499 </r>
       <r>    -1.6640     6.5419    14.9392 </r>
       <r>    -1.5148     3.1859    15.5497 </r>
       <r>    -1.3655     4.7485    16.3486 </r>
       <r>    -1.2162     3.3854    16.9069 </r>
       <r>    -1.0669     3.4584    17.4168 </r>
       <r>    -0.9176     5.1784    18.0889 </r>
       <r>    -0.7684     4.9965    18.8430 </r>
       <r>    -0.6191     5.2780    19.6100 </r>
       <r>    -0.4698     6.5402    20.4829 </r>
       <r>    -0.3205     9.2157    21.6018 </r>
       <r>    -0.1712     3.5961    22.7000 </r>
       <r>    -0.0220     3.1080    23.2049 </r>
       <r>     0.1273     2.3965    23.6011 </r>
       <r>     0.2766     2.0593    23.9365 </r>
       <r>     0.4259     1.8873    24.2131 </r>
       <r>     0.5751     2.8304    24.5637 </r>
       <r>     0.7244     3.1938    25.0186 </r>
       <r>     0.8737     3.3138    25.5115 </r>
       <r>     1.0230     1.1715    25.7882 </r>
       <r>     1.1723     2.3924    26.0298 </r>
       <r>     1.3215     5.2564    26.5778 </r>
       <r>     1.4708     6.1806    27.5308 </r>
       <r>     1.6201     5.7938    28.5779 </r>
       <r>     1.7694     5.9577    29.4515 </r>
       <r>     1.9187     4.6311    30.2527 </r>
       <r>     2.0679     3.4505    30.8384 </r>
       <r>     2.2172     2.6764    31.3102 </r>
       <r>     2.3665     1.9584    31.6448 </r>
       <r>     2.5158     1.4239    31.9486 </r>
       <r>     2.6650     0.0000    32.0000 </r>
       <r>     2.8143     0.0000    32.0000 </r>
       <r>     2.9636     0.0000    32.0000 </r>
       <r>     3.1129     0.0000    32.0000 </r>
       <r>     3.2622     0.0000    32.0000 </r>
       <r>     3.4114     0.0000    32.0000 </r>
       <r>     3.5607     0.0000    32.0000 </r>
       <r>     3.7100     0.0000    32.0000 </r>
       <r>     3.8593     0.0000    32.0000 </r>
       <r>     4.0085     0.0000    32.0000 </r>
       <r>     4.1578     0.0000    32.0000 </r>
       <r>     4.3071     0.0000    32.0000 </r>
       <r>     4.4564     0.1686    32.0108 </r>
       <r>     4.6057     0.5474    32.0624 </r>
       <r>     4.7549     0.9609    32.1750 </r>
       <r>     4.9042     1.5892    32.3773 </r>
       <r>     5.0535     1.4814    32.6073 </r>
       <r>     5.2028     1.4650    32.8198 </r>
       <r>     5.3521     1.6671    33.0535 </r>
       <r>     5.5013     1.8758    33.3179 </r>
       <r>     5.6506     2.6543    33.6281 </r>
       <r>     5.7999     3.1263    34.0793 </r>
       <r>     5.9492     3.5197    34.5749 </r>
       <r>     6.0984     4.0272    35.1355 </r>
       <r>     6.2477     6.8127    36.2318 </r>
       <r>     6.3970     4.0681    36.9445 </r>
       <r>     6.5463     2.1637    37.4507 </r>
       <r>     6.6956     1.1185    37.7336 </r>
       <r>     6.8448     0.1162    37.8006 </r>
       <r>     6.9941     0.1098    37.8175 </r>
       <r>     7.1434     0.1036    37.8334 </r>
       <r>     7.2927     0.0976    37.8484 </r>
       <r>     7.4419     0.0917    37.8626 </r>
       <r>     7.5912     0.0860    37.8758 </r>
       <r>     7.7405     0.0805    37.8882 </r>
       <r>     7.8898     0.0752    37.8999 </r>
       <r>     8.0391     0.0700    37.9107 </r>
       <r>     8.1883     0.0794    37.9215 </r>
       <r>     8.3376     0.1149    37.9357 </r>
       <r>     8.4869     0.1779    37.9574 </r>
       <r>     8.6362     0.2177    37.9874 </r>
       <r>     8.7855     0.2345    38.0211 </r>
       <r>     8.9347     0.2660    38.0582 </r>
       <r>     9.0840     0.3116    38.1012 </r>
       <r>     9.2333     0.3639    38.1515 </r>
       <r>     9.3826     0.4290    38.2105 </r>
       <r>     9.5318     0.5165    38.2810 </r>
       <r>     9.6811     0.6050    38.3647 </r>
       <r>     9.8304     0.6804    38.4731 </r>
       <r>     9.9797     1.5220    38.6466 </r>
       <r>    10.1290     1.4682    38.8630 </r>
       <r>    10.2782     1.8746    39.1085 </r>
       <r>    10.4275     2.2757    39.4219 </r>
       <r>    10.5768     3.0974    39.9151 </r>
       <r>    10.7261     0.0000    40.0000 </r>
       <r>    10.8754     0.0000    40.0000 </r>
       <r>    11.0246     0.0000    40.0000 </r>
       <r>    11.1739     0.0000    40.0000 </r>
       <r>    11.3232     0.0000    40.0000 </r>
       <r>    11.4725     0.0000    40.0000 </r>
       <r>    11.6217     0.0000    40.0000 </r>
       <r>    11.7710     0.0000    40.0000 </r>
       <r>    11.9203     0.0000    40.0000 </r>
       <r>    12.0696     0.0000    40.0000 </r>
       <r>    12.2189     0.0000    40.0000 </r>
       <r>    12.3681     0.0000    40.0000 </r>
       <r>    12.5174     0.0000    40.0000 </r>
       <r>    12.6667     0.0000    40.0000 </r>
      </set>
     </set>
    </array>
   </total>
  </dos>
 </calculation>
 <structure name="finalpos" >
  <crystal>
   <varray name="basis" >
    <v>       3.90526800       0.00000000       0.00000000 </v>
    <v>       0.00000000       3.90526800       0.00000000 </v>
    <v>       0.00000000       0.00000000       3.90526800 </v>
   </varray>
   <i name="volume">     59.55970368 </i>
   <varray name="rec_basis" >
    <v>       0.25606437       0.00000000       0.00000000 </v>
    <v>       0.00000000       0.25606437       0.00000000 </v>
    <v>       0.00000000       0.00000000       0.25606437 </v>
   </varray>
  </crystal>
  <varray name="positions" >
   <v>       0.00000000       0.00000000       0.00000000 </v>
   <v>       0.50000000       0.50000000       0.50000000 </v>
   <v>       0.50000000       0.50000000       0.00000000 </v>
   <v>       0.50000000       0.00000000       0.50000000 </v>
   <v>       0.00000000       0.50000000       0.50000000 </v>
  </varray>
 </structure>
</modeling>
