  20  20   0   0
  0.1957362E+02  0.3905268E-09  0.3905268E-09  0.2566844E-08  0.5000000E-15
  1.000000000000000E-004
  CAR 
 unknown system                          
      9.71437484    -35.85334486  301      0.63880400      1.00000000
    -35.853  0.0000E+00  0.0000E+00
    -35.701  0.0000E+00  0.0000E+00
    -35.550  0.0000E+00  0.0000E+00
    -35.398  0.0000E+00  0.0000E+00
    -35.246  0.0000E+00  0.0000E+00
    -35.094  0.0000E+00  0.0000E+00
    -34.942  0.0000E+00  0.0000E+00
    -34.790  0.0000E+00  0.0000E+00
    -34.638  0.0000E+00  0.0000E+00
    -34.486  0.0000E+00  0.0000E+00
    -34.334  0.0000E+00  0.0000E+00
    -34.183  0.0000E+00  0.0000E+00
    -34.031  0.0000E+00  0.0000E+00
    -33.879  0.0000E+00  0.0000E+00
    -33.727  0.0000E+00  0.2000E+01
    -33.575  0.0000E+00  0.2000E+01
    -33.423  0.0000E+00  0.2000E+01
    -33.271  0.0000E+00  0.2000E+01
    -33.119  0.0000E+00  0.2000E+01
    -32.967  0.0000E+00  0.2000E+01
    -32.815  0.0000E+00  0.2000E+01
    -32.664  0.0000E+00  0.6000E+01
    -32.512  0.0000E+00  0.8000E+01
    -32.360  0.0000E+00  0.8000E+01
    -32.208  0.0000E+00  0.8000E+01
    -32.056  0.0000E+00  0.8000E+01
    -31.904  0.0000E+00  0.8000E+01
    -31.752  0.0000E+00  0.8000E+01
    -31.600  0.0000E+00  0.8000E+01
    -31.448  0.0000E+00  0.8000E+01
    -31.297  0.0000E+00  0.8000E+01
    -31.145  0.0000E+00  0.8000E+01
    -30.993  0.0000E+00  0.8000E+01
    -30.841  0.0000E+00  0.8000E+01
    -30.689  0.0000E+00  0.8000E+01
    -30.537  0.0000E+00  0.8000E+01
    -30.385  0.0000E+00  0.8000E+01
    -30.233  0.0000E+00  0.8000E+01
    -30.081  0.0000E+00  0.8000E+01
    -29.930  0.0000E+00  0.8000E+01
    -29.778  0.0000E+00  0.8000E+01
    -29.626  0.0000E+00  0.8000E+01
    -29.474  0.0000E+00  0.8000E+01
    -29.322  0.0000E+00  0.8000E+01
    -29.170  0.0000E+00  0.8000E+01
    -29.018  0.0000E+00  0.8000E+01
    -28.866  0.0000E+00  0.8000E+01
    -28.714  0.0000E+00  0.8000E+01
    -28.563  0.0000E+00  0.8000E+01
    -28.411  0.0000E+00  0.8000E+01
    -28.259  0.0000E+00  0.8000E+01
    -28.107  0.0000E+00  0.8000E+01
    -27.955  0.0000E+00  0.8000E+01
    -27.803  0.0000E+00  0.8000E+01
    -27.651  0.0000E+00  0.8000E+01
    -27.499  0.0000E+00  0.8000E+01
    -27.347  0.0000E+00  0.8000E+01
    -27.195  0.0000E+00  0.8000E+01
    -27.044  0.0000E+00  0.8000E+01
    -26.892  0.0000E+00  0.8000E+01
    -26.740  0.0000E+00  0.8000E+01
    -26.588  0.0000E+00  0.8000E+01
    -26.436  0.0000E+00  0.8000E+01
    -26.284  0.0000E+00  0.8000E+01
    -26.132  0.0000E+00  0.8000E+01
    -25.980  0.0000E+00  0.8000E+01
    -25.828  0.0000E+00  0.8000E+01
    -25.677  0.0000E+00  0.8000E+01
    -25.525  0.0000E+00  0.8000E+01
    -25.373  0.0000E+00  0.8000E+01
    -25.221  0.0000E+00  0.8000E+01
    -25.069  0.0000E+00  0.8000E+01
    -24.917  0.0000E+00  0.8000E+01
    -24.765  0.0000E+00  0.8000E+01
    -24.613  0.0000E+00  0.8000E+01
    -24.461  0.0000E+00  0.8000E+01
    -24.310  0.0000E+00  0.8000E+01
    -24.158  0.0000E+00  0.8000E+01
    -24.006  0.0000E+00  0.8000E+01
    -23.854  0.0000E+00  0.8000E+01
    -23.702  0.0000E+00  0.8000E+01
    -23.550  0.0000E+00  0.8000E+01
    -23.398  0.0000E+00  0.8000E+01
    -23.246  0.0000E+00  0.8000E+01
    -23.094  0.0000E+00  0.8000E+01
    -22.942  0.0000E+00  0.8000E+01
    -22.791  0.0000E+00  0.8000E+01
    -22.639  0.0000E+00  0.8000E+01
    -22.487  0.0000E+00  0.8000E+01
    -22.335  0.0000E+00  0.8000E+01
    -22.183  0.0000E+00  0.8000E+01
    -22.031  0.0000E+00  0.8000E+01
    -21.879  0.0000E+00  0.8000E+01
    -21.727  0.0000E+00  0.8000E+01
    -21.575  0.0000E+00  0.8000E+01
    -21.424  0.0000E+00  0.8000E+01
    -21.272  0.0000E+00  0.8000E+01
    -21.120  0.0000E+00  0.8000E+01
    -20.968  0.0000E+00  0.8000E+01
    -20.816  0.0000E+00  0.8000E+01
    -20.664  0.0000E+00  0.8000E+01
    -20.512  0.0000E+00  0.8000E+01
    -20.360  0.0000E+00  0.8000E+01
    -20.208  0.0000E+00  0.8000E+01
    -20.057  0.0000E+00  0.8000E+01
    -19.905  0.0000E+00  0.8000E+01
    -19.753  0.0000E+00  0.8000E+01
    -19.601  0.0000E+00  0.8000E+01
    -19.449  0.0000E+00  0.8000E+01
    -19.297  0.0000E+00  0.8000E+01
    -19.145  0.0000E+00  0.8000E+01
    -18.993  0.0000E+00  0.8000E+01
    -18.841  0.0000E+00  0.8000E+01
    -18.690  0.0000E+00  0.8000E+01
    -18.538  0.0000E+00  0.8000E+01
    -18.386  0.0000E+00  0.8000E+01
    -18.234  0.0000E+00  0.8000E+01
    -18.082  0.0000E+00  0.8000E+01
    -17.930  0.0000E+00  0.8000E+01
    -17.778  0.0000E+00  0.8000E+01
    -17.626  0.7902E+01  0.8262E+01
    -17.474  0.9414E+01  0.9814E+01
    -17.322  0.7101E+01  0.1146E+02
    -17.171  0.7311E+01  0.1255E+02
    -17.019  0.1064E+02  0.1372E+02
    -16.867  0.6973E+01  0.1497E+02
    -16.715  0.6181E+01  0.1567E+02
    -16.563  0.3003E+02  0.1999E+02
    -16.411  0.2185E+02  0.2556E+02
    -16.259  0.6164E+01  0.2689E+02
    -16.107  0.8348E+01  0.2901E+02
    -15.955  0.2013E+01  0.2990E+02
    -15.804  0.7245E+01  0.3260E+02
    -15.652  0.3180E+02  0.3478E+02
    -15.500  0.1706E+00  0.3601E+02
    -15.348  0.1056E+01  0.3612E+02
    -15.196  0.2107E+01  0.3635E+02
    -15.044  0.4690E+01  0.3679E+02
    -14.892  0.1656E+02  0.3832E+02
    -14.740  0.4808E+02  0.4238E+02
    -14.588  0.2536E+02  0.4796E+02
    -14.437  0.5125E+02  0.5265E+02
    -14.285  0.5737E+01  0.5597E+02
    -14.133  0.0000E+00  0.5600E+02
    -13.981  0.0000E+00  0.5600E+02
    -13.829  0.0000E+00  0.5600E+02
    -13.677  0.0000E+00  0.5600E+02
    -13.525  0.0000E+00  0.5600E+02
    -13.373  0.0000E+00  0.5600E+02
    -13.221  0.0000E+00  0.5600E+02
    -13.069  0.0000E+00  0.5600E+02
    -12.918  0.0000E+00  0.5600E+02
    -12.766  0.0000E+00  0.5600E+02
    -12.614  0.0000E+00  0.5600E+02
    -12.462  0.0000E+00  0.5600E+02
    -12.310  0.0000E+00  0.5600E+02
    -12.158  0.0000E+00  0.5600E+02
    -12.006  0.0000E+00  0.5600E+02
    -11.854  0.0000E+00  0.5600E+02
    -11.702  0.0000E+00  0.5600E+02
    -11.551  0.0000E+00  0.5600E+02
    -11.399  0.0000E+00  0.5600E+02
    -11.247  0.0000E+00  0.5600E+02
    -11.095  0.0000E+00  0.5600E+02
    -10.943  0.0000E+00  0.5600E+02
    -10.791  0.0000E+00  0.5600E+02
    -10.639  0.0000E+00  0.5600E+02
    -10.487  0.0000E+00  0.5600E+02
    -10.335  0.0000E+00  0.5600E+02
    -10.184  0.0000E+00  0.5600E+02
    -10.032  0.0000E+00  0.5600E+02
     -9.880  0.0000E+00  0.5600E+02
     -9.728  0.0000E+00  0.5600E+02
     -9.576  0.0000E+00  0.5600E+02
     -9.424  0.0000E+00  0.5600E+02
     -9.272  0.0000E+00  0.5600E+02
     -9.120  0.0000E+00  0.5600E+02
     -8.968  0.0000E+00  0.5600E+02
     -8.816  0.0000E+00  0.5600E+02
     -8.665  0.0000E+00  0.5600E+02
     -8.513  0.0000E+00  0.5600E+02
     -8.361  0.0000E+00  0.5600E+02
     -8.209  0.0000E+00  0.5600E+02
     -8.057  0.0000E+00  0.5600E+02
     -7.905  0.0000E+00  0.5600E+02
     -7.753  0.0000E+00  0.5600E+02
     -7.601  0.0000E+00  0.5600E+02
     -7.449  0.0000E+00  0.5600E+02
     -7.298  0.0000E+00  0.5600E+02
     -7.146  0.0000E+00  0.5600E+02
     -6.994  0.0000E+00  0.5600E+02
     -6.842  0.0000E+00  0.5600E+02
     -6.690  0.0000E+00  0.5600E+02
     -6.538  0.0000E+00  0.5600E+02
     -6.386  0.0000E+00  0.5600E+02
     -6.234  0.0000E+00  0.5600E+02
     -6.082  0.0000E+00  0.5600E+02
     -5.931  0.0000E+00  0.5600E+02
     -5.779  0.0000E+00  0.5600E+02
     -5.627  0.0000E+00  0.5600E+02
     -5.475  0.0000E+00  0.5600E+02
     -5.323  0.0000E+00  0.5600E+02
     -5.171  0.0000E+00  0.5600E+02
     -5.019  0.0000E+00  0.5600E+02
     -4.867  0.0000E+00  0.5600E+02
     -4.715  0.0000E+00  0.5600E+02
     -4.564  0.2005E+01  0.5611E+02
     -4.412  0.1047E+02  0.5754E+02
     -4.260  0.6181E+02  0.6011E+02
     -4.108  0.1550E+02  0.6253E+02
     -3.956  0.1397E+02  0.6487E+02
     -3.804  0.1390E+02  0.6711E+02
     -3.652  0.1510E+02  0.6948E+02
     -3.500  0.1842E+02  0.7209E+02
     -3.348  0.1970E+02  0.7515E+02
     -3.196  0.2233E+02  0.7834E+02
     -3.045  0.2542E+02  0.8237E+02
     -2.893  0.1918E+02  0.8576E+02
     -2.741  0.1381E+02  0.8800E+02
     -2.589  0.1409E+02  0.9017E+02
     -2.437  0.1140E+02  0.9208E+02
     -2.285  0.1323E+02  0.9401E+02
     -2.133  0.1162E+02  0.9592E+02
     -1.981  0.9767E+01  0.9756E+02
     -1.829  0.9805E+01  0.9912E+02
     -1.678  0.1153E+02  0.1010E+03
     -1.526  0.1119E+02  0.1029E+03
     -1.374  0.1144E+02  0.1054E+03
     -1.222  0.2036E+02  0.1088E+03
     -1.070  0.2523E+02  0.1118E+03
     -0.918  0.1998E+02  0.1157E+03
     -0.766  0.1570E+02  0.1180E+03
     -0.614  0.2039E+02  0.1210E+03
     -0.462  0.1684E+02  0.1238E+03
     -0.311  0.1132E+02  0.1257E+03
     -0.159  0.4859E+01  0.1272E+03
     -0.007  0.1228E+01  0.1274E+03
      0.145  0.1163E+01  0.1276E+03
      0.297  0.8968E+00  0.1278E+03
      0.449  0.6494E+00  0.1279E+03
      0.601  0.0000E+00  0.1280E+03
      0.753  0.0000E+00  0.1280E+03
      0.905  0.0000E+00  0.1280E+03
      1.057  0.0000E+00  0.1280E+03
      1.208  0.0000E+00  0.1280E+03
      1.360  0.0000E+00  0.1280E+03
      1.512  0.0000E+00  0.1280E+03
      1.664  0.4639E+00  0.1280E+03
      1.816  0.2778E+01  0.1282E+03
      1.968  0.3728E+01  0.1287E+03
      2.120  0.4938E+01  0.1294E+03
      2.272  0.4122E+01  0.1300E+03
      2.424  0.8308E+01  0.1310E+03
      2.575  0.8312E+01  0.1321E+03
      2.727  0.7014E+01  0.1332E+03
      2.879  0.9135E+01  0.1344E+03
      3.031  0.1124E+02  0.1360E+03
      3.183  0.1169E+02  0.1376E+03
      3.335  0.1325E+02  0.1395E+03
      3.487  0.1591E+02  0.1423E+03
      3.639  0.1669E+02  0.1452E+03
      3.791  0.1157E+02  0.1472E+03
      3.942  0.6000E+01  0.1487E+03
      4.094  0.8199E+00  0.1492E+03
      4.246  0.8007E+00  0.1494E+03
      4.398  0.7814E+00  0.1495E+03
      4.550  0.7621E+00  0.1496E+03
      4.702  0.7429E+00  0.1497E+03
      4.854  0.7236E+00  0.1498E+03
      5.006  0.7043E+00  0.1499E+03
      5.158  0.6850E+00  0.1500E+03
      5.309  0.6658E+00  0.1501E+03
      5.461  0.6509E+00  0.1502E+03
      5.613  0.6386E+00  0.1503E+03
      5.765  0.1224E+01  0.1505E+03
      5.917  0.1018E+01  0.1507E+03
      6.069  0.9249E+00  0.1509E+03
      6.221  0.8315E+00  0.1510E+03
      6.373  0.7931E+00  0.1511E+03
      6.525  0.7985E+00  0.1513E+03
      6.677  0.8040E+00  0.1514E+03
      6.828  0.8094E+00  0.1515E+03
      6.980  0.8149E+00  0.1516E+03
      7.132  0.7129E+00  0.1518E+03
      7.284  0.3492E+00  0.1519E+03
      7.436  0.4851E-01  0.1519E+03
      7.588  0.4583E-01  0.1520E+03
      7.740  0.0000E+00  0.1520E+03
      7.892  0.0000E+00  0.1520E+03
      8.044  0.0000E+00  0.1520E+03
      8.195  0.0000E+00  0.1520E+03
      8.347  0.0000E+00  0.1520E+03
      8.499  0.0000E+00  0.1520E+03
      8.651  0.0000E+00  0.1520E+03
      8.803  0.0000E+00  0.1520E+03
      8.955  0.0000E+00  0.1520E+03
      9.107  0.0000E+00  0.1520E+03
      9.259  0.0000E+00  0.1520E+03
      9.411  0.0000E+00  0.1520E+03
      9.562  0.0000E+00  0.1520E+03
      9.714  0.0000E+00  0.1520E+03
