Starting job 28513937 ("jobname") on c14-14 at Wed Nov 6 13:16:48 CET 2019
 running on    4 total cores
 distrk:  each k-point on    4 cores,    1 groups
 distr:  one band on    2 cores,    2 groups
 using from now: INCAR     
 vasp.5.4.4.18Apr17-6-g9f103f2a35 (build Jun 30 2017 11:15:00) complex          
  
 POSCAR found type information on POSCAR  O  Sr Ti
 POSCAR found :  3 types and      20 ions
 scaLAPACK will be used

 ----------------------------------------------------------------------------- 
|                                                                             |
|  ADVICE TO THIS USER RUNNING 'VASP/VAMP'   (HEAR YOUR MASTER'S VOICE ...):  |
|                                                                             |
|      You have a (more or less) 'large supercell' and for larger cells       |
|      it might be more efficient to use real space projection operators      |
|      So try LREAL= Auto  in the INCAR   file.                               |
|      Mind: If you want to do a very accurate calculations keep the          |
|      reciprocal projection scheme          (i.e. LREAL=.FALSE.)             |
|                                                                             |
 ----------------------------------------------------------------------------- 

 LDA part: xc-table for Pade appr. of Perdew
 POSCAR, INCAR and KPOINTS ok, starting setup
 FFT: planning ...
 WAVECAR not read
 entering main loop
       N       E                     dE             d eps       ncg     rms          rms(c)
DAV:   1     0.168386928374E+04    0.16839E+04   -0.58483E+04  1528   0.162E+03
DAV:   2     0.206444356575E+03   -0.14774E+04   -0.14130E+04  1740   0.410E+02
DAV:   3    -0.170860018939E+03   -0.37730E+03   -0.36458E+03  2052   0.200E+02
DAV:   4    -0.200173799620E+03   -0.29314E+02   -0.29216E+02  1944   0.625E+01
DAV:   5    -0.201744646046E+03   -0.15708E+01   -0.15699E+01  2592   0.139E+01    0.372E+01
RMM:   6    -0.161270469208E+03    0.40474E+02   -0.28467E+02  1677   0.507E+01    0.137E+01
RMM:   7    -0.157678505947E+03    0.35920E+01   -0.12414E+01  1822   0.135E+01    0.708E+00
RMM:   8    -0.156956389734E+03    0.72212E+00   -0.32339E+00  2054   0.618E+00    0.313E+00
RMM:   9    -0.156756445278E+03    0.19994E+00   -0.13056E+00  2099   0.401E+00    0.994E-01
RMM:  10    -0.156715716232E+03    0.40729E-01   -0.24928E-01  2415   0.139E+00    0.591E-01
RMM:  11    -0.156695221613E+03    0.20495E-01   -0.15004E-01  2340   0.100E+00    0.402E-01
RMM:  12    -0.156683382182E+03    0.11839E-01   -0.50083E-02  2455   0.552E-01    0.325E-01
RMM:  13    -0.156677528332E+03    0.58538E-02   -0.21156E-02  2543   0.393E-01    0.163E-01
RMM:  14    -0.156673090139E+03    0.44382E-02   -0.22159E-02  2247   0.406E-01    0.157E-01
RMM:  15    -0.156672253146E+03    0.83699E-03   -0.61723E-03  2519   0.195E-01    0.697E-02
RMM:  16    -0.156673304581E+03   -0.10514E-02   -0.67699E-03  2336   0.191E-01    0.115E-01
RMM:  17    -0.156673582313E+03   -0.27773E-03   -0.29805E-03  2211   0.152E-01    0.323E-02
RMM:  18    -0.156674256060E+03   -0.67375E-03   -0.68296E-04  2234   0.656E-02    0.187E-02
RMM:  19    -0.156675726356E+03   -0.14703E-02   -0.50308E-04  2033   0.430E-02    0.986E-03
RMM:  20    -0.156676356728E+03   -0.63037E-03   -0.24553E-04  1790   0.286E-02    0.760E-03
RMM:  21    -0.156676639710E+03   -0.28298E-03   -0.13406E-04  1747   0.235E-02    0.469E-03
RMM:  22    -0.156676687134E+03   -0.47424E-04   -0.41820E-05  1354   0.150E-02    0.183E-03
RMM:  23    -0.156676702769E+03   -0.15634E-04   -0.17152E-05  1216   0.105E-02    0.113E-03
RMM:  24    -0.156676711563E+03   -0.87940E-05   -0.12437E-05  1140   0.922E-03
   1 F= -.15667671E+03 E0= -.15667671E+03  d E =0.000000E+00

Currently Loaded Modulefiles:
  1) intel/2017.4         2) perf-reports/7.0.6

Job script resource usage:
       JobID  MaxVMSize     MaxRSS 
------------ ---------- ---------- 
28513937.ba+    499228K      5855K 

Job step resource usage:
       JobID    JobName  AllocCPUS  MaxVMSize     MaxRSS    Elapsed ExitCode 
------------ ---------- ---------- ---------- ---------- ---------- -------- 
28513937        jobname          4                         00:03:04      0:0 
28513937.0    pmi_proxy          1   1644856K    429561K   00:03:00      0:0 

Job 28513937 ("jobname") completed on c14-14 at Wed Nov 6 13:19:50 CET 2019
