<?xml version="1.0" encoding="ISO-8859-1"?>
<modeling>
 <generator>
  <i name="program" type="string">vasp </i>
  <i name="version" type="string">5.4.4.18Apr17-6-g9f103f2a35  </i>
  <i name="subversion" type="string">(build Jun 30 2017 11:15:00) complex            parallel </i>
  <i name="platform" type="string">STALLO_VASP_5.4.4 </i>
  <i name="date" type="string">2019 11 06 </i>
  <i name="time" type="string">13:16:51 </i>
 </generator>
 <incar>
  <i type="string" name="PREC">normal    ! low/normal/accurate</i>
  <i type="string" name="ALGO"> Fast      ! Algorithm for electronic re</i>
  <i type="int" name="ISPIN">     1</i>
  <i type="int" name="NELMIN">     4</i>
  <i name="EDIFF">      0.00001000</i>
  <i type="int" name="NSW">     0</i>
  <i name="ENCUT">    550.00000000</i>
  <i type="logical" name="LREAL"> F  </i>
  <i type="int" name="ISMEAR">    -5</i>
  <i name="SIGMA">      0.20000000</i>
  <i type="logical" name="LWAVE"> F  </i>
  <v type="int" name="KPOINT_BSE">    -1     0     0     0</v>
 </incar>
 <structure name="primitive_cell" >
  <crystal>
   <varray name="basis" >
    <v>       3.90526800       0.00000000       0.00000000 </v>
    <v>       0.00000000       3.90526800       0.00000000 </v>
    <v>       0.00000000       0.00000000      25.66843800 </v>
   </varray>
   <i name="volume">    391.47238071 </i>
   <varray name="rec_basis" >
    <v>       0.25606437       0.00000000       0.00000000 </v>
    <v>       0.00000000       0.25606437       0.00000000 </v>
    <v>       0.00000000       0.00000000       0.03895835 </v>
   </varray>
  </crystal>
  <varray name="positions" >
   <v>      -0.50000000      -0.50000000       0.23375010 </v>
   <v>      -0.50000000      -0.50000000       0.30982150 </v>
   <v>      -0.50000000       0.00000000       0.30982150 </v>
   <v>       0.00000000      -0.50000000       0.30982150 </v>
   <v>       0.00000000       0.00000000       0.23375010 </v>
   <v>      -0.50000000      -0.50000000       0.38589290 </v>
   <v>       0.00000000       0.00000000       0.38589290 </v>
   <v>      -0.50000000      -0.50000000       0.46196430 </v>
   <v>      -0.50000000       0.00000000       0.46196430 </v>
   <v>       0.00000000      -0.50000000       0.46196430 </v>
   <v>      -0.50000000      -0.50000000      -0.46196430 </v>
   <v>       0.00000000       0.00000000      -0.46196430 </v>
   <v>      -0.50000000      -0.50000000      -0.38589290 </v>
   <v>      -0.50000000       0.00000000      -0.38589290 </v>
   <v>       0.00000000      -0.50000000      -0.38589290 </v>
   <v>      -0.50000000      -0.50000000      -0.30982150 </v>
   <v>      -0.50000000      -0.50000000      -0.23375010 </v>
   <v>       0.00000000       0.00000000      -0.30982150 </v>
   <v>      -0.50000000       0.00000000      -0.23375010 </v>
   <v>       0.00000000      -0.50000000      -0.23375010 </v>
  </varray>
 </structure>
 <varray name="primitive_index" >
  <v type="int" >        1 </v>
  <v type="int" >       17 </v>
  <v type="int" >        2 </v>
  <v type="int" >        3 </v>
  <v type="int" >       13 </v>
  <v type="int" >        4 </v>
  <v type="int" >       14 </v>
  <v type="int" >       18 </v>
  <v type="int" >        5 </v>
  <v type="int" >        6 </v>
  <v type="int" >        7 </v>
  <v type="int" >       15 </v>
  <v type="int" >       19 </v>
  <v type="int" >        8 </v>
  <v type="int" >        9 </v>
  <v type="int" >       10 </v>
  <v type="int" >       20 </v>
  <v type="int" >       16 </v>
  <v type="int" >       11 </v>
  <v type="int" >       12 </v>
 </varray>
 <kpoints>
  <generation param="Gamma">
   <v type="int" name="divisions">       7        7        1 </v>
   <v name="usershift">      0.00000000       0.00000000       0.00000000 </v>
   <v name="genvec1">      0.14285714       0.00000000       0.00000000 </v>
   <v name="genvec2">      0.00000000       0.14285714       0.00000000 </v>
   <v name="genvec3">      0.00000000       0.00000000       1.00000000 </v>
   <v name="shift">      0.00000000       0.00000000       0.00000000 </v>
  </generation>
  <varray name="kpointlist" >
   <v>       0.00000000       0.00000000       0.00000000 </v>
   <v>       0.14285714       0.00000000       0.00000000 </v>
   <v>       0.28571429       0.00000000       0.00000000 </v>
   <v>       0.42857143       0.00000000       0.00000000 </v>
   <v>       0.14285714       0.14285714       0.00000000 </v>
   <v>       0.28571429       0.14285714       0.00000000 </v>
   <v>       0.42857143       0.14285714       0.00000000 </v>
   <v>       0.28571429       0.28571429       0.00000000 </v>
   <v>       0.42857143       0.28571429       0.00000000 </v>
   <v>       0.42857143       0.42857143       0.00000000 </v>
  </varray>
  <varray name="weights" >
   <v>       0.02040816 </v>
   <v>       0.08163265 </v>
   <v>       0.08163265 </v>
   <v>       0.08163265 </v>
   <v>       0.08163265 </v>
   <v>       0.16326531 </v>
   <v>       0.16326531 </v>
   <v>       0.08163265 </v>
   <v>       0.16326531 </v>
   <v>       0.08163265 </v>
  </varray>
  <varray name="tetrahedronlist"  type="int" >
   <v type="int" >        4        1        1        2        5 </v>
   <v type="int" >        4        1        2        2        5 </v>
   <v type="int" >        4        1        2        5        5 </v>
   <v type="int" >        4        2        2        3        6 </v>
   <v type="int" >        4        2        2        5        6 </v>
   <v type="int" >        4        2        5        5        6 </v>
   <v type="int" >        4        2        3        3        6 </v>
   <v type="int" >        4        2        3        6        6 </v>
   <v type="int" >        4        2        5        6        6 </v>
   <v type="int" >        4        3        3        4        7 </v>
   <v type="int" >        4        3        3        6        7 </v>
   <v type="int" >        4        3        6        6        7 </v>
   <v type="int" >        4        3        4        4        7 </v>
   <v type="int" >        4        3        4        7        7 </v>
   <v type="int" >        4        3        6        7        7 </v>
   <v type="int" >        8        4        4        4        7 </v>
   <v type="int" >        8        4        4        7        7 </v>
   <v type="int" >        8        4        7        7        7 </v>
   <v type="int" >        4        3        4        4        6 </v>
   <v type="int" >        4        4        4        6        7 </v>
   <v type="int" >        4        4        6        7        7 </v>
   <v type="int" >        4        3        3        4        6 </v>
   <v type="int" >        4        3        4        6        6 </v>
   <v type="int" >        4        4        6        6        7 </v>
   <v type="int" >        4        2        3        3        5 </v>
   <v type="int" >        4        3        3        5        6 </v>
   <v type="int" >        4        3        5        6        6 </v>
   <v type="int" >        4        2        2        3        5 </v>
   <v type="int" >        4        2        3        5        5 </v>
   <v type="int" >        4        3        5        5        6 </v>
   <v type="int" >        4        1        2        2        2 </v>
   <v type="int" >        4        2        2        2        5 </v>
   <v type="int" >        2        2        2        5        5 </v>
   <v type="int" >        2        1        1        2        2 </v>
   <v type="int" >        4        5        5        6        8 </v>
   <v type="int" >        4        5        6        6        8 </v>
   <v type="int" >        4        5        6        8        8 </v>
   <v type="int" >        4        6        6        7        9 </v>
   <v type="int" >        4        6        6        8        9 </v>
   <v type="int" >        4        6        8        8        9 </v>
   <v type="int" >        4        6        7        7        9 </v>
   <v type="int" >        4        6        7        9        9 </v>
   <v type="int" >        4        6        8        9        9 </v>
   <v type="int" >        8        7        7        7        9 </v>
   <v type="int" >        8        7        7        9        9 </v>
   <v type="int" >        8        7        9        9        9 </v>
   <v type="int" >        4        6        7        7        8 </v>
   <v type="int" >        4        7        7        8        9 </v>
   <v type="int" >        4        7        8        9        9 </v>
   <v type="int" >        4        6        6        7        8 </v>
   <v type="int" >        4        6        7        8        8 </v>
   <v type="int" >        4        7        8        8        9 </v>
   <v type="int" >        4        5        6        6        6 </v>
   <v type="int" >        4        6        6        6        8 </v>
   <v type="int" >        2        6        6        8        8 </v>
   <v type="int" >        2        5        5        6        6 </v>
   <v type="int" >        4        8        8        9       10 </v>
   <v type="int" >        4        8        9        9       10 </v>
   <v type="int" >        4        8        9       10       10 </v>
   <v type="int" >       12        9        9        9       10 </v>
   <v type="int" >       10        9        9       10       10 </v>
   <v type="int" >        8        9       10       10       10 </v>
   <v type="int" >        4        8        9        9        9 </v>
   <v type="int" >        2        8        8        9        9 </v>
   <v type="int" >        6       10       10       10       10 </v>
  </varray>
  <i name="volumeweight">      0.00340136 </i>
 </kpoints>
 <parameters>
  <separator name="general" >
   <i type="string" name="SYSTEM">unknown system</i>
   <i type="logical" name="LCOMPAT"> F  </i>
  </separator>
  <separator name="electronic" >
   <i type="string" name="PREC">normal</i>
   <i name="ENMAX">    550.00000000</i>
   <i name="ENAUG">    605.39200000</i>
   <i name="EDIFF">      0.00001000</i>
   <i type="int" name="IALGO">    68</i>
   <i type="int" name="IWAVPR">    10</i>
   <i type="int" name="NBANDS">    76</i>
   <i name="NELECT">    128.00000000</i>
   <i type="int" name="TURBO">     0</i>
   <i type="int" name="IRESTART">     0</i>
   <i type="int" name="NREBOOT">     0</i>
   <i type="int" name="NMIN">     0</i>
   <i name="EREF">      0.00000000</i>
   <separator name="electronic smearing" >
    <i type="int" name="ISMEAR">    -5</i>
    <i name="SIGMA">      0.20000000</i>
    <i name="KSPACING">      0.50000000</i>
    <i type="logical" name="KGAMMA"> T  </i>
   </separator>
   <separator name="electronic projectors" >
    <i type="logical" name="LREAL"> F  </i>
    <v name="ROPT">      0.00000000      0.00000000      0.00000000</v>
    <i type="int" name="LMAXPAW">  -100</i>
    <i type="int" name="LMAXMIX">     2</i>
    <i type="logical" name="NLSPLINE"> F  </i>
   </separator>
   <separator name="electronic startup" >
    <i type="int" name="ISTART">     0</i>
    <i type="int" name="ICHARG">     2</i>
    <i type="int" name="INIWAV">     1</i>
   </separator>
   <separator name="electronic spin" >
    <i type="int" name="ISPIN">     1</i>
    <i type="logical" name="LNONCOLLINEAR"> F  </i>
    <v name="MAGMOM">      1.00000000      1.00000000      1.00000000      1.00000000      1.00000000      1.00000000      1.00000000      1.00000000      1.00000000      1.00000000      1.00000000      1.00000000      1.00000000      1.00000000      1.00000000      1.00000000      1.00000000      1.00000000      1.00000000      1.00000000
</v>
    <i name="NUPDOWN">     -1.00000000</i>
    <i type="logical" name="LSORBIT"> F  </i>
    <v name="SAXIS">      0.00000000      0.00000000      1.00000000</v>
    <i type="logical" name="LSPIRAL"> F  </i>
    <v name="QSPIRAL">      0.00000000      0.00000000      0.00000000</v>
    <i type="logical" name="LZEROZ"> F  </i>
   </separator>
   <separator name="electronic exchange-correlation" >
    <i type="logical" name="LASPH"> F  </i>
    <i type="logical" name="LMETAGGA"> F  </i>
   </separator>
   <separator name="electronic convergence" >
    <i type="int" name="NELM">    60</i>
    <i type="int" name="NELMDL">    -5</i>
    <i type="int" name="NELMIN">     4</i>
    <i name="ENINI">    550.00000000</i>
    <separator name="electronic convergence detail" >
     <i type="logical" name="LDIAG"> T  </i>
     <i type="logical" name="LSUBROT"> F  </i>
     <i name="WEIMIN">      0.00000000</i>
     <i name="EBREAK">      0.00000003</i>
     <i name="DEPER">      0.30000000</i>
     <i type="int" name="NRMM">     4</i>
     <i name="TIME">      0.40000000</i>
    </separator>
   </separator>
   <separator name="electronic mixer" >
    <i name="AMIX">      0.40000000</i>
    <i name="BMIX">      1.00000000</i>
    <i name="AMIN">      0.10000000</i>
    <i name="AMIX_MAG">      1.60000000</i>
    <i name="BMIX_MAG">      1.00000000</i>
    <separator name="electronic mixer details" >
     <i type="int" name="IMIX">     4</i>
     <i type="logical" name="MIXFIRST"> F  </i>
     <i type="int" name="MAXMIX">   -45</i>
     <i name="WC">    100.00000000</i>
     <i type="int" name="INIMIX">     1</i>
     <i type="int" name="MIXPRE">     1</i>
     <i type="int" name="MREMOVE">     5</i>
    </separator>
   </separator>
   <separator name="electronic dipolcorrection" >
    <i type="logical" name="LDIPOL"> F  </i>
    <i type="logical" name="LMONO"> F  </i>
    <i type="int" name="IDIPOL">     0</i>
    <i name="EPSILON">      1.00000000</i>
    <v name="DIPOL">   -100.00000000   -100.00000000   -100.00000000</v>
    <i name="EFIELD">      0.00000000</i>
   </separator>
  </separator>
  <separator name="grids" >
   <i type="int" name="NGX">    24</i>
   <i type="int" name="NGY">    24</i>
   <i type="int" name="NGZ">   150</i>
   <i type="int" name="NGXF">    48</i>
   <i type="int" name="NGYF">    48</i>
   <i type="int" name="NGZF">   300</i>
   <i type="logical" name="ADDGRID"> F  </i>
  </separator>
  <separator name="ionic" >
   <i type="int" name="NSW">     0</i>
   <i type="int" name="IBRION">    -1</i>
   <i type="int" name="MDALGO">     0</i>
   <i type="int" name="ISIF">     2</i>
   <i name="PSTRESS">      0.00000000</i>
   <i name="EDIFFG">      0.00010000</i>
   <i type="int" name="NFREE">     0</i>
   <i name="POTIM">      0.50000000</i>
   <i name="SMASS">     -3.00000000</i>
   <i name="SCALEE">      1.00000000</i>
  </separator>
  <separator name="ionic md" >
   <i name="TEBEG">      0.00010000</i>
   <i name="TEEND">      0.00010000</i>
   <i type="int" name="NBLOCK">     1</i>
   <i type="int" name="KBLOCK">     1</i>
   <i type="int" name="NPACO">   256</i>
   <i name="APACO">     16.00000000</i>
  </separator>
  <separator name="symmetry" >
   <i type="int" name="ISYM">     2</i>
   <i name="SYMPREC">      0.00001000</i>
  </separator>
  <separator name="dos" >
   <i type="int" name="LORBIT">     0</i>
   <v name="RWIGS">     -1.00000000     -1.00000000     -1.00000000</v>
   <i type="int" name="NEDOS">   301</i>
   <i name="EMIN">     10.00000000</i>
   <i name="EMAX">    -10.00000000</i>
   <i name="EFERMI">      0.00000000</i>
  </separator>
  <separator name="writing" >
   <i type="int" name="NWRITE">     2</i>
   <i type="logical" name="LWAVE"> F  </i>
   <i type="logical" name="LDOWNSAMPLE"> F  </i>
   <i type="logical" name="LCHARG"> T  </i>
   <i type="logical" name="LPARD"> F  </i>
   <i type="logical" name="LVTOT"> F  </i>
   <i type="logical" name="LVHAR"> F  </i>
   <i type="logical" name="LELF"> F  </i>
   <i type="logical" name="LOPTICS"> F  </i>
   <v name="STM">      0.00000000      0.00000000      0.00000000      0.00000000      0.00000000      0.00000000      0.00000000</v>
  </separator>
  <separator name="performance" >
   <i type="int" name="NPAR">     2</i>
   <i type="int" name="NSIM">     4</i>
   <i type="int" name="NBLK">    -1</i>
   <i type="logical" name="LPLANE"> T  </i>
   <i type="logical" name="LSCALAPACK"> T  </i>
   <i type="logical" name="LSCAAWARE"> F  </i>
   <i type="logical" name="LSCALU"> F  </i>
   <i type="logical" name="LASYNC"> F  </i>
   <i type="logical" name="LORBITALREAL"> F  </i>
  </separator>
  <separator name="miscellaneous" >
   <i type="int" name="IDIOT">     3</i>
   <i type="int" name="ISPECIAL">     0</i>
   <i type="logical" name="LMUSIC"> F  </i>
   <v name="POMASS">     16.00000000     87.62000000     47.88000000</v>
   <v name="DARWINR">      0.00000000      0.00000000      0.00000000</v>
   <v name="DARWINV">      1.00000000      1.00000000      1.00000000</v>
   <i type="logical" name="LCORR"> T  </i>
  </separator>
  <i type="logical" name="GGA_COMPAT"> T  </i>
  <i type="logical" name="LBERRY"> F  </i>
  <i type="int" name="ICORELEVEL">     0</i>
  <i type="logical" name="LDAU"> F  </i>
  <i type="int" name="I_CONSTRAINED_M">     0</i>
  <separator name="electronic exchange-correlation" >
   <i type="string" name="GGA">--</i>
   <i type="int" name="VOSKOWN">     0</i>
   <i type="logical" name="LHFCALC"> F  </i>
   <i type="string" name="PRECFOCK"></i>
   <i type="logical" name="LSYMGRAD"> F  </i>
   <i type="logical" name="LHFONE"> F  </i>
   <i type="logical" name="LRHFCALC"> F  </i>
   <i type="logical" name="LTHOMAS"> F  </i>
   <i type="logical" name="LMODELHF"> F  </i>
   <i name="ENCUT4O">     -1.00000000</i>
   <i type="int" name="EXXOEP">     0</i>
   <i type="int" name="FOURORBIT">     0</i>
   <i name="AEXX">      0.00000000</i>
   <i name="HFALPHA">      0.00000000</i>
   <i name="MCALPHA">      0.00000000</i>
   <i name="ALDAX">      1.00000000</i>
   <i name="AGGAX">      1.00000000</i>
   <i name="ALDAC">      1.00000000</i>
   <i name="AGGAC">      1.00000000</i>
   <i type="int" name="NKREDX">     1</i>
   <i type="int" name="NKREDY">     1</i>
   <i type="int" name="NKREDZ">     1</i>
   <i type="logical" name="SHIFTRED"> F  </i>
   <i type="logical" name="ODDONLY"> F  </i>
   <i type="logical" name="EVENONLY"> F  </i>
   <i type="int" name="LMAXFOCK">     0</i>
   <i type="int" name="NMAXFOCKAE">     0</i>
   <i type="logical" name="LFOCKAEDFT"> F  </i>
   <i name="HFSCREEN">      0.00000000</i>
   <i name="HFSCREENC">      0.00000000</i>
   <i type="int" name="NBANDSGWLOW">     0</i>
  </separator>
  <separator name="vdW DFT" >
   <i type="logical" name="LUSE_VDW"> F  </i>
   <i name="Zab_VDW">     -0.84910000</i>
   <i name="PARAM1">      0.12340000</i>
   <i name="PARAM2">      1.00000000</i>
   <i name="PARAM3">      0.00000000</i>
  </separator>
  <separator name="model GW" >
   <i type="int" name="MODEL_GW">     0</i>
   <i name="MODEL_EPS0">     11.74417142</i>
   <i name="MODEL_ALPHA">      1.00000000</i>
  </separator>
  <separator name="linear response parameters" >
   <i type="logical" name="LEPSILON"> F  </i>
   <i type="logical" name="LRPA"> F  </i>
   <i type="logical" name="LNABLA"> F  </i>
   <i type="logical" name="LVEL"> F  </i>
   <i type="int" name="KINTER">     0</i>
   <i name="CSHIFT">      0.10000000</i>
   <i name="OMEGAMAX">     -1.00000000</i>
   <i name="DEG_THRESHOLD">      0.00200000</i>
   <i name="RTIME">     -0.10000000</i>
   <i name="WPLASMAI">      0.00000000</i>
   <v name="DFIELD">      0.00000000      0.00000000      0.00000000</v>
   <v name="WPLASMA">      0.00000000      0.00000000      0.00000000      0.00000000      0.00000000      0.00000000      0.00000000      0.00000000      0.00000000</v>
  </separator>
  <separator name="orbital magnetization" >
   <i type="logical" name="NUCIND"> F  </i>
   <v name="MAGPOS">      0.00000000      0.00000000      0.00000000</v>
   <i type="logical" name="LNICSALL"> T  </i>
   <i type="logical" name="ORBITALMAG"> F  </i>
   <i type="logical" name="LMAGBLOCH"> F  </i>
   <i type="logical" name="LCHIMAG"> F  </i>
   <i type="logical" name="LGAUGE"> T  </i>
   <i type="int" name="MAGATOM">     0</i>
   <v name="MAGDIPOL">      0.00000000      0.00000000      0.00000000</v>
   <v name="AVECCONST">      0.00000000      0.00000000      0.00000000</v>
  </separator>
  <separator name="response functions" >
   <i type="logical" name="LADDER"> F  </i>
   <i type="logical" name="LRPAFORCE"> F  </i>
   <i type="logical" name="LFXC"> F  </i>
   <i type="logical" name="LHARTREE"> T  </i>
   <i type="int" name="IBSE">     0</i>
   <v type="int" name="KPOINT">    -1     0     0     0</v>
   <i type="logical" name="LTCTE"> F  </i>
   <i type="logical" name="LTETE"> F  </i>
   <i type="logical" name="LTRIPLET"> F  </i>
   <i type="logical" name="LFXCEPS"> F  </i>
   <i type="logical" name="LFXHEG"> F  </i>
   <i type="int" name="NATURALO">     2</i>
   <i type="logical" name="L2ORDER"> F  </i>
   <i type="logical" name="LMP2LT"> F  </i>
   <i type="logical" name="LUSEW"> F  </i>
   <i name="ENCUTGW">     -2.00000000</i>
   <i name="ENCUTGWSOFT">     -2.00000000</i>
   <i name="ENCUTLF">     -1.00000000</i>
   <i type="int" name="LMAXMP2">    -1</i>
   <i name="SCISSOR">      0.00000000</i>
   <i type="int" name="NOMEGA">     0</i>
   <i type="int" name="NOMEGAR">     0</i>
   <i type="int" name="NBANDSGW">    -1</i>
   <i type="int" name="NBANDSO">    -1</i>
   <i type="int" name="NBANDSV">    -1</i>
   <i type="int" name="NELM">     1</i>
   <i type="int" name="NELMHF">     1</i>
   <i type="int" name="DIM">     3</i>
   <i type="int" name="ANTIRES">     0</i>
   <i name="OMEGAMAX">    -30.00000000</i>
   <i name="OMEGAMIN">    -30.00000000</i>
   <i name="OMEGATL">   -200.00000000</i>
   <i type="int" name="OMEGAGRID">   140</i>
   <i name="CSHIFT">     -0.10000000</i>
   <i type="logical" name="SELFENERGY"> F  </i>
   <i type="logical" name="LSPECTRAL"> F  </i>
   <i type="logical" name="LSPECTRALGW"> F  </i>
   <i type="logical" name="LSINGLES"> F  </i>
   <i type="logical" name="LFERMIGW"> F  </i>
   <i type="logical" name="ODDONLYGW"> F  </i>
   <i type="logical" name="EVENONLYGW"> F  </i>
   <i type="int" name="NKREDLFX">     1</i>
   <i type="int" name="NKREDLFY">     1</i>
   <i type="int" name="NKREDLFZ">     1</i>
   <i type="int" name="MAXMEM">  2800</i>
   <i type="int" name="TELESCOPE">     0</i>
   <i type="int" name="TAUPAR">     1</i>
   <i type="int" name="OMEGAPAR">    -1</i>
   <i name="LAMBDA">      1.00000000</i>
  </separator>
  <separator name="External order field" >
   <i name="OFIELD_KAPPA">      0.00000000</i>
   <v name="OFIELD_K">      0.00000000      0.00000000      0.00000000</v>
   <i name="OFIELD_Q6_NEAR">      0.00000000</i>
   <i name="OFIELD_Q6_FAR">      0.00000000</i>
   <i name="OFIELD_A">      0.00000000</i>
  </separator>
 </parameters>
 <atominfo>
  <atoms>      20 </atoms>
  <types>       3 </types>
  <array name="atoms" >
   <dimension dim="1">ion</dimension>
   <field type="string">element</field>
   <field type="int">atomtype</field>
   <set>
    <rc><c>O </c><c>   1</c></rc>
    <rc><c>O </c><c>   1</c></rc>
    <rc><c>O </c><c>   1</c></rc>
    <rc><c>O </c><c>   1</c></rc>
    <rc><c>O </c><c>   1</c></rc>
    <rc><c>O </c><c>   1</c></rc>
    <rc><c>O </c><c>   1</c></rc>
    <rc><c>O </c><c>   1</c></rc>
    <rc><c>O </c><c>   1</c></rc>
    <rc><c>O </c><c>   1</c></rc>
    <rc><c>O </c><c>   1</c></rc>
    <rc><c>O </c><c>   1</c></rc>
    <rc><c>Sr</c><c>   2</c></rc>
    <rc><c>Sr</c><c>   2</c></rc>
    <rc><c>Sr</c><c>   2</c></rc>
    <rc><c>Sr</c><c>   2</c></rc>
    <rc><c>Ti</c><c>   3</c></rc>
    <rc><c>Ti</c><c>   3</c></rc>
    <rc><c>Ti</c><c>   3</c></rc>
    <rc><c>Ti</c><c>   3</c></rc>
   </set>
  </array>
  <array name="atomtypes" >
   <dimension dim="1">type</dimension>
   <field type="int">atomspertype</field>
   <field type="string">element</field>
   <field>mass</field>
   <field>valence</field>
   <field type="string">pseudopotential</field>
   <set>
    <rc><c>  12</c><c>O </c><c>     16.00000000</c><c>      6.00000000</c><c> PAW_PBE O 08Apr2002                    </c></rc>
    <rc><c>   4</c><c>Sr</c><c>     87.62000000</c><c>     10.00000000</c><c> PAW_PBE Sr_sv 07Sep2000                </c></rc>
    <rc><c>   4</c><c>Ti</c><c>     47.88000000</c><c>      4.00000000</c><c> PAW_PBE Ti 08Apr2002                   </c></rc>
   </set>
  </array>
 </atominfo>
 <structure name="initialpos" >
  <crystal>
   <varray name="basis" >
    <v>       3.90526800       0.00000000       0.00000000 </v>
    <v>       0.00000000       3.90526800       0.00000000 </v>
    <v>       0.00000000       0.00000000      25.66843800 </v>
   </varray>
   <i name="volume">    391.47238071 </i>
   <varray name="rec_basis" >
    <v>       0.25606437       0.00000000       0.00000000 </v>
    <v>       0.00000000       0.25606437       0.00000000 </v>
    <v>       0.00000000       0.00000000       0.03895835 </v>
   </varray>
  </crystal>
  <varray name="positions" >
   <v>       0.50000000       0.50000000       0.23375010 </v>
   <v>       0.50000000       0.00000000       0.30982150 </v>
   <v>       0.00000000       0.50000000       0.30982150 </v>
   <v>       0.50000000       0.50000000       0.38589290 </v>
   <v>       0.50000000       0.00000000       0.46196430 </v>
   <v>       0.00000000       0.50000000       0.46196430 </v>
   <v>       0.50000000       0.50000000       0.53803570 </v>
   <v>       0.50000000       0.00000000       0.61410710 </v>
   <v>       0.00000000       0.50000000       0.61410710 </v>
   <v>       0.50000000       0.50000000       0.69017850 </v>
   <v>       0.50000000       0.00000000       0.76624990 </v>
   <v>       0.00000000       0.50000000       0.76624990 </v>
   <v>       0.00000000       0.00000000       0.23375010 </v>
   <v>       0.00000000       0.00000000       0.38589290 </v>
   <v>       0.00000000       0.00000000       0.53803570 </v>
   <v>       0.00000000       0.00000000       0.69017850 </v>
   <v>       0.50000000       0.50000000       0.30982150 </v>
   <v>       0.50000000       0.50000000       0.46196430 </v>
   <v>       0.50000000       0.50000000       0.61410710 </v>
   <v>       0.50000000       0.50000000       0.76624990 </v>
  </varray>
 </structure>
 <calculation>
  <scstep>
   <time name="dav">    6.05    6.06</time>
   <time name="total">    6.18    6.24</time>
   <energy>
    <i name="alphaZ">    451.31605171 </i>
    <i name="ewald">  24913.70541863 </i>
    <i name="hartreedc"> -33364.93616085 </i>
    <i name="XCdc">    326.68051769 </i>
    <i name="pawpsdc">   5334.45189010 </i>
    <i name="pawaedc">  -5139.13784255 </i>
    <i name="eentropy">      0.00000000 </i>
    <i name="bandstr">    224.48392188 </i>
    <i name="atom">   8937.30548711 </i>
    <i name="e_fr_energy">   1683.86928374 </i>
    <i name="e_wo_entrp">   1683.86928374 </i>
    <i name="e_0_energy">   1683.86928374 </i>
   </energy>
  </scstep>
  <scstep>
   <time name="dav">    6.74    6.74</time>
   <time name="total">    6.74    6.75</time>
   <energy>
    <i name="e_fr_energy">    206.44435657 </i>
    <i name="e_wo_entrp">    206.44435657 </i>
    <i name="e_0_energy">    206.44435657 </i>
   </energy>
  </scstep>
  <scstep>
   <time name="dav">    7.68    7.68</time>
   <time name="total">    7.68    7.68</time>
   <energy>
    <i name="e_fr_energy">   -170.86001894 </i>
    <i name="e_wo_entrp">   -170.86001894 </i>
    <i name="e_0_energy">   -170.86001894 </i>
   </energy>
  </scstep>
  <scstep>
   <time name="dav">    7.36    7.36</time>
   <time name="total">    7.36    7.36</time>
   <energy>
    <i name="e_fr_energy">   -200.17379962 </i>
    <i name="e_wo_entrp">   -200.17379962 </i>
    <i name="e_0_energy">   -200.17379962 </i>
   </energy>
  </scstep>
  <scstep>
   <time name="dav">    9.25    9.25</time>
   <time name="total">    9.48    9.48</time>
   <energy>
    <i name="e_fr_energy">   -201.74464605 </i>
    <i name="e_wo_entrp">   -201.74464605 </i>
    <i name="e_0_energy">   -201.74464605 </i>
   </energy>
  </scstep>
  <scstep>
   <time name="diag">    0.71    0.71</time>
   <time name="diis">    4.71    4.71</time>
   <time name="orth">    0.14    0.14</time>
   <time name="total">    5.93    5.93</time>
   <energy>
    <i name="e_fr_energy">   -161.27046921 </i>
    <i name="e_wo_entrp">   -161.27046921 </i>
    <i name="e_0_energy">   -161.27046921 </i>
   </energy>
  </scstep>
  <scstep>
   <time name="diag">    0.70    0.71</time>
   <time name="diis">    5.13    5.13</time>
   <time name="orth">    0.14    0.14</time>
   <time name="total">    6.34    6.34</time>
   <energy>
    <i name="e_fr_energy">   -157.67850595 </i>
    <i name="e_wo_entrp">   -157.67850595 </i>
    <i name="e_0_energy">   -157.67850595 </i>
   </energy>
  </scstep>
  <scstep>
   <time name="diag">    0.71    0.71</time>
   <time name="diis">    5.78    5.78</time>
   <time name="orth">    0.14    0.14</time>
   <time name="total">    6.99    6.99</time>
   <energy>
    <i name="e_fr_energy">   -156.95638973 </i>
    <i name="e_wo_entrp">   -156.95638973 </i>
    <i name="e_0_energy">   -156.95638973 </i>
   </energy>
  </scstep>
  <scstep>
   <time name="diag">    0.71    0.71</time>
   <time name="diis">    5.96    5.96</time>
   <time name="orth">    0.14    0.14</time>
   <time name="total">    7.17    7.17</time>
   <energy>
    <i name="e_fr_energy">   -156.75644528 </i>
    <i name="e_wo_entrp">   -156.75644528 </i>
    <i name="e_0_energy">   -156.75644528 </i>
   </energy>
  </scstep>
  <scstep>
   <time name="diag">    0.70    0.70</time>
   <time name="diis">    6.86    6.86</time>
   <time name="orth">    0.13    0.13</time>
   <time name="total">    8.05    8.05</time>
   <energy>
    <i name="e_fr_energy">   -156.71571623 </i>
    <i name="e_wo_entrp">   -156.71571623 </i>
    <i name="e_0_energy">   -156.71571623 </i>
   </energy>
  </scstep>
  <scstep>
   <time name="diag">    0.69    0.69</time>
   <time name="diis">    6.62    6.62</time>
   <time name="orth">    0.13    0.13</time>
   <time name="total">    7.80    7.80</time>
   <energy>
    <i name="e_fr_energy">   -156.69522161 </i>
    <i name="e_wo_entrp">   -156.69522161 </i>
    <i name="e_0_energy">   -156.69522161 </i>
   </energy>
  </scstep>
  <scstep>
   <time name="diag">    0.71    0.71</time>
   <time name="diis">    6.88    6.88</time>
   <time name="orth">    0.14    0.14</time>
   <time name="total">    8.10    8.10</time>
   <energy>
    <i name="e_fr_energy">   -156.68338218 </i>
    <i name="e_wo_entrp">   -156.68338218 </i>
    <i name="e_0_energy">   -156.68338218 </i>
   </energy>
  </scstep>
  <scstep>
   <time name="diag">    0.71    0.71</time>
   <time name="diis">    7.15    7.15</time>
   <time name="orth">    0.14    0.14</time>
   <time name="total">    8.37    8.37</time>
   <energy>
    <i name="e_fr_energy">   -156.67752833 </i>
    <i name="e_wo_entrp">   -156.67752833 </i>
    <i name="e_0_energy">   -156.67752833 </i>
   </energy>
  </scstep>
  <scstep>
   <time name="diag">    0.71    0.71</time>
   <time name="diis">    6.36    6.36</time>
   <time name="orth">    0.14    0.14</time>
   <time name="total">    7.58    7.58</time>
   <energy>
    <i name="e_fr_energy">   -156.67309014 </i>
    <i name="e_wo_entrp">   -156.67309014 </i>
    <i name="e_0_energy">   -156.67309014 </i>
   </energy>
  </scstep>
  <scstep>
   <time name="diag">    0.71    0.71</time>
   <time name="diis">    7.06    7.06</time>
   <time name="orth">    0.14    0.14</time>
   <time name="total">    8.27    8.27</time>
   <energy>
    <i name="e_fr_energy">   -156.67225315 </i>
    <i name="e_wo_entrp">   -156.67225315 </i>
    <i name="e_0_energy">   -156.67225315 </i>
   </energy>
  </scstep>
  <scstep>
   <time name="diag">    0.71    0.71</time>
   <time name="diis">    6.70    6.70</time>
   <time name="orth">    0.14    0.14</time>
   <time name="total">    7.91    7.91</time>
   <energy>
    <i name="e_fr_energy">   -156.67330458 </i>
    <i name="e_wo_entrp">   -156.67330458 </i>
    <i name="e_0_energy">   -156.67330458 </i>
   </energy>
  </scstep>
  <scstep>
   <time name="diag">    0.66    0.66</time>
   <time name="diis">    6.32    6.32</time>
   <time name="orth">    0.13    0.13</time>
   <time name="total">    7.46    7.47</time>
   <energy>
    <i name="e_fr_energy">   -156.67358231 </i>
    <i name="e_wo_entrp">   -156.67358231 </i>
    <i name="e_0_energy">   -156.67358231 </i>
   </energy>
  </scstep>
  <scstep>
   <time name="diag">    0.71    0.71</time>
   <time name="diis">    6.33    6.33</time>
   <time name="orth">    0.14    0.14</time>
   <time name="total">    7.54    7.54</time>
   <energy>
    <i name="e_fr_energy">   -156.67425606 </i>
    <i name="e_wo_entrp">   -156.67425606 </i>
    <i name="e_0_energy">   -156.67425606 </i>
   </energy>
  </scstep>
  <scstep>
   <time name="diag">    0.71    0.71</time>
   <time name="diis">    5.84    5.83</time>
   <time name="orth">    0.14    0.14</time>
   <time name="total">    7.04    7.04</time>
   <energy>
    <i name="e_fr_energy">   -156.67572636 </i>
    <i name="e_wo_entrp">   -156.67572636 </i>
    <i name="e_0_energy">   -156.67572636 </i>
   </energy>
  </scstep>
  <scstep>
   <time name="diag">    0.66    0.66</time>
   <time name="diis">    5.18    5.18</time>
   <time name="orth">    0.14    0.14</time>
   <time name="total">    6.35    6.35</time>
   <energy>
    <i name="e_fr_energy">   -156.67635673 </i>
    <i name="e_wo_entrp">   -156.67635673 </i>
    <i name="e_0_energy">   -156.67635673 </i>
   </energy>
  </scstep>
  <scstep>
   <time name="diag">    0.70    0.70</time>
   <time name="diis">    4.77    4.77</time>
   <time name="orth">    0.13    0.13</time>
   <time name="total">    5.97    5.97</time>
   <energy>
    <i name="e_fr_energy">   -156.67663971 </i>
    <i name="e_wo_entrp">   -156.67663971 </i>
    <i name="e_0_energy">   -156.67663971 </i>
   </energy>
  </scstep>
  <scstep>
   <time name="diag">    0.67    0.67</time>
   <time name="diis">    3.68    3.68</time>
   <time name="orth">    0.12    0.12</time>
   <time name="total">    4.83    4.83</time>
   <energy>
    <i name="e_fr_energy">   -156.67668713 </i>
    <i name="e_wo_entrp">   -156.67668713 </i>
    <i name="e_0_energy">   -156.67668713 </i>
   </energy>
  </scstep>
  <scstep>
   <time name="diag">    0.62    0.62</time>
   <time name="diis">    3.06    3.06</time>
   <time name="orth">    0.12    0.12</time>
   <time name="total">    4.12    4.12</time>
   <energy>
    <i name="e_fr_energy">   -156.67670277 </i>
    <i name="e_wo_entrp">   -156.67670277 </i>
    <i name="e_0_energy">   -156.67670277 </i>
   </energy>
  </scstep>
  <scstep>
   <time name="diag">    0.60    0.60</time>
   <time name="diis">    2.91    2.91</time>
   <time name="orth">    0.12    0.12</time>
   <time name="total">    3.74    3.75</time>
   <energy>
    <i name="alphaZ">    451.31605171 </i>
    <i name="ewald">  24913.70541863 </i>
    <i name="hartreedc"> -33784.15237680 </i>
    <i name="XCdc">    342.95388698 </i>
    <i name="pawpsdc">   6202.01559227 </i>
    <i name="pawaedc">  -6032.28220330 </i>
    <i name="eentropy">      0.00000000 </i>
    <i name="bandstr">  -1187.53856817 </i>
    <i name="atom">   8937.30548711 </i>
    <i name="e_fr_energy">   -156.67671156 </i>
    <i name="e_wo_entrp">   -156.67671156 </i>
    <i name="e_0_energy">   -156.67671156 </i>
   </energy>
  </scstep>
  <structure>
   <crystal>
    <varray name="basis" >
     <v>       3.90526800       0.00000000       0.00000000 </v>
     <v>       0.00000000       3.90526800       0.00000000 </v>
     <v>       0.00000000       0.00000000      25.66843800 </v>
    </varray>
    <i name="volume">    391.47238071 </i>
    <varray name="rec_basis" >
     <v>       0.25606437       0.00000000       0.00000000 </v>
     <v>       0.00000000       0.25606437       0.00000000 </v>
     <v>       0.00000000       0.00000000       0.03895835 </v>
    </varray>
   </crystal>
   <varray name="positions" >
    <v>       0.50000000       0.50000000       0.23375010 </v>
    <v>       0.50000000       0.00000000       0.30982150 </v>
    <v>       0.00000000       0.50000000       0.30982150 </v>
    <v>       0.50000000       0.50000000       0.38589290 </v>
    <v>       0.50000000       0.00000000       0.46196430 </v>
    <v>       0.00000000       0.50000000       0.46196430 </v>
    <v>       0.50000000       0.50000000       0.53803570 </v>
    <v>       0.50000000       0.00000000       0.61410710 </v>
    <v>       0.00000000       0.50000000       0.61410710 </v>
    <v>       0.50000000       0.50000000       0.69017850 </v>
    <v>       0.50000000       0.00000000       0.76624990 </v>
    <v>       0.00000000       0.50000000       0.76624990 </v>
    <v>       0.00000000       0.00000000       0.23375010 </v>
    <v>       0.00000000       0.00000000       0.38589290 </v>
    <v>       0.00000000       0.00000000       0.53803570 </v>
    <v>       0.00000000       0.00000000       0.69017850 </v>
    <v>       0.50000000       0.50000000       0.30982150 </v>
    <v>       0.50000000       0.50000000       0.46196430 </v>
    <v>       0.50000000       0.50000000       0.61410710 </v>
    <v>       0.50000000       0.50000000       0.76624990 </v>
   </varray>
  </structure>
  <varray name="forces" >
   <v>      -0.00000000      -0.00000000      -1.07521960 </v>
   <v>       0.00000000      -0.00000000      -0.00090785 </v>
   <v>       0.00000000       0.00000000      -0.00090785 </v>
   <v>       0.00000000      -0.00000000       0.38006971 </v>
   <v>       0.00000000      -0.00000000       0.06807533 </v>
   <v>       0.00000000      -0.00000000       0.06807533 </v>
   <v>       0.00000000      -0.00000000       0.30546659 </v>
   <v>       0.00000000      -0.00000000       0.01993203 </v>
   <v>       0.00000000      -0.00000000       0.01993203 </v>
   <v>      -0.00000000      -0.00000000       1.06161047 </v>
   <v>       0.00000000      -0.00000000       0.45541175 </v>
   <v>      -0.00000000       0.00000000       0.45541175 </v>
   <v>       0.00000000       0.00000000       1.18936897 </v>
   <v>       0.00000000      -0.00000000      -0.00666584 </v>
   <v>       0.00000000      -0.00000000      -0.05839599 </v>
   <v>       0.00000000      -0.00000000       0.66223976 </v>
   <v>       0.00000000      -0.00000000      -1.02584101 </v>
   <v>       0.00000000      -0.00000000      -0.31079935 </v>
   <v>       0.00000000      -0.00000000      -0.36780450 </v>
   <v>       0.00000000      -0.00000000      -1.83905170 </v>
  </varray>
  <varray name="stress" >
   <v>      12.91477383       0.00000000       0.00000000 </v>
   <v>       0.00000000      12.91477383       0.00000000 </v>
   <v>       0.00000000       0.00000000      17.64976303 </v>
  </varray>
  <energy>
   <i name="e_fr_energy">   -156.67671156 </i>
   <i name="e_wo_entrp">   -156.67671156 </i>
   <i name="e_0_energy">      0.00000000 </i>
  </energy>
  <time name="totalsc">  175.02  175.19</time>
  <eigenvalues>
   <array>
    <dimension dim="1">band</dimension>
    <dimension dim="2">kpoint</dimension>
    <dimension dim="3">spin</dimension>
    <field>eigene</field>
    <field>occ</field>
    <set>
     <set comment="spin 1">
      <set comment="kpoint 1">
       <r>  -33.7821    1.0000 </r>
       <r>  -32.7970    1.0000 </r>
       <r>  -32.7066    1.0000 </r>
       <r>  -32.6614    1.0000 </r>
       <r>  -17.7138    1.0000 </r>
       <r>  -17.6276    1.0000 </r>
       <r>  -17.5223    1.0000 </r>
       <r>  -17.0518    1.0000 </r>
       <r>  -16.5692    1.0000 </r>
       <r>  -16.5218    1.0000 </r>
       <r>  -16.4961    1.0000 </r>
       <r>  -16.4678    1.0000 </r>
       <r>  -16.4198    1.0000 </r>
       <r>  -16.3763    1.0000 </r>
       <r>  -15.9530    1.0000 </r>
       <r>  -15.7479    1.0000 </r>
       <r>  -15.6982    1.0000 </r>
       <r>  -15.6982    1.0000 </r>
       <r>  -15.6023    1.0000 </r>
       <r>  -14.8516    1.0000 </r>
       <r>  -14.8516    1.0000 </r>
       <r>  -14.7548    1.0000 </r>
       <r>  -14.7548    1.0000 </r>
       <r>  -14.7319    1.0000 </r>
       <r>  -14.7319    1.0000 </r>
       <r>  -14.6985    1.0000 </r>
       <r>  -14.4055    1.0000 </r>
       <r>  -14.2672    1.0000 </r>
       <r>   -4.2633    1.0000 </r>
       <r>   -3.7174    1.0000 </r>
       <r>   -3.1794    1.0000 </r>
       <r>   -3.0078    1.0000 </r>
       <r>   -3.0078    1.0000 </r>
       <r>   -2.9077    1.0000 </r>
       <r>   -2.9077    1.0000 </r>
       <r>   -2.8397    1.0000 </r>
       <r>   -2.8397    1.0000 </r>
       <r>   -2.5462    1.0000 </r>
       <r>   -2.5462    1.0000 </r>
       <r>   -2.5220    1.0000 </r>
       <r>   -2.2672    1.0000 </r>
       <r>   -2.1647    1.0000 </r>
       <r>   -2.1647    1.0000 </r>
       <r>   -1.9498    1.0000 </r>
       <r>   -1.8403    1.0000 </r>
       <r>   -1.7793    1.0000 </r>
       <r>   -1.7793    1.0000 </r>
       <r>   -1.7000    1.0000 </r>
       <r>   -1.4484    1.0000 </r>
       <r>   -1.4484    1.0000 </r>
       <r>   -1.3700    1.0000 </r>
       <r>   -1.3496    1.0000 </r>
       <r>   -1.0707    1.0000 </r>
       <r>   -1.0707    1.0000 </r>
       <r>   -0.8557    1.0000 </r>
       <r>   -0.7463    1.0000 </r>
       <r>   -0.7463    1.0000 </r>
       <r>   -0.6446    1.0000 </r>
       <r>   -0.5964    1.0000 </r>
       <r>   -0.5964    1.0000 </r>
       <r>   -0.3665    1.0000 </r>
       <r>   -0.3665    1.0000 </r>
       <r>   -0.0607    1.0000 </r>
       <r>   -0.0607    1.0000 </r>
       <r>    1.6088    0.0000 </r>
       <r>    1.7166    0.0000 </r>
       <r>    1.7166    0.0000 </r>
       <r>    1.7509    0.0000 </r>
       <r>    1.8851    0.0000 </r>
       <r>    1.9939    0.0000 </r>
       <r>    2.2910    0.0000 </r>
       <r>    2.2920    0.0000 </r>
       <r>    2.6041    0.0000 </r>
       <r>    5.3654    0.0000 </r>
       <r>    5.6343    0.0000 </r>
       <r>    5.8254    0.0000 </r>
      </set>
      <set comment="kpoint 2">
       <r>  -33.7787    1.0000 </r>
       <r>  -32.7929    1.0000 </r>
       <r>  -32.7026    1.0000 </r>
       <r>  -32.6573    1.0000 </r>
       <r>  -17.6370    1.0000 </r>
       <r>  -17.5643    1.0000 </r>
       <r>  -17.5024    1.0000 </r>
       <r>  -17.0483    1.0000 </r>
       <r>  -16.5839    1.0000 </r>
       <r>  -16.5517    1.0000 </r>
       <r>  -16.5057    1.0000 </r>
       <r>  -16.4629    1.0000 </r>
       <r>  -16.4505    1.0000 </r>
       <r>  -16.4081    1.0000 </r>
       <r>  -16.0455    1.0000 </r>
       <r>  -15.9456    1.0000 </r>
       <r>  -15.7099    1.0000 </r>
       <r>  -15.6903    1.0000 </r>
       <r>  -15.2531    1.0000 </r>
       <r>  -14.8420    1.0000 </r>
       <r>  -14.7496    1.0000 </r>
       <r>  -14.7450    1.0000 </r>
       <r>  -14.7217    1.0000 </r>
       <r>  -14.7204    1.0000 </r>
       <r>  -14.6431    1.0000 </r>
       <r>  -14.6246    1.0000 </r>
       <r>  -14.4251    1.0000 </r>
       <r>  -14.3028    1.0000 </r>
       <r>   -4.2759    1.0000 </r>
       <r>   -3.7689    1.0000 </r>
       <r>   -3.3581    1.0000 </r>
       <r>   -3.3056    1.0000 </r>
       <r>   -3.2144    1.0000 </r>
       <r>   -3.1064    1.0000 </r>
       <r>   -3.0169    1.0000 </r>
       <r>   -2.9969    1.0000 </r>
       <r>   -2.9172    1.0000 </r>
       <r>   -2.8443    1.0000 </r>
       <r>   -2.8142    1.0000 </r>
       <r>   -2.6145    1.0000 </r>
       <r>   -2.4988    1.0000 </r>
       <r>   -2.2803    1.0000 </r>
       <r>   -2.2514    1.0000 </r>
       <r>   -2.0468    1.0000 </r>
       <r>   -2.0164    1.0000 </r>
       <r>   -1.8730    1.0000 </r>
       <r>   -1.7297    1.0000 </r>
       <r>   -1.6050    1.0000 </r>
       <r>   -1.5001    1.0000 </r>
       <r>   -1.3842    1.0000 </r>
       <r>   -1.3311    1.0000 </r>
       <r>   -1.2904    1.0000 </r>
       <r>   -1.2316    1.0000 </r>
       <r>   -1.1567    1.0000 </r>
       <r>   -1.0905    1.0000 </r>
       <r>   -1.0005    1.0000 </r>
       <r>   -0.9564    1.0000 </r>
       <r>   -0.9357    1.0000 </r>
       <r>   -0.8568    1.0000 </r>
       <r>   -0.8037    1.0000 </r>
       <r>   -0.5096    1.0000 </r>
       <r>   -0.4947    1.0000 </r>
       <r>   -0.4524    1.0000 </r>
       <r>   -0.3713    1.0000 </r>
       <r>    1.7340    0.0000 </r>
       <r>    2.0365    0.0000 </r>
       <r>    2.0873    0.0000 </r>
       <r>    2.1731    0.0000 </r>
       <r>    2.2800    0.0000 </r>
       <r>    2.3267    0.0000 </r>
       <r>    2.4276    0.0000 </r>
       <r>    2.4321    0.0000 </r>
       <r>    2.5504    0.0000 </r>
       <r>    3.0106    0.0000 </r>
       <r>    5.8651    0.0000 </r>
       <r>    5.8866    0.0000 </r>
      </set>
      <set comment="kpoint 3">
       <r>  -33.7709    1.0000 </r>
       <r>  -32.7837    1.0000 </r>
       <r>  -32.6935    1.0000 </r>
       <r>  -32.6480    1.0000 </r>
       <r>  -17.6034    1.0000 </r>
       <r>  -17.4581    1.0000 </r>
       <r>  -17.3697    1.0000 </r>
       <r>  -17.0419    1.0000 </r>
       <r>  -16.6773    1.0000 </r>
       <r>  -16.5805    1.0000 </r>
       <r>  -16.5656    1.0000 </r>
       <r>  -16.5184    1.0000 </r>
       <r>  -16.4254    1.0000 </r>
       <r>  -16.3472    1.0000 </r>
       <r>  -16.1963    1.0000 </r>
       <r>  -15.9156    1.0000 </r>
       <r>  -15.7029    1.0000 </r>
       <r>  -15.6725    1.0000 </r>
       <r>  -14.9204    1.0000 </r>
       <r>  -14.8201    1.0000 </r>
       <r>  -14.7226    1.0000 </r>
       <r>  -14.7121    1.0000 </r>
       <r>  -14.6986    1.0000 </r>
       <r>  -14.5756    1.0000 </r>
       <r>  -14.4694    1.0000 </r>
       <r>  -14.4481    1.0000 </r>
       <r>  -14.4273    1.0000 </r>
       <r>  -14.3623    1.0000 </r>
       <r>   -4.3157    1.0000 </r>
       <r>   -4.1564    1.0000 </r>
       <r>   -3.8966    1.0000 </r>
       <r>   -3.8644    1.0000 </r>
       <r>   -3.7107    1.0000 </r>
       <r>   -3.6018    1.0000 </r>
       <r>   -3.5309    1.0000 </r>
       <r>   -3.2601    1.0000 </r>
       <r>   -3.1456    1.0000 </r>
       <r>   -3.0313    1.0000 </r>
       <r>   -2.9394    1.0000 </r>
       <r>   -2.8857    1.0000 </r>
       <r>   -2.8510    1.0000 </r>
       <r>   -2.7715    1.0000 </r>
       <r>   -2.4749    1.0000 </r>
       <r>   -2.2914    1.0000 </r>
       <r>   -2.1859    1.0000 </r>
       <r>   -2.1645    1.0000 </r>
       <r>   -1.8690    1.0000 </r>
       <r>   -1.8311    1.0000 </r>
       <r>   -1.8173    1.0000 </r>
       <r>   -1.7735    1.0000 </r>
       <r>   -1.7386    1.0000 </r>
       <r>   -1.6022    1.0000 </r>
       <r>   -1.4837    1.0000 </r>
       <r>   -1.3979    1.0000 </r>
       <r>   -1.3669    1.0000 </r>
       <r>   -1.2701    1.0000 </r>
       <r>   -1.1030    1.0000 </r>
       <r>   -0.9953    1.0000 </r>
       <r>   -0.8663    1.0000 </r>
       <r>   -0.8281    1.0000 </r>
       <r>   -0.7054    1.0000 </r>
       <r>   -0.6608    1.0000 </r>
       <r>   -0.6331    1.0000 </r>
       <r>   -0.4273    1.0000 </r>
       <r>    1.7813    0.0000 </r>
       <r>    2.3325    0.0000 </r>
       <r>    2.8147    0.0000 </r>
       <r>    2.8289    0.0000 </r>
       <r>    2.8910    0.0000 </r>
       <r>    2.9799    0.0000 </r>
       <r>    3.0233    0.0000 </r>
       <r>    3.0690    0.0000 </r>
       <r>    3.1920    0.0000 </r>
       <r>    3.3457    0.0000 </r>
       <r>    3.3906    0.0000 </r>
       <r>    7.0241    0.0000 </r>
      </set>
      <set comment="kpoint 4">
       <r>  -33.7647    1.0000 </r>
       <r>  -32.7762    1.0000 </r>
       <r>  -32.6861    1.0000 </r>
       <r>  -32.6406    1.0000 </r>
       <r>  -17.6752    1.0000 </r>
       <r>  -17.4639    1.0000 </r>
       <r>  -17.2171    1.0000 </r>
       <r>  -16.9349    1.0000 </r>
       <r>  -16.7164    1.0000 </r>
       <r>  -16.6813    1.0000 </r>
       <r>  -16.5795    1.0000 </r>
       <r>  -16.4876    1.0000 </r>
       <r>  -16.4361    1.0000 </r>
       <r>  -16.2419    1.0000 </r>
       <r>  -16.2374    1.0000 </r>
       <r>  -15.8833    1.0000 </r>
       <r>  -15.6703    1.0000 </r>
       <r>  -15.6581    1.0000 </r>
       <r>  -14.8024    1.0000 </r>
       <r>  -14.7370    1.0000 </r>
       <r>  -14.7044    1.0000 </r>
       <r>  -14.7044    1.0000 </r>
       <r>  -14.6799    1.0000 </r>
       <r>  -14.5030    1.0000 </r>
       <r>  -14.4434    1.0000 </r>
       <r>  -14.3915    1.0000 </r>
       <r>  -14.3243    1.0000 </r>
       <r>  -14.2809    1.0000 </r>
       <r>   -4.5383    1.0000 </r>
       <r>   -4.4944    1.0000 </r>
       <r>   -4.3626    1.0000 </r>
       <r>   -4.2575    1.0000 </r>
       <r>   -4.1802    1.0000 </r>
       <r>   -4.0915    1.0000 </r>
       <r>   -3.9390    1.0000 </r>
       <r>   -3.6474    1.0000 </r>
       <r>   -3.4315    1.0000 </r>
       <r>   -3.1082    1.0000 </r>
       <r>   -3.0275    1.0000 </r>
       <r>   -2.9710    1.0000 </r>
       <r>   -2.8778    1.0000 </r>
       <r>   -2.8383    1.0000 </r>
       <r>   -2.6848    1.0000 </r>
       <r>   -2.6453    1.0000 </r>
       <r>   -2.4605    1.0000 </r>
       <r>   -2.3240    1.0000 </r>
       <r>   -2.1635    1.0000 </r>
       <r>   -2.1532    1.0000 </r>
       <r>   -1.9710    1.0000 </r>
       <r>   -1.8859    1.0000 </r>
       <r>   -1.7298    1.0000 </r>
       <r>   -1.6849    1.0000 </r>
       <r>   -1.6428    1.0000 </r>
       <r>   -1.6250    1.0000 </r>
       <r>   -1.3644    1.0000 </r>
       <r>   -1.3090    1.0000 </r>
       <r>   -1.2723    1.0000 </r>
       <r>   -1.1309    1.0000 </r>
       <r>   -1.0378    1.0000 </r>
       <r>   -0.9630    1.0000 </r>
       <r>   -0.7689    1.0000 </r>
       <r>   -0.7325    1.0000 </r>
       <r>   -0.5171    1.0000 </r>
       <r>   -0.2433    1.0000 </r>
       <r>    1.8205    0.0000 </r>
       <r>    2.3661    0.0000 </r>
       <r>    2.9366    0.0000 </r>
       <r>    3.3748    0.0000 </r>
       <r>    3.4141    0.0000 </r>
       <r>    3.4200    0.0000 </r>
       <r>    3.5029    0.0000 </r>
       <r>    3.5528    0.0000 </r>
       <r>    3.5766    0.0000 </r>
       <r>    3.6190    0.0000 </r>
       <r>    3.8645    0.0000 </r>
       <r>    7.3841    0.0000 </r>
      </set>
      <set comment="kpoint 5">
       <r>  -33.7753    1.0000 </r>
       <r>  -32.7889    1.0000 </r>
       <r>  -32.6986    1.0000 </r>
       <r>  -32.6532    1.0000 </r>
       <r>  -17.5743    1.0000 </r>
       <r>  -17.4894    1.0000 </r>
       <r>  -17.4615    1.0000 </r>
       <r>  -17.0267    1.0000 </r>
       <r>  -16.5901    1.0000 </r>
       <r>  -16.5674    1.0000 </r>
       <r>  -16.4983    1.0000 </r>
       <r>  -16.4797    1.0000 </r>
       <r>  -16.4389    1.0000 </r>
       <r>  -16.4178    1.0000 </r>
       <r>  -16.1645    1.0000 </r>
       <r>  -15.9438    1.0000 </r>
       <r>  -15.7132    1.0000 </r>
       <r>  -15.6807    1.0000 </r>
       <r>  -15.1325    1.0000 </r>
       <r>  -14.8447    1.0000 </r>
       <r>  -14.7383    1.0000 </r>
       <r>  -14.7354    1.0000 </r>
       <r>  -14.7073    1.0000 </r>
       <r>  -14.6952    1.0000 </r>
       <r>  -14.5739    1.0000 </r>
       <r>  -14.5553    1.0000 </r>
       <r>  -14.4405    1.0000 </r>
       <r>  -14.3427    1.0000 </r>
       <r>   -4.2862    1.0000 </r>
       <r>   -3.8342    1.0000 </r>
       <r>   -3.5262    1.0000 </r>
       <r>   -3.4295    1.0000 </r>
       <r>   -3.3532    1.0000 </r>
       <r>   -3.1979    1.0000 </r>
       <r>   -3.1150    1.0000 </r>
       <r>   -3.0738    1.0000 </r>
       <r>   -3.0543    1.0000 </r>
       <r>   -2.9944    1.0000 </r>
       <r>   -2.8878    1.0000 </r>
       <r>   -2.8864    1.0000 </r>
       <r>   -2.6776    1.0000 </r>
       <r>   -2.5494    1.0000 </r>
       <r>   -2.3832    1.0000 </r>
       <r>   -2.2853    1.0000 </r>
       <r>   -2.0747    1.0000 </r>
       <r>   -2.0668    1.0000 </r>
       <r>   -1.8474    1.0000 </r>
       <r>   -1.7731    1.0000 </r>
       <r>   -1.6617    1.0000 </r>
       <r>   -1.5950    1.0000 </r>
       <r>   -1.4319    1.0000 </r>
       <r>   -1.2835    1.0000 </r>
       <r>   -1.1804    1.0000 </r>
       <r>   -1.1618    1.0000 </r>
       <r>   -1.0952    1.0000 </r>
       <r>   -1.0748    1.0000 </r>
       <r>   -1.0635    1.0000 </r>
       <r>   -1.0080    1.0000 </r>
       <r>   -1.0006    1.0000 </r>
       <r>   -0.8921    1.0000 </r>
       <r>   -0.8240    1.0000 </r>
       <r>   -0.6729    1.0000 </r>
       <r>   -0.5418    1.0000 </r>
       <r>   -0.2725    1.0000 </r>
       <r>    2.0187    0.0000 </r>
       <r>    2.1849    0.0000 </r>
       <r>    2.2989    0.0000 </r>
       <r>    2.4336    0.0000 </r>
       <r>    2.4518    0.0000 </r>
       <r>    2.5384    0.0000 </r>
       <r>    2.5679    0.0000 </r>
       <r>    2.6869    0.0000 </r>
       <r>    2.7818    0.0000 </r>
       <r>    3.1384    0.0000 </r>
       <r>    5.8672    0.0000 </r>
       <r>    6.2883    0.0000 </r>
      </set>
      <set comment="kpoint 6">
       <r>  -33.7677    1.0000 </r>
       <r>  -32.7799    1.0000 </r>
       <r>  -32.6897    1.0000 </r>
       <r>  -32.6442    1.0000 </r>
       <r>  -17.5339    1.0000 </r>
       <r>  -17.3827    1.0000 </r>
       <r>  -17.2824    1.0000 </r>
       <r>  -16.9837    1.0000 </r>
       <r>  -16.6368    1.0000 </r>
       <r>  -16.5842    1.0000 </r>
       <r>  -16.5437    1.0000 </r>
       <r>  -16.5118    1.0000 </r>
       <r>  -16.4407    1.0000 </r>
       <r>  -16.2933    1.0000 </r>
       <r>  -16.2326    1.0000 </r>
       <r>  -15.9229    1.0000 </r>
       <r>  -15.7525    1.0000 </r>
       <r>  -15.6412    1.0000 </r>
       <r>  -14.9447    1.0000 </r>
       <r>  -14.8424    1.0000 </r>
       <r>  -14.7681    1.0000 </r>
       <r>  -14.7054    1.0000 </r>
       <r>  -14.6652    1.0000 </r>
       <r>  -14.6066    1.0000 </r>
       <r>  -14.4909    1.0000 </r>
       <r>  -14.4480    1.0000 </r>
       <r>  -14.4291    1.0000 </r>
       <r>  -14.4035    1.0000 </r>
       <r>   -4.3183    1.0000 </r>
       <r>   -4.1289    1.0000 </r>
       <r>   -3.9317    1.0000 </r>
       <r>   -3.8933    1.0000 </r>
       <r>   -3.7192    1.0000 </r>
       <r>   -3.5906    1.0000 </r>
       <r>   -3.5131    1.0000 </r>
       <r>   -3.2841    1.0000 </r>
       <r>   -3.2430    1.0000 </r>
       <r>   -3.1981    1.0000 </r>
       <r>   -3.1648    1.0000 </r>
       <r>   -3.1063    1.0000 </r>
       <r>   -3.0082    1.0000 </r>
       <r>   -2.8823    1.0000 </r>
       <r>   -2.7999    1.0000 </r>
       <r>   -2.7104    1.0000 </r>
       <r>   -2.5084    1.0000 </r>
       <r>   -2.3979    1.0000 </r>
       <r>   -2.2684    1.0000 </r>
       <r>   -2.2149    1.0000 </r>
       <r>   -2.0725    1.0000 </r>
       <r>   -1.8355    1.0000 </r>
       <r>   -1.6663    1.0000 </r>
       <r>   -1.5413    1.0000 </r>
       <r>   -1.3785    1.0000 </r>
       <r>   -1.2678    1.0000 </r>
       <r>   -1.2334    1.0000 </r>
       <r>   -1.1431    1.0000 </r>
       <r>   -1.1085    1.0000 </r>
       <r>   -1.0976    1.0000 </r>
       <r>   -0.9961    1.0000 </r>
       <r>   -0.8253    1.0000 </r>
       <r>   -0.6899    1.0000 </r>
       <r>   -0.6425    1.0000 </r>
       <r>   -0.4489    1.0000 </r>
       <r>   -0.3564    1.0000 </r>
       <r>    2.1232    0.0000 </r>
       <r>    2.5530    0.0000 </r>
       <r>    2.8514    0.0000 </r>
       <r>    2.9299    0.0000 </r>
       <r>    3.0116    0.0000 </r>
       <r>    3.0576    0.0000 </r>
       <r>    3.0787    0.0000 </r>
       <r>    3.1757    0.0000 </r>
       <r>    3.3026    0.0000 </r>
       <r>    3.4466    0.0000 </r>
       <r>    3.5421    0.0000 </r>
       <r>    7.1198    0.0000 </r>
      </set>
      <set comment="kpoint 7">
       <r>  -33.7616    1.0000 </r>
       <r>  -32.7726    1.0000 </r>
       <r>  -32.6825    1.0000 </r>
       <r>  -32.6369    1.0000 </r>
       <r>  -17.5778    1.0000 </r>
       <r>  -17.3679    1.0000 </r>
       <r>  -17.1279    1.0000 </r>
       <r>  -16.8580    1.0000 </r>
       <r>  -16.6683    1.0000 </r>
       <r>  -16.6450    1.0000 </r>
       <r>  -16.5481    1.0000 </r>
       <r>  -16.4924    1.0000 </r>
       <r>  -16.4376    1.0000 </r>
       <r>  -16.1971    1.0000 </r>
       <r>  -16.1733    1.0000 </r>
       <r>  -15.9021    1.0000 </r>
       <r>  -15.7995    1.0000 </r>
       <r>  -15.5968    1.0000 </r>
       <r>  -14.8422    1.0000 </r>
       <r>  -14.8316    1.0000 </r>
       <r>  -14.8004    1.0000 </r>
       <r>  -14.6781    1.0000 </r>
       <r>  -14.6141    1.0000 </r>
       <r>  -14.5522    1.0000 </r>
       <r>  -14.5120    1.0000 </r>
       <r>  -14.4465    1.0000 </r>
       <r>  -14.3820    1.0000 </r>
       <r>  -14.3311    1.0000 </r>
       <r>   -4.4934    1.0000 </r>
       <r>   -4.4107    1.0000 </r>
       <r>   -4.3552    1.0000 </r>
       <r>   -4.2606    1.0000 </r>
       <r>   -4.1728    1.0000 </r>
       <r>   -4.0241    1.0000 </r>
       <r>   -3.9195    1.0000 </r>
       <r>   -3.6514    1.0000 </r>
       <r>   -3.5080    1.0000 </r>
       <r>   -3.3230    1.0000 </r>
       <r>   -3.2332    1.0000 </r>
       <r>   -3.1932    1.0000 </r>
       <r>   -3.1569    1.0000 </r>
       <r>   -3.0989    1.0000 </r>
       <r>   -3.0618    1.0000 </r>
       <r>   -2.9760    1.0000 </r>
       <r>   -2.6439    1.0000 </r>
       <r>   -2.6037    1.0000 </r>
       <r>   -2.4687    1.0000 </r>
       <r>   -2.3431    1.0000 </r>
       <r>   -2.2063    1.0000 </r>
       <r>   -1.9080    1.0000 </r>
       <r>   -1.7126    1.0000 </r>
       <r>   -1.7000    1.0000 </r>
       <r>   -1.4022    1.0000 </r>
       <r>   -1.3380    1.0000 </r>
       <r>   -1.2730    1.0000 </r>
       <r>   -1.2517    1.0000 </r>
       <r>   -1.2187    1.0000 </r>
       <r>   -1.1079    1.0000 </r>
       <r>   -1.0770    1.0000 </r>
       <r>   -0.9715    1.0000 </r>
       <r>   -0.7362    1.0000 </r>
       <r>   -0.5731    1.0000 </r>
       <r>   -0.4220    1.0000 </r>
       <r>   -0.2324    1.0000 </r>
       <r>    2.1621    0.0000 </r>
       <r>    2.6052    0.0000 </r>
       <r>    3.0780    0.0000 </r>
       <r>    3.4146    0.0000 </r>
       <r>    3.4352    0.0000 </r>
       <r>    3.5134    0.0000 </r>
       <r>    3.5414    0.0000 </r>
       <r>    3.5648    0.0000 </r>
       <r>    3.6333    0.0000 </r>
       <r>    3.6891    0.0000 </r>
       <r>    3.7595    0.0000 </r>
       <r>    3.8693    0.0000 </r>
      </set>
      <set comment="kpoint 8">
       <r>  -33.7604    1.0000 </r>
       <r>  -32.7713    1.0000 </r>
       <r>  -32.6812    1.0000 </r>
       <r>  -32.6356    1.0000 </r>
       <r>  -17.3945    1.0000 </r>
       <r>  -17.2209    1.0000 </r>
       <r>  -17.0740    1.0000 </r>
       <r>  -16.8452    1.0000 </r>
       <r>  -16.6592    1.0000 </r>
       <r>  -16.5773    1.0000 </r>
       <r>  -16.5295    1.0000 </r>
       <r>  -16.4408    1.0000 </r>
       <r>  -16.4315    1.0000 </r>
       <r>  -16.2541    1.0000 </r>
       <r>  -16.1575    1.0000 </r>
       <r>  -15.9169    1.0000 </r>
       <r>  -15.7591    1.0000 </r>
       <r>  -15.6592    1.0000 </r>
       <r>  -15.0125    1.0000 </r>
       <r>  -14.8930    1.0000 </r>
       <r>  -14.8010    1.0000 </r>
       <r>  -14.7257    1.0000 </r>
       <r>  -14.6791    1.0000 </r>
       <r>  -14.5946    1.0000 </r>
       <r>  -14.5903    1.0000 </r>
       <r>  -14.4886    1.0000 </r>
       <r>  -14.4438    1.0000 </r>
       <r>  -14.4357    1.0000 </r>
       <r>   -4.3305    1.0000 </r>
       <r>   -4.1772    1.0000 </r>
       <r>   -4.0466    1.0000 </r>
       <r>   -4.0317    1.0000 </r>
       <r>   -3.7610    1.0000 </r>
       <r>   -3.6852    1.0000 </r>
       <r>   -3.5821    1.0000 </r>
       <r>   -3.5596    1.0000 </r>
       <r>   -3.5348    1.0000 </r>
       <r>   -3.4747    1.0000 </r>
       <r>   -3.4676    1.0000 </r>
       <r>   -3.4404    1.0000 </r>
       <r>   -3.3084    1.0000 </r>
       <r>   -3.2650    1.0000 </r>
       <r>   -3.2041    1.0000 </r>
       <r>   -3.1485    1.0000 </r>
       <r>   -3.1254    1.0000 </r>
       <r>   -3.0927    1.0000 </r>
       <r>   -2.7876    1.0000 </r>
       <r>   -2.7605    1.0000 </r>
       <r>   -2.5772    1.0000 </r>
       <r>   -2.2672    1.0000 </r>
       <r>   -2.0982    1.0000 </r>
       <r>   -1.5912    1.0000 </r>
       <r>   -1.4694    1.0000 </r>
       <r>   -1.2331    1.0000 </r>
       <r>   -0.9893    1.0000 </r>
       <r>   -0.9475    1.0000 </r>
       <r>   -0.8342    1.0000 </r>
       <r>   -0.8167    1.0000 </r>
       <r>   -0.7135    1.0000 </r>
       <r>   -0.7026    1.0000 </r>
       <r>   -0.5819    1.0000 </r>
       <r>   -0.5536    1.0000 </r>
       <r>   -0.3956    1.0000 </r>
       <r>    0.0489    1.0000 </r>
       <r>    2.7188    0.0000 </r>
       <r>    2.9744    0.0000 </r>
       <r>    3.0610    0.0000 </r>
       <r>    3.1764    0.0000 </r>
       <r>    3.2633    0.0000 </r>
       <r>    3.3546    0.0000 </r>
       <r>    3.4018    0.0000 </r>
       <r>    3.4210    0.0000 </r>
       <r>    3.5213    0.0000 </r>
       <r>    3.6289    0.0000 </r>
       <r>    3.6554    0.0000 </r>
       <r>    3.7351    0.0000 </r>
      </set>
      <set comment="kpoint 9">
       <r>  -33.7546    1.0000 </r>
       <r>  -32.7644    1.0000 </r>
       <r>  -32.6744    1.0000 </r>
       <r>  -32.6287    1.0000 </r>
       <r>  -17.3251    1.0000 </r>
       <r>  -17.1200    1.0000 </r>
       <r>  -16.9050    1.0000 </r>
       <r>  -16.6774    1.0000 </r>
       <r>  -16.6388    1.0000 </r>
       <r>  -16.6209    1.0000 </r>
       <r>  -16.4937    1.0000 </r>
       <r>  -16.4822    1.0000 </r>
       <r>  -16.3882    1.0000 </r>
       <r>  -16.0989    1.0000 </r>
       <r>  -16.0297    1.0000 </r>
       <r>  -15.9120    1.0000 </r>
       <r>  -15.8761    1.0000 </r>
       <r>  -15.6184    1.0000 </r>
       <r>  -15.0851    1.0000 </r>
       <r>  -14.9279    1.0000 </r>
       <r>  -14.8715    1.0000 </r>
       <r>  -14.7539    1.0000 </r>
       <r>  -14.6792    1.0000 </r>
       <r>  -14.6230    1.0000 </r>
       <r>  -14.5737    1.0000 </r>
       <r>  -14.5434    1.0000 </r>
       <r>  -14.4922    1.0000 </r>
       <r>  -14.4237    1.0000 </r>
       <r>   -4.4949    1.0000 </r>
       <r>   -4.3939    1.0000 </r>
       <r>   -4.2904    1.0000 </r>
       <r>   -4.1778    1.0000 </r>
       <r>   -4.1055    1.0000 </r>
       <r>   -4.0672    1.0000 </r>
       <r>   -4.0023    1.0000 </r>
       <r>   -3.9045    1.0000 </r>
       <r>   -3.7578    1.0000 </r>
       <r>   -3.7262    1.0000 </r>
       <r>   -3.6426    1.0000 </r>
       <r>   -3.6028    1.0000 </r>
       <r>   -3.5460    1.0000 </r>
       <r>   -3.4766    1.0000 </r>
       <r>   -3.4341    1.0000 </r>
       <r>   -3.2827    1.0000 </r>
       <r>   -3.1677    1.0000 </r>
       <r>   -3.1196    1.0000 </r>
       <r>   -3.0582    1.0000 </r>
       <r>   -2.9710    1.0000 </r>
       <r>   -2.6721    1.0000 </r>
       <r>   -2.5455    1.0000 </r>
       <r>   -2.1412    1.0000 </r>
       <r>   -1.5529    1.0000 </r>
       <r>   -1.4317    1.0000 </r>
       <r>   -1.3207    1.0000 </r>
       <r>   -1.0033    1.0000 </r>
       <r>   -0.9458    1.0000 </r>
       <r>   -0.7445    1.0000 </r>
       <r>   -0.6670    1.0000 </r>
       <r>   -0.6022    1.0000 </r>
       <r>   -0.5718    1.0000 </r>
       <r>   -0.5512    1.0000 </r>
       <r>   -0.4531    1.0000 </r>
       <r>   -0.2128    1.0000 </r>
       <r>    0.2123    1.0000 </r>
       <r>    2.8488    0.0000 </r>
       <r>    3.1613    0.0000 </r>
       <r>    3.4273    0.0000 </r>
       <r>    3.4651    0.0000 </r>
       <r>    3.5960    0.0000 </r>
       <r>    3.6341    0.0000 </r>
       <r>    3.7555    0.0000 </r>
       <r>    3.7710    0.0000 </r>
       <r>    3.7882    0.0000 </r>
       <r>    3.8783    0.0000 </r>
       <r>    3.9822    0.0000 </r>
       <r>    4.0035    0.0000 </r>
      </set>
      <set comment="kpoint 10">
       <r>  -33.7489    1.0000 </r>
       <r>  -32.7578    1.0000 </r>
       <r>  -32.6679    1.0000 </r>
       <r>  -32.6221    1.0000 </r>
       <r>  -17.0472    1.0000 </r>
       <r>  -16.8492    1.0000 </r>
       <r>  -16.7219    1.0000 </r>
       <r>  -16.6859    1.0000 </r>
       <r>  -16.6289    1.0000 </r>
       <r>  -16.5871    1.0000 </r>
       <r>  -16.4502    1.0000 </r>
       <r>  -16.4209    1.0000 </r>
       <r>  -16.3844    1.0000 </r>
       <r>  -16.0091    1.0000 </r>
       <r>  -15.9224    1.0000 </r>
       <r>  -15.8913    1.0000 </r>
       <r>  -15.8150    1.0000 </r>
       <r>  -15.6527    1.0000 </r>
       <r>  -15.3842    1.0000 </r>
       <r>  -14.9787    1.0000 </r>
       <r>  -14.9278    1.0000 </r>
       <r>  -14.9198    1.0000 </r>
       <r>  -14.7737    1.0000 </r>
       <r>  -14.7025    1.0000 </r>
       <r>  -14.6281    1.0000 </r>
       <r>  -14.5740    1.0000 </r>
       <r>  -14.4899    1.0000 </r>
       <r>  -14.4689    1.0000 </r>
       <r>   -4.6030    1.0000 </r>
       <r>   -4.5255    1.0000 </r>
       <r>   -4.4645    1.0000 </r>
       <r>   -4.3936    1.0000 </r>
       <r>   -4.2714    1.0000 </r>
       <r>   -4.2375    1.0000 </r>
       <r>   -4.1679    1.0000 </r>
       <r>   -4.1574    1.0000 </r>
       <r>   -4.0732    1.0000 </r>
       <r>   -4.0291    1.0000 </r>
       <r>   -3.9148    1.0000 </r>
       <r>   -3.8502    1.0000 </r>
       <r>   -3.7903    1.0000 </r>
       <r>   -3.7316    1.0000 </r>
       <r>   -3.5252    1.0000 </r>
       <r>   -3.4719    1.0000 </r>
       <r>   -3.4554    1.0000 </r>
       <r>   -3.3915    1.0000 </r>
       <r>   -3.1471    1.0000 </r>
       <r>   -3.1142    1.0000 </r>
       <r>   -2.7561    1.0000 </r>
       <r>   -2.6602    1.0000 </r>
       <r>   -2.4032    1.0000 </r>
       <r>   -1.4233    1.0000 </r>
       <r>   -1.3512    1.0000 </r>
       <r>   -1.3425    1.0000 </r>
       <r>   -0.9452    1.0000 </r>
       <r>   -0.9001    1.0000 </r>
       <r>   -0.5449    1.0000 </r>
       <r>   -0.5017    1.0000 </r>
       <r>   -0.2900    1.0000 </r>
       <r>   -0.2515    1.0000 </r>
       <r>   -0.2258    1.0000 </r>
       <r>   -0.1790    1.0000 </r>
       <r>   -0.1512    1.0000 </r>
       <r>    0.5558    1.0000 </r>
       <r>    3.4267    0.0000 </r>
       <r>    3.4674    0.0000 </r>
       <r>    3.6636    0.0000 </r>
       <r>    3.6798    0.0000 </r>
       <r>    3.8575    0.0000 </r>
       <r>    3.9094    0.0000 </r>
       <r>    3.9859    0.0000 </r>
       <r>    4.0284    0.0000 </r>
       <r>    4.0883    0.0000 </r>
       <r>    7.2731    0.0000 </r>
       <r>    7.3024    0.0000 </r>
       <r>    7.6431    0.0000 </r>
      </set>
     </set>
    </set>
   </array>
  </eigenvalues>
  <separator name="orbital magnetization" >
   <v name="MAGDIPOLOUT">      0.00000000      0.00000000      0.00000000</v>
  </separator>
  <dos>
   <i name="efermi">      0.63880400 </i>
   <total>
    <array>
     <dimension dim="1">gridpoints</dimension>
     <dimension dim="2">spin</dimension>
     <field>energy</field>
     <field>total</field>
     <field>integrated</field>
     <set>
      <set comment="spin 1">
       <r>   -35.8533     0.0000     0.0000 </r>
       <r>   -35.7015     0.0000     0.0000 </r>
       <r>   -35.5496     0.0000     0.0000 </r>
       <r>   -35.3977     0.0000     0.0000 </r>
       <r>   -35.2458     0.0000     0.0000 </r>
       <r>   -35.0939     0.0000     0.0000 </r>
       <r>   -34.9420     0.0000     0.0000 </r>
       <r>   -34.7901     0.0000     0.0000 </r>
       <r>   -34.6382     0.0000     0.0000 </r>
       <r>   -34.4863     0.0000     0.0000 </r>
       <r>   -34.3344     0.0000     0.0000 </r>
       <r>   -34.1825     0.0000     0.0000 </r>
       <r>   -34.0306     0.0000     0.0000 </r>
       <r>   -33.8787     0.0000     0.0000 </r>
       <r>   -33.7269     0.0000     2.0000 </r>
       <r>   -33.5750     0.0000     2.0000 </r>
       <r>   -33.4231     0.0000     2.0000 </r>
       <r>   -33.2712     0.0000     2.0000 </r>
       <r>   -33.1193     0.0000     2.0000 </r>
       <r>   -32.9674     0.0000     2.0000 </r>
       <r>   -32.8155     0.0000     2.0000 </r>
       <r>   -32.6636     0.0000     6.0000 </r>
       <r>   -32.5117     0.0000     8.0000 </r>
       <r>   -32.3598     0.0000     8.0000 </r>
       <r>   -32.2079     0.0000     8.0000 </r>
       <r>   -32.0560     0.0000     8.0000 </r>
       <r>   -31.9041     0.0000     8.0000 </r>
       <r>   -31.7523     0.0000     8.0000 </r>
       <r>   -31.6004     0.0000     8.0000 </r>
       <r>   -31.4485     0.0000     8.0000 </r>
       <r>   -31.2966     0.0000     8.0000 </r>
       <r>   -31.1447     0.0000     8.0000 </r>
       <r>   -30.9928     0.0000     8.0000 </r>
       <r>   -30.8409     0.0000     8.0000 </r>
       <r>   -30.6890     0.0000     8.0000 </r>
       <r>   -30.5371     0.0000     8.0000 </r>
       <r>   -30.3852     0.0000     8.0000 </r>
       <r>   -30.2333     0.0000     8.0000 </r>
       <r>   -30.0814     0.0000     8.0000 </r>
       <r>   -29.9295     0.0000     8.0000 </r>
       <r>   -29.7776     0.0000     8.0000 </r>
       <r>   -29.6258     0.0000     8.0000 </r>
       <r>   -29.4739     0.0000     8.0000 </r>
       <r>   -29.3220     0.0000     8.0000 </r>
       <r>   -29.1701     0.0000     8.0000 </r>
       <r>   -29.0182     0.0000     8.0000 </r>
       <r>   -28.8663     0.0000     8.0000 </r>
       <r>   -28.7144     0.0000     8.0000 </r>
       <r>   -28.5625     0.0000     8.0000 </r>
       <r>   -28.4106     0.0000     8.0000 </r>
       <r>   -28.2587     0.0000     8.0000 </r>
       <r>   -28.1068     0.0000     8.0000 </r>
       <r>   -27.9549     0.0000     8.0000 </r>
       <r>   -27.8030     0.0000     8.0000 </r>
       <r>   -27.6512     0.0000     8.0000 </r>
       <r>   -27.4993     0.0000     8.0000 </r>
       <r>   -27.3474     0.0000     8.0000 </r>
       <r>   -27.1955     0.0000     8.0000 </r>
       <r>   -27.0436     0.0000     8.0000 </r>
       <r>   -26.8917     0.0000     8.0000 </r>
       <r>   -26.7398     0.0000     8.0000 </r>
       <r>   -26.5879     0.0000     8.0000 </r>
       <r>   -26.4360     0.0000     8.0000 </r>
       <r>   -26.2841     0.0000     8.0000 </r>
       <r>   -26.1322     0.0000     8.0000 </r>
       <r>   -25.9803     0.0000     8.0000 </r>
       <r>   -25.8284     0.0000     8.0000 </r>
       <r>   -25.6766     0.0000     8.0000 </r>
       <r>   -25.5247     0.0000     8.0000 </r>
       <r>   -25.3728     0.0000     8.0000 </r>
       <r>   -25.2209     0.0000     8.0000 </r>
       <r>   -25.0690     0.0000     8.0000 </r>
       <r>   -24.9171     0.0000     8.0000 </r>
       <r>   -24.7652     0.0000     8.0000 </r>
       <r>   -24.6133     0.0000     8.0000 </r>
       <r>   -24.4614     0.0000     8.0000 </r>
       <r>   -24.3095     0.0000     8.0000 </r>
       <r>   -24.1576     0.0000     8.0000 </r>
       <r>   -24.0057     0.0000     8.0000 </r>
       <r>   -23.8538     0.0000     8.0000 </r>
       <r>   -23.7020     0.0000     8.0000 </r>
       <r>   -23.5501     0.0000     8.0000 </r>
       <r>   -23.3982     0.0000     8.0000 </r>
       <r>   -23.2463     0.0000     8.0000 </r>
       <r>   -23.0944     0.0000     8.0000 </r>
       <r>   -22.9425     0.0000     8.0000 </r>
       <r>   -22.7906     0.0000     8.0000 </r>
       <r>   -22.6387     0.0000     8.0000 </r>
       <r>   -22.4868     0.0000     8.0000 </r>
       <r>   -22.3349     0.0000     8.0000 </r>
       <r>   -22.1830     0.0000     8.0000 </r>
       <r>   -22.0311     0.0000     8.0000 </r>
       <r>   -21.8792     0.0000     8.0000 </r>
       <r>   -21.7274     0.0000     8.0000 </r>
       <r>   -21.5755     0.0000     8.0000 </r>
       <r>   -21.4236     0.0000     8.0000 </r>
       <r>   -21.2717     0.0000     8.0000 </r>
       <r>   -21.1198     0.0000     8.0000 </r>
       <r>   -20.9679     0.0000     8.0000 </r>
       <r>   -20.8160     0.0000     8.0000 </r>
       <r>   -20.6641     0.0000     8.0000 </r>
       <r>   -20.5122     0.0000     8.0000 </r>
       <r>   -20.3603     0.0000     8.0000 </r>
       <r>   -20.2084     0.0000     8.0000 </r>
       <r>   -20.0565     0.0000     8.0000 </r>
       <r>   -19.9046     0.0000     8.0000 </r>
       <r>   -19.7528     0.0000     8.0000 </r>
       <r>   -19.6009     0.0000     8.0000 </r>
       <r>   -19.4490     0.0000     8.0000 </r>
       <r>   -19.2971     0.0000     8.0000 </r>
       <r>   -19.1452     0.0000     8.0000 </r>
       <r>   -18.9933     0.0000     8.0000 </r>
       <r>   -18.8414     0.0000     8.0000 </r>
       <r>   -18.6895     0.0000     8.0000 </r>
       <r>   -18.5376     0.0000     8.0000 </r>
       <r>   -18.3857     0.0000     8.0000 </r>
       <r>   -18.2338     0.0000     8.0000 </r>
       <r>   -18.0819     0.0000     8.0000 </r>
       <r>   -17.9300     0.0000     8.0000 </r>
       <r>   -17.7781     0.0000     8.0000 </r>
       <r>   -17.6263     7.9022     8.2623 </r>
       <r>   -17.4744     9.4142     9.8136 </r>
       <r>   -17.3225     7.1006    11.4645 </r>
       <r>   -17.1706     7.3111    12.5486 </r>
       <r>   -17.0187    10.6430    13.7213 </r>
       <r>   -16.8668     6.9730    14.9656 </r>
       <r>   -16.7149     6.1811    15.6724 </r>
       <r>   -16.5630    30.0315    19.9864 </r>
       <r>   -16.4111    21.8543    25.5645 </r>
       <r>   -16.2592     6.1641    26.8908 </r>
       <r>   -16.1073     8.3476    29.0097 </r>
       <r>   -15.9554     2.0129    29.9015 </r>
       <r>   -15.8035     7.2453    32.6047 </r>
       <r>   -15.6517    31.7969    34.7762 </r>
       <r>   -15.4998     0.1706    36.0087 </r>
       <r>   -15.3479     1.0559    36.1161 </r>
       <r>   -15.1960     2.1074    36.3483 </r>
       <r>   -15.0441     4.6905    36.7925 </r>
       <r>   -14.8922    16.5601    38.3248 </r>
       <r>   -14.7403    48.0796    42.3798 </r>
       <r>   -14.5884    25.3635    47.9621 </r>
       <r>   -14.4365    51.2504    52.6542 </r>
       <r>   -14.2846     5.7368    55.9685 </r>
       <r>   -14.1327     0.0000    56.0000 </r>
       <r>   -13.9808     0.0000    56.0000 </r>
       <r>   -13.8289     0.0000    56.0000 </r>
       <r>   -13.6771     0.0000    56.0000 </r>
       <r>   -13.5252     0.0000    56.0000 </r>
       <r>   -13.3733     0.0000    56.0000 </r>
       <r>   -13.2214     0.0000    56.0000 </r>
       <r>   -13.0695     0.0000    56.0000 </r>
       <r>   -12.9176     0.0000    56.0000 </r>
       <r>   -12.7657     0.0000    56.0000 </r>
       <r>   -12.6138     0.0000    56.0000 </r>
       <r>   -12.4619     0.0000    56.0000 </r>
       <r>   -12.3100     0.0000    56.0000 </r>
       <r>   -12.1581     0.0000    56.0000 </r>
       <r>   -12.0062     0.0000    56.0000 </r>
       <r>   -11.8543     0.0000    56.0000 </r>
       <r>   -11.7025     0.0000    56.0000 </r>
       <r>   -11.5506     0.0000    56.0000 </r>
       <r>   -11.3987     0.0000    56.0000 </r>
       <r>   -11.2468     0.0000    56.0000 </r>
       <r>   -11.0949     0.0000    56.0000 </r>
       <r>   -10.9430     0.0000    56.0000 </r>
       <r>   -10.7911     0.0000    56.0000 </r>
       <r>   -10.6392     0.0000    56.0000 </r>
       <r>   -10.4873     0.0000    56.0000 </r>
       <r>   -10.3354     0.0000    56.0000 </r>
       <r>   -10.1835     0.0000    56.0000 </r>
       <r>   -10.0316     0.0000    56.0000 </r>
       <r>    -9.8797     0.0000    56.0000 </r>
       <r>    -9.7279     0.0000    56.0000 </r>
       <r>    -9.5760     0.0000    56.0000 </r>
       <r>    -9.4241     0.0000    56.0000 </r>
       <r>    -9.2722     0.0000    56.0000 </r>
       <r>    -9.1203     0.0000    56.0000 </r>
       <r>    -8.9684     0.0000    56.0000 </r>
       <r>    -8.8165     0.0000    56.0000 </r>
       <r>    -8.6646     0.0000    56.0000 </r>
       <r>    -8.5127     0.0000    56.0000 </r>
       <r>    -8.3608     0.0000    56.0000 </r>
       <r>    -8.2089     0.0000    56.0000 </r>
       <r>    -8.0570     0.0000    56.0000 </r>
       <r>    -7.9051     0.0000    56.0000 </r>
       <r>    -7.7533     0.0000    56.0000 </r>
       <r>    -7.6014     0.0000    56.0000 </r>
       <r>    -7.4495     0.0000    56.0000 </r>
       <r>    -7.2976     0.0000    56.0000 </r>
       <r>    -7.1457     0.0000    56.0000 </r>
       <r>    -6.9938     0.0000    56.0000 </r>
       <r>    -6.8419     0.0000    56.0000 </r>
       <r>    -6.6900     0.0000    56.0000 </r>
       <r>    -6.5381     0.0000    56.0000 </r>
       <r>    -6.3862     0.0000    56.0000 </r>
       <r>    -6.2343     0.0000    56.0000 </r>
       <r>    -6.0824     0.0000    56.0000 </r>
       <r>    -5.9305     0.0000    56.0000 </r>
       <r>    -5.7786     0.0000    56.0000 </r>
       <r>    -5.6268     0.0000    56.0000 </r>
       <r>    -5.4749     0.0000    56.0000 </r>
       <r>    -5.3230     0.0000    56.0000 </r>
       <r>    -5.1711     0.0000    56.0000 </r>
       <r>    -5.0192     0.0000    56.0000 </r>
       <r>    -4.8673     0.0000    56.0000 </r>
       <r>    -4.7154     0.0000    56.0000 </r>
       <r>    -4.5635     2.0050    56.1103 </r>
       <r>    -4.4116    10.4669    57.5381 </r>
       <r>    -4.2597    61.8072    60.1093 </r>
       <r>    -4.1078    15.4951    62.5318 </r>
       <r>    -3.9559    13.9704    64.8682 </r>
       <r>    -3.8040    13.8973    67.1114 </r>
       <r>    -3.6522    15.1003    69.4815 </r>
       <r>    -3.5003    18.4199    72.0886 </r>
       <r>    -3.3484    19.6980    75.1534 </r>
       <r>    -3.1965    22.3330    78.3425 </r>
       <r>    -3.0446    25.4196    82.3676 </r>
       <r>    -2.8927    19.1824    85.7601 </r>
       <r>    -2.7408    13.8131    88.0045 </r>
       <r>    -2.5889    14.0933    90.1717 </r>
       <r>    -2.4370    11.3990    92.0752 </r>
       <r>    -2.2851    13.2329    94.0062 </r>
       <r>    -2.1332    11.6167    95.9240 </r>
       <r>    -1.9813     9.7669    97.5588 </r>
       <r>    -1.8294     9.8052    99.1244 </r>
       <r>    -1.6776    11.5304   100.9651 </r>
       <r>    -1.5257    11.1909   102.8662 </r>
       <r>    -1.3738    11.4400   105.3538 </r>
       <r>    -1.2219    20.3634   108.8164 </r>
       <r>    -1.0700    25.2270   111.8216 </r>
       <r>    -0.9181    19.9809   115.7219 </r>
       <r>    -0.7662    15.6953   118.0208 </r>
       <r>    -0.6143    20.3891   121.0486 </r>
       <r>    -0.4624    16.8371   123.7803 </r>
       <r>    -0.3105    11.3176   125.6962 </r>
       <r>    -0.1586     4.8587   127.1537 </r>
       <r>    -0.0067     1.2278   127.4451 </r>
       <r>     0.1452     1.1632   127.6208 </r>
       <r>     0.2970     0.8968   127.7816 </r>
       <r>     0.4489     0.6494   127.8991 </r>
       <r>     0.6008     0.0000   128.0000 </r>
       <r>     0.7527     0.0000   128.0000 </r>
       <r>     0.9046     0.0000   128.0000 </r>
       <r>     1.0565     0.0000   128.0000 </r>
       <r>     1.2084     0.0000   128.0000 </r>
       <r>     1.3603     0.0000   128.0000 </r>
       <r>     1.5122     0.0000   128.0000 </r>
       <r>     1.6641     0.4639   128.0128 </r>
       <r>     1.8160     2.7776   128.2085 </r>
       <r>     1.9679     3.7285   128.7414 </r>
       <r>     2.1198     4.9378   129.3926 </r>
       <r>     2.2716     4.1224   130.0086 </r>
       <r>     2.4235     8.3081   130.9537 </r>
       <r>     2.5754     8.3124   132.1421 </r>
       <r>     2.7273     7.0136   133.2378 </r>
       <r>     2.8792     9.1349   134.4238 </r>
       <r>     3.0311    11.2429   135.9543 </r>
       <r>     3.1830    11.6933   137.6500 </r>
       <r>     3.3349    13.2499   139.5336 </r>
       <r>     3.4868    15.9074   142.3012 </r>
       <r>     3.6387    16.6895   145.1969 </r>
       <r>     3.7906    11.5739   147.2363 </r>
       <r>     3.9425     6.0003   148.6525 </r>
       <r>     4.0944     0.8199   149.2295 </r>
       <r>     4.2462     0.8007   149.3526 </r>
       <r>     4.3981     0.7814   149.4728 </r>
       <r>     4.5500     0.7621   149.5900 </r>
       <r>     4.7019     0.7429   149.7043 </r>
       <r>     4.8538     0.7236   149.8157 </r>
       <r>     5.0057     0.7043   149.9241 </r>
       <r>     5.1576     0.6850   150.0296 </r>
       <r>     5.3095     0.6658   150.1322 </r>
       <r>     5.4614     0.6509   150.2321 </r>
       <r>     5.6133     0.6386   150.3300 </r>
       <r>     5.7652     1.2243   150.4652 </r>
       <r>     5.9171     1.0183   150.7449 </r>
       <r>     6.0690     0.9249   150.8925 </r>
       <r>     6.2208     0.8315   151.0259 </r>
       <r>     6.3727     0.7931   151.1474 </r>
       <r>     6.5246     0.7985   151.2683 </r>
       <r>     6.6765     0.8040   151.3900 </r>
       <r>     6.8284     0.8094   151.5125 </r>
       <r>     6.9803     0.8149   151.6359 </r>
       <r>     7.1322     0.7129   151.7609 </r>
       <r>     7.2841     0.3492   151.8855 </r>
       <r>     7.4360     0.0485   151.9495 </r>
       <r>     7.5879     0.0458   151.9567 </r>
       <r>     7.7398     0.0000   152.0000 </r>
       <r>     7.8917     0.0000   152.0000 </r>
       <r>     8.0436     0.0000   152.0000 </r>
       <r>     8.1955     0.0000   152.0000 </r>
       <r>     8.3473     0.0000   152.0000 </r>
       <r>     8.4992     0.0000   152.0000 </r>
       <r>     8.6511     0.0000   152.0000 </r>
       <r>     8.8030     0.0000   152.0000 </r>
       <r>     8.9549     0.0000   152.0000 </r>
       <r>     9.1068     0.0000   152.0000 </r>
       <r>     9.2587     0.0000   152.0000 </r>
       <r>     9.4106     0.0000   152.0000 </r>
       <r>     9.5625     0.0000   152.0000 </r>
       <r>     9.7144     0.0000   152.0000 </r>
      </set>
     </set>
    </array>
   </total>
  </dos>
 </calculation>
 <structure name="finalpos" >
  <crystal>
   <varray name="basis" >
    <v>       3.90526800       0.00000000       0.00000000 </v>
    <v>       0.00000000       3.90526800       0.00000000 </v>
    <v>       0.00000000       0.00000000      25.66843800 </v>
   </varray>
   <i name="volume">    391.47238071 </i>
   <varray name="rec_basis" >
    <v>       0.25606437       0.00000000       0.00000000 </v>
    <v>       0.00000000       0.25606437       0.00000000 </v>
    <v>       0.00000000       0.00000000       0.03895835 </v>
   </varray>
  </crystal>
  <varray name="positions" >
   <v>       0.50000000       0.50000000       0.23375010 </v>
   <v>       0.50000000       0.00000000       0.30982150 </v>
   <v>       0.00000000       0.50000000       0.30982150 </v>
   <v>       0.50000000       0.50000000       0.38589290 </v>
   <v>       0.50000000       0.00000000       0.46196430 </v>
   <v>       0.00000000       0.50000000       0.46196430 </v>
   <v>       0.50000000       0.50000000       0.53803570 </v>
   <v>       0.50000000       0.00000000       0.61410710 </v>
   <v>       0.00000000       0.50000000       0.61410710 </v>
   <v>       0.50000000       0.50000000       0.69017850 </v>
   <v>       0.50000000       0.00000000       0.76624990 </v>
   <v>       0.00000000       0.50000000       0.76624990 </v>
   <v>       0.00000000       0.00000000       0.23375010 </v>
   <v>       0.00000000       0.00000000       0.38589290 </v>
   <v>       0.00000000       0.00000000       0.53803570 </v>
   <v>       0.00000000       0.00000000       0.69017850 </v>
   <v>       0.50000000       0.50000000       0.30982150 </v>
   <v>       0.50000000       0.50000000       0.46196430 </v>
   <v>       0.50000000       0.50000000       0.61410710 </v>
   <v>       0.50000000       0.50000000       0.76624990 </v>
  </varray>
 </structure>
</modeling>
