unknown system                          
   1.00000000000000     
     2.573869    0.000000    0.000000
     1.286934    2.229036    0.000000
     0.000000    0.000000   30.304665
   Cu   H 
     4     1
Direct
  0.000000  0.000000  0.395979
  0.333333  0.333333  0.465326
  0.666667  0.666667  0.534674
  0.000000  0.000000  0.604021
  0.310902  0.378196  0.637020
 
   20   20  240
 -.76793E-02 -.71965E-02 -.55003E-02 -.30685E-02 -.70996E-03 0.82206E-03 0.11443E-02 0.33387E-03 -.11285E-02 -.24887E-02
 -.29870E-02 -.22684E-02 -.68233E-03 0.85558E-03 0.14330E-02 0.69472E-03 -.10662E-02 -.32586E-02 -.53562E-02 -.69579E-02
 -.72608E-02 -.61109E-02 -.37430E-02 -.10381E-02 0.79551E-03 0.93063E-03 -.63256E-03 -.31077E-02 -.53075E-02 -.61601E-02
 -.52133E-02 -.29250E-02 -.47499E-03 0.91927E-03 0.73370E-03 -.67911E-03 -.25688E-02 -.43956E-02 -.59615E-02 -.70667E-02
 -.57412E-02 -.41951E-02 -.19230E-02 0.48303E-04 0.50605E-03 -.13132E-02 -.51987E-02 -.98728E-02 -.13475E-01 -.14465E-01
 -.12456E-01 -.84443E-02 -.42152E-02 -.13240E-02 -.37077E-03 -.10040E-02 -.24641E-02 -.40927E-02 -.54417E-02 -.61171E-02
 -.35189E-02 -.22659E-02 -.97445E-03 -.55639E-03 -.22381E-02 -.68540E-02 -.13936E-01 -.21424E-01 -.26482E-01 -.27005E-01
 -.22790E-01 -.15582E-01 -.80650E-02 -.25244E-02 0.29357E-04 -.45397E-04 -.15526E-02 -.32073E-02 -.41861E-02 -.42490E-02
 -.11147E-02 -.59704E-03 -.84083E-03 -.29783E-02 -.83631E-02 -.17385E-01 -.28396E-01 -.37908E-01 -.42242E-01 -.39558E-01
 -.30847E-01 -.19325E-01 -.87577E-02 -.17874E-02 0.93311E-03 0.54263E-03 -.10172E-02 -.21676E-02 -.23443E-02 -.18268E-02
 0.94011E-03 0.68103E-03 -.17382E-02 -.78943E-02 -.18591E-01 -.32550E-01 -.46105E-01 -.54584E-01 -.54689E-01 -.46320E-01
 -.32607E-01 -.18211E-01 -.70717E-02 -.90628E-03 0.91272E-03 0.35236E-03 -.62242E-03 -.93875E-03 -.49635E-03 0.30251E-03
 0.19161E-02 0.78111E-03 -.44869E-02 -.15253E-01 -.30732E-01 -.47448E-01 -.60231E-01 -.64538E-01 -.58799E-01 -.45286E-01
 -.28872E-01 -.14495E-01 -.49897E-02 -.49625E-03 0.58653E-03 0.16059E-03 -.45791E-03 -.61414E-03 -.60069E-04 0.10623E-02
 0.11894E-02 -.98825E-03 -.88229E-02 -.22613E-01 -.39870E-01 -.55792E-01 -.65094E-01 -.64462E-01 -.54266E-01 -.38390E-01
 -.22166E-01 -.97477E-02 -.26293E-02 0.14107E-04 -.71811E-04 -.13329E-02 -.26305E-02 -.30510E-02 -.20526E-02 -.51236E-04
 -.92607E-03 -.38660E-02 -.12753E-01 -.26730E-01 -.42437E-01 -.54992E-01 -.59972E-01 -.55505E-01 -.43280E-01 -.27710E-01
 -.13715E-01 -.45376E-02 -.86883E-03 -.14494E-02 -.42498E-02 -.73090E-02 -.90585E-02 -.85528E-02 -.58806E-02 -.24882E-02
 -.30390E-02 -.60419E-02 -.14379E-01 -.26380E-01 -.38507E-01 -.46522E-01 -.47308E-01 -.40400E-01 -.28297E-01 -.15319E-01
 -.56738E-02 -.17689E-02 -.35491E-02 -.89227E-02 -.14868E-01 -.18664E-01 -.18805E-01 -.15391E-01 -.99669E-02 -.49831E-02
 -.37472E-02 -.63384E-02 -.13330E-01 -.22333E-01 -.29972E-01 -.33184E-01 -.30561E-01 -.23002E-01 -.13386E-01 -.54459E-02
 -.23390E-02 -.53703E-02 -.13354E-01 -.23009E-01 -.30380E-01 -.32617E-01 -.29146E-01 -.21627E-01 -.12996E-01 -.62815E-02
 -.27187E-02 -.48177E-02 -.10106E-01 -.15713E-01 -.18988E-01 -.18516E-01 -.14541E-01 -.87526E-02 -.37118E-02 -.21199E-02
 -.59069E-02 -.15216E-01 -.27811E-01 -.39592E-01 -.46295E-01 -.45496E-01 -.37690E-01 -.25874E-01 -.14072E-01 -.57435E-02
 -.68732E-03 -.21830E-02 -.55032E-02 -.81279E-02 -.86361E-02 -.69454E-02 -.40152E-02 -.14268E-02 -.10776E-02 -.48176E-02
 -.13726E-01 -.27130E-01 -.42079E-01 -.54012E-01 -.58659E-01 -.54151E-01 -.42041E-01 -.26562E-01 -.12618E-01 -.36848E-02
 0.12185E-02 0.47553E-03 -.11760E-02 -.22293E-02 -.21392E-02 -.11021E-02 0.11457E-03 0.20163E-03 -.25617E-02 -.97808E-02
 -.21985E-01 -.37650E-01 -.52985E-01 -.63057E-01 -.64016E-01 -.55195E-01 -.39652E-01 -.22655E-01 -.90578E-02 -.12470E-02
 0.20064E-02 0.17452E-02 0.86084E-03 0.11259E-03 -.40223E-04 0.47442E-03 0.96495E-03 -.16867E-03 -.49410E-02 -.14711E-01
 -.29018E-01 -.45010E-01 -.58045E-01 -.63550E-01 -.59317E-01 -.46821E-01 -.30522E-01 -.15500E-01 -.50316E-02 0.34594E-03
 0.11981E-02 0.84356E-03 0.16353E-03 -.29459E-03 -.61120E-04 0.78751E-03 0.11477E-02 -.96498E-03 -.74515E-02 -.18786E-01
 -.33107E-01 -.46458E-01 -.54343E-01 -.53892E-01 -.45400E-01 -.32161E-01 -.18647E-01 -.82579E-02 -.21093E-02 0.57429E-03
 -.88683E-03 -.15223E-02 -.17904E-02 -.14320E-02 -.43072E-03 0.68988E-03 0.65030E-03 -.22670E-02 -.92369E-02 -.19743E-01
 -.31161E-01 -.39663E-01 -.42107E-01 -.37714E-01 -.28424E-01 -.17712E-01 -.87518E-02 -.31241E-02 -.68881E-03 -.33876E-03
 -.33700E-02 -.39658E-02 -.36082E-02 -.25733E-02 -.12760E-02 -.26810E-03 -.43079E-03 -.28600E-02 -.81526E-02 -.15543E-01
 -.22770E-01 -.27073E-01 -.26722E-01 -.21957E-01 -.14739E-01 -.76223E-02 -.25769E-02 -.36378E-03 -.54977E-03 -.19687E-02
 -.55098E-02 -.58076E-02 -.50670E-02 -.38000E-02 -.23912E-02 -.11355E-02 -.55522E-03 -.14188E-02 -.41956E-02 -.83931E-02
 -.12492E-01 -.14694E-01 -.13957E-01 -.10563E-01 -.59135E-02 -.18026E-02 0.38838E-03 0.23363E-03 -.16380E-02 -.39500E-02
 -.70086E-02 -.69893E-02 -.59497E-02 -.42705E-02 -.23311E-02 -.53113E-03 0.61673E-03 0.58025E-03 -.84371E-03 -.31930E-02
 -.53946E-02 -.63057E-02 -.54041E-02 -.31313E-02 -.64625E-03 0.82422E-03 0.61132E-03 -.11314E-02 -.36024E-02 -.58044E-02
 0.20405E-03 0.34903E-03 0.42851E-03 0.43205E-03 0.39512E-03 0.32809E-03 0.20546E-03 0.37861E-04 -.82794E-04 -.54866E-04
 0.11403E-03 0.29194E-03 0.34555E-03 0.26375E-03 0.14285E-03 0.66419E-04 0.33702E-04 0.96204E-05 0.47797E-05 0.67351E-04
 0.19976E-03 0.31301E-03 0.67883E-03 0.10268E-02 0.94708E-03 0.27326E-03 -.71963E-03 -.14769E-02 -.15454E-02 -.87797E-03
 0.14160E-03 0.94353E-03 0.11223E-02 0.67808E-03 -.61070E-05 -.44880E-03 -.42083E-03 -.83473E-04 0.20822E-03 0.25830E-03
 -.43012E-04 0.68830E-04 0.47148E-03 0.73291E-03 0.48912E-03 -.22205E-03 -.10135E-02 -.14731E-02 -.14278E-02 -.97861E-03
 -.38896E-03 0.49151E-04 0.15243E-03 -.29579E-04 -.22067E-03 -.13888E-03 0.22156E-03 0.55368E-03 0.54393E-03 0.22219E-03
 -.15341E-03 -.18084E-03 -.13447E-03 -.10293E-03 -.99226E-04 -.12764E-03 -.28311E-03 -.69840E-03 -.13523E-02 -.19712E-02
 -.21903E-02 -.18439E-02 -.10907E-02 -.26328E-03 0.37635E-03 0.73549E-03 0.82144E-03 0.66878E-03 0.35740E-03 0.35570E-04
 0.20016E-03 -.14578E-03 -.52694E-03 -.65370E-03 -.48224E-03 -.30705E-03 -.53934E-03 -.13433E-02 -.24335E-02 -.32140E-02
 -.31735E-02 -.22466E-02 -.87375E-03 0.28784E-03 0.79282E-03 0.66211E-03 0.28681E-03 0.76523E-04 0.14445E-03 0.27896E-03
 0.67483E-03 0.14764E-03 -.47780E-03 -.99671E-03 -.14437E-02 -.19434E-02 -.25004E-02 -.29560E-02 -.31031E-02 -.28106E-02
 -.20878E-02 -.11160E-02 -.23335E-03 0.21160E-03 0.11307E-03 -.25460E-03 -.42314E-03 -.13367E-03 0.42455E-03 0.79495E-03
 0.74737E-03 0.40541E-03 -.33163E-03 -.14735E-02 -.27911E-02 -.38046E-02 -.40604E-02 -.34868E-02 -.24639E-02 -.15160E-02
 -.93233E-03 -.66955E-03 -.55039E-03 -.47103E-03 -.40791E-03 -.31460E-03 -.11072E-03 0.21745E-03 0.56352E-03 0.77572E-03
 0.45158E-03 0.41777E-03 -.29028E-03 -.16236E-02 -.30633E-02 -.39385E-02 -.38896E-02 -.31084E-02 -.21564E-02 -.15199E-02
 -.12778E-02 -.11420E-02 -.79084E-03 -.17981E-03 0.42933E-03 0.71414E-03 0.57869E-03 0.24014E-03 0.48046E-04 0.17953E-03
 0.95886E-04 0.13721E-03 -.28113E-03 -.10945E-02 -.20493E-02 -.28551E-02 -.32915E-02 -.32730E-02 -.28701E-02 -.22468E-02
 -.15290E-02 -.73182E-03 0.14954E-03 0.97511E-03 0.14462E-02 0.13305E-02 0.72214E-03 0.37652E-04 -.29652E-03 -.18312E-03
 -.27502E-03 -.40530E-03 -.46301E-03 -.68642E-03 -.13152E-02 -.22844E-02 -.31361E-02 -.33261E-02 -.26697E-02 -.14859E-02
 -.30841E-03 0.52023E-03 0.98354E-03 0.12149E-02 0.12908E-02 0.12082E-02 0.97916E-03 0.66339E-03 0.31948E-03 -.13163E-04
 -.58190E-03 -.96729E-03 -.10193E-02 -.11213E-02 -.15329E-02 -.20891E-02 -.23097E-02 -.18407E-02 -.80959E-03 0.25070E-03
 0.83142E-03 0.83337E-03 0.58687E-03 0.53975E-03 0.90373E-03 0.15165E-02 0.19717E-02 0.19001E-02 0.12280E-02 0.24627E-03
 -.41691E-03 -.10812E-02 -.14928E-02 -.16570E-02 -.15523E-02 -.11772E-02 -.60888E-03 -.27100E-05 0.46394E-03 0.66582E-03
 0.60059E-03 0.42742E-03 0.41589E-03 0.77987E-03 0.14880E-02 0.22228E-02 0.25674E-02 0.22907E-02 0.14910E-02 0.48754E-03
 0.30281E-03 -.54470E-03 -.12001E-02 -.12827E-02 -.79027E-03 -.14310E-03 0.18969E-03 0.10885E-03 -.73901E-04 0.21162E-04
 0.49880E-03 0.11624E-02 0.17386E-02 0.20701E-02 0.21379E-02 0.20037E-02 0.17729E-02 0.15467E-02 0.13238E-02 0.95783E-03
 0.88142E-03 0.20644E-03 -.31552E-03 -.40914E-03 -.22773E-03 -.16528E-03 -.40322E-03 -.67274E-03 -.49189E-03 0.36118E-03
 0.16056E-02 0.26530E-02 0.30259E-02 0.26451E-02 0.18233E-02 0.10465E-02 0.69636E-03 0.83661E-03 0.11738E-02 0.12665E-02
 0.71080E-03 0.55806E-03 0.29617E-03 -.19980E-04 -.31937E-03 -.51780E-03 -.51159E-03 -.19748E-03 0.45856E-03 0.13427E-02
 0.21889E-02 0.26936E-02 0.26868E-02 0.22334E-02 0.15833E-02 0.10146E-02 0.68938E-03 0.60981E-03 0.66933E-03 0.73544E-03
 0.14635E-03 0.42842E-03 0.31532E-03 -.30417E-04 -.19445E-03 0.59927E-04 0.57459E-03 0.99118E-03 0.11126E-02 0.10540E-02
 0.10821E-02 0.13588E-02 0.18237E-02 0.22456E-02 0.23484E-02 0.19567E-02 0.11369E-02 0.23718E-03 -.29524E-03 -.25106E-03
 -.10577E-03 0.20591E-03 0.20183E-03 0.14463E-03 0.34458E-03 0.77264E-03 0.10748E-02 0.95211E-03 0.48553E-03 0.86105E-04
 0.15802E-03 0.80128E-03 0.17555E-02 0.25475E-02 0.27271E-02 0.21129E-02 0.94875E-03 -.18360E-03 -.73328E-03 -.58241E-03
 -.13091E-05 0.14414E-03 0.24029E-03 0.28140E-03 0.28331E-03 0.25255E-03 0.20621E-03 0.19885E-03 0.30157E-03 0.54455E-03
 0.88514E-03 0.12311E-02 0.14848E-02 0.15674E-02 0.14278E-02 0.10710E-02 0.59014E-03 0.14993E-03 -.10092E-03 -.12378E-03
 0.81557E-04 0.18805E-03 0.24502E-03 -.11411E-05 -.44727E-03 -.68308E-03 -.36476E-03 0.45664E-03 0.13514E-02 0.18256E-02
 0.16477E-02 0.96381E-03 0.18200E-03 -.26830E-03 -.18107E-03 0.29814E-03 0.76830E-03 0.87376E-03 0.58915E-03 0.21857E-03
 0.10467E-03 0.26464E-03 0.22331E-03 -.13908E-03 -.51809E-03 -.47052E-03 0.13934E-03 0.99218E-03 0.15745E-02 0.15559E-02
 0.96449E-03 0.11555E-03 -.56828E-03 -.75096E-03 -.36673E-03 0.30012E-03 0.77838E-03 0.77216E-03 0.41081E-03 0.10246E-03
 0.80340E-02 0.78342E-02 0.62816E-02 0.38503E-02 0.14322E-02 -.20097E-03 -.72964E-03 -.22127E-03 0.10230E-02 0.24533E-02
 0.32949E-02 0.29273E-02 0.14326E-02 -.29504E-03 -.11480E-02 -.59871E-03 0.10669E-02 0.31972E-02 0.52898E-02 0.70311E-02
 0.75594E-02 0.65726E-02 0.48641E-02 0.28484E-02 0.96413E-03 -.29506E-03 -.42411E-03 0.83463E-03 0.31369E-02 0.54579E-02
 0.65516E-02 0.57353E-02 0.34025E-02 0.81955E-03 -.65796E-03 -.35385E-03 0.14836E-02 0.39915E-02 0.62128E-02 0.74819E-02
 0.55118E-02 0.40685E-02 0.25335E-02 0.11841E-02 0.55795E-03 0.14633E-02 0.43646E-02 0.86778E-02 0.12764E-01 0.14793E-01
 0.13822E-01 0.10296E-01 0.57175E-02 0.18634E-02 0.16453E-04 0.49102E-03 0.25728E-02 0.49358E-02 0.63873E-02 0.64754E-02
 0.30554E-02 0.16267E-02 0.46506E-03 0.42873E-03 0.27449E-02 0.81556E-02 0.15834E-01 0.23251E-01 0.27433E-01 0.26717E-01
 0.21630E-01 0.14358E-01 0.74427E-02 0.27054E-02 0.80177E-03 0.12749E-02 0.29179E-02 0.43894E-02 0.48625E-02 0.42809E-02
 0.13902E-02 0.15305E-03 -.12163E-03 0.23851E-02 0.90978E-02 0.19665E-01 0.31366E-01 0.40107E-01 0.42566E-01 0.38013E-01
 0.28545E-01 0.17722E-01 0.87072E-02 0.30765E-02 0.74418E-03 0.62996E-03 0.14669E-02 0.23204E-02 0.26950E-02 0.23839E-02
 0.35166E-03 -.28800E-03 0.13994E-02 0.74762E-02 0.18606E-01 0.33029E-01 0.46736E-01 0.55039E-01 0.54849E-01 0.46329E-01
 0.32795E-01 0.18879E-01 0.81787E-02 0.19455E-02 -.58863E-03 -.91887E-03 -.23684E-03 0.73298E-03 0.14069E-02 0.12740E-02
 -.40825E-03 0.43772E-03 0.50425E-02 0.14788E-01 0.29210E-01 0.45479E-01 0.58932E-01 0.64825E-01 0.60696E-01 0.47898E-01
 0.31068E-01 0.15638E-01 0.51083E-02 -.36810E-04 -.13889E-02 -.89523E-03 0.13448E-03 0.96193E-03 0.10863E-02 0.38459E-03
 -.22617E-03 0.25249E-02 0.10005E-01 0.22600E-01 0.38651E-01 0.54315E-01 0.64603E-01 0.65536E-01 0.56357E-01 0.40260E-01
 0.22844E-01 0.92268E-02 0.17506E-02 -.31180E-03 0.65985E-03 0.23386E-02 0.33086E-02 0.30535E-02 0.17288E-02 0.14031E-03
 0.11925E-02 0.50592E-02 0.14328E-01 0.28208E-01 0.43576E-01 0.55720E-01 0.60278E-01 0.55397E-01 0.42777E-01 0.26883E-01
 0.12794E-01 0.39922E-02 0.12421E-02 0.29269E-02 0.63161E-02 0.89312E-02 0.93904E-02 0.75892E-02 0.44616E-02 0.16496E-02
 0.25567E-02 0.62628E-02 0.15729E-01 0.28695E-01 0.40846E-01 0.47695E-01 0.46775E-01 0.38713E-01 0.26642E-01 0.14623E-01
 0.60883E-02 0.28749E-02 0.48579E-02 0.10137E-01 0.15821E-01 0.19219E-01 0.18900E-01 0.15085E-01 0.93902E-02 0.43009E-02
 0.26423E-02 0.54375E-02 0.13451E-01 0.23389E-01 0.31082E-01 0.33513E-01 0.30115E-01 0.22618E-01 0.13926E-01 0.69818E-02
 0.40612E-02 0.62696E-02 0.13035E-01 0.21977E-01 0.29638E-01 0.32940E-01 0.30538E-01 0.23315E-01 0.13959E-01 0.60066E-02
 0.19505E-02 0.35927E-02 0.89448E-02 0.15000E-01 0.18952E-01 0.19231E-01 0.15927E-01 0.10574E-01 0.55783E-02 0.35182E-02
 0.63387E-02 0.14479E-01 0.26265E-01 0.38128E-01 0.45877E-01 0.46548E-01 0.39802E-01 0.28078E-01 0.15461E-01 0.59477E-02
 0.13857E-02 0.18584E-02 0.44501E-02 0.73286E-02 0.89776E-02 0.84267E-02 0.57435E-02 0.24109E-02 0.10233E-02 0.42025E-02
 0.13228E-01 0.27076E-01 0.42366E-01 0.54385E-01 0.58957E-01 0.54391E-01 0.42397E-01 0.27278E-01 0.13771E-01 0.49431E-02
 0.67344E-03 0.48323E-03 0.13743E-02 0.23905E-02 0.26638E-02 0.16017E-02 -.37555E-03 -.14197E-02 0.11262E-02 0.92901E-02
 0.23082E-01 0.39931E-01 0.55270E-01 0.64165E-01 0.63481E-01 0.53523E-01 0.38022E-01 0.22215E-01 0.10193E-01 0.33300E-02
 -.43060E-03 -.30958E-03 0.11057E-03 0.24023E-03 -.21878E-03 -.11912E-02 -.18369E-02 -.43000E-03 0.50544E-02 0.15769E-01
 0.30845E-01 0.47005E-01 0.59446E-01 0.63838E-01 0.58512E-01 0.45458E-01 0.29347E-01 0.15091E-01 0.55672E-02 0.92440E-03
 -.75291E-03 0.14320E-03 0.54622E-03 0.31232E-03 -.19897E-03 -.51595E-03 0.25411E-04 0.25874E-02 0.86563E-02 0.19031E-01
 0.32556E-01 0.45785E-01 0.54229E-01 0.54621E-01 0.46703E-01 0.33357E-01 0.19056E-01 0.77104E-02 0.11580E-02 -.10525E-02
 0.79844E-03 0.19467E-02 0.21522E-02 0.17321E-02 0.12426E-02 0.10235E-02 0.15074E-02 0.37409E-02 0.91032E-02 0.18042E-01
 0.28916E-01 0.38241E-01 0.42429E-01 0.39782E-01 0.31317E-01 0.20066E-01 0.95459E-02 0.23252E-02 -.77346E-03 -.66067E-03
 0.34454E-02 0.42287E-02 0.40632E-02 0.32141E-02 0.20413E-02 0.97870E-03 0.83805E-03 0.28075E-02 0.77094E-02 0.14981E-01
 0.22412E-01 0.27149E-01 0.27306E-01 0.22965E-01 0.15947E-01 0.87216E-02 0.33089E-02 0.65770E-03 0.55129E-03 0.19184E-02
 0.57043E-02 0.61693E-02 0.55890E-02 0.39333E-02 0.17074E-02 -.65644E-04 -.22513E-03 0.19167E-02 0.60523E-02 0.10806E-01
 0.14280E-01 0.15021E-01 0.12815E-01 0.87886E-02 0.47065E-02 0.19851E-02 0.10992E-02 0.16804E-02 0.30276E-02 0.45224E-02
 0.72072E-02 0.75082E-02 0.64262E-02 0.40739E-02 0.13958E-02 -.36075E-03 -.42450E-03 0.11200E-02 0.34966E-02 0.56349E-02
 0.65573E-02 0.57699E-02 0.35957E-02 0.11301E-02 -.37427E-03 -.31136E-03 0.99609E-03 0.27789E-02 0.45068E-02 0.60390E-02
 0.29887E-04 0.70582E-03 0.85255E-03 0.54146E-03 0.30079E-03 0.39567E-03 0.53642E-03 0.37012E-03 0.29037E-04 -.41792E-04
 0.27289E-03 0.56038E-03 0.41917E-03 -.68490E-05 -.24154E-03 -.13909E-03 -.66269E-04 -.34023E-03 -.70771E-03 -.62026E-03
 0.13344E-03 0.32769E-03 0.50613E-03 0.66985E-03 0.70602E-03 0.42476E-03 -.17448E-03 -.70524E-03 -.62026E-03 0.25119E-03
 0.14203E-02 0.20892E-02 0.18301E-02 0.91117E-03 -.25135E-04 -.53456E-03 -.61098E-03 -.47650E-03 -.28854E-03 -.80951E-04
 -.53720E-03 -.62152E-03 -.18164E-03 0.29430E-03 0.39691E-03 0.20655E-03 0.12678E-03 0.42793E-03 0.10351E-02 0.16811E-02
 0.21137E-02 0.21437E-02 0.16681E-02 0.81509E-03 0.23685E-04 -.22055E-03 0.14643E-03 0.62814E-03 0.62685E-03 0.63990E-04
 -.85508E-03 -.77598E-03 -.34090E-03 0.75453E-04 0.54420E-03 0.13783E-02 0.24844E-02 0.32295E-02 0.30933E-02 0.22795E-02
 0.14798E-02 0.10948E-02 0.91898E-03 0.63201E-03 0.34303E-03 0.40829E-03 0.80409E-03 0.99161E-03 0.53915E-03 -.30263E-03
 0.59147E-04 0.54897E-05 0.78385E-05 0.37221E-03 0.14406E-02 0.30695E-02 0.44666E-02 0.47700E-02 0.38517E-02 0.24509E-02
 0.14560E-02 0.11234E-02 0.10525E-02 0.81403E-03 0.41891E-03 0.15066E-03 0.12643E-03 0.19042E-03 0.18093E-03 0.11403E-03
 0.92837E-03 0.48975E-03 0.32098E-03 0.83905E-03 0.19951E-02 0.33593E-02 0.44248E-02 0.48654E-02 0.46323E-02 0.39193E-02
 0.30345E-02 0.22124E-02 0.14800E-02 0.72211E-03 -.78824E-04 -.68382E-03 -.75222E-03 -.20687E-03 0.58210E-03 0.10505E-02
 0.55869E-03 0.41761E-03 0.73566E-03 0.13546E-02 0.20446E-02 0.29066E-02 0.41317E-02 0.54398E-02 0.60631E-02 0.54554E-02
 0.39017E-02 0.22501E-02 0.10854E-02 0.34511E-03 -.24711E-03 -.62645E-03 -.49063E-03 0.13641E-03 0.73925E-03 0.84315E-03
 -.38566E-04 0.74227E-03 0.16470E-02 0.22935E-02 0.27890E-02 0.36213E-02 0.49193E-02 0.60051E-02 0.59279E-02 0.44654E-02
 0.24361E-02 0.94173E-03 0.40421E-03 0.42438E-03 0.44020E-03 0.28583E-03 0.93488E-04 -.77438E-04 -.26661E-03 -.35013E-03
 0.20564E-03 0.13670E-02 0.24866E-02 0.34497E-02 0.42727E-02 0.49125E-02 0.51437E-02 0.46851E-02 0.34966E-02 0.19510E-02
 0.66649E-03 0.10242E-03 0.25223E-03 0.68385E-03 0.87239E-03 0.55154E-03 -.15195E-03 -.83907E-03 -.10938E-02 -.71347E-03
 0.33439E-03 0.10510E-02 0.22800E-02 0.37768E-02 0.47932E-02 0.47344E-02 0.37473E-02 0.25378E-02 0.16536E-02 0.10916E-02
 0.60442E-03 0.17426E-03 0.66931E-06 0.99743E-04 0.16355E-03 -.76213E-04 -.48428E-03 -.67918E-03 -.49777E-03 -.11512E-03
 -.44747E-03 -.10515E-03 0.12208E-02 0.28157E-02 0.36168E-02 0.32785E-02 0.24583E-02 0.19905E-02 0.19607E-02 0.17649E-02
 0.97639E-03 -.10839E-03 -.85041E-03 -.97371E-03 -.70606E-03 -.34482E-03 0.27276E-04 0.34233E-03 0.35752E-03 -.46067E-04
 -.77199E-03 -.46983E-03 0.44284E-03 0.14632E-02 0.21009E-02 0.22830E-02 0.22661E-02 0.22094E-02 0.19573E-02 0.12825E-02
 0.25830E-03 -.70813E-03 -.12074E-02 -.11291E-02 -.65073E-03 -.44773E-04 0.42964E-03 0.54187E-03 0.19189E-03 -.41133E-03
 0.41054E-03 0.37827E-03 0.37576E-03 0.72393E-03 0.13551E-02 0.17796E-02 0.15730E-02 0.83163E-03 0.64811E-04 -.32774E-03
 -.37420E-03 -.33953E-03 -.35999E-03 -.37149E-03 -.32395E-03 -.29445E-03 -.33317E-03 -.32132E-03 -.11325E-03 0.21575E-03
 0.15418E-02 0.10022E-02 0.46864E-03 0.53233E-03 0.89866E-03 0.77542E-03 -.10411E-03 -.10904E-02 -.13303E-02 -.69371E-03
 0.16871E-03 0.58115E-03 0.42325E-03 -.36012E-04 -.58105E-03 -.10897E-02 -.12802E-02 -.79462E-03 0.30111E-03 0.13199E-02
 0.10152E-02 0.65165E-03 0.36756E-03 0.35627E-03 0.32676E-03 -.34270E-04 -.57657E-03 -.81640E-03 -.51098E-03 0.56199E-04
 0.40729E-03 0.35577E-03 0.59191E-04 -.30408E-03 -.70200E-03 -.10564E-02 -.10884E-02 -.56765E-03 0.30557E-03 0.96257E-03
 -.61885E-04 0.23918E-03 0.24378E-03 0.12182E-03 0.17735E-03 0.49693E-03 0.82641E-03 0.81603E-03 0.36944E-03 -.26326E-03
 -.71128E-03 -.77176E-03 -.50745E-03 -.14506E-03 0.76308E-04 0.15348E-04 -.29785E-03 -.64819E-03 -.75562E-03 -.50184E-03
 -.12964E-04 0.33005E-03 0.11597E-03 -.39085E-04 0.42368E-03 0.12374E-02 0.15475E-02 0.87340E-03 -.36027E-03 -.12940E-02
 -.14588E-02 -.10150E-02 -.34150E-03 0.31933E-03 0.77083E-03 0.72464E-03 0.59455E-04 -.82433E-03 -.12071E-02 -.77555E-03
 0.54403E-03 0.32594E-03 -.10182E-03 -.20183E-03 0.16034E-03 0.50658E-03 0.32867E-03 -.28517E-03 -.77600E-03 -.79320E-03
 -.53398E-03 -.36253E-03 -.30373E-03 -.11064E-03 0.25542E-03 0.47999E-03 0.32660E-03 0.22563E-04 0.29400E-05 0.32078E-03
 0.31963E-03 0.91398E-04 -.75488E-04 -.28754E-03 -.55411E-03 -.72949E-03 -.60976E-03 -.13799E-03 0.45682E-03 0.75909E-03
 0.48093E-03 -.26243E-03 -.98521E-03 -.11804E-02 -.69861E-03 0.16189E-03 0.90759E-03 0.12041E-02 0.10476E-02 0.67080E-03
 -.15343E-03 0.28844E-03 0.43890E-03 0.11312E-04 -.54080E-03 -.55750E-03 0.79158E-04 0.85164E-03 0.11794E-02 0.91567E-03
 0.28548E-03 -.44078E-03 -.10391E-02 -.12277E-02 -.77623E-03 0.14665E-03 0.90848E-03 0.93556E-03 0.32721E-03 -.21430E-03
 -.77128E-02 -.61770E-02 -.43719E-02 -.26098E-02 -.71094E-03 0.10812E-02 0.18487E-02 0.93526E-03 -.10881E-02 -.27471E-02
 -.29943E-02 -.20160E-02 -.71660E-03 0.25559E-03 0.71169E-03 0.41044E-03 -.10786E-02 -.37198E-02 -.65014E-02 -.80271E-02
 -.70125E-02 -.56128E-02 -.35277E-02 -.12126E-02 0.62594E-03 0.10889E-02 -.32230E-03 -.30390E-02 -.55281E-02 -.63189E-02
 -.50740E-02 -.27074E-02 -.53754E-03 0.60279E-03 0.55021E-03 -.53713E-03 -.24087E-02 -.46208E-02 -.64871E-02 -.73647E-02
 -.63248E-02 -.49651E-02 -.25118E-02 -.32667E-03 0.15270E-03 -.17355E-02 -.55717E-02 -.10067E-01 -.13527E-01 -.14482E-01
 -.12427E-01 -.82539E-02 -.38440E-02 -.92140E-03 -.53787E-04 -.66292E-03 -.18941E-02 -.33332E-02 -.48728E-02 -.61266E-02
 -.45448E-02 -.28544E-02 -.87298E-03 -.36609E-03 -.25063E-02 -.73675E-02 -.14115E-01 -.21178E-01 -.26301E-01 -.27212E-01
 -.23055E-01 -.15418E-01 -.75738E-02 -.22916E-02 -.20334E-03 -.18285E-03 -.98394E-03 -.21847E-02 -.36633E-02 -.47656E-02
 -.11035E-02 0.50713E-04 0.47668E-04 -.25002E-02 -.83853E-02 -.17393E-01 -.28030E-01 -.37468E-01 -.42250E-01 -.40013E-01
 -.31229E-01 -.19340E-01 -.87686E-02 -.23065E-02 0.41744E-05 -.13579E-03 -.10449E-02 -.18910E-02 -.23445E-02 -.21082E-02
 0.16120E-02 0.12026E-02 -.14647E-02 -.77872E-02 -.18493E-01 -.32377E-01 -.45915E-01 -.54501E-01 -.54779E-01 -.46521E-01
 -.32793E-01 -.18330E-01 -.72063E-02 -.12094E-02 0.36362E-03 -.34384E-03 -.12189E-02 -.11810E-02 -.27696E-03 0.87625E-03
 0.15599E-02 -.24946E-04 -.50579E-02 -.15351E-01 -.30740E-01 -.47713E-01 -.60565E-01 -.64535E-01 -.58466E-01 -.45035E-01
 -.28884E-01 -.14411E-01 -.44252E-02 0.30284E-03 0.92707E-03 -.23120E-03 -.10276E-02 -.62891E-03 0.48087E-03 0.14295E-02
 0.99595E-04 -.18545E-02 -.89724E-02 -.22420E-01 -.40012E-01 -.56316E-01 -.65392E-01 -.64154E-01 -.53747E-01 -.38269E-01
 -.22380E-01 -.96052E-02 -.17564E-02 0.11119E-02 0.46835E-03 -.14529E-02 -.28100E-02 -.28974E-02 -.19496E-02 -.59429E-03
 -.91689E-03 -.34764E-02 -.12192E-01 -.26394E-01 -.42488E-01 -.55185E-01 -.59972E-01 -.55315E-01 -.43240E-01 -.28066E-01
 -.14298E-01 -.49379E-02 -.87123E-03 -.12011E-02 -.40222E-02 -.72178E-02 -.90708E-02 -.86585E-02 -.61027E-02 -.27212E-02
 -.20911E-02 -.55082E-02 -.14225E-01 -.26252E-01 -.38273E-01 -.46392E-01 -.47446E-01 -.40647E-01 -.28444E-01 -.15497E-01
 -.62275E-02 -.27285E-02 -.44300E-02 -.92220E-02 -.14659E-01 -.18492E-01 -.18988E-01 -.15607E-01 -.96696E-02 -.41061E-02
 -.37653E-02 -.69992E-02 -.13873E-01 -.22240E-01 -.29598E-01 -.33187E-01 -.30946E-01 -.23118E-01 -.12869E-01 -.48042E-02
 -.23371E-02 -.60317E-02 -.13937E-01 -.22979E-01 -.30051E-01 -.32617E-01 -.29481E-01 -.21681E-01 -.12443E-01 -.56433E-02
 -.36985E-02 -.57050E-02 -.10387E-01 -.15473E-01 -.18803E-01 -.18719E-01 -.14796E-01 -.84836E-02 -.28354E-02 -.11565E-02
 -.53657E-02 -.15073E-01 -.27703E-01 -.39372E-01 -.46168E-01 -.45628E-01 -.37929E-01 -.26016E-01 -.14253E-01 -.63129E-02
 -.71832E-03 -.19791E-02 -.53119E-02 -.80559E-02 -.86552E-02 -.70455E-02 -.42136E-02 -.16249E-02 -.10457E-02 -.44314E-02
 -.13175E-01 -.26777E-01 -.42080E-01 -.54162E-01 -.58666E-01 -.54018E-01 -.42062E-01 -.26944E-01 -.13196E-01 -.40859E-02
 0.22989E-02 0.96761E-03 -.13463E-02 -.24348E-02 -.19753E-02 -.95969E-03 -.38556E-03 -.87170E-03 -.34479E-02 -.99629E-02
 -.21797E-01 -.37754E-01 -.53459E-01 -.63340E-01 -.63748E-01 -.54741E-01 -.39570E-01 -.22858E-01 -.88768E-02 -.35159E-03
 0.23679E-02 0.13411E-02 0.26696E-03 0.91681E-04 0.51631E-03 0.85286E-03 0.59174E-03 -.10139E-02 -.55462E-02 -.14823E-01
 -.29029E-01 -.45284E-01 -.58394E-01 -.63556E-01 -.58981E-01 -.46560E-01 -.30520E-01 -.15391E-01 -.44249E-02 0.11898E-02
 0.54478E-03 0.26897E-03 -.79047E-04 -.88350E-04 0.48870E-03 0.14255E-02 0.16411E-02 -.69247E-03 -.73209E-02 -.18675E-01
 -.32962E-01 -.46322E-01 -.54290E-01 -.53956E-01 -.45541E-01 -.32307E-01 -.18768E-01 -.84098E-02 -.24052E-02 0.63746E-04
 -.87974E-03 -.12254E-02 -.18021E-02 -.17479E-02 -.45069E-03 0.13375E-02 0.15807E-02 -.17213E-02 -.92035E-02 -.19739E-01
 -.30825E-01 -.39258E-01 -.42114E-01 -.38129E-01 -.28765E-01 -.17728E-01 -.88098E-02 -.37017E-02 -.16455E-02 -.10020E-02
 -.23462E-02 -.34481E-02 -.41382E-02 -.36072E-02 -.18502E-02 -.12808E-03 -.19258E-03 -.30887E-02 -.86424E-02 -.15711E-01
 -.22518E-01 -.26892E-01 -.26932E-01 -.22227E-01 -.14582E-01 -.71451E-02 -.23684E-02 -.62512E-03 -.70773E-03 -.14059E-02
 -.49594E-02 -.58215E-02 -.56365E-02 -.45421E-02 -.29580E-02 -.15189E-02 -.94945E-03 -.18821E-02 -.45710E-02 -.85490E-02
 -.12505E-01 -.14717E-01 -.13975E-01 -.10413E-01 -.55345E-02 -.13483E-02 0.76081E-03 0.59950E-03 -.10766E-02 -.32134E-02
 -.73151E-02 -.67332E-02 -.54293E-02 -.40357E-02 -.25179E-02 -.75856E-03 0.69739E-03 0.84507E-03 -.76006E-03 -.33664E-02
 -.55320E-02 -.61977E-02 -.52370E-02 -.32056E-02 -.91258E-03 0.72196E-03 0.81639E-03 -.94986E-03 -.38371E-02 -.63472E-02
 0.38103E-03 0.15552E-02 0.16842E-02 0.96293E-03 0.44433E-03 0.64151E-03 0.95967E-03 0.64751E-03 -.10784E-03 -.44864E-03
 -.55815E-04 0.41141E-03 0.24615E-03 -.33235E-03 -.53371E-03 -.16382E-03 0.75754E-04 -.37627E-03 -.10149E-02 -.81860E-03
 0.62756E-03 0.95169E-03 0.98150E-03 0.90497E-03 0.82169E-03 0.46582E-03 -.42408E-03 -.15221E-02 -.19966E-02 -.13447E-02
 -.24345E-04 0.93510E-03 0.94652E-03 0.34287E-03 -.15923E-03 -.26314E-03 -.20732E-03 -.22389E-03 -.18200E-03 0.13699E-03
 -.51137E-03 -.61980E-03 -.63766E-04 0.39536E-03 0.14051E-03 -.73370E-03 -.16527E-02 -.21596E-02 -.21648E-02 -.17564E-02
 -.10431E-02 -.24867E-03 0.26032E-03 0.28427E-03 0.99650E-04 0.23743E-03 0.84329E-03 0.13936E-02 0.12278E-02 0.34352E-03
 -.11184E-02 -.72243E-03 0.22307E-05 0.79444E-04 -.50943E-03 -.10493E-02 -.12434E-02 -.16083E-02 -.25655E-02 -.35725E-02
 -.36126E-02 -.24604E-02 -.10062E-02 -.17110E-03 0.13677E-03 0.63502E-03 0.14404E-02 0.17562E-02 0.95791E-03 -.40493E-03
 0.25465E-03 0.54417E-03 0.36522E-03 -.31936E-03 -.97155E-03 -.12819E-02 -.17154E-02 -.29129E-02 -.46332E-02 -.56836E-02
 -.51041E-02 -.32316E-02 -.13506E-02 -.37330E-03 -.13121E-03 0.27976E-04 0.30612E-03 0.40010E-03 0.19096E-03 0.41309E-04
 0.13968E-02 0.70395E-03 -.29300E-03 -.13013E-02 -.23188E-02 -.34686E-02 -.47032E-02 -.56982E-02 -.60202E-02 -.54087E-02
 -.39737E-02 -.22065E-02 -.77822E-03 -.18191E-03 -.40524E-03 -.90391E-03 -.98550E-03 -.35066E-03 0.66919E-03 0.14039E-02
 0.43815E-03 -.41437E-03 -.11679E-02 -.23586E-02 -.43527E-02 -.64736E-02 -.74689E-02 -.68133E-02 -.52032E-02 -.36649E-02
 -.24972E-02 -.13719E-02 -.25207E-03 0.31204E-03 -.24522E-04 -.68944E-03 -.69833E-03 0.17265E-03 0.10904E-02 0.11650E-02
 -.62960E-03 -.56096E-03 -.93413E-03 -.25975E-02 -.52328E-02 -.73073E-02 -.75305E-02 -.61404E-02 -.44771E-02 -.34247E-02
 -.26598E-02 -.14948E-02 -.29285E-04 0.92924E-03 0.94438E-03 0.48340E-03 0.22918E-03 0.22406E-03 0.40413E-04 -.39033E-03
 0.43122E-04 0.29620E-03 -.41406E-03 -.21707E-02 -.43156E-02 -.58996E-02 -.63864E-02 -.59361E-02 -.50473E-02 -.40173E-02
 -.28078E-02 -.13628E-02 0.87940E-04 0.11096E-02 0.13989E-02 0.99588E-03 0.22283E-03 -.49796E-03 -.79968E-03 -.53531E-03
 0.53865E-03 -.18442E-03 -.10846E-02 -.19770E-02 -.31228E-02 -.45801E-02 -.56984E-02 -.56153E-02 -.42379E-02 -.24422E-02
 -.11770E-02 -.57357E-03 -.12513E-03 0.42110E-03 0.71142E-03 0.40392E-03 -.17996E-03 -.34156E-03 0.12142E-03 0.63476E-03
 -.76692E-03 -.19424E-02 -.22609E-02 -.22075E-02 -.27307E-02 -.38142E-02 -.42660E-02 -.31340E-02 -.99062E-03 0.57744E-03
 0.66626E-03 -.13576E-03 -.68188E-03 -.58989E-03 -.31399E-03 -.17552E-03 0.94781E-04 0.69366E-03 0.10992E-02 0.57743E-03
 -.15337E-02 -.22014E-02 -.22717E-02 -.22088E-02 -.23479E-02 -.23628E-02 -.16586E-02 -.23101E-03 0.11116E-02 0.14961E-02
 0.83338E-03 -.19159E-03 -.86783E-03 -.10032E-02 -.76572E-03 -.28955E-03 0.32659E-03 0.76025E-03 0.55151E-03 -.39020E-03
 0.21073E-03 -.45337E-03 -.12720E-02 -.16136E-02 -.12692E-02 -.65011E-03 -.27464E-03 -.19981E-03 -.99187E-04 0.18031E-03
 0.36290E-03 0.12308E-03 -.43889E-03 -.87513E-03 -.90340E-03 -.66504E-03 -.43043E-03 -.22868E-03 0.60131E-04 0.32840E-03
 0.19778E-02 0.68915E-03 -.56442E-03 -.73955E-03 -.18769E-03 -.99576E-04 -.91234E-03 -.17320E-02 -.14912E-02 -.31548E-03
 0.63456E-03 0.54700E-03 -.24411E-03 -.91872E-03 -.11902E-02 -.12981E-02 -.12260E-02 -.52659E-03 0.86120E-03 0.20514E-02
 0.11311E-02 0.20055E-03 -.27477E-03 -.25596E-04 0.26340E-03 -.90310E-04 -.82752E-03 -.10590E-02 -.41921E-03 0.44130E-03
 0.63402E-03 0.41317E-04 -.69789E-03 -.10577E-02 -.11137E-02 -.10995E-02 -.85331E-03 -.69708E-04 0.10061E-02 0.15669E-02
 -.44006E-03 -.81858E-04 0.13380E-03 0.23722E-03 0.41992E-03 0.76390E-03 0.11038E-02 0.11667E-02 0.82236E-03 0.18804E-03
 -.46758E-03 -.88678E-03 -.92915E-03 -.62161E-03 -.17036E-03 0.11878E-03 0.38479E-04 -.33693E-03 -.68807E-03 -.72441E-03
 -.31377E-04 0.57692E-03 0.26777E-03 -.96480E-04 0.39185E-03 0.14716E-02 0.20024E-02 0.13392E-02 0.37643E-04 -.88635E-03
 -.10527E-02 -.80255E-03 -.43767E-03 0.12590E-03 0.84028E-03 0.11181E-02 0.40467E-03 -.92297E-03 -.16927E-02 -.11931E-02
 0.11106E-02 0.76363E-03 -.18797E-03 -.66399E-03 -.22280E-03 0.43163E-03 0.42131E-03 -.19490E-03 -.61344E-03 -.41107E-03
 -.21486E-04 0.16864E-04 -.12098E-03 0.13828E-03 0.79630E-03 0.11226E-02 0.63309E-03 -.13599E-03 -.22168E-03 0.50587E-03
 0.76813E-03 0.32258E-03 -.19251E-03 -.64415E-03 -.94789E-03 -.10304E-02 -.77016E-03 -.11618E-03 0.69757E-03 0.11759E-02
 0.95079E-03 0.17919E-03 -.52406E-03 -.61446E-03 -.76040E-04 0.65016E-03 0.11317E-02 0.12718E-02 0.12133E-02 0.10564E-02
 -.12430E-04 0.70836E-03 0.88960E-03 0.18877E-03 -.64707E-03 -.65436E-03 0.24592E-03 0.12310E-02 0.15380E-02 0.11529E-02
 0.52195E-03 -.83519E-04 -.63418E-03 -.94589E-03 -.65587E-03 0.22723E-03 0.10281E-02 0.10114E-02 0.27076E-03 -.29115E-03
 0.80094E-02 0.88595E-02 0.74046E-02 0.42981E-02 0.14265E-02 0.62587E-04 -.20007E-04 0.37929E-03 0.10607E-02 0.21989E-02
 0.32982E-02 0.31873E-02 0.13966E-02 -.90079E-03 -.18696E-02 -.87763E-03 0.10564E-02 0.27295E-02 0.41364E-02 0.59625E-02
 0.78103E-02 0.70723E-02 0.50772E-02 0.26713E-02 0.79633E-03 -.13135E-03 -.10913E-03 0.90594E-03 0.29209E-02 0.53096E-02
 0.67047E-02 0.59633E-02 0.33438E-02 0.50406E-03 -.83904E-03 -.20934E-03 0.16415E-02 0.37583E-02 0.56791E-02 0.71816E-02