unknown system                          
   1.00000000000000     
     2.573869    0.000000    0.000000
     1.286934    2.229036    0.000000
     0.000000    0.000000   30.304665
   Cu   H 
     4     1
Direct
  0.000000  0.000000  0.395979
  0.333333  0.333333  0.465326
  0.666667  0.666667  0.534674
  0.000000  0.000000  0.604021
  0.310902  0.378196  0.637020
 
   20   20  240
 -.76792524496E-02 -.71965165339E-02 -.55002939343E-02 -.30684976509E-02 -.70996311263E-03
 0.82205989821E-03 0.11443136463E-02 0.33387215349E-03 -.11284514069E-02 -.24886632973E-02
 -.29870335663E-02 -.22683619822E-02 -.68233458411E-03 0.85558049004E-03 0.14329855054E-02
 0.69471545251E-03 -.10661769343E-02 -.32586390458E-02 -.53561501392E-02 -.69579064611E-02
 -.72608090112E-02 -.61108507587E-02 -.37430217182E-02 -.10381085575E-02 0.79550917727E-03
 0.93062767226E-03 -.63256328682E-03 -.31077121749E-02 -.53075002690E-02 -.61600704802E-02
 -.52132604089E-02 -.29249683247E-02 -.47499435995E-03 0.91926908976E-03 0.73370141064E-03
 -.67911027782E-03 -.25688437715E-02 -.43956137574E-02 -.59614942306E-02 -.70667388993E-02
 -.57411786505E-02 -.41950937565E-02 -.19229793040E-02 0.48302621764E-04 0.50605273691E-03
 -.13132348434E-02 -.51986780029E-02 -.98727576444E-02 -.13475481061E-01 -.14464802688E-01
 -.12455719288E-01 -.84442846740E-02 -.42151651004E-02 -.13240114186E-02 -.37076503781E-03
 -.10040184857E-02 -.24641107435E-02 -.40927401111E-02 -.54417411845E-02 -.61171246349E-02
 -.35188740171E-02 -.22658765871E-02 -.97445233456E-03 -.55639253443E-03 -.22380547643E-02
 -.68539603668E-02 -.13935994067E-01 -.21424179318E-01 -.26482322140E-01 -.27005352268E-01
 -.22789727505E-01 -.15581925105E-01 -.80649968929E-02 -.25243943239E-02 0.29357458033E-04
 -.45397476953E-04 -.15526466062E-02 -.32073108753E-02 -.41860779730E-02 -.42489999873E-02
 -.11147011357E-02 -.59704252149E-03 -.84083079150E-03 -.29783195540E-02 -.83631177004E-02
 -.17385263279E-01 -.28396335805E-01 -.37907941731E-01 -.42242235258E-01 -.39557690132E-01
 -.30846580004E-01 -.19324527889E-01 -.87576750607E-02 -.17873808199E-02 0.93311078699E-03
 0.54263275339E-03 -.10172243319E-02 -.21675767343E-02 -.23443176723E-02 -.18267970661E-02
 0.94010622755E-03 0.68103163360E-03 -.17382299772E-02 -.78942887075E-02 -.18591277123E-01
 -.32549965092E-01 -.46105484465E-01 -.54583899024E-01 -.54688692481E-01 -.46320049611E-01
 -.32606666484E-01 -.18210696968E-01 -.70717376550E-02 -.90627836716E-03 0.91271894561E-03
 0.35235551533E-03 -.62241511699E-03 -.93875471217E-03 -.49635416758E-03 0.30251303554E-03
 0.19161219611E-02 0.78111009004E-03 -.44869327138E-02 -.15252955320E-01 -.30732438573E-01
 -.47447637896E-01 -.60230938951E-01 -.64538078580E-01 -.58799193850E-01 -.45286202965E-01
 -.28871715904E-01 -.14495028858E-01 -.49897088573E-02 -.49625482394E-03 0.58652604025E-03
 0.16059056153E-03 -.45791075932E-03 -.61414448413E-03 -.60068549743E-04 0.10623421168E-02
 0.11894360383E-02 -.98825438358E-03 -.88229106891E-02 -.22612908926E-01 -.39870163076E-01
 -.55791513343E-01 -.65093683359E-01 -.64461927857E-01 -.54266084688E-01 -.38389969375E-01
 -.22165593428E-01 -.97477043819E-02 -.26292763893E-02 0.14106762052E-04 -.71810907244E-04
 -.13328603328E-02 -.26305493308E-02 -.30510071051E-02 -.20526390619E-02 -.51235947829E-04
 -.92607367774E-03 -.38659823727E-02 -.12752902398E-01 -.26730350521E-01 -.42436913182E-01
 -.54992205195E-01 -.59971653371E-01 -.55504973256E-01 -.43279775739E-01 -.27709729186E-01
 -.13715206476E-01 -.45375650376E-02 -.86882775459E-03 -.14494425967E-02 -.42498132114E-02
 -.73090372346E-02 -.90585441963E-02 -.85527751986E-02 -.58805590919E-02 -.24882084993E-02
 -.30390219052E-02 -.60419484770E-02 -.14379150571E-01 -.26380494912E-01 -.38506943108E-01
 -.46522102355E-01 -.47308496740E-01 -.40400283492E-01 -.28296530538E-01 -.15319344902E-01
 -.56737820400E-02 -.17688959237E-02 -.35491293607E-02 -.89227468060E-02 -.14868361582E-01
 -.18663911428E-01 -.18805036650E-01 -.15390519021E-01 -.99668706269E-02 -.49830758055E-02
 -.37471936514E-02 -.63384143086E-02 -.13330043845E-01 -.22333264148E-01 -.29972099343E-01
 -.33184292692E-01 -.30560566455E-01 -.23002461925E-01 -.13386151248E-01 -.54458633151E-02
 -.23389693389E-02 -.53703302065E-02 -.13353849511E-01 -.23008927242E-01 -.30379501914E-01
 -.32617344488E-01 -.29145565834E-01 -.21627362030E-01 -.12995778035E-01 -.62814588210E-02
 -.27186984545E-02 -.48177230215E-02 -.10105648798E-01 -.15712523026E-01 -.18988329960E-01
 -.18516462994E-01 -.14541009535E-01 -.87525631005E-02 -.37118107746E-02 -.21198774398E-02
 -.59069323396E-02 -.15216129571E-01 -.27811038525E-01 -.39591751261E-01 -.46294573892E-01
 -.45495586283E-01 -.37690425517E-01 -.25874488515E-01 -.14072138667E-01 -.57435012513E-02
 -.68732019875E-03 -.21829576277E-02 -.55032164161E-02 -.81279408268E-02 -.86361177802E-02
 -.69454313489E-02 -.40151645926E-02 -.14267785650E-02 -.10775756963E-02 -.48176048636E-02
 -.13725518933E-01 -.27130196654E-01 -.42078725340E-01 -.54012263068E-01 -.58658706960E-01
 -.54150625091E-01 -.42040638318E-01 -.26562120424E-01 -.12617770431E-01 -.36848361956E-02
 0.12185040430E-02 0.47553157400E-03 -.11759622225E-02 -.22292738237E-02 -.21392401549E-02
 -.11020843693E-02 0.11457193305E-03 0.20163113527E-03 -.25616580739E-02 -.97808337965E-02
 -.21984536472E-01 -.37649864680E-01 -.52984928140E-01 -.63056851918E-01 -.64015838280E-01
 -.55195121268E-01 -.39652271120E-01 -.22655354935E-01 -.90578284030E-02 -.12469648084E-02
 0.20063564191E-02 0.17451824796E-02 0.86083838227E-03 0.11258798469E-03 -.40222569083E-04
 0.47442223331E-03 0.96495286122E-03 -.16867336414E-03 -.49409932972E-02 -.14710935616E-01
 -.29018448064E-01 -.45010078173E-01 -.58044816341E-01 -.63549566808E-01 -.59316922152E-01
 -.46820988051E-01 -.30521534864E-01 -.15500312942E-01 -.50316316795E-02 0.34594095207E-03
 0.11981059145E-02 0.84356170458E-03 0.16352850577E-03 -.29458924695E-03 -.61120399948E-04
 0.78751314385E-03 0.11477245203E-02 -.96498329324E-03 -.74514812504E-02 -.18785990489E-01
 -.33106590300E-01 -.46458460390E-01 -.54342724252E-01 -.53891722646E-01 -.45399902084E-01
 -.32160783052E-01 -.18647305375E-01 -.82578870753E-02 -.21092860036E-02 0.57429061987E-03
 -.88683155269E-03 -.15222954058E-02 -.17903825499E-02 -.14319566289E-02 -.43071826212E-03
 0.68987634018E-03 0.65029977742E-03 -.22670486079E-02 -.92369252031E-02 -.19742892264E-01
 -.31160509590E-01 -.39663317683E-01 -.42106692596E-01 -.37713501949E-01 -.28423521358E-01
 -.17711842033E-01 -.87517538107E-02 -.31241081458E-02 -.68880770405E-03 -.33875647060E-03
 -.33699839951E-02 -.39657803886E-02 -.36082111992E-02 -.25732765203E-02 -.12760114789E-02
 -.26810185807E-03 -.43079479772E-03 -.28599537071E-02 -.81526022594E-02 -.15542973867E-01
 -.22769722354E-01 -.27073444268E-01 -.26722151924E-01 -.21957021564E-01 -.14739158698E-01
 -.76222777133E-02 -.25769062344E-02 -.36377821291E-03 -.54976884252E-03 -.19687036833E-02
 -.55097652449E-02 -.58076438264E-02 -.50670080635E-02 -.38000103381E-02 -.23912330511E-02
 -.11354734989E-02 -.55522467810E-03 -.14187819274E-02 -.41956130071E-02 -.83930540466E-02
 -.12491759678E-01 -.14694126200E-01 -.13957249135E-01 -.10562938076E-01 -.59135049707E-02
 -.18025563879E-02 0.38837829318E-03 0.23362730360E-03 -.16379847549E-02 -.39500072917E-02
 -.70086030214E-02 -.69893450792E-02 -.59496926290E-02 -.42705481271E-02 -.23311399491E-02
 -.53113071829E-03 0.61673422708E-03 0.58024738469E-03 -.84371329109E-03 -.31929761446E-02
 -.53946495097E-02 -.63057277464E-02 -.54040667820E-02 -.31313152766E-02 -.64624564180E-03
 0.82421931195E-03 0.61131822304E-03 -.11314376022E-02 -.36023512666E-02 -.58043956436E-02
 0.20404915324E-03 0.34903284632E-03 0.42850977115E-03 0.43205400584E-03 0.39511664897E-03
 0.32809032669E-03 0.20545638515E-03 0.37860552169E-04 -.82793885518E-04 -.54866006245E-04
 0.11403088443E-03 0.29194168708E-03 0.34555234332E-03 0.26374884259E-03 0.14284966794E-03
 0.66418955043E-04 0.33702190422E-04 0.96204403803E-05 0.47797417437E-05 0.67351250209E-04
 0.19976216026E-03 0.31300627234E-03 0.67882502856E-03 0.10267689308E-02 0.94707640170E-03
 0.27326410483E-03 -.71963177952E-03 -.14768909414E-02 -.15454347943E-02 -.87796564301E-03
 0.14160398618E-03 0.94353090308E-03 0.11223348035E-02 0.67807835252E-03 -.61069555386E-05
 -.44879752778E-03 -.42082850882E-03 -.83473023892E-04 0.20821978217E-03 0.25829869787E-03
 -.43012260221E-04 0.68830190571E-04 0.47147701468E-03 0.73290790871E-03 0.48912144493E-03
 -.22204544202E-03 -.10134900254E-02 -.14730874206E-02 -.14278149805E-02 -.97860588031E-03
 -.38895815575E-03 0.49151090202E-04 0.15242683756E-03 -.29579022808E-04 -.22067394003E-03
 -.13888091763E-03 0.22156226493E-03 0.55368346170E-03 0.54392841344E-03 0.22219264588E-03
 -.15341084884E-03 -.18083663628E-03 -.13446988447E-03 -.10293254033E-03 -.99225769020E-04
 -.12764253892E-03 -.28310663069E-03 -.69840486823E-03 -.13523018437E-02 -.19711797548E-02
 -.21903436926E-02 -.18438874094E-02 -.10906641824E-02 -.26328454589E-03 0.37635440702E-03
 0.73549205916E-03 0.82144012862E-03 0.66878096072E-03 0.35740328531E-03 0.35570243426E-04
 0.20016145612E-03 -.14578333162E-03 -.52693952864E-03 -.65370452396E-03 -.48223792513E-03
 -.30705468140E-03 -.53934040645E-03 -.13433336980E-02 -.24335064925E-02 -.32140459197E-02
 -.31735115768E-02 -.22465549194E-02 -.87375046542E-03 0.28784101883E-03 0.79281889653E-03
 0.66211306154E-03 0.28681398254E-03 0.76523469659E-04 0.14445317157E-03 0.27896063602E-03
 0.67482731501E-03 0.14764387356E-03 -.47780430277E-03 -.99671203927E-03 -.14436874994E-02
 -.19433575149E-02 -.25003801436E-02 -.29560071395E-02 -.31030565410E-02 -.28106254504E-02
 -.20878468173E-02 -.11160351821E-02 -.23335441092E-03 0.21159887187E-03 0.11307464655E-03
 -.25460498105E-03 -.42313583918E-03 -.13366675532E-03 0.42454964219E-03 0.79495236679E-03
 0.74737477310E-03 0.40540655624E-03 -.33163132826E-03 -.14734615305E-02 -.27910834868E-02
 -.38045679429E-02 -.40603844163E-02 -.34868486257E-02 -.24639186340E-02 -.15159903732E-02
 -.93233187664E-03 -.66955242933E-03 -.55039223859E-03 -.47103102310E-03 -.40791045419E-03
 -.31459717309E-03 -.11071702025E-03 0.21744617717E-03 0.56352146963E-03 0.77572315236E-03
 0.45157615144E-03 0.41776641961E-03 -.29028346874E-03 -.16235890905E-02 -.30633499963E-02
 -.39385484824E-02 -.38896192991E-02 -.31083961810E-02 -.21564382911E-02 -.15199031071E-02
 -.12778275420E-02 -.11420391115E-02 -.79083622455E-03 -.17981268432E-03 0.42932826766E-03
 0.71413746657E-03 0.57869273246E-03 0.24014222682E-03 0.48046414605E-04 0.17953128837E-03
 0.95886307829E-04 0.13721146913E-03 -.28113157396E-03 -.10945095718E-02 -.20493345269E-02
 -.28550608836E-02 -.32914769063E-02 -.32730014923E-02 -.28701466016E-02 -.22468265333E-02
 -.15289876632E-02 -.73182209915E-03 0.14954364784E-03 0.97511189340E-03 0.14461995318E-02
 0.13305451382E-02 0.72213863855E-03 0.37651520657E-04 -.29651592219E-03 -.18312450886E-03
 -.27502424868E-03 -.40529934932E-03 -.46301364241E-03 -.68642415284E-03 -.13151877262E-02
 -.22843646160E-02 -.31360652338E-02 -.33260998450E-02 -.26696969356E-02 -.14858812352E-02
 -.30841351237E-03 0.52023487068E-03 0.98353982067E-03 0.12149408764E-02 0.12908040147E-02
 0.12082413082E-02 0.97915874429E-03 0.66339397922E-03 0.31947802922E-03 -.13162526525E-04
 -.58189570355E-03 -.96728575230E-03 -.10193294950E-02 -.11212610817E-02 -.15328788722E-02
 -.20891487954E-02 -.23097084061E-02 -.18407453355E-02 -.80959149095E-03 0.25070434642E-03
 0.83142191579E-03 0.83336645988E-03 0.58687384992E-03 0.53975324884E-03 0.90373108226E-03
 0.15165293129E-02 0.19716554614E-02 0.19001401976E-02 0.12280481485E-02 0.24627388922E-03
 -.41691250791E-03 -.10812056437E-02 -.14927600885E-02 -.16570130515E-02 -.15522973909E-02
 -.11771616010E-02 -.60888046173E-03 -.27099712696E-05 0.46394251612E-03 0.66582477810E-03
 0.60059031634E-03 0.42741509623E-03 0.41589462398E-03 0.77986741208E-03 0.14880127756E-02
 0.22227740978E-02 0.25673772996E-02 0.22906795955E-02 0.14910420000E-02 0.48753836942E-03
 0.30280747561E-03 -.54470427688E-03 -.12000828715E-02 -.12826749741E-02 -.79026951388E-03
 -.14309615412E-03 0.18968738589E-03 0.10884801762E-03 -.73900514238E-04 0.21162431850E-04
 0.49879883293E-03 0.11624187610E-02 0.17386082196E-02 0.20700677052E-02 0.21379093198E-02
 0.20037038895E-02 0.17728838067E-02 0.15466997681E-02 0.13238168068E-02 0.95783377968E-03
 0.88142116945E-03 0.20644012024E-03 -.31552434605E-03 -.40914476236E-03 -.22773258298E-03
 -.16527892791E-03 -.40322377919E-03 -.67273750348E-03 -.49188805946E-03 0.36117552305E-03
 0.16056391162E-02 0.26529871840E-02 0.30258749194E-02 0.26450859230E-02 0.18233081616E-02
 0.10464690502E-02 0.69636123969E-03 0.83661404807E-03 0.11738375339E-02 0.12664627177E-02
 0.71079578254E-03 0.55805523354E-03 0.29617086228E-03 -.19980045153E-04 -.31936789944E-03
 -.51780312721E-03 -.51158947394E-03 -.19747982567E-03 0.45856301102E-03 0.13427015610E-02
 0.21889455534E-02 0.26935704134E-02 0.26867784145E-02 0.22333861062E-02 0.15832940491E-02
 0.10145943625E-02 0.68938005369E-03 0.60980958918E-03 0.66932837183E-03 0.73544445780E-03
 0.14635285137E-03 0.42841785972E-03 0.31532125769E-03 -.30417440769E-04 -.19444500509E-03
 0.59927341198E-04 0.57458957292E-03 0.99117859848E-03 0.11126216195E-02 0.10540211175E-02
 0.10820719827E-02 0.13588020857E-02 0.18237404376E-02 0.22456175088E-02 0.23484131881E-02
 0.19566540255E-02 0.11368900152E-02 0.23717609191E-03 -.29523608210E-03 -.25105734990E-03
 -.10576775742E-03 0.20590777132E-03 0.20182821351E-03 0.14462681980E-03 0.34457641226E-03
 0.77264024549E-03 0.10748319313E-02 0.95211012233E-03 0.48553169279E-03 0.86105230398E-04
 0.15802026447E-03 0.80128414182E-03 0.17554583488E-02 0.25474932544E-02 0.27271480458E-02
 0.21129417003E-02 0.94875258588E-03 -.18359521896E-03 -.73327717237E-03 -.58241150123E-03
 -.13090507309E-05 0.14414490761E-03 0.24028967380E-03 0.28140111010E-03 0.28330873903E-03
 0.25255339651E-03 0.20620777431E-03 0.19885205143E-03 0.30156629231E-03 0.54455069998E-03
 0.88513773980E-03 0.12310593699E-02 0.14848418772E-02 0.15673677429E-02 0.14278312932E-02
 0.10710129120E-02 0.59013794180E-03 0.14992905270E-03 -.10092068152E-03 -.12377964390E-03
 0.81556633177E-04 0.18805038860E-03 0.24502277870E-03 -.11411144669E-05 -.44727117273E-03
 -.68308420015E-03 -.36475763090E-03 0.45664114077E-03 0.13514321343E-02 0.18255892756E-02
 0.16476776056E-02 0.96381276627E-03 0.18199614454E-03 -.26829577831E-03 -.18107345116E-03
 0.29813504975E-03 0.76830218069E-03 0.87375623434E-03 0.58914661776E-03 0.21856807780E-03
 0.10467286870E-03 0.26464327073E-03 0.22331361652E-03 -.13908107087E-03 -.51808806239E-03
 -.47052181588E-03 0.13933841731E-03 0.99217923466E-03 0.15745402760E-02 0.15559112043E-02
 0.96449420735E-03 0.11554806420E-03 -.56827656227E-03 -.75096321257E-03 -.36672705124E-03
 0.30012496850E-03 0.77838039090E-03 0.77215946465E-03 0.41080972198E-03 0.10245771500E-03
 0.80339926749E-02 0.78342053695E-02 0.62815785834E-02 0.38502539383E-02 0.14321698537E-02
 -.20096779608E-03 -.72964480082E-03 -.22127277390E-03 0.10230287400E-02 0.24533149116E-02
 0.32949360673E-02 0.29273417258E-02 0.14326243831E-02 -.29504246876E-03 -.11479578943E-02
 -.59870999185E-03 0.10668708139E-02 0.31971764491E-02 0.52897745104E-02 0.70310735671E-02
 0.75593518889E-02 0.65725990745E-02 0.48640826965E-02 0.28484389929E-02 0.96413338753E-03
 -.29506324225E-03 -.42410772965E-03 0.83462841493E-03 0.31368657886E-02 0.54578527647E-02
 0.65516333352E-02 0.57353118904E-02 0.34024999931E-02 0.81955256299E-03 -.65795971882E-03
 -.35385349585E-03 0.14835634786E-02 0.39914733775E-02 0.62127659542E-02 0.74818887347E-02
 0.55118032669E-02 0.40685327608E-02 0.25334952893E-02 0.11840998778E-02 0.55794641493E-03
 0.14632912345E-02 0.43646326888E-02 0.86778350775E-02 0.12764366470E-01 0.14793282076E-01
 0.13822484202E-01 0.10295941185E-01 0.57174507928E-02 0.18633923087E-02 0.16453047124E-04
 0.49101610807E-03 0.25727718836E-02 0.49358404491E-02 0.63872736021E-02 0.64754465809E-02
 0.30553784363E-02 0.16267353690E-02 0.46506154013E-03 0.42873064093E-03 0.27448905499E-02
 0.81555523977E-02 0.15834121702E-01 0.23251278997E-01 0.27432891661E-01 0.26716690520E-01
 0.21630379363E-01 0.14358026111E-01 0.74427366738E-02 0.27054125409E-02 0.80177375725E-03
 0.12748596877E-02 0.29179331157E-02 0.43894396087E-02 0.48624940738E-02 0.42809350005E-02
 0.13902369228E-02 0.15305419279E-03 -.12163417709E-03 0.23851487688E-02 0.90977561799E-02
 0.19665204318E-01 0.31366092463E-01 0.40106959239E-01 0.42566143129E-01 0.38013107405E-01
 0.28544635367E-01 0.17722265343E-01 0.87071799305E-02 0.30765167792E-02 0.74418487857E-03
 0.62995823771E-03 0.14669227017E-02 0.23203561699E-02 0.26949603326E-02 0.23839072750E-02
 0.35166182113E-03 -.28799850132E-03 0.13993578977E-02 0.74761544199E-02 0.18605652279E-01
 0.33028668698E-01 0.46735642200E-01 0.55038566347E-01 0.54849156059E-01 0.46329166365E-01
 0.32795070107E-01 0.18878501661E-01 0.81786756092E-02 0.19454875674E-02 -.58862698131E-03
 -.91887348890E-03 -.23683782376E-03 0.73298381534E-03 0.14068647211E-02 0.12739590049E-02
 -.40824681831E-03 0.43771859346E-03 0.50424670576E-02 0.14787535280E-01 0.29210076819E-01
 0.45479304199E-01 0.58931795945E-01 0.64825362409E-01 0.60695503114E-01 0.47897966984E-01
 0.31068422172E-01 0.15637848318E-01 0.51082921629E-02 -.36809950288E-04 -.13888860415E-02
 -.89522681661E-03 0.13448364460E-03 0.96192909699E-03 0.10863097911E-02 0.38458973334E-03
 -.22617253688E-03 0.25249047367E-02 0.10005256733E-01 0.22599664573E-01 0.38650578909E-01
 0.54314733612E-01 0.64603070347E-01 0.65535745090E-01 0.56357483568E-01 0.40259753793E-01
 0.22844118458E-01 0.92268164374E-02 0.17505670833E-02 -.31179786007E-03 0.65984696459E-03
 0.23385615358E-02 0.33086431595E-02 0.30535059016E-02 0.17288076806E-02 0.14031254602E-03
 0.11925406528E-02 0.50592356156E-02 0.14328312832E-01 0.28208465391E-01 0.43576238835E-01
 0.55720127597E-01 0.60277722655E-01 0.55396595742E-01 0.42776845684E-01 0.26882576009E-01
 0.12794323577E-01 0.39921780305E-02 0.12420561644E-02 0.29269204837E-02 0.63160686060E-02
 0.89311587712E-02 0.93903596334E-02 0.75891812649E-02 0.44616132997E-02 0.16496430350E-02
 0.25566820642E-02 0.62627779251E-02 0.15728532072E-01 0.28695288676E-01 0.40845959311E-01
 0.47694655638E-01 0.46775371902E-01 0.38713012712E-01 0.26642208723E-01 0.14623098794E-01
 0.60883227210E-02 0.28748793103E-02 0.48578908810E-02 0.10137332624E-01 0.15820698081E-01
 0.19219089679E-01 0.18900424430E-01 0.15085300429E-01 0.93902406343E-02 0.43008950324E-02
 0.26423087860E-02 0.54375372425E-02 0.13451034688E-01 0.23389414943E-01 0.31081652247E-01
 0.33512748799E-01 0.30114739891E-01 0.22618001741E-01 0.13926461784E-01 0.69818040559E-02
 0.40611930592E-02 0.62695812391E-02 0.13035280468E-01 0.21976980531E-01 0.29637673086E-01
 0.32940202175E-01 0.30538144539E-01 0.23314777195E-01 0.13959207100E-01 0.60066477250E-02
 0.19504682652E-02 0.35927376567E-02 0.89448216399E-02 0.15000023333E-01 0.18951572503E-01
 0.19230841380E-01 0.15926683047E-01 0.10573555474E-01 0.55782506772E-02 0.35182410239E-02
 0.63387080264E-02 0.14478856925E-01 0.26265494843E-01 0.38128258283E-01 0.45877201644E-01
 0.46548062967E-01 0.39802365577E-01 0.28078073522E-01 0.15460737509E-01 0.59476531660E-02
 0.13856973249E-02 0.18583570644E-02 0.44500531807E-02 0.73286478150E-02 0.89775876009E-02
 0.84267155899E-02 0.57435344131E-02 0.24108690056E-02 0.10232632659E-02 0.42024623028E-02
 0.13228020029E-01 0.27076138401E-01 0.42365775144E-01 0.54384557628E-01 0.58957238665E-01
 0.54391044104E-01 0.42397469173E-01 0.27277699925E-01 0.13770946221E-01 0.49430931834E-02
 0.67344492706E-03 0.48322612813E-03 0.13742983850E-02 0.23904794623E-02 0.26637918427E-02
 0.16016551145E-02 -.37555062558E-03 -.14196952498E-02 0.11262389686E-02 0.92901172602E-02
 0.23081945300E-01 0.39931361262E-01 0.55269699237E-01 0.64164674657E-01 0.63481009432E-01
 0.53522967165E-01 0.38021971510E-01 0.22215473326E-01 0.10193443995E-01 0.33300338463E-02
 -.43059623850E-03 -.30957567685E-03 0.11056924612E-03 0.24022742255E-03 -.21878167426E-03
 -.11912252735E-02 -.18369151678E-02 -.43000238134E-03 0.50543975158E-02 0.15769126520E-01
 0.30844591873E-01 0.47004805887E-01 0.59445609465E-01 0.63838172245E-01 0.58511807387E-01
 0.45457819209E-01 0.29346620996E-01 0.15090752251E-01 0.55671967270E-02 0.92439992815E-03
 -.75291297772E-03 0.14320246552E-03 0.54621628891E-03 0.31232275464E-03 -.19896755637E-03
 -.51595472770E-03 0.25411468414E-04 0.25873853922E-02 0.86563489950E-02 0.19030583552E-01
 0.32556122214E-01 0.45785025823E-01 0.54229102655E-01 0.54620936632E-01 0.46703456587E-01
 0.33356996004E-01 0.19055617801E-01 0.77104209959E-02 0.11579823598E-02 -.10525410567E-02
 0.79843891206E-03 0.19466889134E-02 0.21521603610E-02 0.17320659542E-02 0.12425903902E-02
 0.10234838116E-02 0.15073612244E-02 0.37409316888E-02 0.91031989890E-02 0.18041860814E-01
 0.28916289840E-01 0.38240878897E-01 0.42428867085E-01 0.39781686966E-01 0.31316595062E-01
 0.20065738994E-01 0.95458538265E-02 0.23252286980E-02 -.77345728360E-03 -.66066633087E-03
 0.34453575794E-02 0.42287157877E-02 0.40632059582E-02 0.32141324137E-02 0.20412540377E-02
 0.97869918724E-03 0.83805495107E-03 0.28075012696E-02 0.77094493547E-02 0.14980617391E-01
 0.22411614969E-01 0.27149058335E-01 0.27305700809E-01 0.22964941814E-01 0.15946510354E-01
 0.87216076220E-02 0.33089118546E-02 0.65769945665E-03 0.55128740314E-03 0.19183739950E-02
 0.57042711912E-02 0.61693334764E-02 0.55889560263E-02 0.39332916033E-02 0.17074328725E-02
 -.65643523612E-04 -.22512637034E-03 0.19166732107E-02 0.60523207935E-02 0.10805535841E-01
 0.14280310048E-01 0.15020757696E-01 0.12814950516E-01 0.87885626180E-02 0.47064604258E-02
 0.19850561970E-02 0.10991869993E-02 0.16803739608E-02 0.30275622425E-02 0.45223836648E-02
 0.72071872064E-02 0.75081869099E-02 0.64261598769E-02 0.40739157276E-02 0.13958042765E-02
 -.36074910210E-03 -.42450432102E-03 0.11199745110E-02 0.34966356912E-02 0.56349154561E-02
 0.65572917409E-02 0.57698989665E-02 0.35957183266E-02 0.11301383193E-02 -.37427289777E-03
 -.31136068770E-03 0.99609110856E-03 0.27789450263E-02 0.45067622108E-02 0.60390080928E-02
 0.29887068422E-04 0.70581719535E-03 0.85255223939E-03 0.54146332877E-03 0.30078554235E-03
 0.39567308045E-03 0.53642007567E-03 0.37012409148E-03 0.29037392220E-04 -.41791553997E-04
 0.27288801962E-03 0.56038154919E-03 0.41917458991E-03 -.68490247109E-05 -.24153502309E-03
 -.13909320506E-03 -.66268789567E-04 -.34023389378E-03 -.70770950850E-03 -.62025996124E-03
 0.13343569015E-03 0.32769432397E-03 0.50613406825E-03 0.66984861414E-03 0.70602154982E-03
 0.42475752589E-03 -.17447948456E-03 -.70524373617E-03 -.62026203786E-03 0.25118959785E-03
 0.14203404490E-02 0.20892270998E-02 0.18301019503E-02 0.91117473415E-03 -.25135307077E-04
 -.53456436648E-03 -.61098098590E-03 -.47650001483E-03 -.28854355861E-03 -.80951444374E-04
 -.53720389059E-03 -.62151625855E-03 -.18164030678E-03 0.29430259099E-03 0.39691279878E-03
 0.20654921068E-03 0.12678030604E-03 0.42792614715E-03 0.10351276075E-02 0.16810881204E-02
 0.21136770529E-02 0.21436807876E-02 0.16680877542E-02 0.81509211969E-03 0.23684834531E-04
 -.22054764196E-03 0.14642768079E-03 0.62813875866E-03 0.62685006401E-03 0.63990067417E-04
 -.85507934318E-03 -.77598217339E-03 -.34090086453E-03 0.75452926467E-04 0.54420159641E-03
 0.13783305848E-02 0.24843793204E-02 0.32295383130E-02 0.30932877365E-02 0.22795129190E-02
 0.14798094154E-02 0.10948220279E-02 0.91897539696E-03 0.63200696088E-03 0.34303183136E-03
 0.40828921539E-03 0.80408869547E-03 0.99160579111E-03 0.53915437951E-03 -.30262840062E-03
 0.59146897428E-04 0.54896858757E-05 0.78385472762E-05 0.37220992105E-03 0.14406005217E-02
 0.30695117271E-02 0.44666195350E-02 0.47700042529E-02 0.38516674256E-02 0.24508827596E-02
 0.14560456802E-02 0.11234279170E-02 0.10524954138E-02 0.81402954098E-03 0.41890529926E-03
 0.15066422591E-03 0.12642515213E-03 0.19042169731E-03 0.18092634946E-03 0.11402909459E-03
 0.92837394973E-03 0.48975334998E-03 0.32097944086E-03 0.83905138307E-03 0.19951227409E-02
 0.33593075298E-02 0.44248103617E-02 0.48654296257E-02 0.46323001894E-02 0.39192773670E-02
 0.30345128863E-02 0.22124114049E-02 0.14799985605E-02 0.72210610020E-03 -.78824210632E-04
 -.68382068272E-03 -.75221819930E-03 -.20686710593E-03 0.58209876315E-03 0.10505055103E-02
 0.55869408472E-03 0.41760979184E-03 0.73566074734E-03 0.13545805917E-02 0.20446350702E-02
 0.29066192293E-02 0.41316560498E-02 0.54398174292E-02 0.60630504006E-02 0.54554205025E-02
 0.39017133387E-02 0.22500666260E-02 0.10854207658E-02 0.34510791931E-03 -.24710659194E-03
 -.62644767830E-03 -.49062978141E-03 0.13641309776E-03 0.73924699710E-03 0.84315357187E-03
 -.38566473091E-04 0.74226882553E-03 0.16469793663E-02 0.22934534467E-02 0.27889560933E-02
 0.36213479850E-02 0.49193035450E-02 0.60050822711E-02 0.59278832379E-02 0.44654126034E-02
 0.24360986563E-02 0.94172844359E-03 0.40421183430E-03 0.42438192160E-03 0.44020162825E-03
 0.28583427925E-03 0.93488370823E-04 -.77438271681E-04 -.26661013178E-03 -.35012537728E-03
 0.20563694914E-03 0.13670246769E-02 0.24866001598E-02 0.34496985875E-02 0.42727432682E-02
 0.49125115703E-02 0.51436625511E-02 0.46851209136E-02 0.34966459619E-02 0.19509845423E-02
 0.66648640414E-03 0.10242064118E-03 0.25222916388E-03 0.68385355372E-03 0.87239448836E-03
 0.55153889569E-03 -.15194740912E-03 -.83906640901E-03 -.10938356693E-02 -.71347110364E-03
 0.33439260088E-03 0.10509566373E-02 0.22800312207E-02 0.37768431439E-02 0.47932027085E-02
 0.47343877494E-02 0.37473122736E-02 0.25377798417E-02 0.16535643757E-02 0.10916441678E-02
 0.60442277012E-03 0.17425887214E-03 0.66931323417E-06 0.99742754205E-04 0.16355491124E-03
 -.76212700780E-04 -.48428018056E-03 -.67918249075E-03 -.49777235741E-03 -.11512033953E-03
 -.44747148219E-03 -.10514824199E-03 0.12207512118E-02 0.28156912902E-02 0.36167962462E-02
 0.32785234150E-02 0.24583008895E-02 0.19904942435E-02 0.19607098734E-02 0.17649037483E-02
 0.97638939598E-03 -.10839396124E-03 -.85040750331E-03 -.97370790707E-03 -.70605634523E-03
 -.34482160651E-03 0.27276191464E-04 0.34233231180E-03 0.35751817436E-03 -.46066640270E-04
 -.77198577336E-03 -.46982748244E-03 0.44283740123E-03 0.14632410147E-02 0.21008912157E-02
 0.22830462689E-02 0.22661218728E-02 0.22094157485E-02 0.19572895533E-02 0.12824619455E-02
 0.25830468034E-03 -.70813277222E-03 -.12074177514E-02 -.11291292285E-02 -.65072971853E-03
 -.44773433213E-04 0.42964275663E-03 0.54186849746E-03 0.19188576571E-03 -.41133055712E-03
 0.41053614815E-03 0.37827089038E-03 0.37576255296E-03 0.72392880475E-03 0.13551385400E-02
 0.17796052572E-02 0.15729681468E-02 0.83162752106E-03 0.64810631645E-04 -.32774281129E-03
 -.37419641622E-03 -.33952868202E-03 -.35998619664E-03 -.37148821687E-03 -.32395403913E-03
 -.29445160538E-03 -.33317039181E-03 -.32131638789E-03 -.11325151288E-03 0.21575269262E-03
 0.15418118724E-02 0.10022170568E-02 0.46864183917E-03 0.53233192655E-03 0.89865817427E-03
 0.77542438774E-03 -.10411052122E-03 -.10903766736E-02 -.13302554635E-02 -.69370668986E-03
 0.16870941247E-03 0.58114575178E-03 0.42324732991E-03 -.36011630444E-04 -.58105097210E-03
 -.10897487782E-02 -.12801618363E-02 -.79462304694E-03 0.30111031894E-03 0.13199478503E-02
 0.10152127669E-02 0.65164721925E-03 0.36756097703E-03 0.35627098021E-03 0.32676242407E-03
 -.34270412435E-04 -.57657494826E-03 -.81639957390E-03 -.51097516461E-03 0.56198730487E-04
 0.40728916549E-03 0.35577371395E-03 0.59190549459E-04 -.30408358596E-03 -.70200327607E-03
 -.10563719212E-02 -.10883504469E-02 -.56765182197E-03 0.30556821101E-03 0.96256693042E-03
 -.61885095988E-04 0.23917734983E-03 0.24378305804E-03 0.12181991005E-03 0.17735323250E-03
 0.49693140251E-03 0.82641157500E-03 0.81603219285E-03 0.36943696006E-03 -.26326087284E-03
 -.71128478084E-03 -.77176007202E-03 -.50744928553E-03 -.14505957121E-03 0.76308145054E-04
 0.15348230445E-04 -.29785340836E-03 -.64818590499E-03 -.75561559392E-03 -.50183785835E-03
 -.12963941231E-04 0.33005261432E-03 0.11597077312E-03 -.39084866501E-04 0.42367970991E-03
 0.12373826075E-02 0.15475072984E-02 0.87340285290E-03 -.36027132014E-03 -.12940283674E-02
 -.14588129895E-02 -.10150045766E-02 -.34150039737E-03 0.31932737474E-03 0.77082681494E-03
 0.72463862094E-03 0.59455462008E-04 -.82433471559E-03 -.12070923832E-02 -.77555251713E-03
 0.54403112142E-03 0.32594352587E-03 -.10181551306E-03 -.20183345060E-03 0.16033801151E-03
 0.50658129229E-03 0.32867478478E-03 -.28516853263E-03 -.77600046347E-03 -.79319800350E-03
 -.53397778781E-03 -.36252527271E-03 -.30372822179E-03 -.11064481039E-03 0.25542356875E-03
 0.47998864798E-03 0.32660464183E-03 0.22563085636E-04 0.29400369783E-05 0.32078369770E-03
 0.31962704736E-03 0.91397807239E-04 -.75487996810E-04 -.28754059201E-03 -.55410602354E-03
 -.72949020196E-03 -.60975817146E-03 -.13799334777E-03 0.45681872473E-03 0.75909042324E-03
 0.48093462723E-03 -.26242959362E-03 -.98520948704E-03 -.11803768945E-02 -.69860788645E-03
 0.16188661080E-03 0.90759118527E-03 0.12041003127E-02 0.10476408738E-02 0.67079836901E-03
 -.15342690131E-03 0.28844396672E-03 0.43889888923E-03 0.11311721721E-04 -.54079722548E-03
 -.55749924304E-03 0.79158005242E-04 0.85163547896E-03 0.11793774451E-02 0.91567305956E-03
 0.28547857712E-03 -.44078106250E-03 -.10391144737E-02 -.12276623512E-02 -.77623160124E-03
 0.14665428338E-03 0.90847899813E-03 0.93556241089E-03 0.32721397298E-03 -.21430257812E-03
 -.77128178734E-02 -.61770434272E-02 -.43718525341E-02 -.26097621370E-02 -.71093835321E-03
 0.10812152071E-02 0.18487474874E-02 0.93526488722E-03 -.10881055545E-02 -.27470541871E-02
 -.29942819139E-02 -.20159867465E-02 -.71659890264E-03 0.25559214579E-03 0.71169217561E-03
 0.41044348917E-03 -.10786351395E-02 -.37198055623E-02 -.65014010380E-02 -.80270553164E-02
 -.70124750047E-02 -.56128043895E-02 -.35276726553E-02 -.12126156678E-02 0.62593616748E-03