    5    5    1    1
  0.3477306E+02  0.2573869E-09  0.2573869E-09  0.3030466E-08  0.5000000E-15
  1.000000000000000E-004
  CAR 
 unknown system                          
     45     31     28
 
  0.0000000E+00  0.0000000E+00  0.0000000E+00  0.1000000E-01
    1      -11.608631   1.000000
    2      -10.591168   1.000000
    3       -8.984482   1.000000
    4       -7.524190   1.000000
    5       -6.090745   1.000000
    6       -5.574883   1.000000
    7       -5.558375   1.000000
    8       -5.523871   1.000000
    9       -5.314990   1.000000
   10       -5.290531   1.000000
   11       -5.285733   1.000000
   12       -5.222991   1.000000
   13       -5.222421   1.000000
   14       -4.964450   1.000000
   15       -4.963348   1.000000
   16       -4.873258   1.000000
   17       -4.746235   1.000000
   18       -4.725495   1.000000
   19       -4.481074   1.000000
   20       -4.477699   1.000000
   21       -4.263241   1.000000
   22       -4.258218   1.000000
   23       -3.982567   1.000000
   24       -3.981600   1.000000
   25       -2.913569   1.000000
   26        1.603760   0.000000
   27        1.917522   0.000000
   28        2.349690   0.000000
 
  0.1000000E+00  0.6938894E-17  0.0000000E+00  0.4000000E-01
    1      -11.305272   1.000000
    2      -10.293675   1.000000
    3       -8.719173   1.000000
    4       -7.300400   1.000000
    5       -6.124322   1.000000
    6       -5.676433   1.000000
    7       -5.585629   1.000000
    8       -5.454950   1.000000
    9       -5.376213   1.000000
   10       -5.353891   1.000000
   11       -5.276199   1.000000
   12       -5.207096   1.000000
   13       -5.125314   1.000000
   14       -5.112097   1.000000
   15       -4.991715   1.000000
   16       -4.882346   1.000000
   17       -4.758307   1.000000
   18       -4.696680   1.000000
   19       -4.489612   1.000000
   20       -4.447571   1.000000
   21       -4.284835   1.000000
   22       -4.258083   1.000000
   23       -3.978267   1.000000
   24       -3.764241   1.000000
   25       -2.229061   0.104976
   26        1.849434   0.000000
   27        2.221242   0.000000
   28        2.652313   0.000000
 
  0.2000000E+00 -0.1387779E-16  0.0000000E+00  0.4000000E-01
    1      -10.438209   1.000000
    2       -9.451862   1.000000
    3       -8.025475   1.000000
    4       -6.767732   1.000000
    5       -6.270527   1.000000
    6       -5.882245   1.000000
    7       -5.763283   1.000000
    8       -5.637119   1.000000
    9       -5.468072   1.000000
   10       -5.271579   1.000000
   11       -5.222410   1.000000
   12       -5.195309   1.000000
   13       -5.045719   1.000000
   14       -5.002586   1.000000
   15       -4.886438   1.000000
   16       -4.814000   1.000000
   17       -4.786910   1.000000
   18       -4.599174   1.000000
   19       -4.567433   1.000000
   20       -4.432439   1.000000
   21       -4.258686   1.000000
   22       -4.080907   1.000000
   23       -3.974028   1.000000
   24       -2.917919   1.000000
   25       -0.912628   0.000000
   26        2.577472   0.000000
   27        3.130442   0.000000
   28        3.559919   0.000000
 
  0.3000000E+00 -0.2775558E-16  0.0000000E+00  0.4000000E-01
    1       -9.200585   1.000000
    2       -8.290824   1.000000
    3       -7.325128   1.000000
    4       -6.536135   1.000000
    5       -6.369484   1.000000
    6       -6.117321   1.000000
    7       -5.838172   1.000000
    8       -5.650083   1.000000
    9       -5.512610   1.000000
   10       -5.277547   1.000000
   11       -5.198025   1.000000
   12       -5.043385   1.000000
   13       -4.877098   1.000000
   14       -4.815507   1.000000
   15       -4.736261   1.000000
   16       -4.640076   1.000000
   17       -4.510287   1.000000
   18       -4.373021   1.000000
   19       -4.335420   1.000000
   20       -4.246116   1.000000
   21       -4.120103   1.000000
   22       -3.961424   1.000000
   23       -3.612650   1.000000
   24       -1.785282   0.000000
   25        0.714301   0.000000
   26        3.725791   0.000000
   27        4.598071   0.000000
   28        4.942291   0.000000
 
  0.4000000E+00 -0.2775558E-16  0.0000000E+00  0.4000000E-01
    1       -8.240598   1.000000
    2       -7.328548   1.000000
    3       -7.025863   1.000000
    4       -6.612020   1.000000
    5       -6.483365   1.000000
    6       -6.246857   1.000000
    7       -5.906768   1.000000
    8       -5.462760   1.000000
    9       -5.332377   1.000000
   10       -5.268381   1.000000
   11       -5.258667   1.000000
   12       -4.921727   1.000000
   13       -4.708339   1.000000
   14       -4.467812   1.000000
   15       -4.376529   1.000000
   16       -4.359463   1.000000
   17       -4.101126   1.000000
   18       -4.067630   1.000000
   19       -4.048498   1.000000
   20       -3.964958   1.000000
   21       -3.802589   1.000000
   22       -3.554679   1.000000
   23       -2.560069   0.999695
   24       -0.438250   0.000000
   25        1.475282   0.000000
   26        2.806188   0.000000
   27        3.674812   0.000000
   28        4.727487   0.000000
 
  0.5000000E+00 -0.2775558E-16  0.0000000E+00  0.2000000E-01
    1       -8.014352   1.000000
    2       -7.033586   1.000000
    3       -6.969879   1.000000
    4       -6.602005   1.000000
    5       -6.533714   1.000000
    6       -6.300067   1.000000
    7       -5.894115   1.000000
    8       -5.405699   1.000000
    9       -5.322807   1.000000
   10       -5.223863   1.000000
   11       -5.178365   1.000000
   12       -4.939987   1.000000
   13       -4.439760   1.000000
   14       -4.411426   1.000000
   15       -4.275233   1.000000
   16       -4.239586   1.000000
   17       -4.041884   1.000000
   18       -3.951911   1.000000
   19       -3.891470   1.000000
   20       -3.685328   1.000000
   21       -3.517333   1.000000
   22       -2.232422   0.113875
   23       -1.354561   0.000000
   24       -0.804524   0.000000
   25        0.180124   0.000000
   26        2.097775   0.000000
   27        3.289010   0.000000
   28        4.202138   0.000000
 
  0.0000000E+00  0.1000000E+00  0.0000000E+00  0.2000000E-01
    1      -11.303021   1.000000
    2      -10.293803   1.000000
    3       -8.721383   1.000000
    4       -7.301389   1.000000
    5       -6.151554   1.000000
    6       -5.674034   1.000000
    7       -5.581908   1.000000
    8       -5.453422   1.000000
    9       -5.386992   1.000000
   10       -5.345391   1.000000
   11       -5.275579   1.000000
   12       -5.203219   1.000000
   13       -5.125568   1.000000
   14       -5.112245   1.000000
   15       -4.990774   1.000000
   16       -4.880299   1.000000
   17       -4.744468   1.000000
   18       -4.700531   1.000000
   19       -4.485560   1.000000
   20       -4.452858   1.000000
   21       -4.283045   1.000000
   22       -4.254750   1.000000
   23       -3.977551   1.000000
   24       -3.760145   1.000000
   25       -2.226977   0.099717
   26        1.849178   0.000000
   27        2.221438   0.000000
   28        2.652360   0.000000
 
  0.2000000E+00  0.1000000E+00  0.0000000E+00  0.2000000E-01
    1      -10.719896   1.000000
    2       -9.721037   1.000000
    3       -8.230985   1.000000
    4       -6.908386   1.000000
    5       -6.202664   1.000000
    6       -5.796077   1.000000
    7       -5.753955   1.000000
    8       -5.582379   1.000000
    9       -5.443149   1.000000
   10       -5.324480   1.000000
   11       -5.259535   1.000000
   12       -5.172155   1.000000
   13       -5.091831   1.000000
   14       -5.076413   1.000000
   15       -4.931527   1.000000
   16       -4.853328   1.000000
   17       -4.699512   1.000000
   18       -4.598657   1.000000
   19       -4.588381   1.000000
   20       -4.462474   1.000000
   21       -4.342504   1.000000
   22       -4.072435   1.000000
   23       -4.018925   1.000000
   24       -3.165080   1.000000
   25       -1.299104   0.000000
   26        2.337527   0.000000
   27        2.827895   0.000000
   28        3.257177   0.000000
 
  0.3000000E+00  0.1000000E+00  0.0000000E+00  0.4000000E-01
    1       -9.647395   1.000000
    2       -8.694705   1.000000
    3       -7.495509   1.000000
    4       -6.470089   1.000000
    5       -6.293186   1.000000
    6       -6.012765   1.000000
    7       -5.887925   1.000000
    8       -5.742906   1.000000
    9       -5.573987   1.000000
   10       -5.296950   1.000000
   11       -5.259839   1.000000
   12       -5.192621   1.000000
   13       -5.046058   1.000000
   14       -4.933016   1.000000
   15       -4.803191   1.000000
   16       -4.747853   1.000000
   17       -4.583802   1.000000
   18       -4.493217   1.000000
   19       -4.354281   1.000000
   20       -4.291425   1.000000
   21       -4.133649   1.000000
   22       -4.042548   1.000000
   23       -3.718845   1.000000
   24       -2.204153   0.054143
   25        0.125943   0.000000
   26        3.309692   0.000000
   27        4.033642   0.000000
   28        4.473210   0.000000
 
  0.4000000E+00  0.1000000E+00  0.0000000E+00  0.4000000E-01
    1       -8.468596   1.000000
    2       -7.591240   1.000000
    3       -7.016327   1.000000
    4       -6.523775   1.000000
    5       -6.348442   1.000000
    6       -6.134169   1.000000
    7       -5.908125   1.000000
    8       -5.636259   1.000000
    9       -5.554862   1.000000
   10       -5.339140   1.000000
   11       -5.221255   1.000000
   12       -5.093534   1.000000
   13       -4.893852   1.000000
   14       -4.728681   1.000000
   15       -4.630642   1.000000
   16       -4.485731   1.000000
   17       -4.375102   1.000000
   18       -4.230381   1.000000
   19       -4.158657   1.000000
   20       -3.977947   1.000000
   21       -3.930166   1.000000
   22       -3.616694   1.000000
   23       -2.852520   1.000000
   24       -0.848501   0.000000
   25        1.741172   0.000000
   26        3.800591   0.000000
   27        4.746416   0.000000
   28        5.230244   0.000000
 
  0.5000000E+00  0.1000000E+00  0.0000000E+00  0.4000000E-01
    1       -7.946737   1.000000
    2       -6.963083   1.000000
    3       -6.875496   1.000000
    4       -6.522395   1.000000
    5       -6.445648   1.000000
    6       -6.206602   1.000000
    7       -5.901785   1.000000
    8       -5.564867   1.000000
    9       -5.400186   1.000000
   10       -5.329540   1.000000
   11       -5.219142   1.000000
   12       -4.923096   1.000000
   13       -4.803263   1.000000
   14       -4.515955   1.000000
   15       -4.375045   1.000000
   16       -4.239880   1.000000
   17       -4.136447   1.000000
   18       -4.087787   1.000000
   19       -4.018413   1.000000
   20       -3.858871   1.000000
   21       -3.318634   1.000000
   22       -2.333445   0.588045
   23       -1.354594   0.000000
   24        0.082170   0.000000
   25        0.690591   0.000000
   26        2.423162   0.000000
   27        3.551089   0.000000
   28        4.674041   0.000000
 
 -0.4000000E+00  0.1000000E+00  0.0000000E+00  0.4000000E-01
    1       -7.957786   1.000000
    2       -6.965604   1.000000
    3       -6.877626   1.000000
    4       -6.523933   1.000000
    5       -6.447572   1.000000
    6       -6.204144   1.000000
    7       -5.900504   1.000000
    8       -5.537818   1.000000
    9       -5.409202   1.000000
   10       -5.325191   1.000000
   11       -5.209936   1.000000
   12       -4.926083   1.000000
   13       -4.798137   1.000000
   14       -4.513929   1.000000
   15       -4.376910   1.000000
   16       -4.242411   1.000000
   17       -4.131938   1.000000
   18       -4.095824   1.000000
   19       -4.018058   1.000000
   20       -3.858551   1.000000
   21       -3.340603   1.000000
   22       -2.333623   0.589022
   23       -1.346726   0.000000
   24        0.090545   0.000000
   25        0.698990   0.000000
   26        2.423280   0.000000
   27        3.547217   0.000000
   28        4.678569   0.000000
 
 -0.3000000E+00  0.1000000E+00  0.0000000E+00  0.4000000E-01
    1       -8.475302   1.000000
    2       -7.600954   1.000000
    3       -7.028865   1.000000
    4       -6.527655   1.000000
    5       -6.348370   1.000000
    6       -6.129000   1.000000
    7       -5.896064   1.000000
    8       -5.624263   1.000000
    9       -5.550775   1.000000
   10       -5.323041   1.000000
   11       -5.216942   1.000000
   12       -5.082752   1.000000
   13       -4.905972   1.000000
   14       -4.732576   1.000000
   15       -4.623245   1.000000
   16       -4.495172   1.000000
   17       -4.375194   1.000000
   18       -4.246168   1.000000
   19       -4.166550   1.000000
   20       -3.980324   1.000000
   21       -3.932171   1.000000
   22       -3.618282   1.000000
   23       -2.843422   1.000000
   24       -0.821982   0.000000
   25        1.760270   0.000000
   26        3.796062   0.000000
   27        4.739873   0.000000
   28        5.228101   0.000000
 
 -0.2000000E+00  0.1000000E+00  0.0000000E+00  0.4000000E-01
    1       -9.640157   1.000000
    2       -8.701021   1.000000
    3       -7.515205   1.000000
    4       -6.483840   1.000000
    5       -6.298566   1.000000
    6       -6.010151   1.000000
    7       -5.879195   1.000000
    8       -5.742043   1.000000
    9       -5.576430   1.000000
   10       -5.293347   1.000000
   11       -5.257152   1.000000
   12       -5.177764   1.000000
   13       -5.052702   1.000000
   14       -4.925038   1.000000
   15       -4.821163   1.000000
   16       -4.747788   1.000000
   17       -4.585104   1.000000
   18       -4.481933   1.000000
   19       -4.357896   1.000000
   20       -4.292405   1.000000
   21       -4.133190   1.000000
   22       -4.039446   1.000000
   23       -3.715732   1.000000
   24       -2.178820   0.024753
   25        0.138195   0.000000
   26        3.309854   0.000000
   27        4.034782   0.000000
   28        4.465182   0.000000
 
 -0.1000000E+00  0.1000000E+00  0.0000000E+00  0.4000000E-01
    1      -10.713572   1.000000
    2       -9.722413   1.000000
    3       -8.239690   1.000000
    4       -6.911973   1.000000
    5       -6.247073   1.000000
    6       -5.798665   1.000000
    7       -5.742142   1.000000
    8       -5.585328   1.000000
    9       -5.442862   1.000000
   10       -5.328791   1.000000
   11       -5.256316   1.000000
   12       -5.165351   1.000000
   13       -5.087948   1.000000
   14       -5.080803   1.000000
   15       -4.925199   1.000000
   16       -4.838595   1.000000
   17       -4.699339   1.000000
   18       -4.607031   1.000000
   19       -4.585508   1.000000
   20       -4.446589   1.000000
   21       -4.341392   1.000000
   22       -4.078367   1.000000
   23       -4.015016   1.000000
   24       -3.147420   1.000000
   25       -1.292575   0.000000
   26        2.336932   0.000000
   27        2.828482   0.000000
   28        3.258465   0.000000
 
  0.0000000E+00  0.2000000E+00  0.0000000E+00  0.2000000E-01
    1      -10.426708   1.000000
    2       -9.453480   1.000000
    3       -8.038530   1.000000
    4       -6.774204   1.000000
    5       -6.332338   1.000000
    6       -5.885682   1.000000
    7       -5.762059   1.000000
    8       -5.638473   1.000000
    9       -5.459113   1.000000
   10       -5.265883   1.000000
   11       -5.204275   1.000000
   12       -5.197406   1.000000
   13       -5.052276   1.000000
   14       -4.999296   1.000000
   15       -4.879668   1.000000
   16       -4.811432   1.000000
   17       -4.783283   1.000000
   18       -4.596623   1.000000
   19       -4.566066   1.000000
   20       -4.429144   1.000000
   21       -4.254811   1.000000
   22       -4.073100   1.000000
   23       -3.973281   1.000000
   24       -2.892606   1.000000
   25       -0.901746   0.000000
   26        2.577316   0.000000
   27        3.131336   0.000000
   28        3.560043   0.000000
 
  0.4000000E+00  0.2000000E+00  0.0000000E+00  0.2000000E-01
    1       -8.563802   1.000000
    2       -7.678644   1.000000
    3       -6.969745   1.000000
    4       -6.414429   1.000000
    5       -6.184631   1.000000
    6       -6.075528   1.000000
    7       -5.913340   1.000000
    8       -5.835812   1.000000
    9       -5.557865   1.000000
   10       -5.409972   1.000000
   11       -5.352361   1.000000
   12       -5.287255   1.000000
   13       -4.994395   1.000000
   14       -4.926526   1.000000
   15       -4.733495   1.000000
   16       -4.626504   1.000000
   17       -4.419148   1.000000
   18       -4.256073   1.000000
   19       -4.174571   1.000000
   20       -3.984864   1.000000
   21       -3.910436   1.000000
   22       -3.561387   1.000000
   23       -2.849614   1.000000
   24       -0.973602   0.000000
   25        1.618437   0.000000
   26        4.487401   0.000000
   27        5.307336   0.000000
   28        5.656116   0.000000
 
  0.5000000E+00  0.2000000E+00  0.0000000E+00  0.4000000E-01
    1       -7.813589   1.000000
    2       -6.856683   1.000000
    3       -6.655364   1.000000
    4       -6.403078   1.000000
    5       -6.244860   1.000000
    6       -6.085684   1.000000
    7       -5.910895   1.000000
    8       -5.778536   1.000000
    9       -5.549386   1.000000
   10       -5.501334   1.000000
   11       -5.393559   1.000000
   12       -5.055797   1.000000
   13       -4.950493   1.000000
   14       -4.813890   1.000000
   15       -4.633617   1.000000
   16       -4.526277   1.000000
   17       -4.369716   1.000000
   18       -4.189665   1.000000
   19       -4.031087   1.000000
   20       -3.882597   1.000000
   21       -3.148326   1.000000
   22       -2.342213   0.635522
   23       -1.251252   0.000000
   24        0.634182   0.000000
   25        2.322939   0.000000
   26        3.505851   0.000000
   27        4.439049   0.000000
   28        5.053407   0.000000
 
 -0.4000000E+00  0.2000000E+00  0.0000000E+00  0.4000000E-01
    1       -7.671249   1.000000
    2       -6.644219   1.000000
    3       -6.570438   1.000000
    4       -6.304483   1.000000
    5       -6.290283   1.000000
    6       -6.038141   1.000000
    7       -5.917565   1.000000
    8       -5.816901   1.000000
    9       -5.552527   1.000000
   10       -5.443350   1.000000
   11       -5.321114   1.000000
   12       -5.084657   1.000000
   13       -4.882210   1.000000
   14       -4.686056   1.000000
   15       -4.558841   1.000000
   16       -4.434756   1.000000
   17       -4.275163   1.000000
   18       -4.121167   1.000000
   19       -4.052306   1.000000
   20       -3.952546   1.000000
   21       -2.334503   0.593855
   22       -0.662148   0.000000
   23       -0.069289   0.000000
   24        0.691279   0.000000
   25        0.728254   0.000000
   26        2.689912   0.000000
   27        4.043030   0.000000
   28        4.587616   0.000000
 
 -0.3000000E+00  0.2000000E+00  0.0000000E+00  0.4000000E-01
    1       -7.842864   1.000000
    2       -6.862988   1.000000
    3       -6.661067   1.000000
    4       -6.404262   1.000000
    5       -6.245737   1.000000
    6       -6.072262   1.000000
    7       -5.904490   1.000000
    8       -5.767671   1.000000
    9       -5.547694   1.000000
   10       -5.485051   1.000000
   11       -5.381764   1.000000
   12       -5.052731   1.000000
   13       -4.951323   1.000000
   14       -4.814849   1.000000
   15       -4.624382   1.000000
   16       -4.535792   1.000000
   17       -4.368993   1.000000
   18       -4.191414   1.000000
   19       -4.035891   1.000000
   20       -3.880856   1.000000
   21       -3.190532   1.000000
   22       -2.341426   0.631334
   23       -1.227671   0.000000
   24        0.689411   0.000000
   25        2.344243   0.000000
   26        3.510580   0.000000
   27        4.432301   0.000000
   28        5.062110   0.000000
 
 -0.2000000E+00  0.2000000E+00  0.0000000E+00  0.4000000E-01
    1       -8.552485   1.000000
    2       -7.702863   1.000000
    3       -7.006103   1.000000
    4       -6.425908   1.000000
    5       -6.174885   1.000000
    6       -6.073930   1.000000
    7       -5.911635   1.000000
    8       -5.834297   1.000000
    9       -5.557653   1.000000
   10       -5.409856   1.000000
   11       -5.322434   1.000000
   12       -5.280931   1.000000
   13       -4.989092   1.000000
   14       -4.917887   1.000000
   15       -4.740464   1.000000
   16       -4.633674   1.000000
   17       -4.412758   1.000000
   18       -4.261507   1.000000
   19       -4.197323   1.000000
   20       -3.981164   1.000000
   21       -3.920079   1.000000
   22       -3.561336   1.000000
   23       -2.830609   1.000000
   24       -0.918661   0.000000
   25        1.662985   0.000000
   26        4.512668   0.000000
   27        5.306605   0.000000
   28        5.669065   0.000000
 
 -0.1000000E+00  0.2000000E+00  0.0000000E+00  0.4000000E-01
    1       -9.626578   1.000000
    2       -8.703356   1.000000
    3       -7.529514   1.000000
    4       -6.504130   1.000000
    5       -6.315431   1.000000
    6       -6.015999   1.000000
    7       -5.886112   1.000000
    8       -5.743990   1.000000
    9       -5.570689   1.000000
   10       -5.293344   1.000000
   11       -5.256346   1.000000
   12       -5.169994   1.000000
   13       -5.042909   1.000000
   14       -4.923561   1.000000
   15       -4.823024   1.000000
   16       -4.746248   1.000000
   17       -4.583542   1.000000
   18       -4.482067   1.000000
   19       -4.351280   1.000000
   20       -4.291265   1.000000
   21       -4.133159   1.000000
   22       -4.039797   1.000000
   23       -3.706629   1.000000
   24       -2.158838   0.012326
   25        0.150218   0.000000
   26        3.312367   0.000000
   27        4.035668   0.000000
   28        4.482599   0.000000
 
  0.0000000E+00  0.3000000E+00  0.0000000E+00  0.2000000E-01
    1       -9.161096   1.000000
    2       -8.302877   1.000000
    3       -7.365923   1.000000
    4       -6.585801   1.000000
    5       -6.379150   1.000000
    6       -6.135312   1.000000
    7       -5.855081   1.000000
    8       -5.650004   1.000000
    9       -5.515103   1.000000
   10       -5.275380   1.000000
   11       -5.176694   1.000000
   12       -5.041972   1.000000
   13       -4.866469   1.000000
   14       -4.815282   1.000000
   15       -4.741224   1.000000
   16       -4.629549   1.000000
   17       -4.508166   1.000000
   18       -4.370625   1.000000
   19       -4.333476   1.000000
   20       -4.243711   1.000000
   21       -4.119843   1.000000
   22       -3.960511   1.000000
   23       -3.586696   1.000000
   24       -1.727859   0.000000
   25        0.757347   0.000000
   26        3.748720   0.000000
   27        4.602564   0.000000
   28        4.984485   0.000000
 
 -0.4000000E+00  0.3000000E+00  0.0000000E+00  0.2000000E-01
    1       -7.521541   1.000000
    2       -6.442562   1.000000
    3       -6.371008   1.000000
    4       -6.230036   1.000000
    5       -6.161355   1.000000
    6       -6.042339   1.000000
    7       -5.947253   1.000000
    8       -5.864608   1.000000
    9       -5.644294   1.000000
   10       -5.589664   1.000000
   11       -5.428104   1.000000
   12       -5.030627   1.000000
   13       -4.978372   1.000000
   14       -4.809384   1.000000
   15       -4.647187   1.000000
   16       -4.494219   1.000000
   17       -4.440654   1.000000
   18       -4.148945   1.000000
   19       -4.068073   1.000000
   20       -3.977560   1.000000
   21       -1.915686   0.000000
   22       -0.353049   0.000000
   23        0.746000   0.000000
   24        1.712173   0.000000
   25        2.348092   0.000000
   26        2.401288   0.000000
   27        3.264436   0.000000
   28        4.027575   0.000000
 
 -0.3000000E+00  0.3000000E+00  0.0000000E+00  0.4000000E-01
    1       -7.544354   1.000000
    2       -6.439372   1.000000
    3       -6.368563   1.000000
    4       -6.228039   1.000000
    5       -6.155247   1.000000
    6       -6.044826   1.000000
    7       -5.946727   1.000000
    8       -5.864054   1.000000
    9       -5.649081   1.000000
   10       -5.575381   1.000000
   11       -5.428091   1.000000
   12       -5.030508   1.000000
   13       -4.978318   1.000000
   14       -4.800629   1.000000
   15       -4.651361   1.000000
   16       -4.493989   1.000000
   17       -4.441659   1.000000
   18       -4.151397   1.000000
   19       -4.067953   1.000000
   20       -3.976008   1.000000
   21       -1.959317   0.000000
   22       -0.347461   0.000000
   23        0.795314   0.000000
   24        1.810163   0.000000
   25        2.367510   0.000000
   26        2.397527   0.000000
   27        3.270687   0.000000
   28        4.054699   0.000000
 
 -0.2000000E+00  0.3000000E+00  0.0000000E+00  0.4000000E-01
    1       -7.822802   1.000000
    2       -6.872974   1.000000
    3       -6.667592   1.000000
    4       -6.414662   1.000000
    5       -6.240672   1.000000
    6       -6.093766   1.000000
    7       -5.908105   1.000000
    8       -5.774742   1.000000
    9       -5.544605   1.000000
   10       -5.494559   1.000000
   11       -5.378894   1.000000
   12       -5.052423   1.000000
   13       -4.947102   1.000000
   14       -4.806861   1.000000
   15       -4.636468   1.000000
   16       -4.525961   1.000000
   17       -4.369743   1.000000
   18       -4.189620   1.000000
   19       -4.036045   1.000000
   20       -3.880785   1.000000
   21       -3.202472   1.000000
   22       -2.339981   0.623598
   23       -1.216061   0.000000
   24        0.746234   0.000000
   25        2.495333   0.000000
   26        3.578105   0.000000
   27        4.271970   0.000000
   28        4.921797   0.000000
 
 -0.1000000E+00  0.3000000E+00  0.0000000E+00  0.4000000E-01
    1       -8.423488   1.000000
    2       -7.621874   1.000000
    3       -7.062272   1.000000
    4       -6.562190   1.000000
    5       -6.348683   1.000000
    6       -6.150394   1.000000
    7       -5.916870   1.000000
    8       -5.636044   1.000000
    9       -5.551089   1.000000
   10       -5.317424   1.000000
   11       -5.221756   1.000000
   12       -5.081649   1.000000
   13       -4.891843   1.000000
   14       -4.727861   1.000000
   15       -4.627557   1.000000
   16       -4.489514   1.000000
   17       -4.372375   1.000000
   18       -4.244804   1.000000
   19       -4.160130   1.000000
   20       -3.979094   1.000000
   21       -3.932891   1.000000
   22       -3.614980   1.000000
   23       -2.821020   1.000000
   24       -0.764087   0.000000
   25        1.853357   0.000000
   26        3.883386   0.000000
   27        4.721023   0.000000
   28        5.155751   0.000000
 
  0.0000000E+00  0.4000000E+00  0.0000000E+00  0.2000000E-01
    1       -8.176216   1.000000
    2       -7.347411   1.000000
    3       -7.057128   1.000000
    4       -6.664808   1.000000
    5       -6.484435   1.000000
    6       -6.276368   1.000000
    7       -5.929947   1.000000
    8       -5.471307   1.000000
    9       -5.334355   1.000000
   10       -5.260564   1.000000
   11       -5.257677   1.000000
   12       -4.910957   1.000000
   13       -4.741729   1.000000
   14       -4.466904   1.000000
   15       -4.368095   1.000000
   16       -4.352467   1.000000
   17       -4.100306   1.000000
   18       -4.079162   1.000000
   19       -4.048369   1.000000
   20       -3.964177   1.000000
   21       -3.802390   1.000000
   22       -3.548888   1.000000
   23       -2.522413   0.998104
   24       -0.336459   0.000000
   25        1.732538   0.000000
   26        2.856857   0.000000
   27        3.607635   0.000000
   28        4.523902   0.000000
 
 -0.2000000E+00  0.4000000E+00  0.0000000E+00  0.2000000E-01
    1       -7.672514   1.000000
    2       -6.640295   1.000000
    3       -6.579220   1.000000
    4       -6.322219   1.000000
    5       -6.286184   1.000000
    6       -6.052994   1.000000
    7       -5.910019   1.000000
    8       -5.805691   1.000000
    9       -5.572452   1.000000
   10       -5.442013   1.000000
   11       -5.317424   1.000000
   12       -5.086003   1.000000
   13       -4.875548   1.000000
   14       -4.685680   1.000000
   15       -4.554485   1.000000
   16       -4.437344   1.000000
   17       -4.274243   1.000000
   18       -4.121741   1.000000
   19       -4.052636   1.000000
   20       -3.951667   1.000000
   21       -2.411814   0.908376
   22       -0.674420   0.000000
   23       -0.087220   0.000000
   24        0.675482   0.000000
   25        1.133325   0.000000
   26        2.765078   0.000000
   27        4.115711   0.000000
   28        4.135803   0.000000
 
 -0.1000000E+00  0.4000000E+00  0.0000000E+00  0.4000000E-01
    1       -7.915750   1.000000
    2       -6.961883   1.000000
    3       -6.896356   1.000000
    4       -6.561446   1.000000
    5       -6.450255   1.000000
    6       -6.232207   1.000000
    7       -5.920523   1.000000
    8       -5.537390   1.000000
    9       -5.416439   1.000000
   10       -5.320929   1.000000
   11       -5.210769   1.000000
   12       -4.945653   1.000000
   13       -4.794203   1.000000
   14       -4.509199   1.000000
   15       -4.378381   1.000000
   16       -4.240906   1.000000
   17       -4.132888   1.000000
   18       -4.091317   1.000000
   19       -4.018843   1.000000
   20       -3.858134   1.000000
   21       -3.384616   1.000000
   22       -2.328569   0.561018
   23       -1.331848   0.000000
   24        0.119983   0.000000
   25        1.066635   0.000000
   26        2.490999   0.000000
   27        3.503034   0.000000
   28        4.335574   0.000000
 
  0.0000000E+00  0.5000000E+00  0.0000000E+00  0.1000000E-01
    1       -7.967847   1.000000
    2       -7.019972   1.000000
    3       -6.992638   1.000000
    4       -6.641868   1.000000