unknown system                          
   1.00000000000000     
     2.573869    0.000000    0.000000
     1.286934    2.229036    0.000000
     0.000000    0.000000   30.304665
   Cu   H 
     4     1
Direct
  0.000000  0.000000  0.395979
  0.333333  0.333333  0.465326
  0.666667  0.666667  0.534674
  0.000000  0.000000  0.604021
  0.310902  0.378196  0.637020
 
   10   10  120
 0.46193E-10 0.63053E-11 0.50475E-12 0.27807E-11 0.17331E-12 0.55511E-11 0.12407E-13 0.22415E-10 0.57926E-12 0.52968E-10
 0.69622E-10 0.30117E-10 0.17134E-11 0.10748E-12 0.26631E-13 0.33200E-07 0.99212E-13 0.36282E-10 0.28354E-13 0.20348E-10
 0.55674E-12 0.23415E-12 0.86535E-12 0.83027E-12 0.16986E-13 0.12365E-13 0.70333E-13 0.22491E-10 0.12554E-12 0.10338E-11
 0.75123E-10 0.25942E-10 0.17018E-12 0.26895E-13 0.34556E-13 0.78598E-12 0.21122E-13 0.67490E-11 0.43594E-12 0.17227E-08
 0.57847E-12 0.26644E-12 0.12865E-13 0.20123E-13 0.77161E-13 0.41146E-12 0.84932E-14 0.27622E-12 0.24200E-12 0.48456E-12
 0.13564E-10 0.81157E-09 0.32327E-12 0.28449E-13 0.12601E-13 0.67231E-11 0.66405E-13 0.74313E-12 0.48184E-13 0.65754E-11
 0.29393E-13 0.54123E-15 0.86223E-13 0.45389E-12 0.13461E-13 0.72997E-14 0.60507E-14 0.17930E-13 0.16376E-13 0.11549E-12
 0.19115E-10 0.19331E-10 0.17813E-11 0.30133E-12 0.12591E-12 0.97164E-12 0.23787E-13 0.31017E-13 0.15377E-13 0.89372E-11
 0.36471E-12 0.45181E-12 0.53842E-13 0.10872E-12 0.82823E-13 0.43923E-13 0.67030E-14 0.21334E-12 0.22300E-12 0.25173E-12
 0.62906E-10 0.36612E-10 0.14706E-11 0.74344E-12 0.72761E-13 0.10776E-09 0.26701E-13 0.11619E-10 0.43139E-12 0.32262E-10
 0.92430E-12 0.14356E-12 0.66192E-12 0.53981E-11 0.25313E-13 0.19078E-12 0.87347E-13 0.34131E-12 0.72893E-13 0.84099E-12
 0.10596E-11 0.25651E-09 0.24288E-11 0.15070E-12 0.10492E-13 0.12665E-10 0.32661E-12 0.23416E-10 0.91038E-13 0.24170E-10
 0.56887E-12 0.53688E-12 0.77539E-12 0.50393E-12 0.67585E-14 0.65226E-14 0.14011E-12 0.13949E-10 0.11485E-12 0.10728E-11
 0.12877E-11 0.61147E-11 0.70929E-13 0.48850E-14 0.99365E-14 0.26489E-12 0.10128E-12 0.60914E-11 0.37723E-12 0.53772E-08
 0.33584E-13 0.87458E-13 0.55511E-14 0.53846E-14 0.19623E-13 0.96048E-13 0.11185E-13 0.90233E-13 0.16744E-12 0.14680E-12
 0.21225E-12 0.19879E-10 0.18174E-12 0.19929E-13 0.78965E-14 0.52202E-11 0.14262E-12 0.45376E-10 0.10997E-12 0.12841E-10
 0.18961E-12 0.68001E-14 0.20857E-12 0.16363E-11 0.15682E-13 0.26992E-13 0.40384E-13 0.12965E-12 0.40995E-13 0.24748E-12
 0.34466E-11 0.16158E-10 0.19696E-11 0.42098E-12 0.46171E-13 0.36759E-10 0.13353E-12 0.78830E-12 0.58092E-13 0.16730E-08
 0.53013E-13 0.48059E-12 0.80002E-13 0.15996E-12 0.60604E-13 0.13188E-12 0.17666E-13 0.43755E-12 0.27285E-12 0.12450E-12
 0.30894E-12 0.33698E-10 0.12144E-11 0.81575E-12 0.30184E-13 0.10246E-10 0.66308E-13 0.43005E-07 0.39180E-12 0.54608E-11
 0.25986E-13 0.13489E-13 0.49662E-13 0.18777E-12 0.51487E-14 0.19151E-13 0.21788E-13 0.31919E-14 0.98740E-14 0.42938E-13
 0.46949E-13 0.11332E-10 0.26663E-11 0.40593E-13 0.37192E-14 0.15105E-11 0.10053E-11 0.15132E-10 0.99268E-13 0.24319E-10
 0.40738E-13 0.12068E-11 0.41399E-12 0.15807E-12 0.29421E-14 0.49960E-15 0.12747E-12 0.64844E-11 0.82830E-13 0.10307E-11
 0.33765E-13 0.16858E-11 0.14544E-13 0.12212E-14 0.39135E-14 0.67862E-13 0.29962E-12 0.57496E-11 0.29787E-12 0.51312E-09
 0.47184E-14 0.34028E-13 0.27478E-14 0.18874E-14 0.62450E-14 0.24786E-13 0.88263E-14 0.25646E-13 0.66544E-13 0.45935E-13
 0.15626E-13 0.16054E-11 0.60646E-13 0.51625E-14 0.40523E-14 0.50637E-11 0.29596E-12 0.65025E-09 0.91732E-13 0.35789E-11
 0.26951E-13 0.84793E-14 0.24736E-12 0.48999E-11 0.12532E-13 0.10215E-12 0.20910E-12 0.55977E-12 0.66586E-13 0.49245E-12
 0.10530E-12 0.12936E-10 0.18338E-11 0.19770E-12 0.14183E-13 0.76464E-08 0.37714E-12 0.49854E-11 0.68584E-13 0.33185E-10
 0.76814E-14 0.35053E-12 0.81955E-13 0.20944E-12 0.34375E-13 0.14896E-12 0.30503E-13 0.28436E-12 0.21798E-12 0.48725E-13
 0.20740E-13 0.26242E-10 0.93630E-12 0.72259E-12 0.86597E-14 0.43012E-11 0.15851E-12 0.28951E-10 0.31646E-12 0.21466E-11
 0.59536E-14 0.56760E-14 0.11491E-13 0.36693E-13 0.18041E-14 0.43854E-14 0.44270E-14 0.52736E-15 0.21788E-14 0.71887E-14
 0.89512E-14 0.33141E-11 0.31554E-11 0.84155E-13 0.26645E-14 0.74799E-12 0.82749E-11 0.10484E-10 0.17010E-12 0.31734E-10
 0.81324E-14 0.48865E-11 0.35114E-12 0.11527E-12 0.17764E-14 0.13878E-14 0.17147E-12 0.40551E-11 0.66017E-13 0.94337E-12
 0.70777E-14 0.99071E-12 0.11269E-13 0.44409E-15 0.20817E-14 0.48767E-13 0.27613E-11 0.50835E-11 0.22433E-12 0.16675E-09
 0.14572E-14 0.21205E-13 0.16931E-14 0.10547E-14 0.27200E-14 0.10436E-13 0.87569E-14 0.15946E-13 0.30934E-13 0.23037E-13
 0.34972E-14 0.68401E-12 0.40523E-13 0.73830E-14 0.40246E-14 0.43106E-11 0.10149E-11 0.51240E-10 0.12322E-12 0.17659E-11
 0.49127E-14 0.16473E-12 0.37137E-12 0.45090E-10 0.11824E-13 0.65931E-12 0.87280E-12 0.30476E-12 0.10873E-12 0.13083E-11
 0.22315E-13 0.10608E-10 0.22523E-11 0.31621E-12 0.73830E-14 0.68488E-10 0.23408E-12 0.44625E-12 0.12332E-12 0.57265E-11
 0.17625E-14 0.36088E-12 0.94258E-13 0.24741E-12 0.22662E-13 0.19468E-12 0.57385E-13 0.26996E-12 0.17349E-12 0.15501E-13
 0.69666E-14 0.27846E-10 0.68624E-12 0.40688E-12 0.47323E-14 0.19976E-11 0.55243E-12 0.55824E-11 0.25266E-12 0.11849E-11
 0.17902E-14 0.24980E-14 0.42188E-14 0.11241E-13 0.70777E-15 0.14988E-14 0.86042E-15 -.13878E-16 0.47184E-15 0.15404E-14
 0.22621E-14 0.15902E-11 0.20468E-11 0.88402E-14 0.15543E-14 0.29926E-12 0.16278E-09 0.75942E-11 0.19872E-12 0.33920E-10
 0.25396E-14 0.79054E-10 0.23470E-12 0.45353E-13 0.80491E-15  0.0000     0.66336E-13 0.19106E-11 0.50071E-13 0.96649E-12
 0.18319E-14 0.42710E-12 0.23870E-14  0.0000     0.10825E-14 0.19706E-13 0.21564E-10 0.47038E-11 0.22679E-12 0.89029E-10
 0.44409E-15 0.11435E-13 0.99920E-15 0.38858E-15 0.80491E-15 0.37192E-14 0.55789E-14 0.69805E-14 0.13295E-13 0.97561E-14
 0.11657E-14 0.22338E-12 0.16154E-13 0.22204E-14 0.28311E-14 0.46090E-11 0.19066E-11 0.27390E-11 0.49807E-13 0.20572E-11
 0.10270E-14 0.21513E-12 0.20972E-12 0.34742E-10 0.83267E-14 0.16756E-11 0.14608E-12 0.32113E-13 0.58759E-13 0.13429E-11
 0.71332E-14 0.87614E-11 0.20563E-11 0.24461E-12 0.27062E-14 0.25266E-11 0.28755E-13 0.38372E-13 0.54928E-13 0.29328E-11
 0.48572E-15 0.29260E-12 0.10426E-12 0.34002E-12 0.13878E-13 0.83045E-13 0.38636E-13 0.82184E-13 0.10662E-12 0.52042E-14
 0.25951E-14 0.23050E-10 0.54458E-12 0.26955E-12 0.16515E-14 0.23314E-11 0.89150E-12 0.29257E-11 0.22937E-12 0.73193E-12
 0.61062E-15 0.13045E-14 0.23176E-14 0.45935E-14 0.40246E-15 0.52736E-15 0.24980E-15 -.41633E-16 0.12490E-15 0.29143E-15
 0.58287E-15 0.88016E-12 0.79561E-12 0.36915E-14 0.80491E-15 0.17464E-12 0.40581E-09 0.56190E-11 0.28821E-12 0.56303E-10
 0.13184E-14 0.21619E-10 0.18538E-12 0.31392E-13 0.55511E-15 -.27756E-16 0.31114E-13 0.92705E-12 0.43382E-13 0.85074E-12
 0.54123E-15 0.26232E-12 0.14433E-14 0.83267E-16 0.63838E-15 0.13545E-13 0.32356E-09 0.41328E-11 0.18444E-12 0.53521E-10
 0.19429E-15 0.74940E-14 0.61062E-15 0.19429E-15 0.47184E-15 0.16376E-14 0.43021E-14 0.41633E-14 0.84793E-14 0.55234E-14
 0.38858E-15 0.11285E-12 0.10492E-13 0.18041E-14 0.22482E-14 0.43063E-11 0.21540E-11 0.60349E-12 0.32044E-13 0.18903E-11
 0.36082E-15 0.37498E-12 0.12862E-12 0.12705E-10 0.64948E-14 0.19620E-11 0.52083E-13 0.83961E-14 0.32821E-13 0.86439E-12
 0.30670E-14 0.70499E-11 0.25175E-11 0.14166E-12 0.12212E-14 0.46767E-12 0.64948E-14 0.11421E-13 0.42119E-13 0.15840E-11
 0.20817E-15 0.30208E-12 0.12598E-12 0.41783E-12 0.10825E-13 0.58689E-13 0.26160E-13 0.41592E-13 0.92260E-13 0.26368E-15
 0.11102E-14 0.37357E-10 0.28895E-12 0.16015E-13 0.76328E-15 0.21581E-11 0.83464E-12 0.15964E-11 0.19322E-12 0.50866E-12
 0.38858E-15 0.91593E-15 0.11796E-14 0.25396E-14 0.22204E-15 0.36082E-15 0.16653E-15 0.27756E-16 0.55511E-16 0.11102E-15
 0.24980E-15 0.54205E-12 0.14869E-12 0.11657E-14 0.58287E-15 0.99698E-13 0.21165E-09 0.43371E-11 0.27846E-12 0.66697E-10
 0.61062E-15 0.38085E-11 0.14580E-12 0.17514E-13 0.27756E-15  0.0000     0.11130E-13 0.40369E-12 0.26118E-13 0.78230E-12
 0.16653E-15 0.14597E-12 0.30531E-15 -.55511E-16 0.38858E-15 0.84099E-14 0.19706E-10 0.37724E-11 0.17152E-12 0.38568E-10
 0.83267E-16 0.49127E-14 0.49960E-15 0.83267E-16 0.22204E-15 0.61062E-15 0.29143E-14 0.26229E-14 0.46352E-14 0.32890E-14
 0.24980E-15 0.52153E-13 0.56621E-14 0.10547E-14 0.17486E-14 0.48724E-11 0.49090E-12 0.10970E-12 0.12962E-13 0.38224E-11
 0.22204E-15 0.13520E-12 0.66003E-13 0.22352E-11 0.47462E-14 0.57850E-12 0.13531E-13 0.25258E-14 0.97283E-14 0.23535E-12
 0.15404E-14 0.57312E-11 0.24581E-11 0.46574E-13 0.59674E-15 0.78937E-13 0.16792E-14 0.41356E-14 0.18735E-13 0.11289E-11
 0.55511E-16 0.20781E-12 0.12117E-12 0.53826E-12 0.73275E-14 0.27325E-13 0.98255E-14 0.14634E-13 0.55761E-13 0.57732E-14
 0.76328E-15 0.39062E-10 0.81019E-13 0.55081E-13 0.51348E-15 0.63900E-11 0.29014E-12 0.11516E-11 0.16937E-12 0.36593E-12
 0.22204E-15 0.61062E-15 0.79103E-15 0.19706E-14 0.16653E-15 0.16653E-15 0.13878E-15 0.55511E-16 0.83267E-16 0.13878E-16
 0.83267E-16 0.33607E-12 0.27478E-14 0.15682E-13 0.38858E-15 0.63227E-13 0.13123E-10 0.33931E-11 0.35372E-12 0.16707E-09
 0.38858E-15 0.16433E-11 0.11337E-12 0.11935E-13 0.22204E-15 0.13878E-15 0.19290E-14 0.10870E-12 0.21469E-13 0.74185E-12
 0.11102E-15 0.84627E-13 0.11102E-15 0.11102E-15 0.36082E-15 0.56066E-14 0.35423E-11 0.33018E-11 0.15541E-12 0.28532E-10
  0.0000     0.35527E-14 0.36082E-15 0.83267E-16 0.19429E-15 0.27756E-15 0.21372E-14 0.16653E-14 0.28658E-14 0.19845E-14
 0.16653E-15 0.27423E-13 0.34972E-14 0.69389E-15 0.13600E-14 0.49091E-11 0.14413E-12 0.45186E-13 0.73552E-14 0.59998E-11
 0.16653E-15 0.58120E-13 0.31503E-13 0.72689E-12 0.36637E-14 0.23678E-12 0.56344E-14 0.10270E-14 0.37748E-14 0.76876E-13
 0.91593E-15 0.45938E-11 0.32465E-11 0.41633E-16 0.34694E-15 0.24453E-13 0.65226E-15 0.19429E-14 0.12892E-13 0.77494E-12
 0.83267E-16 0.20151E-12 0.13951E-12 0.85081E-12 0.54540E-14 0.17590E-13 0.43854E-14 0.63838E-14 0.31197E-13 0.28776E-13
 0.39552E-15 0.27347E-09 0.27894E-14 0.72210E-12 0.15266E-15 0.27127E-10 0.11874E-12 0.79636E-12 0.15361E-12 0.28016E-12
 0.97145E-16 0.52736E-15 0.49960E-15 0.13739E-14 0.83267E-16 0.13878E-16 0.83267E-16 0.55511E-16  0.0000     0.20817E-16
 0.11102E-15 0.17826E-12 0.37081E-13 0.40690E-13 0.27756E-15 0.42091E-13 0.23712E-11 0.27262E-11 0.36737E-12 0.32738E-09
 0.20817E-15 0.93203E-12 0.92239E-13 0.98532E-14 0.18041E-15 0.83267E-16 0.10131E-14 0.26368E-15 0.13767E-13 0.67856E-12
  0.0000     0.46178E-13 0.55511E-16 -.13878E-16 0.33307E-15 0.43021E-14 0.92468E-12 0.29710E-11 0.10164E-12 0.22721E-10
 0.55511E-16 0.25813E-14 0.30531E-15 0.83267E-16 0.55511E-16 0.16653E-15 0.15682E-14 0.10547E-14 0.18388E-14 0.11796E-14
 0.55511E-16 0.14058E-13 0.25258E-14 0.55511E-15 0.11657E-14 0.65306E-11 0.36270E-13 0.20040E-13 0.46560E-14 0.48882E-10
 -.27756E-16 0.25036E-13 0.19401E-13 0.25038E-12 0.28311E-14 0.97727E-13 0.30254E-14 0.49960E-15 0.15266E-14 0.22676E-13
 0.55511E-15 0.37813E-11 0.31480E-11 0.51562E-12 0.13878E-15 0.95202E-14 0.28449E-15 0.11380E-14 0.86875E-14 0.61928E-12
 0.13878E-15 0.15372E-12 0.13832E-12 0.10677E-11 0.42327E-14 0.11206E-13 0.22066E-14 0.29629E-14 0.15210E-13 0.11570E-12
 0.22898E-15 0.95478E-10 0.81650E-13 0.27592E-11 0.13878E-15 0.11375E-10 0.46164E-13 0.64541E-12 0.15074E-12 0.21745E-12
 0.12490E-15 0.37470E-15 0.40246E-15 0.15266E-14 0.41633E-16 0.90206E-16 0.11102E-15 0.41633E-16 -.27756E-16 0.13878E-16
 0.76328E-16 0.11773E-12 0.62700E-13 0.94355E-13 0.15959E-15 0.33622E-13 0.90625E-12 0.30563E-11 0.48042E-12 0.14028E-07
 0.19429E-15 0.63457E-12 0.77074E-13 0.85834E-14 0.23592E-15 0.55511E-16 0.13878E-15 0.15252E-13 0.13392E-13 0.75425E-12
 0.27756E-16 0.21816E-13  0.0000     -.45103E-16 0.13878E-15 0.32474E-14 0.34572E-12 0.26853E-11 0.11036E-12 0.16922E-10
 -.13878E-16 0.21441E-14 0.19776E-15 0.16653E-15 0.11102E-15 0.11102E-15 0.12629E-14 0.91593E-15 0.12768E-14 0.88124E-15
 0.13878E-15 0.98602E-14 0.16098E-14 0.31919E-15 0.10547E-14 0.64374E-11 0.14884E-13 0.10755E-13 0.27756E-14 0.33726E-09
 0.83267E-16 0.12185E-13 0.11574E-13 0.11202E-12 0.22621E-14 0.54824E-13 0.19984E-14 0.23592E-15 0.82573E-15 0.10367E-13
 0.40246E-15 0.30392E-11 0.38418E-11 0.18291E-12 0.17347E-15 0.43854E-14 0.90206E-16 0.62450E-15 0.58356E-14 0.46860E-12
 0.13878E-16 0.17887E-12 0.16002E-12 0.18673E-11 0.34278E-14 0.74524E-14 0.13808E-14 0.14364E-14 0.71748E-14 0.14887E-12
 0.20817E-15 0.13074E-10 0.15405E-12 0.32728E-11 0.10408E-15 0.33643E-11 0.25382E-13 0.48986E-12 0.19204E-12 0.26309E-12
 0.83267E-16 0.37470E-15 0.26368E-15 0.10755E-14 0.11102E-15 0.10408E-15 0.34694E-16 0.69389E-16 0.13878E-16 0.13878E-16
 -.34694E-16 0.51156E-12 0.98442E-13 0.11304E-12 0.15266E-15 0.20865E-13 0.46816E-12 0.29947E-11 0.42990E-12 0.14110E-08
 0.11102E-15 0.57995E-12 0.58883E-13 0.65642E-14 0.83267E-16 0.69389E-16 0.27756E-16 0.13456E-12 0.61756E-14 0.55955E-12
 -.34694E-16 0.79450E-14 -.34694E-17 0.69389E-16 0.13878E-15 0.23974E-14 0.17557E-12 0.23985E-11 0.75051E-13 0.15062E-10
 0.83267E-16 0.15404E-14 0.18735E-15 0.97145E-16 0.20817E-16 0.27756E-16 0.81879E-15 0.58981E-15 0.74940E-15 0.49266E-15
 0.90206E-16 0.38372E-14 0.11241E-14 0.22898E-15 0.74246E-15 0.13250E-10 0.44062E-14 0.53013E-14 0.16237E-14 0.84942E-11
 0.48572E-16 0.77091E-14 0.60091E-14 0.55539E-13 0.16515E-14 0.29823E-13 0.11241E-14 0.15266E-15 0.25674E-15 0.30392E-14
 0.31225E-15 0.24849E-11 0.36728E-11 0.23538E-11 0.11102E-15 0.14433E-14 0.27756E-16 0.45797E-15 0.39552E-14 0.39591E-12
 0.34694E-16 0.10521E-12 0.15090E-12 0.22799E-11 0.25396E-14 0.49474E-14 0.61062E-15 0.57593E-15 0.14294E-14 0.47813E-12
 0.20817E-16 0.93088E-12 0.60167E-11 0.37157E-11 0.69389E-16 0.45400E-12 0.12261E-13 0.42005E-12 0.19132E-12 0.21937E-12
 0.17347E-15 0.41633E-15 0.37470E-15 0.94369E-15 0.83267E-16 -.13878E-16 0.12490E-15 0.13878E-16 0.69389E-17 0.41633E-16
 -.20817E-16 0.32076E-12 0.99531E-13 0.16768E-12 0.12490E-15 0.17771E-13 0.28832E-12 0.32720E-11 0.77430E-12 0.10049E-09
 0.48572E-16 0.58577E-12 0.53901E-13 0.72858E-14 0.20817E-15 0.34694E-16 0.55511E-16 0.22105E-12 0.61756E-14 0.57552E-12
 -.20817E-16 0.14641E-14 -.11102E-15 -.27756E-16 0.15266E-15 0.23870E-14 0.99150E-13 0.21470E-11 0.77993E-13 0.12129E-10
 -.69389E-17 0.13461E-14 0.15959E-15 0.90206E-16 -.62450E-16 0.13878E-15 0.72858E-15 0.59674E-15 0.61062E-15 0.42327E-15
 0.27756E-16 0.29490E-14 0.96451E-15 0.27756E-15 0.77716E-15 0.13938E-10 0.26160E-14 0.42119E-14 0.15751E-14 0.52821E-11
 0.20817E-16 0.44756E-14 0.46976E-14 0.31128E-13 0.14225E-14 0.20921E-13 0.10547E-14 0.20123E-15 0.25674E-15 0.17972E-14
 0.23592E-15 0.20154E-11 0.43122E-11 0.73695E-11 0.11796E-15 0.12421E-14 0.69389E-16 0.40939E-15 0.35250E-14 0.31668E-12
  0.0000     0.10517E-12 0.17004E-12 0.34661E-11 0.22204E-14 0.42882E-14 0.54817E-15 0.54123E-15 0.99226E-15 0.89599E-12
 0.13878E-15 0.20754E-12 0.21554E-10 0.33235E-11 0.62450E-16 0.30890E-12 0.84932E-14 0.33918E-12 0.22242E-12 0.25697E-12
 0.13878E-16 0.49266E-15 0.38858E-15 0.10894E-14 0.55511E-16 -.20817E-16 0.48572E-16 0.34694E-16 -.48572E-16 0.13878E-16
 -.83267E-16 0.21030E-12 0.10314E-12 0.19523E-12 0.69389E-16 0.12781E-13 0.18927E-12 0.33276E-11 0.10105E-11 0.56006E-10
 -.69389E-17 0.55383E-12 0.53423E-13 0.56205E-14 0.10408E-15 0.76328E-16 0.10408E-15 0.36504E-12 0.37401E-14 0.55043E-12
 0.20817E-16 0.90206E-16 -.10408E-15 0.48572E-16 0.12490E-15 0.21164E-14 0.67037E-13 0.19762E-11 0.56316E-13 0.10166E-10
 -.90206E-16 0.10755E-14 0.13878E-15 0.69389E-16 0.34694E-16 -.76328E-16 0.54123E-15 0.38858E-15 0.48572E-15 0.32613E-15
 0.76328E-16 0.14849E-14 0.61062E-15 0.13184E-15 0.58981E-15 0.35292E-10 0.97145E-15 0.24564E-14 0.87430E-15 0.16303E-11
 -.62450E-16 0.34070E-14 0.27825E-14 0.18090E-13 0.12004E-14 0.13517E-13 0.61756E-15 0.10408E-15 0.10408E-15 0.49960E-15
 0.20123E-15 0.16525E-11 0.39376E-11 0.26162E-11 0.41633E-16 0.50654E-15 -.13878E-16 0.30531E-15 0.24356E-14 0.34413E-12
 0.69389E-17 0.88624E-13 0.17629E-12 0.41673E-11 0.19013E-14 0.29768E-14 0.32613E-15 0.20123E-15 0.15959E-15 0.35339E-11
 0.34694E-16 0.47441E-13 0.54703E-09 0.27507E-11 0.62450E-16 0.13287E-12 0.48989E-14 0.33091E-12 0.22443E-12 0.28148E-12
 0.69389E-16 0.52042E-15 0.35388E-15 0.86042E-15 0.55511E-16 -.69389E-17 0.34694E-16 0.20817E-16 0.13878E-16 0.41633E-16
 0.13878E-16 0.16290E-12 0.98123E-13 0.26922E-12  0.0000     0.99712E-14 0.13194E-12 0.36449E-11 0.12791E-11 0.15693E-10
 0.69389E-16 0.55859E-12 0.59452E-13 0.52180E-14 0.15266E-15 -.13878E-16 0.11796E-15 0.47451E-12 0.17764E-14 0.52469E-12
 -.55511E-16 0.31086E-14 -.18041E-15 -.11102E-15 -.13878E-16 0.21372E-14 0.51889E-13 0.16919E-11 0.43250E-13 0.91455E-11
 -.10408E-15 0.12351E-14 -.41633E-16 0.27756E-16 0.83267E-16 0.69389E-16 0.38858E-15 0.31225E-15 0.45797E-15 0.21511E-15
 -.69389E-16 0.71471E-15 0.40246E-15 0.13878E-15 0.55511E-15 0.74565E-10 0.38858E-15 0.17347E-14 0.79103E-15 0.10044E-11
 -.48572E-16 0.21788E-14 0.21025E-14 0.10963E-13 0.82573E-15 0.96798E-14 0.50654E-15 0.14572E-15  0.0000     0.24980E-15
 0.62450E-16 0.13499E-11 0.40979E-11 0.12508E-09 0.76328E-16 0.19429E-15 0.69389E-16 0.15266E-15 0.19082E-14 0.32449E-12
 0.34694E-16 0.74676E-13 0.18675E-12 0.54370E-11 0.15543E-14 0.23523E-14 0.27756E-15 0.15266E-15 0.13878E-15 0.38127E-09
 0.55511E-16 0.21094E-14 0.26273E-10 0.22507E-11 0.13878E-16 0.78743E-13 0.32960E-14 0.29256E-12 0.23404E-12 0.32860E-12
 0.41633E-16 0.53429E-15 0.43715E-15 0.95757E-15 -.69389E-17  0.0000     0.27756E-16  0.0000     -.13878E-16 0.48572E-16
  0.0000     0.13016E-12 0.87721E-13 0.37147E-12 0.15266E-15 0.84030E-14 0.11339E-12 0.39244E-11 0.18381E-11 0.10450E-10
 0.34694E-16 0.59510E-12 0.61742E-13 0.52042E-14 0.55511E-16 0.19429E-15 0.28449E-15 0.55544E-12 0.18041E-14 0.51407E-12
 -.48572E-16 0.11463E-13 -.90206E-16 0.55511E-16 0.83267E-16 0.21511E-14 0.50814E-13 0.15671E-11 0.48316E-13 0.74914E-11
 -.10408E-15 0.14780E-14 0.15959E-15 -.12490E-15 0.27756E-16 -.13878E-16 0.29143E-15 0.26368E-15 0.30531E-15 0.17347E-15
 0.76328E-16 0.58287E-15 0.40246E-15 0.41633E-16 0.59674E-15 0.62557E-09 0.24286E-15 0.12594E-14 0.58981E-15 0.57618E-12
 -.62450E-16 0.17555E-14 0.15682E-14 0.74177E-14 0.76328E-15 0.72026E-14 0.43021E-15 0.34694E-16 -.10408E-16 0.15266E-15
 0.20123E-15 0.11214E-11 0.67775E-11 0.10587E-09 0.76328E-16 0.18041E-15 -.52042E-17 0.18908E-15 0.16792E-14 0.33682E-12
 0.20817E-16 0.64677E-13 0.27241E-12 0.77501E-11 0.14294E-14 0.19498E-14 0.23939E-15 0.83267E-16 0.76328E-16 0.39646E-10
 0.76328E-16 0.97838E-14 0.12655E-10 0.17877E-11 -.69389E-17 0.48329E-13 0.25327E-14 0.31637E-12 0.28691E-12 0.35882E-12
 0.41633E-16 0.56205E-15 0.33307E-15 0.70777E-15 -.69389E-17 -.41633E-16 0.41633E-16 -.41633E-16 0.69389E-17  0.0000    
  0.0000     0.10557E-12 0.79402E-13 0.32954E-12 -.69389E-16 0.57732E-14 0.81976E-13 0.43972E-11 0.18108E-11 0.49829E-11
 0.48572E-16 0.64543E-12 0.55934E-13 0.36776E-14 0.34694E-16 0.13878E-16 0.22898E-15 0.63502E-12 0.34694E-15 0.40275E-12
 -.48572E-16 0.21601E-13 -.15959E-15 -.10408E-15 0.20817E-16 0.16723E-14 0.40336E-13 0.13738E-11 0.35125E-13 0.68522E-11
 -.11796E-15 0.88818E-15 -.12490E-15 -.83267E-16 -.83267E-16 -.69389E-17 0.26368E-15 0.13878E-15 0.19082E-15 0.13531E-15
 0.27756E-16 -.62450E-16 0.24980E-15 -.41633E-16 0.27756E-15 0.18064E-09 0.31225E-16 0.74246E-15 0.33827E-15 0.34758E-12
 -.97145E-16 0.12074E-14 0.10061E-14 0.49544E-14 0.58287E-15 0.53048E-14 0.26715E-15 -.31225E-16 -.34694E-17 0.62450E-16
 0.83267E-16 0.94701E-12 0.76385E-11 0.74766E-09 0.97145E-16 0.69389E-17 -.86736E-17 0.51174E-16 0.11449E-14 0.34848E-12
 0.34694E-16 0.43555E-13 0.24608E-12 0.86757E-11 0.14225E-14 0.14277E-14 0.55511E-16 -.34694E-17 0.30878E-15 0.45277E-11
 0.62450E-16 0.25507E-13 0.55604E-11 0.14359E-11 -.17347E-16 0.27197E-13 0.15613E-14 0.31585E-12 0.28172E-12 0.35626E-12
 0.55511E-16 0.70777E-15 0.51348E-15 0.80491E-15 0.11102E-15 -.27756E-16 0.76328E-16 0.27756E-16 -.69389E-17 0.62450E-16
 0.41633E-16 0.92745E-13 0.72262E-13 0.54324E-12 0.12490E-15 0.56968E-14 0.56219E-13 0.43616E-11 0.27061E-11 0.50300E-11
 0.97145E-16 0.63050E-12 0.56392E-13 0.45242E-14 0.18041E-15 0.10408E-15 0.33307E-15 0.75930E-12 0.56899E-15 0.40623E-12
 0.34694E-16 0.58377E-13  0.0000     0.27756E-16 0.12490E-15 0.22482E-14 0.31954E-13 0.14663E-11 0.31537E-13 0.57315E-11
 0.55511E-16 0.13808E-14 0.23592E-15 0.12490E-15 0.97145E-16 0.83267E-16 0.34001E-15 0.29143E-15 0.14919E-15 0.23592E-15
 0.13878E-15 0.13878E-16 0.18735E-15 0.24980E-15 0.62450E-15 0.69954E-10 0.27756E-16 0.77542E-15 0.40939E-15 0.40900E-12
 -.12490E-15 0.92981E-15 0.88818E-15 0.30739E-14 0.58981E-15 0.67168E-14 0.33654E-15 -.55511E-16 -.13444E-16 0.11970E-15
 0.16653E-15 0.76816E-12 0.64954E-11 0.10181E-08 0.11102E-15 0.99747E-16 0.55511E-16 0.75460E-16 0.11866E-14 0.39740E-12
 0.34694E-16 0.45831E-13 0.36378E-12 0.11139E-10 0.15092E-14 0.16306E-14 0.16610E-15 0.69389E-17 0.51695E-15 0.21264E-11
 0.10408E-15 0.19457E-13 0.47493E-11 0.11576E-11 0.97145E-16 0.27625E-13 0.13219E-14 0.36510E-12 0.31222E-12 0.42173E-12
 0.83267E-16 0.66613E-15 0.51348E-15 0.77022E-15 0.83267E-16  0.0000     -.41633E-16 0.27756E-16 0.62450E-16 0.55511E-16
 0.20817E-16 0.78118E-13 0.64206E-13 0.42881E-12 -.76328E-16 0.41633E-14 0.61312E-13 0.47717E-11 0.34636E-11 0.25502E-11
 0.55511E-16 0.69525E-12 0.75911E-13 0.43299E-14 0.12490E-15 0.11102E-15 0.24980E-15 0.78464E-12 0.15266E-15 0.36693E-12
 -.20817E-16 0.66426E-13 -.15266E-15 -.69389E-16 -.55511E-16 0.21094E-14 0.37387E-13 0.15374E-11 0.28373E-13 0.50007E-11
 0.41633E-16 0.13115E-14 -.55511E-16 -.27756E-16 0.55511E-16 0.83267E-16 0.18735E-15 0.17347E-15 0.15959E-15 0.16653E-15
 0.41633E-16  0.0000     0.13878E-15 -.27756E-16 0.56899E-15 0.22820E-10 0.69389E-16 0.44409E-15 0.36082E-15 0.26025E-12
 -.69389E-16 0.80491E-15 0.87430E-15 0.23870E-14 0.45797E-15 0.51625E-14 0.28103E-15 0.16653E-15 -.34694E-17 0.93675E-16
 0.19429E-15 0.64665E-12 0.10617E-10 0.24822E-09 0.16653E-15 -.39899E-16 0.83267E-16 0.36429E-16 0.99920E-15 0.39128E-12
 0.13878E-16 0.37796E-13 0.37602E-12 0.12811E-10 0.19394E-14 0.13878E-14 0.85001E-16 0.41633E-16 0.36082E-15 0.10959E-11
 0.16653E-15 0.28949E-13 0.35440E-11 0.94869E-12 0.11102E-15 0.14010E-13 0.93675E-15 0.35276E-12 0.34187E-12 0.46251E-12
 0.13878E-16 0.77716E-15 0.58287E-15 0.83267E-15 -.41633E-16 0.41633E-16 0.83267E-16  0.0000     -.41633E-16 0.55511E-16
 0.13878E-16 0.69000E-13 0.56920E-13 0.49821E-12 0.17347E-15 0.34694E-14 0.52493E-13 0.49604E-11 0.41391E-11 0.23483E-11
  0.0000     0.70257E-12 0.62311E-13 0.38927E-14 0.83267E-16 0.19429E-15 0.31919E-15 0.82861E-12 0.23592E-15 0.34708E-12
  0.0000     0.96034E-13 0.69389E-17 0.27756E-16 0.12490E-15 0.19706E-14 0.32488E-13 0.18194E-11 0.27783E-13 0.41692E-11
 -.13878E-16 0.13461E-14 0.55511E-16 0.11102E-15 0.16653E-15 -.27756E-16 0.30531E-15 0.13878E-15 0.17347E-15 0.55511E-16
 0.97145E-16 0.55511E-16 0.83267E-16  0.0000     0.58287E-15 0.76677E-11 0.55511E-16 0.36082E-15 0.27756E-15 0.34572E-12
 -.55511E-16 0.78410E-15 0.62450E-15 0.18874E-14 0.47184E-15 0.61201E-14 0.33307E-15  0.0000     0.69389E-16 0.83267E-16
 0.19429E-15 0.53738E-12 0.14699E-10 0.73903E-09 0.16653E-15 -.69389E-17 -.13878E-16 0.10061E-15 0.10825E-14 0.42438E-12
 0.41633E-16 0.32779E-13 0.54587E-12 0.16292E-10 0.18111E-14 0.14710E-14 0.79797E-16 0.55511E-16 0.43715E-15 0.78845E-12
 0.11102E-15 0.19734E-13 0.33170E-11 0.76476E-12 0.83267E-16 0.13052E-13 0.83267E-15 0.37308E-12 0.38000E-12 0.52355E-12
 0.55511E-16 0.97145E-15 0.51348E-15 0.90206E-15 -.27756E-16 0.13878E-16 0.27756E-16 0.41633E-16 -.13878E-16 0.27756E-16
 -.27756E-16 0.59813E-13 0.50918E-13 0.45050E-12 -.13878E-16 0.28866E-14 0.50543E-13 0.55052E-11 0.42303E-11 0.21594E-11
 -.13878E-16 0.76222E-12 0.78104E-13 0.38997E-14 0.27756E-16 -.13878E-16 0.24980E-15 0.85106E-12 0.55511E-16 0.27717E-12
 -.27756E-16 0.11888E-12 -.22204E-15 0.27756E-16 0.97145E-16 0.20817E-14 0.32821E-13 0.17973E-11 0.19137E-13 0.37161E-11
 -.55511E-16 0.15057E-14 0.41633E-16 -.11102E-15 0.27756E-16  0.0000     0.15266E-15 0.13878E-15 0.16653E-15 0.11102E-15
 -.55511E-16  0.0000     0.69389E-16  0.0000     0.33307E-15 0.61282E-11 0.13878E-16 0.38858E-15 0.19429E-15 0.30632E-12
 -.27756E-16 0.56899E-15 0.48572E-15 0.12906E-14 0.24980E-15 0.52597E-14 0.23592E-15 0.11102E-15 -.13878E-16 0.11102E-15
 0.97145E-16 0.46251E-12 0.25291E-10 0.17185E-09 0.13878E-15 -.27756E-16 0.27756E-16 0.27756E-16 0.97145E-15 0.45458E-12
 -.27756E-16 0.25466E-13 0.49309E-12 0.17766E-10 0.16653E-14 0.13045E-14 0.83267E-16 0.83267E-16 0.63838E-15 0.49570E-12
 0.11102E-15 0.93398E-14 0.25377E-11 0.63184E-12 0.11102E-15 0.90483E-14 0.55511E-15 0.39364E-12 0.37474E-12 0.56886E-12
 0.13878E-16 0.97145E-15 0.65226E-15 0.92981E-15 0.13878E-16 0.69389E-16 -.27756E-16 0.55511E-16 -.13878E-16 0.41633E-16
 0.13878E-16 0.54040E-13 0.45061E-13 0.32756E-12 0.83267E-16 0.24980E-14 0.51834E-13 0.61964E-11 0.51701E-11 0.16173E-11
 0.27756E-16 0.86123E-12 0.75134E-13 0.40939E-14 -.13878E-16 0.27756E-16 0.24980E-15 0.84370E-12 0.13878E-15 0.24146E-12
 -.27756E-16 0.10195E-12  0.0000     -.27756E-16 -.13878E-16 0.24286E-14 0.34694E-13 0.23700E-11 0.19096E-13 0.30691E-11
  0.0000     0.16931E-14 0.13878E-15 -.13878E-16 -.27756E-16 0.69389E-16 0.19429E-15 0.11102E-15 0.69389E-16 0.97145E-16
 -.27756E-16  0.0000     0.97145E-16 0.13878E-15 0.69389E-15 0.23619E-11 0.55511E-16 0.26368E-15 0.22204E-15 0.35379E-12
 -.13878E-15 0.55511E-15 0.44409E-15 0.11380E-14 0.38858E-15 0.65919E-14 0.22204E-15 0.13878E-16 0.27756E-16 0.83267E-16
 0.11102E-15 0.39661E-12 0.78346E-10 0.10245E-07 0.83267E-16 -.83267E-16  0.0000     0.13878E-15 0.11519E-14 0.48581E-12
 0.27756E-16 0.22551E-13 0.77748E-12 0.20592E-10 0.20678E-14 0.14849E-14 0.27756E-16 -.41633E-16 0.51348E-15 0.42920E-12
 0.15266E-15 0.92149E-14 0.27023E-11 0.52887E-12 0.11102E-15 0.82018E-14 0.55511E-15 0.41606E-12 0.42405E-12 0.59681E-12
 0.48572E-16 0.11935E-14 0.65226E-15 0.90206E-15  0.0000     -.69389E-16 0.41633E-16 -.41633E-16 0.27756E-16  0.0000    
 0.55511E-16 0.48184E-13 0.40357E-13 0.49850E-12 0.27756E-16 0.20262E-14 0.46296E-13 0.60718E-11 0.58308E-11 0.12529E-11
 0.13878E-16 0.86417E-12 0.87555E-13 0.38164E-14 0.41633E-16 0.12490E-15 0.22204E-15 0.86969E-12  0.0000     0.21118E-12
 0.41633E-16 0.23498E-12 -.55511E-16 0.83267E-16 0.15266E-15 0.20678E-14 0.33210E-13 0.22391E-11 0.15793E-13 0.26260E-11
 -.69389E-16 0.16931E-14 0.15266E-15 0.41633E-16 -.69389E-16 0.55511E-16 0.13878E-15 0.15266E-15 0.18041E-15 0.13878E-16
 0.55511E-16 0.55511E-16 0.16653E-15 0.11102E-15 0.86042E-15 0.25358E-11  0.0000     0.20817E-15 0.13878E-15 0.33494E-12
 -.13878E-16 0.36082E-15 0.41633E-15 0.92981E-15 0.33307E-15 0.61201E-14 0.22204E-15 -.27756E-16 -.13878E-16 0.11102E-15
 0.12490E-15 0.32882E-12 0.17505E-09 0.27944E-09 0.97145E-16 -.83267E-16 -.13878E-16 0.83267E-16 0.11657E-14 0.50028E-12
 0.27756E-16 0.19804E-13 0.76844E-12 0.21494E-10 0.22621E-14 0.14155E-14 0.69389E-16 0.27756E-16 0.58287E-15 0.35204E-12
 0.13878E-15 0.54748E-14 0.25918E-11 0.43987E-12 0.55511E-16 0.63977E-14 0.41633E-15 0.43973E-12 0.44682E-12 0.70050E-12
 -.31225E-16 0.11519E-14 0.65919E-15 0.91593E-15 -.41633E-16 -.27756E-16  0.0000     0.13878E-16 0.13878E-16 -.52042E-16
 0.13878E-16 0.44534E-13 0.35888E-13 0.25266E-12  0.0000     0.19429E-14 0.49016E-13 0.68529E-11 0.62135E-11 0.96244E-12
 -.13878E-16 0.96016E-12 0.98810E-13 0.54540E-14 -.27756E-16 0.41633E-16 0.19429E-15 0.86346E-12 0.13878E-16 0.17020E-12
 0.13878E-16 0.14456E-12 -.55511E-16 0.13878E-16  0.0000     0.34001E-14 0.36054E-13 0.26329E-11 0.10908E-13 0.22672E-11
 -.55511E-16 0.18874E-14 0.18041E-15 -.97145E-16 -.13878E-16 -.12490E-15 0.83267E-16 0.97145E-16 0.12490E-15 0.69389E-16
 0.27756E-16 0.55511E-16 0.55511E-16 0.41633E-16 0.84655E-15 0.12571E-11  0.0000     0.11102E-15 0.13878E-15 0.37370E-12
 -.69389E-16 0.37470E-15 0.26368E-15 0.72164E-15 0.22204E-15 0.72720E-14 0.22204E-15 0.55511E-16 -.13878E-16 0.55511E-16
 0.97145E-16 0.28721E-12 0.12121E-08 0.10246E-08 0.55511E-16 -.55511E-16  0.0000     0.13878E-15 0.14988E-14 0.55307E-12
 -.69389E-17 0.16022E-13 0.78942E-12 0.22122E-10 0.25535E-14 0.19706E-14 -.97145E-16 -.27756E-16 0.40246E-15 0.27711E-12
 0.13184E-15 0.49370E-14 0.29135E-11 0.37277E-12 0.27756E-16 0.59674E-14 0.44409E-15 0.47340E-12 0.45310E-12 0.73162E-12
 -.34694E-16 0.12247E-14 0.88124E-15 0.10547E-14 0.27756E-16 -.13878E-16 0.41633E-16 0.13878E-16 0.38164E-16  0.0000    
 -.41633E-16 0.41078E-13 0.31766E-13 0.10722E-12 -.41633E-16 0.23453E-14 0.53901E-13 0.76868E-11 0.71701E-11 0.72612E-12
 0.69389E-16 0.10699E-11 0.11288E-12 0.49266E-14  0.0000     0.55511E-16 0.11102E-15 0.82290E-12 0.79797E-16 0.14977E-12
 -.27756E-16 0.69486E-13 -.27756E-16 0.41633E-16 0.22204E-15 0.29421E-14 0.41009E-13 0.32108E-11 0.16445E-13 0.21144E-11
 -.83267E-16 0.24980E-14 0.11102E-15 -.55511E-16 -.13878E-16  0.0000     0.97145E-16 0.41633E-16 0.15266E-15 0.41633E-16
 0.13878E-16 -.27756E-16 0.13878E-16 0.41633E-16 0.11380E-14 0.30004E-11 -.27756E-16 0.19429E-15 0.19429E-15 0.53500E-12
 -.41633E-16 0.33307E-15 0.40246E-15 0.72164E-15 0.19429E-15 0.89928E-14 0.31919E-15  0.0000      0.0000      0.0000    
 0.16653E-15 0.25156E-12 0.11336E-09 0.39448E-09 0.69389E-16 -.11102E-15 -.55511E-16 0.11102E-15 0.17208E-14 0.64523E-12
 -.90206E-16 0.15370E-13 0.11601E-11 0.28758E-10 0.31503E-14 0.19429E-14 -.27756E-16 0.55511E-16 0.37470E-15 0.30362E-12
 0.11102E-15 0.30462E-14 0.35097E-11 0.30378E-12  0.0000     0.63283E-14 0.26368E-15 0.55231E-12 0.57063E-12 0.91254E-12
 -.62775E-16 0.14226E-14 0.89870E-15 0.11193E-14 -.23419E-16 -.20817E-16 -.60417E-16 0.21684E-18 0.16317E-16 -.19793E-16
 -.20112E-16 0.39157E-13 0.28195E-13 0.66076E-13 0.12143E-16 0.26602E-14 0.68695E-13 0.85234E-11 0.78643E-11 0.63986E-12
 0.17022E-16 0.12097E-11 0.14119E-12 0.68183E-14 0.55511E-16 0.10755E-15 0.14485E-15 0.80522E-12 0.70473E-16 0.11294E-12
 0.17998E-16 0.55717E-13 -.18215E-16 0.20817E-16 0.76328E-16 0.43264E-14 0.56818E-13 0.38189E-11 0.14688E-13 0.23471E-11