       N       E                     dE             d eps       ncg     rms          rms(c)
DAV:   1     0.195960387770E+03    0.19596E+03   -0.13938E+04  1808   0.922E+02
DAV:   2    -0.108529924994E+02   -0.20681E+03   -0.20077E+03  1816   0.265E+02
DAV:   3    -0.209710452498E+02   -0.10118E+02   -0.98766E+01  1932   0.778E+01
DAV:   4    -0.210989919248E+02   -0.12795E+00   -0.12753E+00  1876   0.772E+00
DAV:   5    -0.211003020826E+02   -0.13102E-02   -0.13100E-02  2000   0.560E-01    0.146E+01
RMM:   6    -0.190511662968E+02    0.20491E+01   -0.43398E+01  1888   0.644E+01    0.742E+00
RMM:   7    -0.173138722121E+02    0.17373E+01   -0.71216E+00  1881   0.269E+01    0.169E+00
RMM:   8    -0.172875207050E+02    0.26352E-01   -0.12781E-01  1911   0.281E+00    0.185E+00
RMM:   9    -0.171952596618E+02    0.92261E-01   -0.66772E-02  1906   0.223E+00    0.718E-01
RMM:  10    -0.171856426064E+02    0.96171E-02   -0.19944E-02  1920   0.120E+00    0.444E-01
RMM:  11    -0.171804194706E+02    0.52231E-02   -0.81567E-03  1911   0.730E-01    0.158E-01
RMM:  12    -0.171794978865E+02    0.92158E-03   -0.19707E-03  1912   0.368E-01    0.108E-01
RMM:  13    -0.171790708301E+02    0.42706E-03   -0.57082E-04  1880   0.191E-01    0.549E-02
RMM:  14    -0.171790712379E+02   -0.40782E-06   -0.37012E-04  1870   0.133E-01    0.616E-02
RMM:  15    -0.171791428048E+02   -0.71567E-04   -0.13609E-04  1816   0.853E-02    0.227E-02
RMM:  16    -0.171793347967E+02   -0.19199E-03   -0.38770E-05  1800   0.387E-02    0.132E-02
RMM:  17    -0.171795602477E+02   -0.22545E-03   -0.84572E-05  1730   0.326E-02    0.828E-03
RMM:  18    -0.171796332572E+02   -0.73010E-04   -0.11201E-05  1387   0.125E-02    0.627E-03
RMM:  19    -0.171796767864E+02   -0.43529E-04   -0.24359E-06  1194   0.924E-03    0.684E-03
RMM:  20    -0.171797060484E+02   -0.29262E-04   -0.14202E-06  1140   0.639E-03    0.625E-03
RMM:  21    -0.171797219491E+02   -0.15901E-04   -0.50775E-07  1072   0.324E-03    0.570E-03
RMM:  22    -0.171797285961E+02   -0.66471E-05   -0.17006E-07   876   0.195E-03    0.565E-03
RMM:  23    -0.171797301517E+02   -0.15556E-05   -0.30412E-08   679   0.157E-03    0.563E-03
RMM:  24    -0.171797301332E+02    0.18538E-07   -0.25445E-09   283   0.989E-04
   1 F= -.17179730E+02 E0= -.17170158E+02  d E =-.191439E-01
