PROCAR lm decomposed
# of k-points:   31         # of bands:   28         # of ions:    5

 k-point     1 :    0.00000000 0.00000000 0.00000000     weight = 0.01000000

band     1 # energy  -11.60863079 # occ.  2.00000000
 
ion      s     py     pz     px    dxy    dyz    dz2    dxz  x2-y2    tot
    1  0.007  0.000  0.001  0.000  0.000  0.000  0.000  0.000  0.000  0.008
    2  0.043  0.000  0.002  0.000  0.000  0.000  0.000  0.000  0.000  0.045
    3  0.135  0.000  0.003  0.000  0.000  0.000  0.000  0.000  0.000  0.137
    4  0.304  0.000  0.000  0.000  0.000  0.000  0.009  0.000  0.000  0.313
    5  0.088  0.000  0.001  0.000  0.000  0.000  0.000  0.000  0.000  0.089
tot    0.576  0.000  0.006  0.000  0.000  0.000  0.009  0.000  0.000  0.592
 
band     2 # energy  -10.59116770 # occ.  2.00000000
 
ion      s     py     pz     px    dxy    dyz    dz2    dxz  x2-y2    tot
    1  0.117  0.000  0.010  0.000  0.000  0.000  0.000  0.000  0.000  0.127
    2  0.263  0.000  0.000  0.000  0.000  0.000  0.002  0.000  0.000  0.266
    3  0.050  0.000  0.018  0.000  0.000  0.000  0.001  0.000  0.000  0.069
    4  0.067  0.000  0.008  0.000  0.000  0.000  0.011  0.000  0.000  0.087
    5  0.040  0.000  0.000  0.000  0.000  0.000  0.000  0.000  0.000  0.040
tot    0.537  0.000  0.037  0.000  0.000  0.000  0.015  0.000  0.000  0.588
 
band     3 # energy   -8.98448170 # occ.  2.00000000
 
ion      s     py     pz     px    dxy    dyz    dz2    dxz  x2-y2    tot
    1  0.190  0.000  0.002  0.000  0.000  0.000  0.020  0.000  0.000  0.212
    2  0.004  0.000  0.045  0.000  0.000  0.000  0.001  0.000  0.000  0.050
    3  0.203  0.000  0.000  0.000  0.000  0.000  0.040  0.000  0.000  0.243
    4  0.009  0.000  0.031  0.000  0.000  0.000  0.025  0.000  0.000  0.066
    5  0.032  0.000  0.000  0.000  0.000  0.000  0.000  0.000  0.000  0.032
tot    0.438  0.000  0.079  0.000  0.000  0.000  0.086  0.000  0.000  0.603
 
band     4 # energy   -7.52419047 # occ.  2.00000000
 
ion      s     py     pz     px    dxy    dyz    dz2    dxz  x2-y2    tot
    1  0.109  0.000  0.005  0.000  0.000  0.000  0.131  0.000  0.000  0.245
    2  0.101  0.000  0.003  0.000  0.000  0.000  0.226  0.000  0.000  0.330
    3  0.032  0.000  0.014  0.000  0.000  0.000  0.091  0.000  0.000  0.137
    4  0.000  0.000  0.011  0.000  0.000  0.000  0.014  0.000  0.000  0.026
    5  0.006  0.000  0.000  0.000  0.000  0.000  0.000  0.000  0.000  0.006
tot    0.247  0.000  0.034  0.000  0.000  0.000  0.462  0.000  0.000  0.743
 
band     5 # energy   -6.09074482 # occ.  2.00000000
 
ion      s     py     pz     px    dxy    dyz    dz2    dxz  x2-y2    tot
    1  0.000  0.000  0.000  0.000  0.000  0.000  0.004  0.000  0.000  0.004
    2  0.001  0.000  0.001  0.000  0.000  0.000  0.006  0.000  0.000  0.007
    3  0.002  0.000  0.002  0.000  0.000  0.000  0.083  0.000  0.000  0.087
    4  0.005  0.000  0.042  0.000  0.000  0.003  0.583  0.000  0.010  0.643
    5  0.049  0.000  0.001  0.000  0.000  0.000  0.000  0.000  0.000  0.050
tot    0.057  0.000  0.046  0.000  0.000  0.003  0.676  0.000  0.010  0.792
 
band     6 # energy   -5.57488321 # occ.  2.00000000
 
ion      s     py     pz     px    dxy    dyz    dz2    dxz  x2-y2    tot
    1  0.000  0.000  0.000  0.000  0.000  0.000  0.018  0.000  0.000  0.019
    2  0.001  0.000  0.000  0.000  0.000  0.000  0.003  0.000  0.004  0.008
    3  0.000  0.000  0.006  0.000  0.000  0.021  0.188  0.000  0.002  0.217
    4  0.003  0.000  0.006  0.000  0.000  0.010  0.120  0.000  0.567  0.705
    5  0.002  0.001  0.000  0.000  0.000  0.000  0.000  0.000  0.000  0.002
tot    0.005  0.001  0.012  0.000  0.000  0.032  0.329  0.000  0.573  0.952
 
band     7 # energy   -5.55837478 # occ.  2.00000000
 
ion      s     py     pz     px    dxy    dyz    dz2    dxz  x2-y2    tot
    1  0.000  0.000  0.000  0.000  0.000  0.000  0.000  0.000  0.000  0.000
    2  0.000  0.000  0.000  0.000  0.007  0.000  0.000  0.000  0.000  0.008
    3  0.000  0.000  0.000  0.000  0.007  0.000  0.000  0.032  0.000  0.039
    4  0.000  0.000  0.000  0.000  0.915  0.000  0.000  0.004  0.000  0.919
    5  0.000  0.000  0.000  0.001  0.000  0.000  0.000  0.000  0.000  0.001
tot    0.000  0.000  0.000  0.002  0.929  0.000  0.000  0.036  0.000  0.967
 
band     8 # energy   -5.52387088 # occ.  2.00000000
 
ion      s     py     pz     px    dxy    dyz    dz2    dxz  x2-y2    tot
    1  0.000  0.000  0.001  0.000  0.000  0.000  0.040  0.000  0.000  0.041
    2  0.001  0.000  0.003  0.000  0.000  0.000  0.003  0.000  0.003  0.010
    3  0.002  0.000  0.004  0.000  0.000  0.013  0.419  0.000  0.002  0.440
    4  0.001  0.000  0.015  0.000  0.000  0.004  0.101  0.000  0.321  0.442
    5  0.004  0.000  0.000  0.000  0.000  0.000  0.000  0.000  0.000  0.004
tot    0.008  0.001  0.023  0.000  0.000  0.017  0.562  0.000  0.326  0.936
 
band     9 # energy   -5.31499048 # occ.  2.00000000
 
ion      s     py     pz     px    dxy    dyz    dz2    dxz  x2-y2    tot
    1  0.001  0.000  0.005  0.000  0.000  0.000  0.245  0.000  0.000  0.251
    2  0.004  0.000  0.000  0.000  0.000  0.001  0.570  0.000  0.002  0.577
    3  0.001  0.000  0.013  0.000  0.000  0.000  0.051  0.000  0.022  0.087
    4  0.002  0.000  0.006  0.000  0.000  0.004  0.000  0.000  0.003  0.016
    5  0.003  0.000  0.000  0.000  0.000  0.000  0.000  0.000  0.000  0.003
tot    0.010  0.000  0.025  0.000  0.000  0.005  0.866  0.000  0.028  0.934
 
band    10 # energy   -5.29053128 # occ.  2.00000000
 
ion      s     py     pz     px    dxy    dyz    dz2    dxz  x2-y2    tot
    1  0.000  0.000  0.000  0.000  0.000  0.000  0.011  0.000  0.013  0.024
    2  0.000  0.000  0.000  0.000  0.000  0.047  0.016  0.000  0.024  0.087
    3  0.000  0.000  0.000  0.000  0.001  0.012  0.001  0.000  0.727  0.740
    4  0.000  0.000  0.000  0.000  0.000  0.112  0.000  0.000  0.000  0.113
    5  0.000  0.000  0.000  0.000  0.000  0.000  0.000  0.000  0.000  0.000
tot    0.000  0.000  0.001  0.000  0.001  0.171  0.028  0.000  0.764  0.965
 
band    11 # energy   -5.28573269 # occ.  2.00000000
 
ion      s     py     pz     px    dxy    dyz    dz2    dxz  x2-y2    tot
    1  0.000  0.000  0.000  0.000  0.014  0.000  0.000  0.000  0.000  0.014
    2  0.000  0.000  0.000  0.000  0.025  0.000  0.000  0.050  0.000  0.075
    3  0.000  0.000  0.000  0.000  0.755  0.000  0.000  0.014  0.001  0.769
    4  0.000  0.000  0.000  0.000  0.002  0.000  0.000  0.106  0.000  0.108
    5  0.000  0.000  0.000  0.000  0.000  0.000  0.000  0.000  0.000  0.000
tot    0.000  0.000  0.000  0.000  0.796  0.000  0.000  0.169  0.001  0.966
 
band    12 # energy   -5.22299137 # occ.  2.00000000
 
ion      s     py     pz     px    dxy    dyz    dz2    dxz  x2-y2    tot
    1  0.000  0.000  0.000  0.000  0.005  0.003  0.000  0.026  0.001  0.035
    2  0.000  0.000  0.000  0.000  0.756  0.001  0.000  0.012  0.075  0.843
    3  0.000  0.000  0.000  0.000  0.006  0.005  0.000  0.050  0.001  0.061
    4  0.000  0.000  0.000  0.000  0.015  0.001  0.000  0.010  0.002  0.028
    5  0.000  0.000  0.000  0.000  0.000  0.000  0.000  0.000  0.000  0.000
tot    0.000  0.000  0.000  0.000  0.782  0.009  0.000  0.097  0.078  0.967
 
band    13 # energy   -5.22242052 # occ.  2.00000000
 
ion      s     py     pz     px    dxy    dyz    dz2    dxz  x2-y2    tot
    1  0.000  0.000  0.000  0.000  0.001  0.026  0.000  0.003  0.005  0.035
    2  0.000  0.000  0.000  0.000  0.075  0.011  0.000  0.001  0.755  0.842
    3  0.000  0.000  0.000  0.000  0.001  0.048  0.000  0.005  0.006  0.060
    4  0.000  0.000  0.000  0.000  0.002  0.009  0.000  0.001  0.018  0.030
    5  0.000  0.000  0.000  0.000  0.000  0.000  0.000  0.000  0.000  0.000
tot    0.000  0.000  0.000  0.000  0.077  0.095  0.000  0.010  0.784  0.967
 
band    14 # energy   -4.96445035 # occ.  2.00000000
 
ion      s     py     pz     px    dxy    dyz    dz2    dxz  x2-y2    tot
    1  0.000  0.000  0.000  0.000  0.017  0.007  0.001  0.000  0.814  0.839
    2  0.000  0.000  0.000  0.000  0.000  0.085  0.000  0.002  0.001  0.089
    3  0.000  0.000  0.000  0.000  0.001  0.004  0.000  0.000  0.023  0.028
    4  0.000  0.000  0.000  0.000  0.000  0.012  0.000  0.000  0.000  0.012
    5  0.000  0.000  0.000  0.000  0.000  0.000  0.000  0.000  0.000  0.000
tot    0.000  0.000  0.000  0.000  0.018  0.108  0.001  0.002  0.839  0.968
 
band    15 # energy   -4.96334825 # occ.  2.00000000
 
ion      s     py     pz     px    dxy    dyz    dz2    dxz  x2-y2    tot
    1  0.000  0.000  0.000  0.000  0.817  0.000  0.000  0.007  0.017  0.841
    2  0.000  0.000  0.000  0.000  0.001  0.002  0.000  0.083  0.000  0.086
    3  0.000  0.000  0.000  0.000  0.027  0.000  0.000  0.004  0.000  0.032
    4  0.000  0.000  0.000  0.000  0.001  0.000  0.000  0.008  0.000  0.010
    5  0.000  0.000  0.000  0.000  0.000  0.000  0.000  0.000  0.000  0.000
tot    0.000  0.000  0.000  0.000  0.846  0.002  0.000  0.102  0.018  0.968
 
band    16 # energy   -4.87325811 # occ.  2.00000000
 
ion      s     py     pz     px    dxy    dyz    dz2    dxz  x2-y2    tot
    1  0.026  0.000  0.000  0.000  0.000  0.000  0.401  0.000  0.002  0.429
    2  0.012  0.000  0.045  0.000  0.000  0.000  0.050  0.000  0.000  0.108
    3  0.000  0.000  0.078  0.000  0.000  0.000  0.002  0.000  0.005  0.085
    4  0.014  0.000  0.041  0.000  0.000  0.013  0.025  0.000  0.005  0.099
    5  0.016  0.000  0.000  0.000  0.000  0.000  0.000  0.000  0.000  0.016
tot    0.069  0.000  0.164  0.000  0.000  0.013  0.478  0.000  0.013  0.737
 
band    17 # energy   -4.74623499 # occ.  2.00000000
 
ion      s     py     pz     px    dxy    dyz    dz2    dxz  x2-y2    tot
    1  0.001  0.000  0.000  0.000  0.000  0.003  0.007  0.000  0.002  0.013
    2  0.000  0.000  0.001  0.000  0.000  0.006  0.002  0.000  0.016  0.024
    3  0.000  0.000  0.002  0.000  0.000  0.069  0.000  0.000  0.137  0.208
    4  0.000  0.000  0.002  0.000  0.000  0.703  0.000  0.000  0.025  0.731
    5  0.000  0.001  0.000  0.000  0.000  0.000  0.000  0.000  0.000  0.001
tot    0.002  0.001  0.004  0.000  0.000  0.781  0.008  0.000  0.180  0.976
 
band    18 # energy   -4.72549479 # occ.  2.00000000
 
ion      s     py     pz     px    dxy    dyz    dz2    dxz  x2-y2    tot
    1  0.000  0.000  0.000  0.000  0.001  0.000  0.000  0.004  0.000  0.004
    2  0.000  0.000  0.000  0.000  0.019  0.000  0.000  0.004  0.000  0.023
    3  0.000  0.000  0.000  0.000  0.130  0.000  0.000  0.094  0.000  0.224
    4  0.000  0.000  0.000  0.000  0.018  0.000  0.000  0.714  0.000  0.732
    5  0.000  0.000  0.000  0.000  0.000  0.000  0.000  0.000  0.000  0.000
tot    0.000  0.000  0.000  0.000  0.168  0.000  0.000  0.816  0.000  0.984
 
band    19 # energy   -4.48107393 # occ.  2.00000000
 
ion      s     py     pz     px    dxy    dyz    dz2    dxz  x2-y2    tot
    1  0.000  0.000  0.000  0.000  0.000  0.039  0.000  0.000  0.094  0.133
    2  0.000  0.000  0.000  0.000  0.000  0.419  0.000  0.000  0.065  0.484
    3  0.000  0.000  0.000  0.000  0.000  0.292  0.000  0.000  0.026  0.318
    4  0.000  0.000  0.000  0.000  0.000  0.041  0.000  0.000  0.008  0.049
    5  0.000  0.000  0.000  0.000  0.000  0.000  0.000  0.000  0.000  0.000
tot    0.000  0.000  0.000  0.000  0.000  0.791  0.000  0.000  0.192  0.984
 
band    20 # energy   -4.47769866 # occ.  2.00000000
 
ion      s     py     pz     px    dxy    dyz    dz2    dxz  x2-y2    tot
    1  0.000  0.000  0.000  0.000  0.095  0.000  0.000  0.043  0.000  0.138
    2  0.000  0.000  0.000  0.000  0.063  0.000  0.000  0.432  0.000  0.495
    3  0.000  0.000  0.000  0.000  0.023  0.000  0.000  0.265  0.000  0.289
    4  0.000  0.000  0.000  0.000  0.007  0.000  0.000  0.054  0.000  0.062
    5  0.000  0.000  0.000  0.000  0.000  0.000  0.000  0.000  0.000  0.000
tot    0.000  0.000  0.000  0.000  0.188  0.000  0.000  0.796  0.000  0.984
 
band    21 # energy   -4.26324066 # occ.  2.00000000
 
ion      s     py     pz     px    dxy    dyz    dz2    dxz  x2-y2    tot
    1  0.000  0.000  0.000  0.000  0.000  0.316  0.000  0.000  0.014  0.330
    2  0.000  0.000  0.000  0.000  0.000  0.145  0.000  0.000  0.000  0.146
    3  0.000  0.000  0.000  0.000  0.000  0.430  0.000  0.000  0.011  0.441
    4  0.000  0.000  0.000  0.000  0.000  0.063  0.000  0.000  0.006  0.069
    5  0.000  0.000  0.000  0.000  0.000  0.000  0.000  0.000  0.000  0.000
tot    0.000  0.001  0.000  0.000  0.000  0.954  0.000  0.000  0.031  0.986
 
band    22 # energy   -4.25821807 # occ.  2.00000000
 
ion      s     py     pz     px    dxy    dyz    dz2    dxz  x2-y2    tot
    1  0.000  0.000  0.000  0.000  0.013  0.000  0.000  0.315  0.000  0.328
    2  0.000  0.000  0.000  0.000  0.000  0.000  0.000  0.133  0.000  0.134
    3  0.000  0.000  0.000  0.000  0.011  0.000  0.000  0.429  0.000  0.441
    4  0.000  0.000  0.000  0.000  0.007  0.000  0.000  0.077  0.000  0.084
    5  0.000  0.000  0.000  0.000  0.000  0.000  0.000  0.000  0.000  0.000
tot    0.000  0.000  0.000  0.000  0.031  0.000  0.000  0.955  0.000  0.986
 
band    23 # energy   -3.98256734 # occ.  2.00000000
 
ion      s     py     pz     px    dxy    dyz    dz2    dxz  x2-y2    tot
    1  0.000  0.000  0.000  0.000  0.000  0.587  0.000  0.002  0.007  0.597
    2  0.000  0.000  0.000  0.000  0.000  0.265  0.000  0.001  0.023  0.289
    3  0.000  0.000  0.000  0.000  0.000  0.089  0.000  0.000  0.006  0.096
    4  0.000  0.000  0.000  0.000  0.000  0.007  0.000  0.000  0.001  0.008
    5  0.000  0.000  0.000  0.000  0.000  0.000  0.000  0.000  0.000  0.000
tot    0.000  0.000  0.000  0.000  0.000  0.948  0.000  0.004  0.037  0.990
 
band    24 # energy   -3.98159990 # occ.  2.00000000
 
ion      s     py     pz     px    dxy    dyz    dz2    dxz  x2-y2    tot
    1  0.000  0.000  0.000  0.000  0.007  0.002  0.000  0.584  0.000  0.594
    2  0.000  0.000  0.000  0.000  0.023  0.001  0.000  0.265  0.000  0.289
    3  0.000  0.000  0.000  0.000  0.006  0.000  0.000  0.091  0.000  0.098
    4  0.000  0.000  0.000  0.000  0.001  0.000  0.000  0.008  0.000  0.009
    5  0.000  0.000  0.000  0.000  0.000  0.000  0.000  0.000  0.000  0.000
tot    0.000  0.000  0.000  0.000  0.037  0.004  0.000  0.948  0.000  0.990
 
band    25 # energy   -2.91356910 # occ.  2.00000000
 
ion      s     py     pz     px    dxy    dyz    dz2    dxz  x2-y2    tot
    1  0.020  0.000  0.152  0.000  0.000  0.000  0.031  0.000  0.000  0.203
    2  0.015  0.000  0.079  0.000  0.000  0.000  0.023  0.000  0.000  0.117
    3  0.012  0.000  0.036  0.000  0.000  0.000  0.018  0.000  0.000  0.066
    4  0.009  0.000  0.012  0.000  0.000  0.000  0.008  0.000  0.000  0.030
    5  0.004  0.000  0.000  0.000  0.000  0.000  0.000  0.000  0.000  0.004
tot    0.060  0.000  0.279  0.000  0.000  0.000  0.081  0.000  0.000  0.421
 
band    26 # energy    1.60376026 # occ.  0.00000000
 
ion      s     py     pz     px    dxy    dyz    dz2    dxz  x2-y2    tot
    1  0.017  0.000  0.002  0.000  0.000  0.000  0.017  0.000  0.000  0.037
    2  0.025  0.000  0.001  0.000  0.000  0.000  0.022  0.000  0.000  0.049
    3  0.032  0.000  0.001  0.000  0.000  0.000  0.029  0.000  0.000  0.062
    4  0.035  0.000  0.000  0.000  0.000  0.000  0.037  0.000  0.000  0.072
    5  0.000  0.000  0.003  0.000  0.000  0.000  0.000  0.000  0.000  0.003
tot    0.109  0.000  0.007  0.000  0.000  0.000  0.105  0.000  0.000  0.221
 
band    27 # energy    1.91752170 # occ.  0.00000000
 
ion      s     py     pz     px    dxy    dyz    dz2    dxz  x2-y2    tot
    1  0.006  0.000  0.003  0.000  0.000  0.000  0.005  0.000  0.000  0.014
    2  0.001  0.000  0.004  0.000  0.000  0.000  0.001  0.000  0.000  0.006
    3  0.000  0.000  0.004  0.000  0.000  0.000  0.000  0.000  0.000  0.004
    4  0.003  0.000  0.003  0.000  0.000  0.000  0.004  0.000  0.000  0.010
    5  0.001  0.000  0.001  0.000  0.000  0.000  0.000  0.000  0.000  0.002
tot    0.010  0.000  0.015  0.000  0.000  0.000  0.011  0.000  0.000  0.036
 
band    28 # energy    2.34969049 # occ.  0.00000000
 
ion      s     py     pz     px    dxy    dyz    dz2    dxz  x2-y2    tot
    1  0.005  0.000  0.002  0.000  0.000  0.000  0.005  0.000  0.000  0.012
    2  0.001  0.000  0.003  0.000  0.000  0.000  0.001  0.000  0.000  0.005
    3  0.000  0.000  0.003  0.000  0.000  0.000  0.000  0.000  0.000  0.004
    4  0.002  0.000  0.002  0.000  0.000  0.000  0.003  0.000  0.000  0.007
    5  0.001  0.000  0.000  0.000  0.000  0.000  0.000  0.000  0.000  0.001
tot    0.009  0.000  0.011  0.000  0.000  0.000  0.009  0.000  0.000  0.029
 

 k-point     2 :    0.10000000 0.00000000 0.00000000     weight = 0.04000000

band     1 # energy  -11.30527190 # occ.  2.00000000
 
ion      s     py     pz     px    dxy    dyz    dz2    dxz  x2-y2    tot
    1  0.006  0.000  0.001  0.000  0.000  0.000  0.000  0.000  0.000  0.007
    2  0.040  0.000  0.002  0.001  0.000  0.000  0.000  0.000  0.000  0.042
    3  0.127  0.001  0.003  0.003  0.000  0.000  0.000  0.000  0.000  0.134
    4  0.296  0.003  0.000  0.007  0.000  0.000  0.008  0.000  0.001  0.316
    5  0.091  0.000  0.001  0.000  0.000  0.000  0.000  0.000  0.000  0.093
tot    0.561  0.004  0.006  0.011  0.001  0.000  0.008  0.000  0.001  0.592
 
band     2 # energy  -10.29367493 # occ.  2.00000000
 
ion      s     py     pz     px    dxy    dyz    dz2    dxz  x2-y2    tot
    1  0.111  0.001  0.010  0.002  0.000  0.000  0.000  0.001  0.000  0.126
    2  0.256  0.002  0.000  0.006  0.000  0.000  0.002  0.000  0.000  0.266
    3  0.053  0.000  0.017  0.001  0.000  0.000  0.000  0.001  0.000  0.073
    4  0.061  0.001  0.008  0.002  0.000  0.001  0.011  0.001  0.000  0.085
    5  0.040  0.000  0.000  0.000  0.000  0.000  0.000  0.000  0.000  0.040
tot    0.520  0.004  0.036  0.011  0.001  0.001  0.013  0.003  0.000  0.590
 
band     3 # energy   -8.71917262 # occ.  2.00000000
 
ion      s     py     pz     px    dxy    dyz    dz2    dxz  x2-y2    tot
    1  0.180  0.001  0.003  0.004  0.000  0.000  0.017  0.000  0.000  0.206
    2  0.005  0.000  0.045  0.000  0.000  0.002  0.001  0.005  0.000  0.057
    3  0.194  0.002  0.000  0.005  0.000  0.000  0.037  0.000  0.000  0.238
    4  0.007  0.000  0.032  0.000  0.000  0.002  0.026  0.005  0.000  0.073
    5  0.033  0.000  0.000  0.000  0.000  0.000  0.000  0.000  0.000  0.033
tot    0.418  0.003  0.079  0.010  0.001  0.004  0.081  0.010  0.001  0.607
 
band     4 # energy   -7.30039969 # occ.  2.00000000
 
ion      s     py     pz     px    dxy    dyz    dz2    dxz  x2-y2    tot
    1  0.104  0.001  0.004  0.004  0.001  0.000  0.133  0.000  0.000  0.248
    2  0.090  0.001  0.004  0.004  0.001  0.000  0.230  0.001  0.000  0.331
    3  0.026  0.000  0.015  0.001  0.000  0.001  0.089  0.003  0.000  0.135
    4  0.000  0.000  0.011  0.000  0.000  0.001  0.015  0.003  0.000  0.030
    5  0.005  0.000  0.000  0.000  0.000  0.000  0.000  0.000  0.000  0.005
tot    0.226  0.003  0.033  0.009  0.002  0.003  0.467  0.007  0.001  0.750
 
band     5 # energy   -6.12432244 # occ.  2.00000000
 
ion      s     py     pz     px    dxy    dyz    dz2    dxz  x2-y2    tot
    1  0.000  0.000  0.000  0.000  0.000  0.000  0.005  0.000  0.000  0.006
    2  0.001  0.000  0.000  0.000  0.001  0.000  0.002  0.000  0.000  0.005
    3  0.001  0.000  0.005  0.000  0.007  0.001  0.140  0.000  0.003  0.157
    4  0.007  0.000  0.038  0.001  0.039  0.033  0.399  0.071  0.017  0.606
    5  0.043  0.000  0.000  0.000  0.000  0.000  0.000  0.000  0.000  0.043
tot    0.052  0.000  0.044  0.001  0.048  0.033  0.546  0.071  0.021  0.818
 
band     6 # energy   -5.67643341 # occ.  2.00000000
 
ion      s     py     pz     px    dxy    dyz    dz2    dxz  x2-y2    tot
    1  0.001  0.000  0.001  0.000  0.000  0.000  0.025  0.000  0.000  0.027
    2  0.002  0.000  0.000  0.000  0.011  0.002  0.023  0.005  0.004  0.046
    3  0.000  0.000  0.010  0.000  0.024  0.003  0.193  0.010  0.007  0.248
    4  0.004  0.000  0.004  0.000  0.207  0.006  0.304  0.009  0.084  0.617
    5  0.000  0.000  0.000  0.000  0.000  0.000  0.000  0.000  0.000  0.001
tot    0.006  0.000  0.015  0.001  0.242  0.010  0.546  0.024  0.094  0.939
 
band     7 # energy   -5.58562852 # occ.  2.00000000
 
ion      s     py     pz     px    dxy    dyz    dz2    dxz  x2-y2    tot
    1  0.000  0.000  0.001  0.000  0.001  0.000  0.019  0.000  0.000  0.022
    2  0.001  0.000  0.000  0.000  0.047  0.000  0.044  0.002  0.015  0.109
    3  0.000  0.000  0.008  0.000  0.009  0.023  0.073  0.076  0.002  0.192
    4  0.001  0.000  0.012  0.000  0.433  0.008  0.039  0.021  0.092  0.606
    5  0.003  0.000  0.000  0.001  0.000  0.000  0.000  0.000  0.000  0.004
tot    0.005  0.000  0.021  0.001  0.489  0.031  0.176  0.099  0.109  0.932
 
band     8 # energy   -5.45495017 # occ.  2.00000000
 
ion      s     py     pz     px    dxy    dyz    dz2    dxz  x2-y2    tot
    1  0.000  0.000  0.000  0.000  0.000  0.001  0.003  0.000  0.000  0.004
    2  0.000  0.000  0.001  0.000  0.006  0.003  0.005  0.001  0.012  0.028
    3  0.000  0.000  0.000  0.000  0.003  0.036  0.017  0.009  0.002  0.068
    4  0.000  0.000  0.000  0.000  0.175  0.019  0.000  0.005  0.666  0.866
    5  0.000  0.001  0.000  0.000  0.000  0.000  0.000  0.000  0.000  0.001
tot    0.001  0.001  0.001  0.001  0.185  0.058  0.025  0.015  0.680  0.967
 
band     9 # energy   -5.37621280 # occ.  2.00000000
 
ion      s     py     pz     px    dxy    dyz    dz2    dxz  x2-y2    tot
    1  0.004  0.000  0.001  0.000  0.033  0.004  0.029  0.014  0.011  0.096
    2  0.002  0.000  0.008  0.000  0.016  0.020  0.283  0.058  0.004  0.391
    3  0.000  0.000  0.018  0.000  0.144  0.008  0.116  0.021  0.042  0.349
    4  0.002  0.000  0.005  0.000  0.011  0.008  0.022  0.019  0.015  0.083
    5  0.002  0.000  0.000  0.000  0.000  0.000  0.000  0.000  0.000  0.002
tot    0.011  0.000  0.032  0.000  0.205  0.040  0.450  0.112  0.072  0.921
 
band    10 # energy   -5.35389135 # occ.  2.00000000
 
ion      s     py     pz     px    dxy    dyz    dz2    dxz  x2-y2    tot
    1  0.002  0.000  0.001  0.000  0.013  0.001  0.074  0.003  0.005  0.099
    2  0.001  0.000  0.006  0.000  0.013  0.024  0.125  0.073  0.003  0.246
    3  0.001  0.000  0.010  0.001  0.262  0.003  0.066  0.012  0.101  0.457
    4  0.002  0.000  0.002  0.000  0.023  0.019  0.038  0.044  0.004  0.132
    5  0.002  0.000  0.000  0.000  0.000  0.000  0.000  0.000  0.000  0.002
tot    0.007  0.000  0.020  0.001  0.312  0.047  0.304  0.132  0.112  0.935
 
band    11 # energy   -5.27619914 # occ.  2.00000000
 
ion      s     py     pz     px    dxy    dyz    dz2    dxz  x2-y2    tot
    1  0.001  0.000  0.000  0.000  0.016  0.006  0.021  0.019  0.005  0.068
    2  0.001  0.000  0.000  0.001  0.513  0.000  0.013  0.000  0.169  0.697
    3  0.000  0.000  0.002  0.000  0.014  0.002  0.066  0.006  0.005  0.096
    4  0.001  0.000  0.003  0.000  0.029  0.007  0.020  0.020  0.014  0.094
    5  0.001  0.000  0.000  0.000  0.000  0.000  0.000  0.000  0.000  0.001
tot    0.003  0.000  0.005  0.001  0.573  0.015  0.120  0.046  0.193  0.956
 
band    12 # energy   -5.20709591 # occ.  2.00000000
 
ion      s     py     pz     px    dxy    dyz    dz2    dxz  x2-y2    tot
    1  0.000  0.000  0.000  0.000  0.004  0.002  0.001  0.001  0.008  0.016
    2  0.000  0.000  0.000  0.000  0.001  0.048  0.001  0.019  0.002  0.071
    3  0.000  0.001  0.000  0.000  0.180  0.022  0.000  0.008  0.493  0.703
    4  0.000  0.000  0.000  0.000  0.001  0.123  0.000  0.047  0.007  0.178
    5  0.000  0.000  0.000  0.000  0.000  0.000  0.000  0.000  0.000  0.000
tot    0.000  0.001  0.000  0.000  0.186  0.194  0.002  0.075  0.509  0.968
 
band    13 # energy   -5.12531419 # occ.  2.00000000
 
ion      s     py     pz     px    dxy    dyz    dz2    dxz  x2-y2    tot
    1  0.000  0.000  0.000  0.000  0.001  0.024  0.007  0.007  0.004  0.044
    2  0.000  0.001  0.000  0.000  0.191  0.007  0.002  0.003  0.616  0.820
    3  0.000  0.000  0.000  0.000  0.004  0.044  0.000  0.013  0.015  0.076
    4  0.000  0.000  0.000  0.000  0.006  0.001  0.000  0.001  0.020  0.027
    5  0.000  0.000  0.000  0.000  0.000  0.000  0.000  0.000  0.000  0.000
tot    0.000  0.001  0.001  0.000  0.201  0.076  0.008  0.025  0.655  0.967
 
band    14 # energy   -5.11209723 # occ.  2.00000000
 
ion      s     py     pz     px    dxy    dyz    dz2    dxz  x2-y2    tot
    1  0.003  0.000  0.003  0.000  0.015  0.003  0.387  0.008  0.003  0.423
    2  0.000  0.000  0.020  0.000  0.037  0.009  0.079  0.031  0.009  0.185
    3  0.000  0.000  0.010  0.000  0.154  0.016  0.002  0.047  0.061  0.291
    4  0.002  0.000  0.007  0.000  0.003  0.000  0.001  0.001  0.002  0.016
    5  0.003  0.000  0.000  0.000  0.000  0.000  0.000  0.000  0.000  0.003
tot    0.009  0.000  0.040  0.000  0.209  0.028  0.469  0.087  0.075  0.918
 
band    15 # energy   -4.99171458 # occ.  2.00000000
 
ion      s     py     pz     px    dxy    dyz    dz2    dxz  x2-y2    tot
    1  0.001  0.000  0.000  0.001  0.558  0.002  0.030  0.004  0.195  0.791
    2  0.000  0.000  0.006  0.000  0.003  0.006  0.013  0.013  0.001  0.043
    3  0.001  0.000  0.003  0.000  0.014  0.014  0.026  0.042  0.003  0.103
    4  0.000  0.000  0.000  0.000  0.006  0.004  0.000  0.007  0.001  0.019
    5  0.000  0.000  0.000  0.000  0.000  0.000  0.000  0.000  0.000  0.000
tot    0.003  0.000  0.009  0.001  0.582  0.025  0.070  0.066  0.200  0.956
 
band    16 # energy   -4.88234574 # occ.  2.00000000
 
ion      s     py     pz     px    dxy    dyz    dz2    dxz  x2-y2    tot
    1  0.000  0.001  0.000  0.000  0.180  0.012  0.000  0.004  0.509  0.705
    2  0.000  0.000  0.000  0.000  0.001  0.110  0.000  0.035  0.002  0.149
    3  0.000  0.000  0.000  0.000  0.007  0.013  0.000  0.005  0.016  0.041
    4  0.000  0.000  0.000  0.000  0.001  0.053  0.000  0.020  0.002  0.075
    5  0.000  0.000  0.000  0.000  0.000  0.000  0.000  0.000  0.000  0.000
tot    0.000  0.001  0.000  0.000  0.189  0.187  0.000  0.063  0.529  0.970
 
band    17 # energy   -4.75830727 # occ.  2.00000000
 
ion      s     py     pz     px    dxy    dyz    dz2    dxz  x2-y2    tot
    1  0.000  0.000  0.000  0.000  0.023  0.004  0.000  0.001  0.074  0.103
    2  0.000  0.000  0.000  0.000  0.012  0.008  0.000  0.001  0.018  0.039
    3  0.000  0.000  0.000  0.000  0.050  0.048  0.001  0.029  0.135  0.263
    4  0.000  0.000  0.000  0.000  0.006  0.405  0.000  0.142  0.022  0.575
    5  0.000  0.000  0.000  0.000  0.000  0.000  0.000  0.000  0.000  0.001
tot    0.000  0.001  0.000  0.000  0.091  0.466  0.001  0.173  0.250  0.981
 
band    18 # energy   -4.69668034 # occ.  2.00000000
 
ion      s     py     pz     px    dxy    dyz    dz2    dxz  x2-y2    tot
    1  0.000  0.000  0.000  0.000  0.030  0.005  0.002  0.020  0.014  0.071
    2  0.000  0.000  0.000  0.000  0.030  0.011  0.006  0.037  0.017  0.103
    3  0.002  0.000  0.001  0.000  0.056  0.090  0.019  0.191  0.026  0.386
    4  0.000  0.000  0.005  0.000  0.008  0.095  0.004  0.285  0.005  0.403
    5  0.004  0.000  0.000  0.000  0.000  0.000  0.000  0.000  0.000  0.004
tot    0.006  0.000  0.006  0.000  0.124  0.202  0.032  0.532  0.062  0.966
 
band    19 # energy   -4.48961214 # occ.  2.00000000
 
ion      s     py     pz     px    dxy    dyz    dz2    dxz  x2-y2    tot
    1  0.000  0.000  0.000  0.000  0.042  0.042  0.000  0.018  0.099  0.201
    2  0.000  0.000  0.000  0.000  0.021  0.236  0.000  0.109  0.045  0.411
    3  0.000  0.000  0.000  0.000  0.015  0.150  0.000  0.068  0.039  0.272
    4  0.000  0.000  0.000  0.000  0.003  0.070  0.000  0.021  0.006  0.099
    5  0.000  0.000  0.000  0.000  0.000  0.000  0.000  0.000  0.000  0.000
tot    0.000  0.000  0.000  0.000  0.080  0.497  0.000  0.216  0.189  0.984
 
band    20 # energy   -4.44757052 # occ.  2.00000000
 
ion      s     py     pz     px    dxy    dyz    dz2    dxz  x2-y2    tot
    1  0.000  0.000  0.004  0.000  0.028  0.107  0.002  0.282  0.016  0.439
    2  0.000  0.000  0.004  0.000  0.036  0.077  0.000  0.151  0.016  0.285
    3  0.003  0.000  0.001  0.000  0.007  0.020  0.024  0.048  0.003  0.107
    4  0.000  0.000  0.003  0.000  0.002  0.027  0.000  0.094  0.001  0.127
    5  0.002  0.000  0.000  0.000  0.000  0.000  0.000  0.000  0.000  0.002
tot    0.005  0.000  0.013  0.000  0.073  0.231  0.027  0.574  0.036  0.959
 
band    21 # energy   -4.28483525 # occ.  2.00000000
 
ion      s     py     pz     px    dxy    dyz    dz2    dxz  x2-y2    tot
    1  0.011  0.000  0.014  0.000  0.011  0.049  0.084  0.288  0.007  0.466
    2  0.001  0.000  0.001  0.000  0.009  0.111  0.002  0.208  0.004  0.337
    3  0.001  0.000  0.003  0.000  0.003  0.009  0.008  0.008  0.002  0.035
    4  0.001  0.000  0.004  0.000  0.001  0.017  0.000  0.040  0.000  0.063
    5  0.002  0.000  0.000  0.000  0.000  0.000  0.000  0.000  0.000  0.002
tot    0.016  0.000  0.023  0.000  0.024  0.185  0.095  0.545  0.013  0.903
 
band    22 # energy   -4.25808324 # occ.  2.00000000
 
ion      s     py     pz     px    dxy    dyz    dz2    dxz  x2-y2    tot
    1  0.000  0.000  0.000  0.000  0.006  0.263  0.002  0.048  0.010  0.330
    2  0.000  0.000  0.000  0.000  0.005  0.059  0.000  0.060  0.013  0.137
    3  0.000  0.000  0.000  0.000  0.003  0.324  0.000  0.108  0.004  0.440
    4  0.000  0.000  0.000  0.000  0.002  0.046  0.000  0.023  0.006  0.077
    5  0.000  0.000  0.000  0.000  0.000  0.000  0.000  0.000  0.000  0.000
tot    0.000  0.000  0.001  0.000  0.016  0.693  0.002  0.240  0.032  0.985
 
band    23 # energy   -3.97826718 # occ.  2.00000000
 
ion      s     py     pz     px    dxy    dyz    dz2    dxz  x2-y2    tot
    1  0.000  0.000  0.000  0.000  0.002  0.417  0.000  0.139  0.007  0.565
    2  0.000  0.000  0.000  0.000  0.006  0.216  0.000  0.075  0.016  0.313
    3  0.000  0.000  0.000  0.000  0.002  0.071  0.000  0.024  0.006  0.103