unknown system                          
   3.10000000000000     
     1.022080    0.000000    0.000000
     0.000000    1.022080    0.000000
     0.000000    0.000000    1.022080
   Pt
     2
Direct
  0.000000  0.000000  0.000000
  0.500000  0.500000  0.500000
 
   36   36   36
  121.85      119.30      112.43      103.09      93.274      84.083      75.441      66.519      56.608      45.803    
  35.063      25.674      18.540      13.760      10.699      8.6774      7.4384      6.7819      6.5778      6.7819    
  7.4384      8.6774      10.699      13.760      18.540      25.674      35.063      45.803      56.608      66.519    
  75.441      84.083      93.274      103.09      112.43      119.30      119.30      116.84      110.19      101.15    
  91.604      82.627      74.132      65.325      55.545      44.916      34.388      25.216      18.263      13.605    
  10.609      8.6249      7.4078      6.7621      6.5612      6.7621      7.4078      8.6249      10.609      13.605    
  18.263      25.216      34.388      44.916      55.545      65.325      74.132      82.627      91.604      101.15    
  110.19      116.84      112.43      110.19      104.13      95.849      87.027      78.594      70.465      61.954    
  52.534      42.399      32.477      23.920      17.481      13.167      10.351      8.4744      7.3200      6.7053    
  6.5135      6.7053      7.3200      8.4744      10.351      13.167      17.481      23.920      32.477      42.399    
  52.534      61.954      70.465      78.594      87.027      95.849      104.13      110.19      103.09      101.15    
  95.849      88.537      80.600      72.804      65.090      56.944      48.031      38.638      29.632      22.001    
  16.323      12.511      9.9578      8.2455      7.1865      6.6189      6.4409      6.6189      7.1865      8.2455    
  9.9578      12.511      16.323      22.001      29.632      38.638      48.031      56.944      65.090      72.804    
  80.600      88.537      95.849      101.15      93.274      91.604      87.027      80.600      73.426      66.134    
  58.738      50.941      42.621      34.139      26.255      19.739      14.960      11.720      9.4770      7.9657    
  7.0237      6.5137      6.3528      6.5137      7.0237      7.9657      9.4770      11.720      14.960      19.739    
  26.255      34.139      42.621      50.941      58.738      66.134      73.426      80.600      87.027      91.604    
  84.083      82.627      78.594      72.804      66.134      59.139      51.949      44.497      36.850      29.398    
  22.746      17.414      13.553      10.870      8.9591      7.6656      6.8499      6.4025      6.2601      6.4025    
  6.8499      7.6656      8.9591      10.870      13.553      17.414      22.746      29.398      36.850      44.497    
  51.949      59.139      66.134      72.804      78.594      82.627      75.441      74.132      70.465      65.090    
  58.738      51.949      44.989      37.989      31.148      24.821      19.428      15.241      12.218      10.028    
  8.4500      7.3725      6.6824      6.2979      6.1743      6.2979      6.6824      7.3725      8.4500      10.028    
  12.218      15.241      19.428      24.821      31.148      37.989      44.989      51.949      58.738      65.090    
  70.465      74.132      66.519      65.325      61.954      56.944      50.941      44.497      37.989      31.681    
  25.824      20.691      16.510      13.341      11.006      9.2511      7.9837      7.1073      6.5352      6.2106    
  6.1051      6.2106      6.5352      7.1073      7.9837      9.2511      11.006      13.341      16.510      20.691    
  25.824      31.681      37.989      44.497      50.941      56.944      61.954      65.325      56.608      55.545    
  52.534      48.031      42.621      36.850      31.148      25.824      21.112      17.177      14.083      11.740    
  9.9353      8.5717      7.5803      6.8826      6.4175      6.1487      6.0605      6.1487      6.4175      6.8826    
  7.5803      8.5717      9.9353      11.740      14.083      17.177      21.112      25.824      31.148      36.850    
  42.621      48.031      52.534      55.545      45.803      44.916      42.399      38.638      34.139      29.398    
  24.821      20.691      17.177      14.341      12.131      10.392      9.0306      8.0032      7.2467      6.7036    
  6.3339      6.1169      6.0450      6.1169      6.3339      6.7036      7.2467      8.0032      9.0306      10.392    
  12.131      14.341      17.177      20.691      24.821      29.398      34.139      38.638      42.399      44.916    
  35.063      34.388      32.477      29.632      26.255      22.746      19.428      16.510      14.083      12.131    
  10.552      9.2810      8.2931      7.5425      6.9808      6.5698      6.2853      6.1166      6.0605      6.1166    
  6.2853      6.5698      6.9808      7.5425      8.2931      9.2810      10.552      12.131      14.083      16.510    
  19.428      22.746      26.255      29.632      32.477      34.388      25.674      25.216      23.920      22.001    
  19.739      17.414      15.241      13.341      11.740      10.392      9.2810      8.3959      7.7067      7.1774    
  6.7754      6.4773      6.2696      6.1462      6.1051      6.1462      6.2696      6.4773      6.7754      7.1774    
  7.7067      8.3959      9.2810      10.392      11.740      13.341      15.241      17.414      19.739      22.001    
  23.920      25.216      18.540      18.263      17.481      16.323      14.960      13.553      12.218      11.006    
  9.9353      9.0306      8.2931      7.7067      7.2479      6.8927      6.6216      6.4210      6.2825      6.2011    
  6.1743      6.2011      6.2825      6.4210      6.6216      6.8927      7.2479      7.7067      8.2931      9.0306    
  9.9353      11.006      12.218      13.553      14.960      16.323      17.481      18.263      13.760      13.605    
  13.167      12.511      11.720      10.870      10.028      9.2511      8.5717      8.0032      7.5425      7.1774    
  6.8927      6.6744      6.5112      6.3946      6.3175      6.2741      6.2601      6.2741      6.3175      6.3946    
  6.5112      6.6744      6.8927      7.1774      7.5425      8.0032      8.5717      9.2511      10.028      10.870    
  11.720      12.511      13.167      13.605      10.699      10.609      10.351      9.9578      9.4770      8.9591    
  8.4500      7.9837      7.5803      7.2467      6.9808      6.7754      6.6216      6.5112      6.4370      6.3913    
  6.3667      6.3557      6.3528      6.3557      6.3667      6.3913      6.4370      6.5112      6.6216      6.7754    
  6.9808      7.2467      7.5803      7.9837      8.4500      8.9591      9.4770      9.9578      10.351      10.609    
  8.6774      8.6249      8.4744      8.2455      7.9657      7.6656      7.3725      7.1073      6.8826      6.7036    
  6.5698      6.4773      6.4210      6.3946      6.3913      6.4029      6.4204      6.4352      6.4409      6.4352    
  6.4204      6.4029      6.3913      6.3946      6.4210      6.4773      6.5698      6.7036      6.8826      7.1073    
  7.3725      7.6656      7.9657      8.2455      8.4744      8.6249      7.4384      7.4078      7.3200      7.1865    
  7.0237      6.8499      6.6824      6.5352      6.4175      6.3339      6.2853      6.2696      6.2825      6.3175    
  6.3667      6.4204      6.4685      6.5016      6.5135      6.5016      6.4685      6.4204      6.3667      6.3175    
  6.2825      6.2696      6.2853      6.3339      6.4175      6.5352      6.6824      6.8499      7.0237      7.1865    
  7.3200      7.4078      6.7819      6.7621      6.7053      6.6189      6.5137      6.4025      6.2979      6.2106    
  6.1487      6.1169      6.1166      6.1462      6.2011      6.2741      6.3557      6.4352      6.5016      6.5457    
  6.5612      6.5457      6.5016      6.4352      6.3557      6.2741      6.2011      6.1462      6.1166      6.1169    
  6.1487      6.2106      6.2979      6.4025      6.5137      6.6189      6.7053      6.7621      6.5778      6.5612    
  6.5135      6.4409      6.3528      6.2601      6.1743      6.1051      6.0605      6.0450      6.0605      6.1051    
  6.1743      6.2601      6.3528      6.4409      6.5135      6.5612      6.5778      6.5612      6.5135      6.4409    
  6.3528      6.2601      6.1743      6.1051      6.0605      6.0450      6.0605      6.1051      6.1743      6.2601    
  6.3528      6.4409      6.5135      6.5612      6.7819      6.7621      6.7053      6.6189      6.5137      6.4025    
  6.2979      6.2106      6.1487      6.1169      6.1166      6.1462      6.2011      6.2741      6.3557      6.4352    
  6.5016      6.5457      6.5612      6.5457      6.5016      6.4352      6.3557      6.2741      6.2011      6.1462    
  6.1166      6.1169      6.1487      6.2106      6.2979      6.4025      6.5137      6.6189      6.7053      6.7621    
  7.4384      7.4078      7.3200      7.1865      7.0237      6.8499      6.6824      6.5352      6.4175      6.3339    
  6.2853      6.2696      6.2825      6.3175      6.3667      6.4204      6.4685      6.5016      6.5135      6.5016    
  6.4685      6.4204      6.3667      6.3175      6.2825      6.2696      6.2853      6.3339      6.4175      6.5352    
  6.6824      6.8499      7.0237      7.1865      7.3200      7.4078      8.6774      8.6249      8.4744      8.2455    
  7.9657      7.6656      7.3725      7.1073      6.8826      6.7036      6.5698      6.4773      6.4210      6.3946    
  6.3913      6.4029      6.4204      6.4352      6.4409      6.4352      6.4204      6.4029      6.3913      6.3946    
  6.4210      6.4773      6.5698      6.7036      6.8826      7.1073      7.3725      7.6656      7.9657      8.2455    
  8.4744      8.6249      10.699      10.609      10.351      9.9578      9.4770      8.9591      8.4500      7.9837    
  7.5803      7.2467      6.9808      6.7754      6.6216      6.5112      6.4370      6.3913      6.3667      6.3557    
  6.3528      6.3557      6.3667      6.3913      6.4370      6.5112      6.6216      6.7754      6.9808      7.2467    
  7.5803      7.9837      8.4500      8.9591      9.4770      9.9578      10.351      10.609      13.760      13.605    
  13.167      12.511      11.720      10.870      10.028      9.2511      8.5717      8.0032      7.5425      7.1774    
  6.8927      6.6744      6.5112      6.3946      6.3175      6.2741      6.2601      6.2741      6.3175      6.3946    
  6.5112      6.6744      6.8927      7.1774      7.5425      8.0032      8.5717      9.2511      10.028      10.870    
  11.720      12.511      13.167      13.605      18.540      18.263      17.481      16.323      14.960      13.553    
  12.218      11.006      9.9353      9.0306      8.2931      7.7067      7.2479      6.8927      6.6216      6.4210    
  6.2825      6.2011      6.1743      6.2011      6.2825      6.4210      6.6216      6.8927      7.2479      7.7067    
  8.2931      9.0306      9.9353      11.006      12.218      13.553      14.960      16.323      17.481      18.263    
  25.674      25.216      23.920      22.001      19.739      17.414      15.241      13.341      11.740      10.392    
  9.2810      8.3959      7.7067      7.1774      6.7754      6.4773      6.2696      6.1462      6.1051      6.1462    
  6.2696      6.4773      6.7754      7.1774      7.7067      8.3959      9.2810      10.392      11.740      13.341    
  15.241      17.414      19.739      22.001      23.920      25.216      35.063      34.388      32.477      29.632    
  26.255      22.746      19.428      16.510      14.083      12.131      10.552      9.2810      8.2931      7.5425    
  6.9808      6.5698      6.2853      6.1166      6.0605      6.1166      6.2853      6.5698      6.9808      7.5425    
  8.2931      9.2810      10.552      12.131      14.083      16.510      19.428      22.746      26.255      29.632    
  32.477      34.388      45.803      44.916      42.399      38.638      34.139      29.398      24.821      20.691    
  17.177      14.341      12.131      10.392      9.0306      8.0032      7.2467      6.7036      6.3339      6.1169    
  6.0450      6.1169      6.3339      6.7036      7.2467      8.0032      9.0306      10.392      12.131      14.341    
  17.177      20.691      24.821      29.398      34.139      38.638      42.399      44.916      56.608      55.545    
  52.534      48.031      42.621      36.850      31.148      25.824      21.112      17.177      14.083      11.740    
  9.9353      8.5717      7.5803      6.8826      6.4175      6.1487      6.0605      6.1487      6.4175      6.8826    
  7.5803      8.5717      9.9353      11.740      14.083      17.177      21.112      25.824      31.148      36.850    
  42.621      48.031      52.534      55.545      66.519      65.325      61.954      56.944      50.941      44.497    
  37.989      31.681      25.824      20.691      16.510      13.341      11.006      9.2511      7.9837      7.1073    
  6.5352      6.2106      6.1051      6.2106      6.5352      7.1073      7.9837      9.2511      11.006      13.341    
  16.510      20.691      25.824      31.681      37.989      44.497      50.941      56.944      61.954      65.325    
  75.441      74.132      70.465      65.090      58.738      51.949      44.989      37.989      31.148      24.821    
  19.428      15.241      12.218      10.028      8.4500      7.3725      6.6824      6.2979      6.1743      6.2979    
  6.6824      7.3725      8.4500      10.028      12.218      15.241      19.428      24.821      31.148      37.989    
  44.989      51.949      58.738      65.090      70.465      74.132      84.083      82.627      78.594      72.804    
  66.134      59.139      51.949      44.497      36.850      29.398      22.746      17.414      13.553      10.870    
  8.9591      7.6656      6.8499      6.4025      6.2601      6.4025      6.8499      7.6656      8.9591      10.870    
  13.553      17.414      22.746      29.398      36.850      44.497      51.949      59.139      66.134      72.804    
  78.594      82.627      93.274      91.604      87.027      80.600      73.426      66.134      58.738      50.941    
  42.621      34.139      26.255      19.739      14.960      11.720      9.4770      7.9657      7.0237      6.5137    
  6.3528      6.5137      7.0237      7.9657      9.4770      11.720      14.960      19.739      26.255      34.139    
  42.621      50.941      58.738      66.134      73.426      80.600      87.027      91.604      103.09      101.15    
  95.849      88.537      80.600      72.804      65.090      56.944      48.031      38.638      29.632      22.001    
  16.323      12.511      9.9578      8.2455      7.1865      6.6189      6.4409      6.6189      7.1865      8.2455    
  9.9578      12.511      16.323      22.001      29.632      38.638      48.031      56.944      65.090      72.804    
  80.600      88.537      95.849      101.15      112.43      110.19      104.13      95.849      87.027      78.594    
  70.465      61.954      52.534      42.399      32.477      23.920      17.481      13.167      10.351      8.4744    
  7.3200      6.7053      6.5135      6.7053      7.3200      8.4744      10.351      13.167      17.481      23.920    
  32.477      42.399      52.534      61.954      70.465      78.594      87.027      95.849      104.13      110.19    
  119.30      116.84      110.19      101.15      91.604      82.627      74.132      65.325      55.545      44.916    
  34.388      25.216      18.263      13.605      10.609      8.6249      7.4078      6.7621      6.5612      6.7621    
  7.4078      8.6249      10.609      13.605      18.263      25.216      34.388      44.916      55.545      65.325    
  74.132      82.627      91.604      101.15      110.19      116.84      119.30      116.84      110.19      101.15    
  91.604      82.627      74.132      65.325      55.545      44.916      34.388      25.216      18.263      13.605    
  10.609      8.6249      7.4078      6.7621      6.5612      6.7621      7.4078      8.6249      10.609      13.605    
  18.263      25.216      34.388      44.916      55.545      65.325      74.132      82.627      91.604      101.15    
  110.19      116.84      116.84      114.46      108.02      99.256      89.980      81.208      72.853      64.159    
  54.509      44.052      33.733      24.772      17.995      13.456      10.522      8.5744      7.3787      6.7436    
  6.5457      6.7436      7.3787      8.5744      10.522      13.456      17.995      24.772      33.733      44.052    
  54.509      64.159      72.853      81.208      89.980      99.256      108.02      114.46      110.19      108.02    
  102.15      94.115      85.527      77.273      69.270      60.865      51.569      41.600      31.876      23.516    
  17.239      13.033      10.272      8.4301      7.2956      6.6906      6.5016      6.6906      7.2956      8.4301    
  10.272      13.033      17.239      23.516      31.876      41.600      51.569      60.865      69.270      77.273    
  85.527      94.115      102.15      108.02      101.15      99.256      94.115      87.005      79.260      71.614    
  64.011      55.964      47.172      37.936      29.111      21.656      16.120      12.398      9.8931      8.2111    
  7.1697      6.6106      6.4352      6.6106      7.1697      8.2111      9.8931      12.398      16.120      21.656    
  29.111      37.936      47.172      55.964      64.011      71.614      79.260      87.005      94.115      99.256    
  91.604      89.980      85.527      79.260      72.243      65.078      57.784      50.086      41.885      33.551    
  25.830      19.465      14.802      11.633      9.4300      7.9445      7.0173      6.5146      6.3557      6.5146    
  7.0173      7.9445      9.4300      11.633      14.802      19.465      25.830      33.551      41.885      50.086    
  57.784      65.078      72.243      79.260      85.527      89.980      82.627      81.208      77.273      71.614    
  65.078      58.200      51.115      43.769      36.245      28.931      22.421      17.213      13.442      10.811    
  8.9325      7.6600      6.8563      6.4148      6.2741      6.4148      6.8563      7.6600      8.9325      10.811    
  13.442      17.213      22.421      28.931      36.245      43.769      51.115      58.200      65.078      71.614    
  77.273      81.208      74.132      72.853      69.270      64.011      57.784      51.115      44.270      37.387    
  30.669      24.470      19.197      15.106      12.149      9.9972      8.4450      7.3840      6.7033      6.3234    
  6.2011      6.3234      6.7033      7.3840      8.4450      9.9972      12.149      15.106      19.197      24.470    
  30.669      37.387      44.270      51.115      57.784      64.011      69.270      72.853      65.325      64.159    
  60.865      55.964      50.086      43.769      37.387      31.202      25.466      20.446      16.361      13.263    
  10.972      9.2472      8.0001      7.1364      6.5716      6.2506      6.1462      6.2506      6.5716      7.1364    
  8.0001      9.2472      10.972      13.263      16.361      20.446      25.466      31.202      37.387      43.769    
  50.086      55.964      60.865      64.159      55.545      54.509      51.569      47.172      41.885      36.245    
  30.669      25.466      20.863      17.022      14.000      11.706      9.9333      8.5928      7.6171      6.9292    
  6.4698      6.2040      6.1166      6.2040      6.4698      6.9292      7.6171      8.5928      9.9333      11.706    
  14.000      17.022      20.863      25.466      30.669      36.245      41.885      47.172      51.569      54.509    
  44.916      44.052      41.600      37.936      33.551      28.931      24.470      20.446      17.022      14.257    
  12.098      10.392      9.0558      8.0465      7.3023      6.7671      6.4023      6.1879      6.1169      6.1879    
  6.4023      6.7671      7.3023      8.0465      9.0558      10.392      12.098      14.257      17.022      20.446    
  24.470      28.931      33.551      37.936      41.600      44.052      34.388      33.733      31.876      29.111    
  25.830      22.421      19.197      16.361      14.000      12.098      10.552      9.3086      8.3410      7.6050    
  7.0537      6.6497      6.3700      6.2040      6.1487      6.2040      6.3700      6.6497      7.0537      7.6050    
  8.3410      9.3086      10.552      12.098      14.000      16.361      19.197      22.421      25.830      29.111    
  31.876      33.733      25.216      24.772      23.516      21.656      19.465      17.213      15.106      13.263    
  11.706      10.392      9.3086      8.4455      7.7731      7.2565      6.8642      6.5734      6.3709      6.2506    
  6.2106      6.2506      6.3709      6.5734      6.8642      7.2565      7.7731      8.4455      9.3086      10.392    
  11.706      13.263      15.106      17.213      19.465      21.656      23.516      24.772      18.263      17.995    
  17.239      16.120      14.802      13.442      12.149      10.972      9.9333      9.0558      8.3410      7.7731    
  7.3294      6.9864      6.7254      6.5331      6.4008      6.3234      6.2979      6.3234      6.4008      6.5331    
  6.7254      6.9864      7.3294      7.7731      8.3410      9.0558      9.9333      10.972      12.149      13.442    
  14.802      16.120      17.239      17.995      13.605      13.456      13.033      12.398      11.633      10.811    
  9.9972      9.2472      8.5928      8.0465      7.6050      7.2565      6.9864      6.7810      6.6294      6.5226    
  6.4533      6.4148      6.4025      6.4148      6.4533      6.5226      6.6294      6.7810      6.9864      7.2565    
  7.6050      8.0465      8.5928      9.2472      9.9972      10.811      11.633      12.398      13.033      13.456    
  10.609      10.522      10.272      9.8931      9.4300      8.9325      8.4450      8.0001      7.6171      7.3023    
  7.0537      6.8642      6.7254      6.6294      6.5684      6.5346      6.5194      6.5146      6.5137      6.5146    
  6.5194      6.5346      6.5684      6.6294      6.7254      6.8642      7.0537      7.3023      7.6171      8.0001    
  8.4450      8.9325      9.4300      9.8931      10.272      10.522      8.6249      8.5744      8.4301      8.2111    
  7.9445      7.6600      7.3840      7.1364      6.9292      6.7671      6.6497      6.5734      6.5331      6.5226    
  6.5346      6.5600      6.5886      6.6106      6.6189      6.6106      6.5886      6.5600      6.5346      6.5226    
  6.5331      6.5734      6.6497      6.7671      6.9292      7.1364      7.3840      7.6600      7.9445      8.2111    
  8.4301      8.5744      7.4078      7.3787      7.2956      7.1697      7.0173      6.8563      6.7033      6.5716    
  6.4698      6.4023      6.3700      6.3709      6.4008      6.4533      6.5194      6.5886      6.6492      6.6906    
  6.7053      6.6906      6.6492      6.5886      6.5194      6.4533      6.4008      6.3709      6.3700      6.4023    
  6.4698      6.5716      6.7033      6.8563      7.0173      7.1697      7.2956      7.3787      6.7621      6.7436    
  6.6906      6.6106      6.5146      6.4148      6.3234      6.2506      6.2040      6.1879      6.2040      6.2506    
  6.3234      6.4148      6.5146      6.6106      6.6906      6.7436      6.7621      6.7436      6.6906      6.6106    
  6.5146      6.4148      6.3234      6.2506      6.2040      6.1879      6.2040      6.2506      6.3234      6.4148    
  6.5146      6.6106      6.6906      6.7436      6.5612      6.5457      6.5016      6.4352      6.3557      6.2741    
  6.2011      6.1462      6.1166      6.1169      6.1487      6.2106      6.2979      6.4025      6.5137      6.6189    
  6.7053      6.7621      6.7819      6.7621      6.7053      6.6189      6.5137      6.4025      6.2979      6.2106    
  6.1487      6.1169      6.1166      6.1462      6.2011      6.2741      6.3557      6.4352      6.5016      6.5457    
  6.7621      6.7436      6.6906      6.6106      6.5146      6.4148      6.3234      6.2506      6.2040      6.1879    
  6.2040      6.2506      6.3234      6.4148      6.5146      6.6106      6.6906      6.7436      6.7621      6.7436    
  6.6906      6.6106      6.5146      6.4148      6.3234      6.2506      6.2040      6.1879      6.2040      6.2506    
  6.3234      6.4148      6.5146      6.6106      6.6906      6.7436      7.4078      7.3787      7.2956      7.1697    
  7.0173      6.8563      6.7033      6.5716      6.4698      6.4023      6.3700      6.3709      6.4008      6.4533    
  6.5194      6.5886      6.6492      6.6906      6.7053      6.6906      6.6492      6.5886      6.5194      6.4533    
  6.4008      6.3709      6.3700      6.4023      6.4698      6.5716      6.7033      6.8563      7.0173      7.1697    
  7.2956      7.3787      8.6249      8.5744      8.4301      8.2111      7.9445      7.6600      7.3840      7.1364    
  6.9292      6.7671      6.6497      6.5734      6.5331      6.5226      6.5346      6.5600      6.5886      6.6106    
  6.6189      6.6106      6.5886      6.5600      6.5346      6.5226      6.5331      6.5734      6.6497      6.7671    
  6.9292      7.1364      7.3840      7.6600      7.9445      8.2111      8.4301      8.5744      10.609      10.522    
  10.272      9.8931      9.4300      8.9325      8.4450      8.0001      7.6171      7.3023      7.0537      6.8642    
  6.7254      6.6294      6.5684      6.5346      6.5194      6.5146      6.5137      6.5146      6.5194      6.5346    
  6.5684      6.6294      6.7254      6.8642      7.0537      7.3023      7.6171      8.0001      8.4450      8.9325    
  9.4300      9.8931      10.272      10.522      13.605      13.456      13.033      12.398      11.633      10.811    
  9.9972      9.2472      8.5928      8.0465      7.6050      7.2565      6.9864      6.7810      6.6294      6.5226    
  6.4533      6.4148      6.4025      6.4148      6.4533      6.5226      6.6294      6.7810      6.9864      7.2565    
  7.6050      8.0465      8.5928      9.2472      9.9972      10.811      11.633      12.398      13.033      13.456    
  18.263      17.995      17.239      16.120      14.802      13.442      12.149      10.972      9.9333      9.0558    
  8.3410      7.7731      7.3294      6.9864      6.7254      6.5331      6.4008      6.3234      6.2979      6.3234    
  6.4008      6.5331      6.7254      6.9864      7.3294      7.7731      8.3410      9.0558      9.9333      10.972    
  12.149      13.442      14.802      16.120      17.239      17.995      25.216      24.772      23.516      21.656    
  19.465      17.213      15.106      13.263      11.706      10.392      9.3086      8.4455      7.7731      7.2565    
  6.8642      6.5734      6.3709      6.2506      6.2106      6.2506      6.3709      6.5734      6.8642      7.2565    
  7.7731      8.4455      9.3086      10.392      11.706      13.263      15.106      17.213      19.465      21.656    
  23.516      24.772      34.388      33.733      31.876      29.111      25.830      22.421      19.197      16.361    
  14.000      12.098      10.552      9.3086      8.3410      7.6050      7.0537      6.6497      6.3700      6.2040    
  6.1487      6.2040      6.3700      6.6497      7.0537      7.6050      8.3410      9.3086      10.552      12.098    
  14.000      16.361      19.197      22.421      25.830      29.111      31.876      33.733      44.916      44.052    
  41.600      37.936      33.551      28.931      24.470      20.446      17.022      14.257      12.098      10.392    
  9.0558      8.0465      7.3023      6.7671      6.4023      6.1879      6.1169      6.1879      6.4023      6.7671    
  7.3023      8.0465      9.0558      10.392      12.098      14.257      17.022      20.446      24.470      28.931    
  33.551      37.936      41.600      44.052      55.545      54.509      51.569      47.172      41.885      36.245    
  30.669      25.466      20.863      17.022      14.000      11.706      9.9333      8.5928      7.6171      6.9292    
  6.4698      6.2040      6.1166      6.2040      6.4698      6.9292      7.6171      8.5928      9.9333      11.706    
  14.000      17.022      20.863      25.466      30.669      36.245      41.885      47.172      51.569      54.509    
  65.325      64.159      60.865      55.964      50.086      43.769      37.387      31.202      25.466      20.446    
  16.361      13.263      10.972      9.2472      8.0001      7.1364      6.5716      6.2506      6.1462      6.2506    
  6.5716      7.1364      8.0001      9.2472      10.972      13.263      16.361      20.446      25.466      31.202    
  37.387      43.769      50.086      55.964      60.865      64.159      74.132      72.853      69.270      64.011    
  57.784      51.115      44.270      37.387      30.669      24.470      19.197      15.106      12.149      9.9972    
  8.4450      7.3840      6.7033      6.3234      6.2011      6.3234      6.7033      7.3840      8.4450      9.9972    
  12.149      15.106      19.197      24.470      30.669      37.387      44.270      51.115      57.784      64.011    
  69.270      72.853      82.627      81.208      77.273      71.614      65.078      58.200      51.115      43.769    
  36.245      28.931      22.421      17.213      13.442      10.811      8.9325      7.6600      6.8563      6.4148    
  6.2741      6.4148      6.8563      7.6600      8.9325      10.811      13.442      17.213      22.421      28.931    
  36.245      43.769      51.115      58.200      65.078      71.614      77.273      81.208      91.604      89.980    