unknown system                          
   3.10000000000000     
     1.022080    0.000000    0.000000
     0.000000    1.022080    0.000000
     0.000000    0.000000    1.022080
   Pt
     2
Direct
  0.000000  0.000000  0.000000
  0.500000  0.500000  0.500000
 
   36   36   36
 0.12184854190E+03 0.11930250657E+03 0.11242804605E+03 0.10309434232E+03 0.93273988794E+02
 0.84082546295E+02 0.75440531227E+02 0.66518509989E+02 0.56607840465E+02 0.45803285481E+02
 0.35063025867E+02 0.25673981792E+02 0.18539948398E+02 0.13759745832E+02 0.10698760380E+02
 0.86773736953E+01 0.74383871842E+01 0.67819379081E+01 0.65778033657E+01 0.67819379081E+01
 0.74383871842E+01 0.86773736953E+01 0.10698760380E+02 0.13759745832E+02 0.18539948398E+02
 0.25673981792E+02 0.35063025867E+02 0.45803285481E+02 0.56607840465E+02 0.66518509989E+02
 0.75440531227E+02 0.84082546295E+02 0.93273988794E+02 0.10309434232E+03 0.11242804605E+03
 0.11930250657E+03 0.11930250657E+03 0.11684035358E+03 0.11018895829E+03 0.10114586628E+03
 0.91603744660E+02 0.82626712080E+02 0.74131523414E+02 0.65324841221E+02 0.55545492538E+02
 0.44916174326E+02 0.34388479661E+02 0.25215768665E+02 0.18263051219E+02 0.13605428060E+02
 0.10608762052E+02 0.86248764900E+01 0.74077858162E+01 0.67621321906E+01 0.65611758479E+01
 0.67621321906E+01 0.74077858162E+01 0.86248764900E+01 0.10608762052E+02 0.13605428060E+02
 0.18263051219E+02 0.25215768665E+02 0.34388479661E+02 0.44916174326E+02 0.55545492538E+02
 0.65324841221E+02 0.74131523414E+02 0.82626712080E+02 0.91603744660E+02 0.10114586628E+03
 0.11018895829E+03 0.11684035358E+03 0.11242804605E+03 0.11018895829E+03 0.10412846087E+03
 0.95848728755E+02 0.87027038890E+02 0.78593792663E+02 0.70464903378E+02 0.61954127116E+02
 0.52533613945E+02 0.42399472816E+02 0.32477471537E+02 0.23920371404E+02 0.17480905280E+02
 0.13167300900E+02 0.10350736343E+02 0.84744057410E+01 0.73200458074E+01 0.67053189377E+01
 0.65134688094E+01 0.67053189377E+01 0.73200458074E+01 0.84744057410E+01 0.10350736343E+02
 0.13167300900E+02 0.17480905280E+02 0.23920371404E+02 0.32477471537E+02 0.42399472816E+02
 0.52533613945E+02 0.61954127116E+02 0.70464903378E+02 0.78593792663E+02 0.87027038890E+02
 0.95848728755E+02 0.10412846087E+03 0.11018895829E+03 0.10309434232E+03 0.10114586628E+03
 0.95848728755E+02 0.88536987780E+02 0.80599928509E+02 0.72803600933E+02 0.65089906857E+02
 0.56943998589E+02 0.48030999860E+02 0.38638291158E+02 0.29632198618E+02 0.22000523530E+02
 0.16323177592E+02 0.12510916360E+02 0.99578321055E+01 0.82454529875E+01 0.71865363171E+01
 0.66188729160E+01 0.64408889545E+01 0.66188729160E+01 0.71865363171E+01 0.82454529875E+01
 0.99578321055E+01 0.12510916360E+02 0.16323177592E+02 0.22000523530E+02 0.29632198618E+02
 0.38638291158E+02 0.48030999860E+02 0.56943998589E+02 0.65089906857E+02 0.72803600933E+02
 0.80599928509E+02 0.88536987780E+02 0.95848728755E+02 0.10114586628E+03 0.93273988794E+02
 0.91603744660E+02 0.87027038890E+02 0.80599928509E+02 0.73426207013E+02 0.66134258619E+02
 0.58738489079E+02 0.50941163857E+02 0.42620739748E+02 0.34138635804E+02 0.26254993439E+02
 0.19739000188E+02 0.14959902060E+02 0.11719778060E+02 0.94769764455E+01 0.79657428163E+01
 0.70236813057E+01 0.65137124582E+01 0.63527560106E+01 0.65137124582E+01 0.70236813057E+01
 0.79657428163E+01 0.94769764455E+01 0.11719778060E+02 0.14959902060E+02 0.19739000188E+02
 0.26254993439E+02 0.34138635804E+02 0.42620739748E+02 0.50941163857E+02 0.58738489079E+02
 0.66134258619E+02 0.73426207013E+02 0.80599928509E+02 0.87027038890E+02 0.91603744660E+02
 0.84082546295E+02 0.82626712080E+02 0.78593792663E+02 0.72803600933E+02 0.66134258619E+02
 0.59138712965E+02 0.51948990215E+02 0.44496772576E+02 0.36850298991E+02 0.29398234380E+02
 0.22746281258E+02 0.17414046590E+02 0.13553109842E+02 0.10869849561E+02 0.89591256807E+01
 0.76655945015E+01 0.68498847820E+01 0.64025346577E+01 0.62601315293E+01 0.64025346577E+01
 0.68498847820E+01 0.76655945015E+01 0.89591256807E+01 0.10869849561E+02 0.13553109842E+02
 0.17414046590E+02 0.22746281258E+02 0.29398234380E+02 0.36850298991E+02 0.44496772576E+02
 0.51948990215E+02 0.59138712965E+02 0.66134258619E+02 0.72803600933E+02 0.78593792663E+02
 0.82626712080E+02 0.75440531227E+02 0.74131523414E+02 0.70464903378E+02 0.65089906857E+02
 0.58738489079E+02 0.51948990215E+02 0.44988777703E+02 0.37988964435E+02 0.31147636251E+02
 0.24821289229E+02 0.19428325713E+02 0.15240648665E+02 0.12218294672E+02 0.10028375083E+02
 0.84500118631E+01 0.73724979273E+01 0.66824463540E+01 0.62979068351E+01 0.61742591479E+01
 0.62979068351E+01 0.66824463540E+01 0.73724979273E+01 0.84500118631E+01 0.10028375083E+02
 0.12218294672E+02 0.15240648665E+02 0.19428325713E+02 0.24821289229E+02 0.31147636251E+02
 0.37988964435E+02 0.44988777703E+02 0.51948990215E+02 0.58738489079E+02 0.65089906857E+02
 0.70464903378E+02 0.74131523414E+02 0.66518509989E+02 0.65324841221E+02 0.61954127116E+02
 0.56943998589E+02 0.50941163857E+02 0.44496772576E+02 0.37988964435E+02 0.31681131162E+02
 0.25823967720E+02 0.20691207541E+02 0.16509937200E+02 0.13340804717E+02 0.11005796693E+02
 0.92510583374E+01 0.79837312947E+01 0.71072909036E+01 0.65352257413E+01 0.62106382066E+01
 0.61051366948E+01 0.62106382066E+01 0.65352257413E+01 0.71072909036E+01 0.79837312947E+01
 0.92510583374E+01 0.11005796693E+02 0.13340804717E+02 0.16509937200E+02 0.20691207541E+02
 0.25823967720E+02 0.31681131162E+02 0.37988964435E+02 0.44496772576E+02 0.50941163857E+02
 0.56943998589E+02 0.61954127116E+02 0.65324841221E+02 0.56607840465E+02 0.55545492538E+02
 0.52533613945E+02 0.48030999860E+02 0.42620739748E+02 0.36850298991E+02 0.31147636251E+02
 0.25823967720E+02 0.21111930911E+02 0.17177150192E+02 0.14082824245E+02 0.11739866146E+02
 0.99353106829E+01 0.85716913532E+01 0.75802770381E+01 0.68826309023E+01 0.64174891601E+01
 0.61487214345E+01 0.60604640472E+01 0.61487214345E+01 0.64174891601E+01 0.68826309023E+01
 0.75802770381E+01 0.85716913532E+01 0.99353106829E+01 0.11739866146E+02 0.14082824245E+02
 0.17177150192E+02 0.21111930911E+02 0.25823967720E+02 0.31147636251E+02 0.36850298991E+02
 0.42620739748E+02 0.48030999860E+02 0.52533613945E+02 0.55545492538E+02 0.45803285481E+02
 0.44916174326E+02 0.42399472816E+02 0.38638291158E+02 0.34138635804E+02 0.29398234380E+02
 0.24821289229E+02 0.20691207541E+02 0.17177150192E+02 0.14340927790E+02 0.12131025893E+02
 0.10391823452E+02 0.90306451685E+01 0.80031566598E+01 0.72467313059E+01 0.67036144991E+01
 0.63339107981E+01 0.61168867567E+01 0.60450333432E+01 0.61168867567E+01 0.63339107981E+01
 0.67036144991E+01 0.72467313059E+01 0.80031566598E+01 0.90306451685E+01 0.10391823452E+02
 0.12131025893E+02 0.14340927790E+02 0.17177150192E+02 0.20691207541E+02 0.24821289229E+02
 0.29398234380E+02 0.34138635804E+02 0.38638291158E+02 0.42399472816E+02 0.44916174326E+02
 0.35063025867E+02 0.34388479661E+02 0.32477471537E+02 0.29632198618E+02 0.26254993439E+02
 0.22746281258E+02 0.19428325713E+02 0.16509937200E+02 0.14082824245E+02 0.12131025893E+02
 0.10551568985E+02 0.92809656905E+01 0.82930707402E+01 0.75424521590E+01 0.69808451343E+01
 0.65697586531E+01 0.62853172411E+01 0.61165902048E+01 0.60604640472E+01 0.61165902048E+01
 0.62853172411E+01 0.65697586531E+01 0.69808451343E+01 0.75424521590E+01 0.82930707402E+01
 0.92809656905E+01 0.10551568985E+02 0.12131025893E+02 0.14082824245E+02 0.16509937200E+02
 0.19428325713E+02 0.22746281258E+02 0.26254993439E+02 0.29632198618E+02 0.32477471537E+02
 0.34388479661E+02 0.25673981792E+02 0.25215768665E+02 0.23920371404E+02 0.22000523530E+02
 0.19739000188E+02 0.17414046590E+02 0.15240648665E+02 0.13340804717E+02 0.11739866146E+02
 0.10391823452E+02 0.92809656905E+01 0.83959067352E+01 0.77067489319E+01 0.71773716310E+01
 0.67753550434E+01 0.64773058472E+01 0.62696137914E+01 0.61461821925E+01 0.61051366948E+01
 0.61461821925E+01 0.62696137914E+01 0.64773058472E+01 0.67753550434E+01 0.71773716310E+01
 0.77067489319E+01 0.83959067352E+01 0.92809656905E+01 0.10391823452E+02 0.11739866146E+02
 0.13340804717E+02 0.15240648665E+02 0.17414046590E+02 0.19739000188E+02 0.22000523530E+02
 0.23920371404E+02 0.25215768665E+02 0.18539948398E+02 0.18263051219E+02 0.17480905280E+02
 0.16323177592E+02 0.14959902060E+02 0.13553109842E+02 0.12218294672E+02 0.11005796693E+02
 0.99353106829E+01 0.90306451685E+01 0.82930707402E+01 0.77067489319E+01 0.72479380827E+01
 0.68926966552E+01 0.66215566977E+01 0.64209625750E+01 0.62824563266E+01 0.62010982139E+01
 0.61742591479E+01 0.62010982139E+01 0.62824563266E+01 0.64209625750E+01 0.66215566977E+01
 0.68926966552E+01 0.72479380827E+01 0.77067489319E+01 0.82930707402E+01 0.90306451685E+01
 0.99353106829E+01 0.11005796693E+02 0.12218294672E+02 0.13553109842E+02 0.14959902060E+02
 0.16323177592E+02 0.17480905280E+02 0.18263051219E+02 0.13759745832E+02 0.13605428060E+02
 0.13167300900E+02 0.12510916360E+02 0.11719778060E+02 0.10869849561E+02 0.10028375083E+02
 0.92510583374E+01 0.85716913532E+01 0.80031566598E+01 0.75424521590E+01 0.71773716310E+01
 0.68926966552E+01 0.66743852400E+01 0.65112423298E+01 0.63946377510E+01 0.63175430239E+01
 0.62740984529E+01 0.62601315293E+01 0.62740984529E+01 0.63175430239E+01 0.63946377510E+01
 0.65112423298E+01 0.66743852400E+01 0.68926966552E+01 0.71773716310E+01 0.75424521590E+01
 0.80031566598E+01 0.85716913532E+01 0.92510583374E+01 0.10028375083E+02 0.10869849561E+02
 0.11719778060E+02 0.12510916360E+02 0.13167300900E+02 0.13605428060E+02 0.10698760380E+02
 0.10608762052E+02 0.10350736343E+02 0.99578321055E+01 0.94769764455E+01 0.89591256807E+01
 0.84500118631E+01 0.79837312947E+01 0.75802770381E+01 0.72467313059E+01 0.69808451343E+01
 0.67753550434E+01 0.66215566977E+01 0.65112423298E+01 0.64369573977E+01 0.63913481760E+01
 0.63667384107E+01 0.63557295373E+01 0.63527560106E+01 0.63557295373E+01 0.63667384107E+01
 0.63913481760E+01 0.64369573977E+01 0.65112423298E+01 0.66215566977E+01 0.67753550434E+01
 0.69808451343E+01 0.72467313059E+01 0.75802770381E+01 0.79837312947E+01 0.84500118631E+01
 0.89591256807E+01 0.94769764455E+01 0.99578321055E+01 0.10350736343E+02 0.10608762052E+02
 0.86773736953E+01 0.86248764900E+01 0.84744057410E+01 0.82454529875E+01 0.79657428163E+01
 0.76655945015E+01 0.73724979273E+01 0.71072909036E+01 0.68826309023E+01 0.67036144991E+01
 0.65697586531E+01 0.64773058472E+01 0.64209625750E+01 0.63946377510E+01 0.63913481760E+01
 0.64029473226E+01 0.64204318231E+01 0.64351896368E+01 0.64408889545E+01 0.64351896368E+01
 0.64204318231E+01 0.64029473226E+01 0.63913481760E+01 0.63946377510E+01 0.64209625750E+01
 0.64773058472E+01 0.65697586531E+01 0.67036144991E+01 0.68826309023E+01 0.71072909036E+01
 0.73724979273E+01 0.76655945015E+01 0.79657428163E+01 0.82454529875E+01 0.84744057410E+01
 0.86248764900E+01 0.74383871842E+01 0.74077858162E+01 0.73200458074E+01 0.71865363171E+01
 0.70236813057E+01 0.68498847820E+01 0.66824463540E+01 0.65352257413E+01 0.64174891601E+01
 0.63339107981E+01 0.62853172411E+01 0.62696137914E+01 0.62824563266E+01 0.63175430239E+01
 0.63667384107E+01 0.64204318231E+01 0.64684618437E+01 0.65016323530E+01 0.65134688094E+01
 0.65016323530E+01 0.64684618437E+01 0.64204318231E+01 0.63667384107E+01 0.63175430239E+01
 0.62824563266E+01 0.62696137914E+01 0.62853172411E+01 0.63339107981E+01 0.64174891601E+01
 0.65352257413E+01 0.66824463540E+01 0.68498847820E+01 0.70236813057E+01 0.71865363171E+01
 0.73200458074E+01 0.74077858162E+01 0.67819379081E+01 0.67621321906E+01 0.67053189377E+01
 0.66188729160E+01 0.65137124582E+01 0.64025346577E+01 0.62979068351E+01 0.62106382066E+01
 0.61487214345E+01 0.61168867567E+01 0.61165902048E+01 0.61461821925E+01 0.62010982139E+01
 0.62740984529E+01 0.63557295373E+01 0.64351896368E+01 0.65016323530E+01 0.65457318430E+01
 0.65611758479E+01 0.65457318430E+01 0.65016323530E+01 0.64351896368E+01 0.63557295373E+01
 0.62740984529E+01 0.62010982139E+01 0.61461821925E+01 0.61165902048E+01 0.61168867567E+01
 0.61487214345E+01 0.62106382066E+01 0.62979068351E+01 0.64025346577E+01 0.65137124582E+01
 0.66188729160E+01 0.67053189377E+01 0.67621321906E+01 0.65778033657E+01 0.65611758479E+01
 0.65134688094E+01 0.64408889545E+01 0.63527560106E+01 0.62601315293E+01 0.61742591479E+01
 0.61051366948E+01 0.60604640472E+01 0.60450333432E+01 0.60604640472E+01 0.61051366948E+01
 0.61742591479E+01 0.62601315293E+01 0.63527560106E+01 0.64408889545E+01 0.65134688094E+01
 0.65611758479E+01 0.65778033657E+01 0.65611758479E+01 0.65134688094E+01 0.64408889545E+01
 0.63527560106E+01 0.62601315293E+01 0.61742591479E+01 0.61051366948E+01 0.60604640472E+01
 0.60450333432E+01 0.60604640472E+01 0.61051366948E+01 0.61742591479E+01 0.62601315293E+01
 0.63527560106E+01 0.64408889545E+01 0.65134688094E+01 0.65611758479E+01 0.67819379081E+01
 0.67621321906E+01 0.67053189377E+01 0.66188729160E+01 0.65137124582E+01 0.64025346577E+01
 0.62979068351E+01 0.62106382066E+01 0.61487214345E+01 0.61168867567E+01 0.61165902048E+01
 0.61461821925E+01 0.62010982139E+01 0.62740984529E+01 0.63557295373E+01 0.64351896368E+01
 0.65016323530E+01 0.65457318430E+01 0.65611758479E+01 0.65457318430E+01 0.65016323530E+01
 0.64351896368E+01 0.63557295373E+01 0.62740984529E+01 0.62010982139E+01 0.61461821925E+01
 0.61165902048E+01 0.61168867567E+01 0.61487214345E+01 0.62106382066E+01 0.62979068351E+01
 0.64025346577E+01 0.65137124582E+01 0.66188729160E+01 0.67053189377E+01 0.67621321906E+01
 0.74383871842E+01 0.74077858162E+01 0.73200458074E+01 0.71865363171E+01 0.70236813057E+01
 0.68498847820E+01 0.66824463540E+01 0.65352257413E+01 0.64174891601E+01 0.63339107981E+01
 0.62853172411E+01 0.62696137914E+01 0.62824563266E+01 0.63175430239E+01 0.63667384107E+01
 0.64204318231E+01 0.64684618437E+01 0.65016323530E+01 0.65134688094E+01 0.65016323530E+01
 0.64684618437E+01 0.64204318231E+01 0.63667384107E+01 0.63175430239E+01 0.62824563266E+01
 0.62696137914E+01 0.62853172411E+01 0.63339107981E+01 0.64174891601E+01 0.65352257413E+01
 0.66824463540E+01 0.68498847820E+01 0.70236813057E+01 0.71865363171E+01 0.73200458074E+01
 0.74077858162E+01 0.86773736953E+01 0.86248764900E+01 0.84744057410E+01 0.82454529875E+01
 0.79657428163E+01 0.76655945015E+01 0.73724979273E+01 0.71072909036E+01 0.68826309023E+01
 0.67036144991E+01 0.65697586531E+01 0.64773058472E+01 0.64209625750E+01 0.63946377510E+01
 0.63913481760E+01 0.64029473226E+01 0.64204318231E+01 0.64351896368E+01 0.64408889545E+01
 0.64351896368E+01 0.64204318231E+01 0.64029473226E+01 0.63913481760E+01 0.63946377510E+01
 0.64209625750E+01 0.64773058472E+01 0.65697586531E+01 0.67036144991E+01 0.68826309023E+01
 0.71072909036E+01 0.73724979273E+01 0.76655945015E+01 0.79657428163E+01 0.82454529875E+01
 0.84744057410E+01 0.86248764900E+01 0.10698760380E+02 0.10608762052E+02 0.10350736343E+02
 0.99578321055E+01 0.94769764455E+01 0.89591256807E+01 0.84500118631E+01 0.79837312947E+01
 0.75802770381E+01 0.72467313059E+01 0.69808451343E+01 0.67753550434E+01 0.66215566977E+01
 0.65112423298E+01 0.64369573977E+01 0.63913481760E+01 0.63667384107E+01 0.63557295373E+01
 0.63527560106E+01 0.63557295373E+01 0.63667384107E+01 0.63913481760E+01 0.64369573977E+01
 0.65112423298E+01 0.66215566977E+01 0.67753550434E+01 0.69808451343E+01 0.72467313059E+01
 0.75802770381E+01 0.79837312947E+01 0.84500118631E+01 0.89591256807E+01 0.94769764455E+01
 0.99578321055E+01 0.10350736343E+02 0.10608762052E+02 0.13759745832E+02 0.13605428060E+02
 0.13167300900E+02 0.12510916360E+02 0.11719778060E+02 0.10869849561E+02 0.10028375083E+02
 0.92510583374E+01 0.85716913532E+01 0.80031566598E+01 0.75424521590E+01 0.71773716310E+01
 0.68926966552E+01 0.66743852400E+01 0.65112423298E+01 0.63946377510E+01 0.63175430239E+01
 0.62740984529E+01 0.62601315293E+01 0.62740984529E+01 0.63175430239E+01 0.63946377510E+01
 0.65112423298E+01 0.66743852400E+01 0.68926966552E+01 0.71773716310E+01 0.75424521590E+01
 0.80031566598E+01 0.85716913532E+01 0.92510583374E+01 0.10028375083E+02 0.10869849561E+02
 0.11719778060E+02 0.12510916360E+02 0.13167300900E+02 0.13605428060E+02 0.18539948398E+02
 0.18263051219E+02 0.17480905280E+02 0.16323177592E+02 0.14959902060E+02 0.13553109842E+02
 0.12218294672E+02 0.11005796693E+02 0.99353106829E+01 0.90306451685E+01 0.82930707402E+01
 0.77067489319E+01 0.72479380827E+01 0.68926966552E+01 0.66215566977E+01 0.64209625750E+01
 0.62824563266E+01 0.62010982139E+01 0.61742591479E+01 0.62010982139E+01 0.62824563266E+01
 0.64209625750E+01 0.66215566977E+01 0.68926966552E+01 0.72479380827E+01 0.77067489319E+01
 0.82930707402E+01 0.90306451685E+01 0.99353106829E+01 0.11005796693E+02 0.12218294672E+02
 0.13553109842E+02 0.14959902060E+02 0.16323177592E+02 0.17480905280E+02 0.18263051219E+02
 0.25673981792E+02 0.25215768665E+02 0.23920371404E+02 0.22000523530E+02 0.19739000188E+02
 0.17414046590E+02 0.15240648665E+02 0.13340804717E+02 0.11739866146E+02 0.10391823452E+02
 0.92809656905E+01 0.83959067352E+01 0.77067489319E+01 0.71773716310E+01 0.67753550434E+01
 0.64773058472E+01 0.62696137914E+01 0.61461821925E+01 0.61051366948E+01 0.61461821925E+01
 0.62696137914E+01 0.64773058472E+01 0.67753550434E+01 0.71773716310E+01 0.77067489319E+01
 0.83959067352E+01 0.92809656905E+01 0.10391823452E+02 0.11739866146E+02 0.13340804717E+02
 0.15240648665E+02 0.17414046590E+02 0.19739000188E+02 0.22000523530E+02 0.23920371404E+02
 0.25215768665E+02 0.35063025867E+02 0.34388479661E+02 0.32477471537E+02 0.29632198618E+02
 0.26254993439E+02 0.22746281258E+02 0.19428325713E+02 0.16509937200E+02 0.14082824245E+02
 0.12131025893E+02 0.10551568985E+02 0.92809656905E+01 0.82930707402E+01 0.75424521590E+01
 0.69808451343E+01 0.65697586531E+01 0.62853172411E+01 0.61165902048E+01 0.60604640472E+01
 0.61165902048E+01 0.62853172411E+01 0.65697586531E+01 0.69808451343E+01 0.75424521590E+01
 0.82930707402E+01 0.92809656905E+01 0.10551568985E+02 0.12131025893E+02 0.14082824245E+02
 0.16509937200E+02 0.19428325713E+02 0.22746281258E+02 0.26254993439E+02 0.29632198618E+02
 0.32477471537E+02 0.34388479661E+02 0.45803285481E+02 0.44916174326E+02 0.42399472816E+02
 0.38638291158E+02 0.34138635804E+02 0.29398234380E+02 0.24821289229E+02 0.20691207541E+02
 0.17177150192E+02 0.14340927790E+02 0.12131025893E+02 0.10391823452E+02 0.90306451685E+01
 0.80031566598E+01 0.72467313059E+01 0.67036144991E+01 0.63339107981E+01 0.61168867567E+01
 0.60450333432E+01 0.61168867567E+01 0.63339107981E+01 0.67036144991E+01 0.72467313059E+01
 0.80031566598E+01 0.90306451685E+01 0.10391823452E+02 0.12131025893E+02 0.14340927790E+02
 0.17177150192E+02 0.20691207541E+02 0.24821289229E+02 0.29398234380E+02 0.34138635804E+02
 0.38638291158E+02 0.42399472816E+02 0.44916174326E+02 0.56607840465E+02 0.55545492538E+02
 0.52533613945E+02 0.48030999860E+02 0.42620739748E+02 0.36850298991E+02 0.31147636251E+02
 0.25823967720E+02 0.21111930911E+02 0.17177150192E+02 0.14082824245E+02 0.11739866146E+02
 0.99353106829E+01 0.85716913532E+01 0.75802770381E+01 0.68826309023E+01 0.64174891601E+01
 0.61487214345E+01 0.60604640472E+01 0.61487214345E+01 0.64174891601E+01 0.68826309023E+01
 0.75802770381E+01 0.85716913532E+01 0.99353106829E+01 0.11739866146E+02 0.14082824245E+02
 0.17177150192E+02 0.21111930911E+02 0.25823967720E+02 0.31147636251E+02 0.36850298991E+02
 0.42620739748E+02 0.48030999860E+02 0.52533613945E+02 0.55545492538E+02 0.66518509989E+02
 0.65324841221E+02 0.61954127116E+02 0.56943998589E+02 0.50941163857E+02 0.44496772576E+02
 0.37988964435E+02 0.31681131162E+02 0.25823967720E+02 0.20691207541E+02 0.16509937200E+02
 0.13340804717E+02 0.11005796693E+02 0.92510583374E+01 0.79837312947E+01 0.71072909036E+01
 0.65352257413E+01 0.62106382066E+01 0.61051366948E+01 0.62106382066E+01 0.65352257413E+01
 0.71072909036E+01 0.79837312947E+01 0.92510583374E+01 0.11005796693E+02 0.13340804717E+02
 0.16509937200E+02 0.20691207541E+02 0.25823967720E+02 0.31681131162E+02 0.37988964435E+02
 0.44496772576E+02 0.50941163857E+02 0.56943998589E+02 0.61954127116E+02 0.65324841221E+02
 0.75440531227E+02 0.74131523414E+02 0.70464903378E+02 0.65089906857E+02 0.58738489079E+02
 0.51948990215E+02 0.44988777703E+02 0.37988964435E+02 0.31147636251E+02 0.24821289229E+02
 0.19428325713E+02 0.15240648665E+02 0.12218294672E+02 0.10028375083E+02 0.84500118631E+01
 0.73724979273E+01 0.66824463540E+01 0.62979068351E+01 0.61742591479E+01 0.62979068351E+01
 0.66824463540E+01 0.73724979273E+01 0.84500118631E+01 0.10028375083E+02 0.12218294672E+02
 0.15240648665E+02 0.19428325713E+02 0.24821289229E+02 0.31147636251E+02 0.37988964435E+02
 0.44988777703E+02 0.51948990215E+02 0.58738489079E+02 0.65089906857E+02 0.70464903378E+02
 0.74131523414E+02 0.84082546295E+02 0.82626712080E+02 0.78593792663E+02 0.72803600933E+02
 0.66134258619E+02 0.59138712965E+02 0.51948990215E+02 0.44496772576E+02 0.36850298991E+02
 0.29398234380E+02 0.22746281258E+02 0.17414046590E+02 0.13553109842E+02 0.10869849561E+02
 0.89591256807E+01 0.76655945015E+01 0.68498847820E+01 0.64025346577E+01 0.62601315293E+01
 0.64025346577E+01 0.68498847820E+01 0.76655945015E+01 0.89591256807E+01 0.10869849561E+02
 0.13553109842E+02 0.17414046590E+02 0.22746281258E+02 0.29398234380E+02 0.36850298991E+02
 0.44496772576E+02 0.51948990215E+02 0.59138712965E+02 0.66134258619E+02 0.72803600933E+02
 0.78593792663E+02 0.82626712080E+02 0.93273988794E+02 0.91603744660E+02 0.87027038890E+02
 0.80599928509E+02 0.73426207013E+02 0.66134258619E+02 0.58738489079E+02 0.50941163857E+02
 0.42620739748E+02 0.34138635804E+02 0.26254993439E+02 0.19739000188E+02 0.14959902060E+02
 0.11719778060E+02 0.94769764455E+01 0.79657428163E+01 0.70236813057E+01 0.65137124582E+01
 0.63527560106E+01 0.65137124582E+01 0.70236813057E+01 0.79657428163E+01 0.94769764455E+01
 0.11719778060E+02 0.14959902060E+02 0.19739000188E+02 0.26254993439E+02 0.34138635804E+02
 0.42620739748E+02 0.50941163857E+02 0.58738489079E+02 0.66134258619E+02 0.73426207013E+02
 0.80599928509E+02 0.87027038890E+02 0.91603744660E+02 0.10309434232E+03 0.10114586628E+03
 0.95848728755E+02 0.88536987780E+02 0.80599928509E+02 0.72803600933E+02 0.65089906857E+02
 0.56943998589E+02 0.48030999860E+02 0.38638291158E+02 0.29632198618E+02 0.22000523530E+02
 0.16323177592E+02 0.12510916360E+02 0.99578321055E+01 0.82454529875E+01 0.71865363171E+01
 0.66188729160E+01 0.64408889545E+01 0.66188729160E+01 0.71865363171E+01 0.82454529875E+01
 0.99578321055E+01 0.12510916360E+02 0.16323177592E+02 0.22000523530E+02 0.29632198618E+02
 0.38638291158E+02 0.48030999860E+02 0.56943998589E+02 0.65089906857E+02 0.72803600933E+02
 0.80599928509E+02 0.88536987780E+02 0.95848728755E+02 0.10114586628E+03 0.11242804605E+03
 0.11018895829E+03 0.10412846087E+03 0.95848728755E+02 0.87027038890E+02 0.78593792663E+02
 0.70464903378E+02 0.61954127116E+02 0.52533613945E+02 0.42399472816E+02 0.32477471537E+02
 0.23920371404E+02 0.17480905280E+02 0.13167300900E+02 0.10350736343E+02 0.84744057410E+01
 0.73200458074E+01 0.67053189377E+01 0.65134688094E+01 0.67053189377E+01 0.73200458074E+01
 0.84744057410E+01 0.10350736343E+02 0.13167300900E+02 0.17480905280E+02 0.23920371404E+02
 0.32477471537E+02 0.42399472816E+02 0.52533613945E+02 0.61954127116E+02 0.70464903378E+02
 0.78593792663E+02 0.87027038890E+02 0.95848728755E+02 0.10412846087E+03 0.11018895829E+03
 0.11930250657E+03 0.11684035358E+03 0.11018895829E+03 0.10114586628E+03 0.91603744660E+02
 0.82626712080E+02 0.74131523414E+02 0.65324841221E+02 0.55545492538E+02 0.44916174326E+02
 0.34388479661E+02 0.25215768665E+02 0.18263051219E+02 0.13605428060E+02 0.10608762052E+02
 0.86248764900E+01 0.74077858162E+01 0.67621321906E+01 0.65611758479E+01 0.67621321906E+01
 0.74077858162E+01 0.86248764900E+01 0.10608762052E+02 0.13605428060E+02 0.18263051219E+02
 0.25215768665E+02 0.34388479661E+02 0.44916174326E+02 0.55545492538E+02 0.65324841221E+02
 0.74131523414E+02 0.82626712080E+02 0.91603744660E+02 0.10114586628E+03 0.11018895829E+03
 0.11684035358E+03 0.11930250657E+03 0.11684035358E+03 0.11018895829E+03 0.10114586628E+03
 0.91603744660E+02 0.82626712080E+02 0.74131523414E+02 0.65324841221E+02 0.55545492538E+02
 0.44916174326E+02 0.34388479661E+02 0.25215768665E+02 0.18263051219E+02 0.13605428060E+02
 0.10608762052E+02 0.86248764900E+01 0.74077858162E+01 0.67621321906E+01 0.65611758479E+01
 0.67621321906E+01 0.74077858162E+01 0.86248764900E+01 0.10608762052E+02 0.13605428060E+02
 0.18263051219E+02 0.25215768665E+02 0.34388479661E+02 0.44916174326E+02 0.55545492538E+02
 0.65324841221E+02 0.74131523414E+02 0.82626712080E+02 0.91603744660E+02 0.10114586628E+03
 0.11018895829E+03 0.11684035358E+03 0.11684035358E+03 0.11445866270E+03 0.10802109782E+03
 0.99256228313E+02 0.89980028496E+02 0.81207730060E+02 0.72853308439E+02 0.64158802543E+02
 0.54508757094E+02 0.44052097379E+02 0.33733039261E+02 0.24771716658E+02 0.17995357440E+02
 0.13456314182E+02 0.10521715838E+02 0.85744495002E+01 0.73787180409E+01 0.67435901908E+01
 0.65457318430E+01 0.67435901908E+01 0.73787180409E+01 0.85744495002E+01 0.10521715838E+02
 0.13456314182E+02 0.17995357440E+02 0.24771716658E+02 0.33733039261E+02 0.44052097379E+02
 0.54508757094E+02 0.64158802543E+02 0.72853308439E+02 0.81207730060E+02 0.89980028496E+02
 0.99256228313E+02 0.10802109782E+03 0.11445866270E+03 0.11018895829E+03 0.10802109782E+03
 0.10214957874E+03 0.94114981851E+02 0.85526793932E+02 0.77273421319E+02 0.69270417943E+02
 0.60864600777E+02 0.51568767158E+02 0.41600499525E+02 0.31876151529E+02 0.23516421918E+02
 0.17239255148E+02 0.13032934917E+02 0.10272335826E+02 0.84301090175E+01 0.72955807398E+01
 0.66906123454E+01 0.65016323530E+01 0.66906123454E+01 0.72955807398E+01 0.84301090175E+01
 0.10272335826E+02 0.13032934917E+02 0.17239255148E+02 0.23516421918E+02 0.31876151529E+02
 0.41600499525E+02 0.51568767158E+02 0.60864600777E+02 0.69270417943E+02 0.77273421319E+02
 0.85526793932E+02 0.94114981851E+02 0.10214957874E+03 0.10802109782E+03 0.10114586628E+03
 0.99256228313E+02 0.94114981851E+02 0.87005083546E+02 0.79260455892E+02 0.71614357447E+02
 0.64010868137E+02 0.55963978760E+02 0.47171658025E+02 0.37935979469E+02 0.29111451820E+02
 0.21656183457E+02 0.16120158317E+02 0.12398483136E+02 0.98931346691E+01 0.82110708113E+01
 0.71696954563E+01 0.66106434453E+01 0.64351896368E+01 0.66106434453E+01 0.71696954563E+01
 0.82110708113E+01 0.98931346691E+01 0.12398483136E+02 0.16120158317E+02 0.21656183457E+02
 0.29111451820E+02 0.37935979469E+02 0.47171658025E+02 0.55963978760E+02 0.64010868137E+02
 0.71614357447E+02 0.79260455892E+02 0.87005083546E+02 0.94114981851E+02 0.99256228313E+02
 0.91603744660E+02 0.89980028496E+02 0.85526793932E+02 0.79260455892E+02 0.72242617812E+02
 0.65077872319E+02 0.57783992541E+02 0.50085867994E+02 0.41885324408E+02 0.33551125979E+02
 0.25829918445E+02 0.19465084446E+02 0.14802308780E+02 0.11633218186E+02 0.94299955429E+01
 0.79445247952E+01 0.70172743711E+01 0.65145572592E+01 0.63557295373E+01 0.65145572592E+01
 0.70172743711E+01 0.79445247952E+01 0.94299955429E+01 0.11633218186E+02 0.14802308780E+02
 0.19465084446E+02 0.25829918445E+02 0.33551125979E+02 0.41885324408E+02 0.50085867994E+02
 0.57783992541E+02 0.65077872319E+02 0.72242617812E+02 0.79260455892E+02 0.85526793932E+02
 0.89980028496E+02 0.82626712080E+02 0.81207730060E+02 0.77273421319E+02 0.71614357447E+02
 0.65077872319E+02 0.58199860381E+02 0.51114675784E+02 0.43768935500E+02 0.36244523558E+02
 0.28931066481E+02 0.22420691318E+02 0.17212541874E+02 0.13441812470E+02 0.10810549253E+02
 0.89325212732E+01 0.76599887365E+01 0.68562693870E+01 0.64147804582E+01 0.62740984529E+01
 0.64147804582E+01 0.68562693870E+01 0.76599887365E+01 0.89325212732E+01 0.10810549253E+02
 0.13441812470E+02 0.17212541874E+02 0.22420691318E+02 0.28931066481E+02 0.36244523558E+02
 0.43768935500E+02 0.51114675784E+02 0.58199860381E+02 0.65077872319E+02 0.71614357447E+02
 0.77273421319E+02 0.81207730060E+02 0.74131523414E+02 0.72853308439E+02 0.69270417943E+02
 0.64010868137E+02 0.57783992541E+02 0.51114675784E+02 0.44269535430E+02 0.37386585119E+02
 0.30669123915E+02 0.24470333973E+02 0.19196819661E+02 0.15106241817E+02 0.12149274249E+02
 0.99972094109E+01 0.84449798974E+01 0.73839856949E+01 0.67033257092E+01 0.63233888758E+01
 0.62010982139E+01 0.63233888758E+01 0.67033257092E+01 0.73839856949E+01 0.84449798974E+01
 0.99972094109E+01 0.12149274249E+02 0.15106241817E+02 0.19196819661E+02 0.24470333973E+02
 0.30669123915E+02 0.37386585119E+02 0.44269535430E+02 0.51114675784E+02 0.57783992541E+02
 0.64010868137E+02 0.69270417943E+02 0.72853308439E+02 0.65324841221E+02 0.64158802543E+02
 0.60864600777E+02 0.55963978760E+02 0.50085867994E+02 0.43768935500E+02 0.37386585119E+02
 0.31202192128E+02 0.25465673571E+02 0.20445681506E+02 0.16360688294E+02 0.13263226159E+02
 0.10972339438E+02 0.92471532838E+01 0.80001468717E+01 0.71364126516E+01 0.65715978912E+01
 0.62506096980E+01 0.61461821925E+01 0.62506096980E+01 0.65715978912E+01 0.71364126516E+01
 0.80001468717E+01 0.92471532838E+01 0.10972339438E+02 0.13263226159E+02 0.16360688294E+02
 0.20445681506E+02 0.25465673571E+02 0.31202192128E+02 0.37386585119E+02 0.43768935500E+02
 0.50085867994E+02 0.55963978760E+02 0.60864600777E+02 0.64158802543E+02 0.55545492538E+02
 0.54508757094E+02 0.51568767158E+02 0.47171658025E+02 0.41885324408E+02 0.36244523558E+02
 0.30669123915E+02 0.25465673571E+02 0.20862897040E+02 0.17021653984E+02 0.14000167829E+02
 0.11706271141E+02 0.99332875062E+01 0.85928464496E+01 0.76170604114E+01 0.69292158833E+01
 0.64697898405E+01 0.62039515746E+01 0.61165902048E+01 0.62039515746E+01 0.64697898405E+01
 0.69292158833E+01 0.76170604114E+01 0.85928464496E+01 0.99332875062E+01 0.11706271141E+02
 0.14000167829E+02 0.17021653984E+02 0.20862897040E+02 0.25465673571E+02 0.30669123915E+02
 0.36244523558E+02 0.41885324408E+02 0.47171658025E+02 0.51568767158E+02 0.54508757094E+02
 0.44916174326E+02 0.44052097379E+02 0.41600499525E+02 0.37935979469E+02 0.33551125979E+02
 0.28931066481E+02 0.24470333973E+02 0.20445681506E+02 0.17021653984E+02 0.14256749109E+02