   2   2   0   0
  0.1590414E+02  0.3168449E-09  0.3168449E-09  0.3168449E-09  0.5000000E-15
  1.000000000000000E-004
  CAR 
 unknown system                          
     24.02129813     -4.52506612  301      6.89619318      1.00000000
     -4.525  0.0000E+00  0.0000E+00
     -4.430  0.0000E+00  0.0000E+00
     -4.335  0.0000E+00  0.0000E+00
     -4.240  0.0000E+00  0.0000E+00
     -4.144  0.0000E+00  0.0000E+00
     -4.049  0.0000E+00  0.0000E+00
     -3.954  0.0000E+00  0.0000E+00
     -3.859  0.0000E+00  0.0000E+00
     -3.764  0.0000E+00  0.0000E+00
     -3.669  0.0000E+00  0.0000E+00
     -3.574  0.0000E+00  0.0000E+00
     -3.478  0.0000E+00  0.0000E+00
     -3.383  0.0000E+00  0.0000E+00
     -3.288  0.0000E+00  0.0000E+00
     -3.193  0.0000E+00  0.0000E+00
     -3.098  0.0000E+00  0.0000E+00
     -3.003  0.0000E+00  0.0000E+00
     -2.907  0.0000E+00  0.0000E+00
     -2.812  0.0000E+00  0.0000E+00
     -2.717  0.0000E+00  0.0000E+00
     -2.622  0.0000E+00  0.0000E+00
     -2.527  0.0000E+00  0.0000E+00
     -2.432  0.6306E-02  0.1963E-03
     -2.337  0.2570E-01  0.1615E-02
     -2.241  0.5718E-01  0.5495E-02
     -2.146  0.8181E-01  0.1222E-01
     -2.051  0.9278E-01  0.2063E-01
     -1.956  0.9587E-01  0.2958E-01
     -1.861  0.1041E+00  0.3905E-01
     -1.766  0.1175E+00  0.4956E-01
     -1.670  0.1326E+00  0.6145E-01
     -1.575  0.1486E+00  0.7483E-01
     -1.480  0.1632E+00  0.8970E-01
     -1.385  0.1718E+00  0.1057E+00
     -1.290  0.1786E+00  0.1223E+00
     -1.195  0.1894E+00  0.1398E+00
     -1.100  0.2022E+00  0.1584E+00
     -1.004  0.2143E+00  0.1783E+00
     -0.909  0.2265E+00  0.1992E+00
     -0.814  0.2387E+00  0.2214E+00
     -0.719  0.2517E+00  0.2447E+00
     -0.624  0.2692E+00  0.2694E+00
     -0.529  0.2913E+00  0.2960E+00
     -0.433  0.3158E+00  0.3249E+00
     -0.338  0.3396E+00  0.3561E+00
     -0.243  0.3626E+00  0.3895E+00
     -0.148  0.3855E+00  0.4251E+00
     -0.053  0.4086E+00  0.4629E+00
      0.042  0.4521E+00  0.5034E+00
      0.138  0.5175E+00  0.5495E+00
      0.233  0.5848E+00  0.6020E+00
      0.328  0.6620E+00  0.6609E+00
      0.423  0.9490E+00  0.7326E+00
      0.518  0.1544E+01  0.8482E+00
      0.613  0.1796E+01  0.1008E+01
      0.708  0.1684E+01  0.1176E+01
      0.804  0.2675E+01  0.1368E+01
      0.899  0.1461E+01  0.1575E+01
      0.994  0.1508E+01  0.1715E+01
      1.089  0.1725E+01  0.1869E+01
      1.184  0.1893E+01  0.2041E+01
      1.279  0.2130E+01  0.2240E+01
      1.375  0.2501E+01  0.2454E+01
      1.470  0.3002E+01  0.2722E+01
      1.565  0.3218E+01  0.3018E+01
      1.660  0.4059E+01  0.3344E+01
      1.755  0.3023E+01  0.3676E+01
      1.850  0.2129E+01  0.3926E+01
      1.945  0.1420E+01  0.4092E+01
      2.041  0.1007E+01  0.4206E+01
      2.136  0.2010E+01  0.4384E+01
      2.231  0.3489E+01  0.4692E+01
      2.326  0.5055E+01  0.5118E+01
      2.421  0.4410E+01  0.5568E+01
      2.516  0.4559E+01  0.5993E+01
      2.612  0.5144E+01  0.6446E+01
      2.707  0.4499E+01  0.6976E+01
      2.802  0.2272E+01  0.7251E+01
      2.897  0.1987E+01  0.7452E+01
      2.992  0.2054E+01  0.7649E+01
      3.087  0.2521E+01  0.7862E+01
      3.182  0.3596E+01  0.8158E+01
      3.278  0.3964E+01  0.8510E+01
      3.373  0.5161E+01  0.8944E+01
      3.468  0.4806E+01  0.9516E+01
      3.563  0.3370E+01  0.9888E+01
      3.658  0.2793E+01  0.1017E+02
      3.753  0.2489E+01  0.1042E+02
      3.849  0.2205E+01  0.1065E+02
      3.944  0.1827E+01  0.1085E+02
      4.039  0.1715E+01  0.1102E+02
      4.134  0.1606E+01  0.1118E+02
      4.229  0.1482E+01  0.1132E+02
      4.324  0.1331E+01  0.1146E+02
      4.419  0.1127E+01  0.1157E+02
      4.515  0.1329E+01  0.1169E+02
      4.610  0.1131E+01  0.1181E+02
      4.705  0.1309E+01  0.1192E+02
      4.800  0.1597E+01  0.1206E+02
      4.895  0.2057E+01  0.1224E+02
      4.990  0.2426E+01  0.1245E+02
      5.086  0.2789E+01  0.1270E+02
      5.181  0.3239E+01  0.1298E+02
      5.276  0.3833E+01  0.1332E+02
      5.371  0.4296E+01  0.1371E+02
      5.466  0.4305E+01  0.1412E+02
      5.561  0.4256E+01  0.1453E+02
      5.656  0.4209E+01  0.1492E+02
      5.752  0.4327E+01  0.1538E+02
      5.847  0.4011E+01  0.1579E+02
      5.942  0.3848E+01  0.1617E+02
      6.037  0.3471E+01  0.1650E+02
      6.132  0.5194E+01  0.1690E+02
      6.227  0.6427E+01  0.1744E+02
      6.323  0.5822E+01  0.1840E+02
      6.418  0.4045E+01  0.1882E+02
      6.513  0.3067E+01  0.1914E+02
      6.608  0.2214E+01  0.1940E+02
      6.703  0.1660E+01  0.1958E+02
      6.798  0.2179E+01  0.1981E+02
      6.893  0.1880E+01  0.1999E+02
      6.989  0.1831E+01  0.2017E+02
      7.084  0.1841E+01  0.2034E+02
      7.179  0.2255E+01  0.2055E+02
      7.274  0.1779E+01  0.2074E+02
      7.369  0.1504E+01  0.2090E+02
      7.464  0.1065E+01  0.2102E+02
      7.560  0.8499E+00  0.2111E+02
      7.655  0.7311E+00  0.2118E+02
      7.750  0.7147E+00  0.2125E+02
      7.845  0.6947E+00  0.2132E+02
      7.940  0.6708E+00  0.2139E+02
      8.035  0.6123E+00  0.2145E+02
      8.130  0.5799E+00  0.2150E+02
      8.226  0.5850E+00  0.2156E+02
      8.321  0.5964E+00  0.2161E+02
      8.416  0.6132E+00  0.2167E+02
      8.511  0.6291E+00  0.2173E+02
      8.606  0.6171E+00  0.2179E+02
      8.701  0.6052E+00  0.2185E+02
      8.797  0.5889E+00  0.2191E+02
      8.892  0.5833E+00  0.2196E+02
      8.987  0.5750E+00  0.2202E+02
      9.082  0.5728E+00  0.2207E+02
      9.177  0.5703E+00  0.2212E+02
      9.272  0.5675E+00  0.2218E+02
      9.367  0.5647E+00  0.2223E+02
      9.463  0.5621E+00  0.2229E+02
      9.558  0.5482E+00  0.2234E+02
      9.653  0.5402E+00  0.2239E+02
      9.748  0.5370E+00  0.2244E+02
      9.843  0.5333E+00  0.2249E+02
      9.938  0.5303E+00  0.2254E+02
     10.034  0.5283E+00  0.2259E+02
     10.129  0.5261E+00  0.2264E+02
     10.224  0.5238E+00  0.2269E+02
     10.319  0.5447E+00  0.2275E+02
     10.414  0.5407E+00  0.2280E+02
     10.509  0.5363E+00  0.2285E+02
     10.605  0.5283E+00  0.2290E+02
     10.700  0.5214E+00  0.2295E+02
     10.795  0.5158E+00  0.2300E+02
     10.890  0.5043E+00  0.2305E+02
     10.985  0.5010E+00  0.2309E+02
     11.080  0.4999E+00  0.2314E+02
     11.175  0.5006E+00  0.2319E+02
     11.271  0.5024E+00  0.2324E+02
     11.366  0.5047E+00  0.2329E+02
     11.461  0.5186E+00  0.2333E+02
     11.556  0.5191E+00  0.2338E+02
     11.651  0.6287E+00  0.2344E+02
     11.746  0.5732E+00  0.2349E+02
     11.842  0.4568E+00  0.2355E+02
     11.937  0.6652E+00  0.2361E+02
     12.032  0.6545E+00  0.2367E+02
     12.127  0.5738E+00  0.2373E+02
     12.222  0.3263E+00  0.2377E+02
     12.317  0.2967E+00  0.2380E+02
     12.412  0.2680E+00  0.2382E+02
     12.508  0.2399E+00  0.2385E+02
     12.603  0.2720E+00  0.2387E+02
     12.698  0.2631E+00  0.2390E+02
     12.793  0.2907E+00  0.2392E+02
     12.888  0.3372E+00  0.2395E+02
     12.983  0.4669E+00  0.2399E+02
     13.079  0.6000E+00  0.2404E+02
     13.174  0.5769E+00  0.2409E+02
     13.269  0.6067E+00  0.2415E+02
     13.364  0.6703E+00  0.2421E+02
     13.459  0.7876E+00  0.2428E+02
     13.554  0.8536E+00  0.2436E+02
     13.649  0.1088E+01  0.2445E+02
     13.745  0.1171E+01  0.2456E+02
     13.840  0.1098E+01  0.2468E+02
     13.935  0.9106E+00  0.2478E+02
     14.030  0.8168E+00  0.2486E+02
     14.125  0.7918E+00  0.2493E+02
     14.220  0.8023E+00  0.2501E+02
     14.316  0.8139E+00  0.2509E+02
     14.411  0.8313E+00  0.2517E+02
     14.506  0.8233E+00  0.2524E+02
     14.601  0.7615E+00  0.2532E+02
     14.696  0.7136E+00  0.2539E+02
     14.791  0.7162E+00  0.2546E+02
     14.886  0.7113E+00  0.2553E+02
     14.982  0.6973E+00  0.2560E+02
     15.077  0.6853E+00  0.2566E+02
     15.172  0.6754E+00  0.2573E+02
     15.267  0.6674E+00  0.2579E+02
     15.362  0.6616E+00  0.2585E+02
     15.457  0.5987E+00  0.2592E+02
     15.553  0.5838E+00  0.2597E+02
     15.648  0.5841E+00  0.2603E+02
     15.743  0.5772E+00  0.2608E+02
     15.838  0.5681E+00  0.2614E+02
     15.933  0.5608E+00  0.2619E+02
     16.028  0.5609E+00  0.2625E+02
     16.123  0.5615E+00  0.2630E+02
     16.219  0.5470E+00  0.2635E+02
     16.314  0.5480E+00  0.2640E+02
     16.409  0.5504E+00  0.2646E+02
     16.504  0.5590E+00  0.2651E+02
     16.599  0.6112E+00  0.2656E+02
     16.694  0.5475E+00  0.2662E+02
     16.790  0.5467E+00  0.2667E+02
     16.885  0.5410E+00  0.2672E+02
     16.980  0.5303E+00  0.2678E+02
     17.075  0.5215E+00  0.2683E+02
     17.170  0.5133E+00  0.2687E+02
     17.265  0.5055E+00  0.2692E+02
     17.360  0.4990E+00  0.2697E+02
     17.456  0.4929E+00  0.2702E+02
     17.551  0.4888E+00  0.2706E+02
     17.646  0.4854E+00  0.2711E+02
     17.741  0.4828E+00  0.2716E+02
     17.836  0.4810E+00  0.2720E+02
     17.931  0.4863E+00  0.2725E+02
     18.027  0.4858E+00  0.2730E+02
     18.122  0.4754E+00  0.2734E+02
     18.217  0.4657E+00  0.2739E+02
     18.312  0.4553E+00  0.2743E+02
     18.407  0.4461E+00  0.2747E+02
     18.502  0.3855E+00  0.2751E+02
     18.597  0.3728E+00  0.2755E+02
     18.693  0.3596E+00  0.2758E+02
     18.788  0.3459E+00  0.2762E+02
     18.883  0.3316E+00  0.2765E+02
     18.978  0.3169E+00  0.2768E+02
     19.073  0.2860E+00  0.2771E+02
     19.168  0.2706E+00  0.2774E+02
     19.264  0.2549E+00  0.2776E+02
     19.359  0.2391E+00  0.2778E+02
     19.454  0.2231E+00  0.2781E+02
     19.549  0.2114E+00  0.2783E+02
     19.644  0.1953E+00  0.2785E+02
     19.739  0.1780E+00  0.2786E+02
     19.834  0.1618E+00  0.2788E+02
     19.930  0.1467E+00  0.2789E+02
     20.025  0.1334E+00  0.2791E+02
     20.120  0.1198E+00  0.2792E+02
     20.215  0.1077E+00  0.2793E+02
     20.310  0.9711E-01  0.2794E+02
     20.405  0.8791E-01  0.2795E+02
     20.501  0.8015E-01  0.2796E+02
     20.596  0.7382E-01  0.2796E+02
     20.691  0.5501E-01  0.2797E+02
     20.786  0.4903E-01  0.2798E+02
     20.881  0.4333E-01  0.2798E+02
     20.976  0.3791E-01  0.2798E+02
     21.072  0.3277E-01  0.2799E+02
     21.167  0.2791E-01  0.2799E+02
     21.262  0.2334E-01  0.2799E+02
     21.357  0.1905E-01  0.2799E+02
     21.452  0.1543E-01  0.2800E+02
     21.547  0.1233E-01  0.2800E+02
     21.642  0.9438E-02  0.2800E+02
     21.738  0.6756E-02  0.2800E+02
     21.833  0.4283E-02  0.2800E+02
     21.928  0.2019E-02  0.2800E+02
     22.023  0.0000E+00  0.2800E+02
     22.118  0.0000E+00  0.2800E+02
     22.213  0.0000E+00  0.2800E+02
     22.309  0.0000E+00  0.2800E+02
     22.404  0.0000E+00  0.2800E+02
     22.499  0.0000E+00  0.2800E+02
     22.594  0.0000E+00  0.2800E+02
     22.689  0.0000E+00  0.2800E+02
     22.784  0.0000E+00  0.2800E+02
     22.879  0.0000E+00  0.2800E+02
     22.975  0.0000E+00  0.2800E+02
     23.070  0.0000E+00  0.2800E+02
     23.165  0.0000E+00  0.2800E+02
     23.260  0.0000E+00  0.2800E+02
     23.355  0.0000E+00  0.2800E+02
     23.450  0.0000E+00  0.2800E+02
     23.546  0.0000E+00  0.2800E+02
     23.641  0.0000E+00  0.2800E+02
     23.736  0.0000E+00  0.2800E+02
     23.831  0.0000E+00  0.2800E+02
     23.926  0.0000E+00  0.2800E+02
     24.021  0.0000E+00  0.2800E+02
