    2    2    1    1
  0.1590414E+02  0.3168449E-09  0.3168449E-09  0.3168449E-09  0.5000000E-15
  1.000000000000000E-004
  CAR 
 unknown system                          
     20     35     14
 
  0.0000000E+00  0.0000000E+00  0.0000000E+00  0.1371742E-02
    1       -2.525066   1.000000
    2        0.899717   1.000000
    3        0.899717   1.000000
    4        3.445085   1.000000
    5        3.445085   1.000000
    6        3.445085   1.000000
    7        5.921537   1.000000
    8        5.921537   1.000000
    9        7.404393   0.055401
   10        7.404393  -0.233854
   11        7.404393   0.000000
   12       14.670919   0.000000
   13       14.670919   0.000000
   14       14.670919   0.000000
 
  0.1111111E+00  0.0000000E+00  0.0000000E+00  0.8230453E-02
    1       -2.275256   1.000000
    2        1.019369   1.000000
    3        1.062435   1.000000
    4        3.450418   1.000000
    5        3.450418   1.000000
    6        3.544009   1.000000
    7        5.723402   1.000000
    8        5.995594   1.000000
    9        6.998562   0.785131
   10        6.998562   0.588241
   11        7.257104  -0.001093
   12       13.277945   0.000000
   13       15.371230   0.000000
   14       15.371230   0.000000
 
  0.2222222E+00  0.0000000E+00  0.0000000E+00  0.8230453E-02
    1       -1.554107   1.000000
    2        1.371502   1.000000
    3        1.470973   1.000000
    4        3.492531   1.000000
    5        3.492531   1.000000
    6        3.834451   1.000000
    7        5.176455   1.000000
    8        6.120452   1.000000
    9        6.120452   1.000663
   10        6.189391   1.030105
   11        6.846127   0.295520
   12       10.905599   0.000000
   13       17.118916   0.000000
   14       17.118916   0.000000
 
  0.3333333E+00  0.0000000E+00  0.0000000E+00  0.8230453E-02
    1       -0.459435   1.000000
    2        1.850135   1.000000
    3        1.935367   1.000000
    4        3.633499   1.000000
    5        3.633499   1.000000
    6        4.295846   1.000000
    7        4.397630   1.000000
    8        5.209766   1.000000
    9        5.209766   1.000000
   10        6.250529   1.000000
   11        6.433273   1.090496
   12        8.756648   0.000000
   13       19.429287   0.000000
   14       19.429288   0.000000
 
  0.4444444E+00  0.0000000E+00  0.0000000E+00  0.8230453E-02
    1        0.782630   1.000000
    2        1.703433   1.000000
    3        2.672931   1.000000
    4        3.523391   1.000000
    5        3.941345   1.000000
    6        3.941345   1.000000
    7        4.463921   1.000000
    8        4.463921   1.000000
    9        4.891969   1.000000
   10        5.568386   1.000000
   11        6.714604   1.000000
   12        7.328090   0.000000
   13       21.397993   0.000000
   14       22.021298   0.000000
 
  0.1111111E+00  0.1111111E+00  0.0000000E+00  0.1646091E-01
    1       -2.034481   1.000000
    2        1.145428   1.000000
    3        1.211698   1.000000
    4        3.259266   1.000000
    5        3.441278   1.000000
    6        3.841335   1.000000
    7        5.706520   1.000000
    8        5.937136   1.000000
    9        6.366856   1.017823
   10        6.585770   1.007065
   11        7.462666  -0.001773
   12       13.773186   0.000000
   13       14.133557   0.000000
   14       15.936267   0.000000
 
  0.2222222E+00  0.1111111E+00  0.0000000E+00  0.3292181E-01
    1       -1.345543   1.000000
    2        1.454854   1.000000
    3        1.632870   1.000000
    4        3.146638   1.000000
    5        3.446922   1.000000
    6        4.288459   1.000000
    7        5.315061   1.000000
    8        5.448286   1.000000
    9        5.746130   1.000833
   10        6.105873   1.006019
   11        7.304926  -0.059040
   12       11.515324   0.000000
   13       15.511474   0.000000
   14       17.448060   0.000000
 
  0.3333333E+00  0.1111111E+00  0.0000000E+00  0.3292181E-01
    1       -0.321893   1.000000
    2        1.813843   1.000000
    3        2.123122   1.000000
    4        3.187076   1.000000
    5        3.491308   1.000000
    6        4.578238   1.000000
    7        4.753127   1.000000
    8        4.845234   1.000000
    9        5.021089   1.000000
   10        6.372180   1.000000
   11        6.823661   0.590181
   12        9.233545   0.000000
   13       17.339340   0.000000
   14       19.570736   0.000000
 
  0.4444444E+00  0.1111111E+00  0.0000000E+00  0.3292181E-01
    1        0.801797   1.000000
    2        1.646345   1.000000
    3        2.712361   1.000000
    4        3.303220   1.000000
    5        3.423855   1.000000
    6        3.887327   1.000000
    7        4.492775   1.000000
    8        4.662499   1.000000
    9        5.491260   1.000000
   10        6.178248   1.000000
   11        6.715749   0.908180
   12        7.546296   0.000000
   13       19.030926   0.000000
   14       20.647840   0.000000
 
  0.2222222E+00  0.2222222E+00  0.0000000E+00  0.1646091E-01
    1       -0.774857   1.000000
    2        1.574457   1.000000
    3        2.130453   1.000000
    4        2.817614   1.000000
    5        3.437031   1.000000
    6        4.515094   1.000000
    7        4.949859   1.000000
    8        5.101363   1.000000
    9        5.489199   1.000000
   10        6.000198   1.006016
   11        7.612357  -0.026378
   12       12.590816   0.000000
   13       13.163876   0.000000
   14       18.442317   0.000000
 
  0.3333333E+00  0.2222222E+00  0.0000000E+00  0.3292181E-01
    1       -0.012075   1.000000
    2        1.568427   1.000000
    3        2.674427   1.000000
    4        2.751257   1.000000
    5        3.596703   1.000000
    6        3.701901   1.000000
    7        4.813858   1.000000
    8        5.314451   1.000000
    9        5.663846   1.000000
   10        6.213846   1.030870
   11        7.488006  -0.080228
   12       10.223202   0.000000
   13       14.606718   0.000000
   14       20.073172   0.000000
 
  0.4444444E+00  0.2222222E+00  0.0000000E+00  0.3292181E-01
    1        0.713182   1.000000
    2        1.266783   1.000000
    3        2.762262   1.000000
    4        3.105287   1.000000
    5        3.293058   1.000000
    6        3.649301   1.000000
    7        5.022990   1.000000
    8        5.213100   1.000000
    9        6.381258   1.000000
   10        6.716852   0.960710
   11        7.028113   0.056874
   12        8.073999   0.000000
   13       16.314126   0.000000
   14       18.173044   0.000000
 
  0.3333333E+00  0.3333333E+00  0.0000000E+00  0.1646091E-01
    1        0.274314   1.000000
    2        1.188611   1.000000
    3        2.357425   1.000000
    4        2.980108   1.000000
    5        3.602835   1.000000
    6        4.257634   1.000000
    7        4.929718   1.000000
    8        5.657554   1.000000
    9        6.116018   1.000000
   10        6.473829   1.053104
   11        7.786933   0.000000
   12       10.380387   0.000000
   13       13.079552   0.000000
   14       17.946743   0.000000
 
  0.4444444E+00  0.3333333E+00  0.0000000E+00  0.3292181E-01
    1        0.514219   1.000000
    2        0.809216   1.000000
    3        2.291015   1.000000
    4        2.499076   1.000000
    5        4.353437   1.000000
    6        4.734757   1.000000
    7        5.353825   1.000000
    8        5.721267   1.000000
    9        6.683737   1.000000
   10        7.175671   0.047762
   11        7.655913   0.000000
   12        8.491770   0.000000
   13       14.050395   0.000000
   14       15.785003   0.000000
 
  0.4444444E+00  0.4444444E+00  0.0000000E+00  0.1646091E-01
    1        0.407690   1.000000
    2        0.501162   1.000000
    3        2.077207   1.000000
    4        2.146773   1.000000
    5        5.502273   1.000000
    6        5.609625   1.000000
    7        5.661966   1.000000
    8        6.220127   1.000000
    9        6.671717   1.000000
   10        7.723618  -0.130249
   11        7.903533   0.000000
   12        8.005314   0.000000
   13       13.126845   0.000000
   14       13.923228   0.000000
 
  0.1111111E+00  0.1111111E+00  0.1111111E+00  0.1097394E-01
    1       -1.799858   1.000000
    2        1.314325   1.000000
    3        1.314325   1.000000
    4        3.240395   1.000000
    5        3.240395   1.000000
    6        4.153831   1.000000
    7        5.554903   1.000000
    8        5.800452   1.000000
    9        5.800452   1.020253
   10        7.061715   0.789822
   11        7.061715   0.009583
   12       13.944981   0.000000
   13       14.804674   0.000000
   14       14.804674   0.000000
 
  0.2222222E+00  0.1111111E+00  0.1111111E+00  0.3292181E-01
    1       -1.133793   1.000000
    2        1.611347   1.000000
    3        1.726555   1.000000
    4        3.068830   1.000000
    5        3.200600   1.000000
    6        4.617623   1.000000
    7        4.695506   1.000000
    8        5.428355   1.000000
    9        6.036303   1.000219
   10        6.215343   1.008974
   11        7.120058   0.013706
   12       12.040750   0.000000
   13       15.370444   0.000000
   14       16.438804   0.000000
 
  0.3333333E+00  0.1111111E+00  0.1111111E+00  0.3292181E-01
    1       -0.163833   1.000000
    2        2.016470   1.000000
    3        2.064760   1.000000
    4        3.116784   1.000000
    5        3.152689   1.000000
    6        3.970635   1.000000
    7        4.949861   1.000000
    8        5.340022   1.000000
    9        5.381481   1.000000
   10        6.327199   1.000000
   11        6.765738   0.574243
   12        9.764818   0.000000
   13       16.784591   0.000000
   14       18.498999   0.000000
 
  0.4444444E+00  0.1111111E+00  0.1111111E+00  0.3292181E-01
    1        0.868913   1.000000
    2        1.685615   1.000000
    3        2.587379   1.000000
    4        2.997047   1.000000
    5        3.416769   1.000000
    6        3.735837   1.000000
    7        4.639594   1.000000
    8        4.798156   1.000000
    9        5.925301   1.000000
   10        6.297663   1.000000
   11        6.811348   0.588156
   12        7.954994   0.000000
   13       18.305070   0.000000
   14       19.992812   0.000000
 
  0.2222222E+00  0.2222222E+00  0.1111111E+00  0.3292181E-01
    1       -0.556640   1.000000
    2        1.780298   1.000000
    3        2.180358   1.000000
    4        2.779918   1.000000
    5        3.115052   1.000000
    6        3.744446   1.000000
    7        5.409380   1.000000
    8        5.583395   1.000000
    9        5.804736   1.000000
   10        5.956881   1.005692
   11        7.206388  -0.011300
   12       13.174113   0.000000
   13       13.240476   0.000000
   14       17.002862   0.000000
 
  0.3333333E+00  0.2222222E+00  0.1111111E+00  0.6584362E-01
    1        0.197845   1.000000
    2        1.768189   1.000000
    3        2.640622   1.000000
    4        2.646043   1.000000
    5        3.223105   1.000000
    6        3.340492   1.000000
    7        5.276756   1.000000
    8        5.379749   1.000000
    9        6.105711   1.000000
   10        6.306689   1.025583
   11        7.077275   0.018991
   12       10.796918   0.000000
   13       14.593427   0.000000
   14       18.429088   0.000000
 
  0.4444444E+00  0.2222222E+00  0.1111111E+00  0.6584362E-01
    1        0.877705   1.000000
    2        1.411350   1.000000
    3        2.671962   1.000000
    4        2.726253   1.000000
    5        3.467060   1.000000
    6        3.494067   1.000000
    7        5.144699   1.000000
    8        5.198040   1.000000
    9        6.310661   1.000000
   10        6.642082   1.005897
   11        7.333095  -0.056473
   12        8.786162   0.000000
   13       16.153471   0.000000
   14       18.002832   0.000000
 
  0.3333333E+00  0.3333333E+00  0.1111111E+00  0.3292181E-01
    1        0.512557   1.000000
    2        1.360315   1.000000
    3        2.333992   1.000000
    4        2.781817   1.000000
    5        3.551790   1.000000
    6        3.766212   1.000000
    7        5.218379   1.000000
    8        5.671802   1.000000
    9        6.116656   1.000000
   10        7.145890   0.458477
   11        7.274211  -0.000339
   12       11.182924   0.000000
   13       12.966002   0.000000
   14       17.889219   0.000000
 
  0.4444444E+00  0.3333333E+00  0.1111111E+00  0.6584362E-01
    1        0.727146   1.000000
    2        0.987223   1.000000
    3        2.270912   1.000000
    4        2.440395   1.000000
    5        4.240512   1.000000
    6        4.389714   1.000000
    7        5.456355   1.000000
    8        5.668285   1.000000
    9        6.345134   1.000000
   10        6.952063   0.553702
   11        8.138157   0.000000
   12        9.522246   0.000000
   13       13.963519   0.000000
   14       15.699868   0.000000
 
  0.4444444E+00  0.4444444E+00  0.1111111E+00  0.3292181E-01
    1        0.626548   1.000000
    2        0.704765   1.000000
    3        2.072469   1.000000
    4        2.137755   1.000000
    5        5.259302   1.000000
    6        5.507060   1.000000
    7        5.692329   1.000000
    8        5.872264   1.000000
    9        6.227870   1.000000
   10        6.795312   0.685423
   11        8.900435   0.000000
   12        9.573623   0.000000
   13       12.979074   0.000000
   14       13.817778   0.000000
 
  0.2222222E+00  0.2222222E+00  0.2222222E+00  0.1097394E-01
    1        0.030506   1.000000
    2        2.309556   1.000000
    3        2.309556   1.000000
    4        2.695653   1.000000
    5        2.695653   1.000000
    6        2.868554   1.000000
    7        5.827460   1.000000
    8        5.827460   1.000000
    9        6.279129   1.000000
   10        6.430016   1.004514
   11        6.430016   0.808983
   12       13.175232   0.000000
   13       14.732550   0.000000
   14       14.732550   0.000000
 
  0.3333333E+00  0.2222222E+00  0.2222222E+00  0.3292181E-01
    1        0.727885   1.000000
    2        2.058471   1.000000
    3        2.458076   1.000000
    4        2.621857   1.000000
    5        2.649634   1.000000
    6        3.082146   1.000000
    7        5.635339   1.000000
    8        5.782789   1.000000
    9        6.111017   1.000000
   10        6.576130   1.003152
   11        7.254140  -0.006336
   12       11.808974   0.000000
   13       14.336063   0.000000
   14       16.520799   0.000000
 
  0.4444444E+00  0.2222222E+00  0.2222222E+00  0.3292181E-01
    1        1.186343   1.000000
    2        1.549445   1.000000
    3        2.553574   1.000000
    4        2.586985   1.000000
    5        3.121049   1.000000
    6        3.447644   1.000000
    7        5.463568   1.000000
    8        5.463746   1.000000
    9        6.278443   1.000000
   10        6.402327   1.020977
   11        8.398266  -0.014659
   12        9.896802   0.000000
   13       15.429398   0.000000
   14       17.209881   0.000000
 
  0.3333333E+00  0.3333333E+00  0.2222222E+00  0.3292181E-01
    1        1.182236   1.000000
    2        1.664636   1.000000
    3        2.294875   1.000000
    4        2.630952   1.000000
    5        2.946680   1.000000
    6        3.373947   1.000000
    7        5.753059   1.000000
    8        5.844508   1.000000
    9        6.109029   1.000000
   10        6.560452   1.015613
   11        8.326472  -0.012146
   12       12.709007   0.000000
   13       12.768541   0.000000
   14       16.684806   0.000000
 
  0.4444444E+00  0.3333333E+00  0.2222222E+00  0.6584362E-01
    1        1.275901   1.000000
    2        1.374348   1.000000
    3        2.285062   1.000000
    4        2.447718   1.000000
    5        3.602444   1.000000
    6        3.830752   1.000000
    7        5.738336   1.000000
    8        5.803851   1.000000
    9        6.251660   1.000000
   10        6.428972   1.027482
   11        9.469256   0.000000
   12       10.903451   0.000000
   13       13.820560   0.000000
   14       15.450819   0.000000
 
  0.4444444E+00  0.4444444E+00  0.2222222E+00  0.3292181E-01
    1        1.227582   1.000000
    2        1.233291   1.000000
    3        2.085875   1.000000
    4        2.175021   1.000000
    5        4.403328   1.000000
    6        4.482518   1.000000
    7        5.900531   1.000000
    8        5.949475   1.000000
    9        6.246482   1.000000
   10        6.362934   1.029045
   11       10.486495   0.000000
   12       11.420294   0.000000
   13       12.598286   0.000000
   14       13.617594   0.000000
 
  0.3333333E+00  0.3333333E+00  0.3333333E+00  0.1097394E-01
    1        1.640850   1.000000
    2        2.080795   1.000000
    3        2.309619   1.000000
    4        2.309619   1.000000
    5        3.060714   1.000000
    6        3.060714   1.000000
    7        6.078538   1.000000
    8        6.078538   1.000000
    9        6.149357   1.000000
   10        6.149357   1.000000
   11        9.520764  -0.005329
   12       12.481677   0.000000
   13       14.578979   0.000000
   14       14.578980   0.000000
 
  0.4444444E+00  0.3333333E+00  0.3333333E+00  0.3292181E-01
    1        1.605557   1.000000
    2        1.790087   1.000000
    3        2.441163   1.000000
    4        2.708887   1.000000
    5        3.058228   1.000000
    6        3.415098   1.000000
    7        6.020829   1.000000
    8        6.032606   1.000000
    9        6.237597   1.000000
   10        6.272900   1.000000
   11       10.670939   0.000000
   12       11.862937   0.000000
   13       13.815398   0.000000
   14       14.858603   0.000000
 
  0.4444444E+00  0.4444444E+00  0.3333333E+00  0.3292181E-01
    1        1.767911   1.000000
    2        2.012695   1.000000
    3        2.184012   1.000000
    4        2.467545   1.000000
    5        3.462282   1.000000
    6        3.604417   1.000000
    7        6.132466   1.000000
    8        6.144091   1.000000
    9        6.265323   1.000000
   10        6.280750   1.000000
   11       11.612264   0.000000
   12       12.152780   0.000000
   13       13.396007   0.000000
   14       13.811029   0.000000
 
  0.4444444E+00  0.4444444E+00  0.4444444E+00  0.1097394E-01
    1        2.119312   1.000000
    2        2.439640   1.000000
    3        2.439640   1.000000
    4        2.906790   1.000000
    5        2.906790   1.000000
    6        2.978766   1.000000
    7        6.274018   1.000000
    8        6.274018   1.000000
    9        6.274728   1.000000
   10        6.274728   1.000000
   11       11.813731   0.000000
   12       11.860373   0.000000
   13       14.626456   0.000000
   14       15.417033   0.000000
