  20  20   0   0
  0.2633701E+02  0.3946846E-09  0.3946846E-09  0.3381396E-08  0.5000000E-15
  1.000000000000000E-004
  CAR 
 unknown system                          
      8.65942563    -37.15578648  301     -0.42725810      1.00000000
    -37.156  0.0000E+00  0.0000E+00
    -37.003  0.0000E+00  0.0000E+00
    -36.850  0.0000E+00  0.0000E+00
    -36.698  0.0000E+00  0.0000E+00
    -36.545  0.0000E+00  0.0000E+00
    -36.392  0.0000E+00  0.0000E+00
    -36.239  0.0000E+00  0.0000E+00
    -36.087  0.0000E+00  0.0000E+00
    -35.934  0.0000E+00  0.0000E+00
    -35.781  0.0000E+00  0.0000E+00
    -35.629  0.0000E+00  0.0000E+00
    -35.476  0.0000E+00  0.0000E+00
    -35.323  0.0000E+00  0.0000E+00
    -35.170  0.0000E+00  0.0000E+00
    -35.018  0.0000E+00  0.2000E+01
    -34.865  0.0000E+00  0.2000E+01
    -34.712  0.0000E+00  0.2000E+01
    -34.560  0.0000E+00  0.2000E+01
    -34.407  0.0000E+00  0.2000E+01
    -34.254  0.0000E+00  0.2000E+01
    -34.101  0.0000E+00  0.2000E+01
    -33.949  0.1442E+02  0.2008E+01
    -33.796  0.0000E+00  0.6000E+01
    -33.643  0.0000E+00  0.8000E+01
    -33.491  0.0000E+00  0.8000E+01
    -33.338  0.0000E+00  0.8000E+01
    -33.185  0.0000E+00  0.8000E+01
    -33.032  0.0000E+00  0.8000E+01
    -32.880  0.0000E+00  0.8000E+01
    -32.727  0.0000E+00  0.8000E+01
    -32.574  0.0000E+00  0.8000E+01
    -32.422  0.0000E+00  0.8000E+01
    -32.269  0.0000E+00  0.8000E+01
    -32.116  0.0000E+00  0.8000E+01
    -31.963  0.0000E+00  0.8000E+01
    -31.811  0.0000E+00  0.8000E+01
    -31.658  0.0000E+00  0.8000E+01
    -31.505  0.0000E+00  0.8000E+01
    -31.353  0.0000E+00  0.8000E+01
    -31.200  0.0000E+00  0.8000E+01
    -31.047  0.0000E+00  0.8000E+01
    -30.894  0.0000E+00  0.8000E+01
    -30.742  0.0000E+00  0.8000E+01
    -30.589  0.0000E+00  0.8000E+01
    -30.436  0.0000E+00  0.8000E+01
    -30.284  0.0000E+00  0.8000E+01
    -30.131  0.0000E+00  0.8000E+01
    -29.978  0.0000E+00  0.8000E+01
    -29.825  0.0000E+00  0.8000E+01
    -29.673  0.0000E+00  0.8000E+01
    -29.520  0.0000E+00  0.8000E+01
    -29.367  0.0000E+00  0.8000E+01
    -29.214  0.0000E+00  0.8000E+01
    -29.062  0.0000E+00  0.8000E+01
    -28.909  0.0000E+00  0.8000E+01
    -28.756  0.0000E+00  0.8000E+01
    -28.604  0.0000E+00  0.8000E+01
    -28.451  0.0000E+00  0.8000E+01
    -28.298  0.0000E+00  0.8000E+01
    -28.145  0.0000E+00  0.8000E+01
    -27.993  0.0000E+00  0.8000E+01
    -27.840  0.0000E+00  0.8000E+01
    -27.687  0.0000E+00  0.8000E+01
    -27.535  0.0000E+00  0.8000E+01
    -27.382  0.0000E+00  0.8000E+01
    -27.229  0.0000E+00  0.8000E+01
    -27.076  0.0000E+00  0.8000E+01
    -26.924  0.0000E+00  0.8000E+01
    -26.771  0.0000E+00  0.8000E+01
    -26.618  0.0000E+00  0.8000E+01
    -26.466  0.0000E+00  0.8000E+01
    -26.313  0.0000E+00  0.8000E+01
    -26.160  0.0000E+00  0.8000E+01
    -26.007  0.0000E+00  0.8000E+01
    -25.855  0.0000E+00  0.8000E+01
    -25.702  0.0000E+00  0.8000E+01
    -25.549  0.0000E+00  0.8000E+01
    -25.397  0.0000E+00  0.8000E+01
    -25.244  0.0000E+00  0.8000E+01
    -25.091  0.0000E+00  0.8000E+01
    -24.938  0.0000E+00  0.8000E+01
    -24.786  0.0000E+00  0.8000E+01
    -24.633  0.0000E+00  0.8000E+01
    -24.480  0.0000E+00  0.8000E+01
    -24.328  0.0000E+00  0.8000E+01
    -24.175  0.0000E+00  0.8000E+01
    -24.022  0.0000E+00  0.8000E+01
    -23.869  0.0000E+00  0.8000E+01
    -23.717  0.0000E+00  0.8000E+01
    -23.564  0.0000E+00  0.8000E+01
    -23.411  0.0000E+00  0.8000E+01
    -23.259  0.0000E+00  0.8000E+01
    -23.106  0.0000E+00  0.8000E+01
    -22.953  0.0000E+00  0.8000E+01
    -22.800  0.0000E+00  0.8000E+01
    -22.648  0.0000E+00  0.8000E+01
    -22.495  0.0000E+00  0.8000E+01
    -22.342  0.0000E+00  0.8000E+01
    -22.189  0.0000E+00  0.8000E+01
    -22.037  0.0000E+00  0.8000E+01
    -21.884  0.0000E+00  0.8000E+01
    -21.731  0.0000E+00  0.8000E+01
    -21.579  0.0000E+00  0.8000E+01
    -21.426  0.0000E+00  0.8000E+01
    -21.273  0.0000E+00  0.8000E+01
    -21.120  0.0000E+00  0.8000E+01
    -20.968  0.0000E+00  0.8000E+01
    -20.815  0.0000E+00  0.8000E+01
    -20.662  0.0000E+00  0.8000E+01
    -20.510  0.0000E+00  0.8000E+01
    -20.357  0.0000E+00  0.8000E+01
    -20.204  0.0000E+00  0.8000E+01
    -20.051  0.0000E+00  0.8000E+01
    -19.899  0.0000E+00  0.8000E+01
    -19.746  0.0000E+00  0.8000E+01
    -19.593  0.0000E+00  0.8000E+01
    -19.441  0.0000E+00  0.8000E+01
    -19.288  0.0000E+00  0.8000E+01
    -19.135  0.0000E+00  0.8000E+01
    -18.982  0.0000E+00  0.8000E+01
    -18.830  0.0000E+00  0.8000E+01
    -18.677  0.0000E+00  0.8000E+01
    -18.524  0.1367E+02  0.8662E+01
    -18.372  0.1171E+02  0.1075E+02
    -18.219  0.6950E+01  0.1203E+02
    -18.066  0.4492E+01  0.1306E+02
    -17.913  0.1397E+02  0.1408E+02
    -17.761  0.1234E+02  0.1591E+02
    -17.608  0.1927E+02  0.1850E+02
    -17.455  0.1565E+02  0.2381E+02
    -17.303  0.1497E+02  0.2755E+02
    -17.150  0.5848E+01  0.2883E+02
    -16.997  0.2272E+02  0.3052E+02
    -16.844  0.9319E+02  0.3436E+02
    -16.692  0.1163E+00  0.3600E+02
    -16.539  0.1264E+01  0.3612E+02
    -16.386  0.2482E+01  0.3641E+02
    -16.234  0.5839E+01  0.3702E+02
    -16.081  0.1063E+02  0.3794E+02
    -15.928  0.7997E+02  0.4208E+02
    -15.775  0.4757E+02  0.4659E+02
    -15.623  0.2858E+02  0.5151E+02
    -15.470  0.1522E+02  0.5537E+02
    -15.317  0.0000E+00  0.5600E+02
    -15.164  0.0000E+00  0.5600E+02
    -15.012  0.0000E+00  0.5600E+02
    -14.859  0.0000E+00  0.5600E+02
    -14.706  0.0000E+00  0.5600E+02
    -14.554  0.0000E+00  0.5600E+02
    -14.401  0.0000E+00  0.5600E+02
    -14.248  0.0000E+00  0.5600E+02
    -14.095  0.0000E+00  0.5600E+02
    -13.943  0.0000E+00  0.5600E+02
    -13.790  0.0000E+00  0.5600E+02
    -13.637  0.0000E+00  0.5600E+02
    -13.485  0.0000E+00  0.5600E+02
    -13.332  0.0000E+00  0.5600E+02
    -13.179  0.0000E+00  0.5600E+02
    -13.026  0.0000E+00  0.5600E+02
    -12.874  0.0000E+00  0.5600E+02
    -12.721  0.0000E+00  0.5600E+02
    -12.568  0.0000E+00  0.5600E+02
    -12.416  0.0000E+00  0.5600E+02
    -12.263  0.0000E+00  0.5600E+02
    -12.110  0.0000E+00  0.5600E+02
    -11.957  0.0000E+00  0.5600E+02
    -11.805  0.0000E+00  0.5600E+02
    -11.652  0.0000E+00  0.5600E+02
    -11.499  0.0000E+00  0.5600E+02
    -11.347  0.0000E+00  0.5600E+02
    -11.194  0.0000E+00  0.5600E+02
    -11.041  0.0000E+00  0.5600E+02
    -10.888  0.0000E+00  0.5600E+02
    -10.736  0.0000E+00  0.5600E+02
    -10.583  0.0000E+00  0.5600E+02
    -10.430  0.0000E+00  0.5600E+02
    -10.278  0.0000E+00  0.5600E+02
    -10.125  0.0000E+00  0.5600E+02
     -9.972  0.0000E+00  0.5600E+02
     -9.819  0.0000E+00  0.5600E+02
     -9.667  0.0000E+00  0.5600E+02
     -9.514  0.0000E+00  0.5600E+02
     -9.361  0.0000E+00  0.5600E+02
     -9.209  0.0000E+00  0.5600E+02
     -9.056  0.0000E+00  0.5600E+02
     -8.903  0.0000E+00  0.5600E+02
     -8.750  0.0000E+00  0.5600E+02
     -8.598  0.0000E+00  0.5600E+02
     -8.445  0.0000E+00  0.5600E+02
     -8.292  0.0000E+00  0.5600E+02
     -8.139  0.0000E+00  0.5600E+02
     -7.987  0.0000E+00  0.5600E+02
     -7.834  0.0000E+00  0.5600E+02
     -7.681  0.0000E+00  0.5600E+02
     -7.529  0.0000E+00  0.5600E+02
     -7.376  0.0000E+00  0.5600E+02
     -7.223  0.0000E+00  0.5600E+02
     -7.070  0.0000E+00  0.5600E+02
     -6.918  0.0000E+00  0.5600E+02
     -6.765  0.0000E+00  0.5600E+02
     -6.612  0.0000E+00  0.5600E+02
     -6.460  0.0000E+00  0.5600E+02
     -6.307  0.0000E+00  0.5600E+02
     -6.154  0.0000E+00  0.5600E+02
     -6.001  0.0000E+00  0.5600E+02
     -5.849  0.0000E+00  0.5600E+02
     -5.696  0.0000E+00  0.5600E+02
     -5.543  0.1565E+01  0.5606E+02
     -5.391  0.1207E+02  0.5740E+02
     -5.238  0.1623E+02  0.5997E+02
     -5.085  0.1546E+02  0.6217E+02
     -4.932  0.1311E+02  0.6455E+02
     -4.780  0.1497E+02  0.6692E+02
     -4.627  0.1707E+02  0.6969E+02
     -4.474  0.1769E+02  0.7229E+02
     -4.322  0.1931E+02  0.7532E+02
     -4.169  0.2334E+02  0.7854E+02
     -4.016  0.2768E+02  0.8278E+02
     -3.863  0.1466E+02  0.8615E+02
     -3.711  0.1180E+02  0.8812E+02
     -3.558  0.1418E+02  0.9025E+02
     -3.405  0.1277E+02  0.9245E+02
     -3.253  0.1297E+02  0.9452E+02
     -3.100  0.1067E+02  0.9635E+02
     -2.947  0.8574E+01  0.9795E+02
     -2.794  0.1115E+02  0.9949E+02
     -2.642  0.1687E+02  0.1017E+03
     -2.489  0.1869E+02  0.1040E+03
     -2.336  0.2213E+02  0.1071E+03
     -2.184  0.2065E+02  0.1101E+03
     -2.031  0.2790E+02  0.1138E+03
     -1.878  0.1780E+02  0.1170E+03
     -1.725  0.1830E+02  0.1202E+03
     -1.573  0.1766E+02  0.1229E+03
     -1.420  0.9688E+01  0.1249E+03
     -1.267  0.9369E+01  0.1268E+03
     -1.114  0.1725E+01  0.1273E+03
     -0.962  0.1075E+01  0.1275E+03
     -0.809  0.1099E+01  0.1276E+03
     -0.656  0.8966E+00  0.1278E+03
     -0.504  0.6277E+00  0.1279E+03
     -0.351  0.0000E+00  0.1280E+03
     -0.198  0.0000E+00  0.1280E+03
     -0.045  0.0000E+00  0.1280E+03
      0.107  0.0000E+00  0.1280E+03
      0.260  0.0000E+00  0.1280E+03
      0.413  0.0000E+00  0.1280E+03
      0.565  0.4513E+00  0.1280E+03
      0.718  0.3081E+01  0.1282E+03
      0.871  0.4123E+01  0.1288E+03
      1.024  0.5056E+01  0.1296E+03
      1.176  0.5909E+01  0.1303E+03
      1.329  0.8267E+01  0.1315E+03
      1.482  0.6874E+01  0.1327E+03
      1.634  0.7788E+01  0.1338E+03
      1.787  0.1167E+02  0.1354E+03
      1.940  0.1116E+02  0.1371E+03
      2.093  0.1251E+02  0.1389E+03
      2.245  0.2627E+02  0.1416E+03
      2.398  0.1377E+02  0.1445E+03
      2.551  0.8682E+01  0.1464E+03
      2.703  0.5126E+01  0.1476E+03
      2.856  0.7579E+00  0.1479E+03
      3.009  0.7571E+00  0.1480E+03
      3.162  0.7563E+00  0.1481E+03
      3.314  0.7555E+00  0.1482E+03
      3.467  0.7547E+00  0.1484E+03
      3.620  0.7539E+00  0.1485E+03
      3.772  0.7531E+00  0.1486E+03
      3.925  0.7524E+00  0.1487E+03
      4.078  0.7516E+00  0.1488E+03
      4.231  0.7508E+00  0.1489E+03
      4.383  0.7500E+00  0.1490E+03
      4.536  0.9209E+00  0.1492E+03
      4.689  0.1204E+01  0.1493E+03
      4.841  0.1265E+01  0.1495E+03
      4.994  0.1128E+01  0.1497E+03
      5.147  0.1044E+01  0.1499E+03
      5.300  0.1359E+01  0.1501E+03
      5.452  0.1255E+01  0.1503E+03
      5.605  0.1157E+01  0.1505E+03
      5.758  0.1120E+01  0.1507E+03
      5.911  0.9480E+00  0.1508E+03
      6.063  0.8275E+00  0.1510E+03
      6.216  0.7224E+00  0.1511E+03
      6.369  0.1900E+01  0.1514E+03
      6.521  0.4145E+01  0.1518E+03
      6.674  0.0000E+00  0.1520E+03
      6.827  0.0000E+00  0.1520E+03
      6.980  0.0000E+00  0.1520E+03
      7.132  0.0000E+00  0.1520E+03
      7.285  0.0000E+00  0.1520E+03
      7.438  0.0000E+00  0.1520E+03
      7.590  0.0000E+00  0.1520E+03
      7.743  0.0000E+00  0.1520E+03
      7.896  0.0000E+00  0.1520E+03
      8.049  0.0000E+00  0.1520E+03
      8.201  0.0000E+00  0.1520E+03
      8.354  0.0000E+00  0.1520E+03
      8.507  0.0000E+00  0.1520E+03
      8.659  0.0000E+00  0.1520E+03
