       N       E                     dE             d eps       ncg     rms          rms(c)
DAV:   1     0.159770726472E+04    0.15977E+04   -0.55070E+04  1536   0.145E+03
DAV:   2     0.180092940910E+03   -0.14176E+04   -0.13670E+04  1896   0.374E+02
DAV:   3    -0.177673766542E+03   -0.35777E+03   -0.35075E+03  2068   0.187E+02
DAV:   4    -0.200952708500E+03   -0.23279E+02   -0.23202E+02  1968   0.562E+01
DAV:   5    -0.202307210952E+03   -0.13545E+01   -0.13539E+01  2608   0.123E+01    0.371E+01
RMM:   6    -0.161744056191E+03    0.40563E+02   -0.29567E+02  1674   0.506E+01    0.146E+01
RMM:   7    -0.157730869978E+03    0.40132E+01   -0.14767E+01  1776   0.146E+01    0.727E+00
RMM:   8    -0.156984566291E+03    0.74630E+00   -0.31407E+00  2067   0.612E+00    0.362E+00
RMM:   9    -0.156732493441E+03    0.25207E+00   -0.15467E+00  2017   0.442E+00    0.104E+00
RMM:  10    -0.156685148790E+03    0.47345E-01   -0.26244E-01  2355   0.151E+00    0.695E-01
RMM:  11    -0.156661508526E+03    0.23640E-01   -0.17815E-01  2271   0.111E+00    0.400E-01
RMM:  12    -0.156651708490E+03    0.98000E-02   -0.55166E-02  2370   0.602E-01    0.335E-01
RMM:  13    -0.156645876508E+03    0.58320E-02   -0.20724E-02  2553   0.361E-01    0.215E-01
RMM:  14    -0.156642701357E+03    0.31752E-02   -0.25373E-02  2198   0.420E-01    0.173E-01
RMM:  15    -0.156642617859E+03    0.83497E-04   -0.94345E-03  2344   0.253E-01    0.797E-02
RMM:  16    -0.156644389644E+03   -0.17718E-02   -0.62869E-03  2281   0.198E-01    0.810E-02
RMM:  17    -0.156645590211E+03   -0.12006E-02   -0.20462E-03  2269   0.105E-01    0.368E-02
RMM:  18    -0.156646161817E+03   -0.57161E-03   -0.84789E-04  2260   0.727E-02    0.269E-02
RMM:  19    -0.156647098662E+03   -0.93684E-03   -0.45936E-04  2029   0.604E-02    0.203E-02
RMM:  20    -0.156647644478E+03   -0.54582E-03   -0.16421E-04  1851   0.298E-02    0.803E-03
RMM:  21    -0.156648011469E+03   -0.36699E-03   -0.11207E-04  1763   0.261E-02    0.926E-03
RMM:  22    -0.156648103823E+03   -0.92354E-04   -0.45517E-05  1515   0.187E-02    0.239E-03
RMM:  23    -0.156648168771E+03   -0.64948E-04   -0.17563E-05  1241   0.111E-02    0.146E-03
RMM:  24    -0.156648190815E+03   -0.22044E-04   -0.14964E-05  1155   0.998E-03    0.187E-03
RMM:  25    -0.156648202437E+03   -0.11622E-04   -0.89300E-06  1076   0.874E-03    0.104E-03
RMM:  26    -0.156648215084E+03   -0.12647E-04   -0.71551E-06   997   0.708E-03    0.848E-04
RMM:  27    -0.156648219722E+03   -0.46383E-05   -0.38583E-06   901   0.601E-03
   1 F= -.15664822E+03 E0= -.15664822E+03  d E =0.000000E+00
