<?xml version="1.0" encoding="ISO-8859-1"?>
<modeling>
 <generator>
  <i name="program" type="string">vasp </i>
  <i name="version" type="string">5.4.4.18Apr17-6-g9f103f2a35  </i>
  <i name="subversion" type="string">(build Jun 30 2017 11:15:00) complex            parallel </i>
  <i name="platform" type="string">STALLO_VASP_5.4.4 </i>
  <i name="date" type="string">2019 11 08 </i>
  <i name="time" type="string">10:23:50 </i>
 </generator>
 <incar>
  <i type="string" name="PREC">normal    ! low/normal/accurate</i>
  <i type="string" name="ALGO"> Fast      ! Algorithm for electronic re</i>
  <i type="int" name="ISPIN">     1</i>
  <i type="int" name="NELMIN">     4</i>
  <i name="EDIFF">      0.00001000</i>
  <i type="int" name="NSW">     0</i>
  <i name="ENCUT">    500.00000000</i>
  <i type="logical" name="LREAL"> F  </i>
  <i type="int" name="ISMEAR">    -5</i>
  <i name="SIGMA">      0.20000000</i>
  <i type="logical" name="LWAVE"> F  </i>
  <v type="int" name="KPOINT_BSE">    -1     0     0     0</v>
 </incar>
 <structure name="primitive_cell" >
  <crystal>
   <varray name="basis" >
    <v>       3.94684634       0.00000000       0.00000000 </v>
    <v>       0.00000000       3.94684634       0.00000000 </v>
    <v>       0.00000000       0.00000000      33.81396220 </v>
   </varray>
   <i name="volume">    526.74024374 </i>
   <varray name="rec_basis" >
    <v>       0.25336684       0.00000000       0.00000000 </v>
    <v>       0.00000000       0.25336684       0.00000000 </v>
    <v>       0.00000000       0.00000000       0.02957358 </v>
   </varray>
  </crystal>
  <varray name="positions" >
   <v>      -0.50000000      -0.50000000       0.29573582 </v>
   <v>      -0.50000000      -0.50000000       0.35409702 </v>
   <v>       0.00000000       0.00000000       0.29573582 </v>
   <v>      -0.50000000       0.00000000       0.35409702 </v>
   <v>       0.00000000      -0.50000000       0.35409702 </v>
   <v>      -0.50000000      -0.50000000       0.41245821 </v>
   <v>       0.00000000       0.00000000       0.41245821 </v>
   <v>      -0.50000000      -0.50000000       0.47081940 </v>
   <v>      -0.50000000       0.00000000       0.47081940 </v>
   <v>       0.00000000      -0.50000000       0.47081940 </v>
   <v>      -0.50000000      -0.50000000      -0.47081940 </v>
   <v>       0.00000000       0.00000000      -0.47081940 </v>
   <v>      -0.50000000      -0.50000000      -0.41245821 </v>
   <v>      -0.50000000       0.00000000      -0.41245821 </v>
   <v>       0.00000000      -0.50000000      -0.41245821 </v>
   <v>      -0.50000000      -0.50000000      -0.35409702 </v>
   <v>       0.00000000       0.00000000      -0.35409702 </v>
   <v>      -0.50000000      -0.50000000      -0.29573582 </v>
   <v>      -0.50000000       0.00000000      -0.29573582 </v>
   <v>       0.00000000      -0.50000000      -0.29573582 </v>
  </varray>
 </structure>
 <varray name="primitive_index" >
  <v type="int" >        1 </v>
  <v type="int" >       17 </v>
  <v type="int" >       13 </v>
  <v type="int" >        2 </v>
  <v type="int" >        3 </v>
  <v type="int" >        4 </v>
  <v type="int" >       14 </v>
  <v type="int" >       18 </v>
  <v type="int" >        5 </v>
  <v type="int" >        6 </v>
  <v type="int" >        7 </v>
  <v type="int" >       15 </v>
  <v type="int" >       19 </v>
  <v type="int" >        8 </v>
  <v type="int" >        9 </v>
  <v type="int" >       10 </v>
  <v type="int" >       16 </v>
  <v type="int" >       20 </v>
  <v type="int" >       11 </v>
  <v type="int" >       12 </v>
 </varray>
 <kpoints>
  <generation param="Gamma">
   <v type="int" name="divisions">       7        7        1 </v>
   <v name="usershift">      0.00000000       0.00000000       0.00000000 </v>
   <v name="genvec1">      0.14285714       0.00000000       0.00000000 </v>
   <v name="genvec2">      0.00000000       0.14285714       0.00000000 </v>
   <v name="genvec3">      0.00000000       0.00000000       1.00000000 </v>
   <v name="shift">      0.00000000       0.00000000       0.00000000 </v>
  </generation>
  <varray name="kpointlist" >
   <v>       0.00000000       0.00000000       0.00000000 </v>
   <v>       0.14285714       0.00000000       0.00000000 </v>
   <v>       0.28571429       0.00000000       0.00000000 </v>
   <v>       0.42857143       0.00000000       0.00000000 </v>
   <v>       0.14285714       0.14285714       0.00000000 </v>
   <v>       0.28571429       0.14285714       0.00000000 </v>
   <v>       0.42857143       0.14285714       0.00000000 </v>
   <v>       0.28571429       0.28571429       0.00000000 </v>
   <v>       0.42857143       0.28571429       0.00000000 </v>
   <v>       0.42857143       0.42857143       0.00000000 </v>
  </varray>
  <varray name="weights" >
   <v>       0.02040816 </v>
   <v>       0.08163265 </v>
   <v>       0.08163265 </v>
   <v>       0.08163265 </v>
   <v>       0.08163265 </v>
   <v>       0.16326531 </v>
   <v>       0.16326531 </v>
   <v>       0.08163265 </v>
   <v>       0.16326531 </v>
   <v>       0.08163265 </v>
  </varray>
  <varray name="tetrahedronlist"  type="int" >
   <v type="int" >        4        1        1        2        5 </v>
   <v type="int" >        4        1        2        2        5 </v>
   <v type="int" >        4        1        2        5        5 </v>
   <v type="int" >        4        2        2        3        6 </v>
   <v type="int" >        4        2        2        5        6 </v>
   <v type="int" >        4        2        5        5        6 </v>
   <v type="int" >        4        2        3        3        6 </v>
   <v type="int" >        4        2        3        6        6 </v>
   <v type="int" >        4        2        5        6        6 </v>
   <v type="int" >        4        3        3        4        7 </v>
   <v type="int" >        4        3        3        6        7 </v>
   <v type="int" >        4        3        6        6        7 </v>
   <v type="int" >        4        3        4        4        7 </v>
   <v type="int" >        4        3        4        7        7 </v>
   <v type="int" >        4        3        6        7        7 </v>
   <v type="int" >        8        4        4        4        7 </v>
   <v type="int" >        8        4        4        7        7 </v>
   <v type="int" >        8        4        7        7        7 </v>
   <v type="int" >        4        3        4        4        6 </v>
   <v type="int" >        4        4        4        6        7 </v>
   <v type="int" >        4        4        6        7        7 </v>
   <v type="int" >        4        3        3        4        6 </v>
   <v type="int" >        4        3        4        6        6 </v>
   <v type="int" >        4        4        6        6        7 </v>
   <v type="int" >        4        2        3        3        5 </v>
   <v type="int" >        4        3        3        5        6 </v>
   <v type="int" >        4        3        5        6        6 </v>
   <v type="int" >        4        2        2        3        5 </v>
   <v type="int" >        4        2        3        5        5 </v>
   <v type="int" >        4        3        5        5        6 </v>
   <v type="int" >        4        1        2        2        2 </v>
   <v type="int" >        4        2        2        2        5 </v>
   <v type="int" >        2        2        2        5        5 </v>
   <v type="int" >        2        1        1        2        2 </v>
   <v type="int" >        4        5        5        6        8 </v>
   <v type="int" >        4        5        6        6        8 </v>
   <v type="int" >        4        5        6        8        8 </v>
   <v type="int" >        4        6        6        7        9 </v>
   <v type="int" >        4        6        6        8        9 </v>
   <v type="int" >        4        6        8        8        9 </v>
   <v type="int" >        4        6        7        7        9 </v>
   <v type="int" >        4        6        7        9        9 </v>
   <v type="int" >        4        6        8        9        9 </v>
   <v type="int" >        8        7        7        7        9 </v>
   <v type="int" >        8        7        7        9        9 </v>
   <v type="int" >        8        7        9        9        9 </v>
   <v type="int" >        4        6        7        7        8 </v>
   <v type="int" >        4        7        7        8        9 </v>
   <v type="int" >        4        7        8        9        9 </v>
   <v type="int" >        4        6        6        7        8 </v>
   <v type="int" >        4        6        7        8        8 </v>
   <v type="int" >        4        7        8        8        9 </v>
   <v type="int" >        4        5        6        6        6 </v>
   <v type="int" >        4        6        6        6        8 </v>
   <v type="int" >        2        6        6        8        8 </v>
   <v type="int" >        2        5        5        6        6 </v>
   <v type="int" >        4        8        8        9       10 </v>
   <v type="int" >        4        8        9        9       10 </v>
   <v type="int" >        4        8        9       10       10 </v>
   <v type="int" >       12        9        9        9       10 </v>
   <v type="int" >       10        9        9       10       10 </v>
   <v type="int" >        8        9       10       10       10 </v>
   <v type="int" >        4        8        9        9        9 </v>
   <v type="int" >        2        8        8        9        9 </v>
   <v type="int" >        6       10       10       10       10 </v>
  </varray>
  <i name="volumeweight">      0.00340136 </i>
 </kpoints>
 <parameters>
  <separator name="general" >
   <i type="string" name="SYSTEM">unknown system</i>
   <i type="logical" name="LCOMPAT"> F  </i>
  </separator>
  <separator name="electronic" >
   <i type="string" name="PREC">normal</i>
   <i name="ENMAX">    500.00000000</i>
   <i name="ENAUG">    605.39200000</i>
   <i name="EDIFF">      0.00001000</i>
   <i type="int" name="IALGO">    68</i>
   <i type="int" name="IWAVPR">    10</i>
   <i type="int" name="NBANDS">    76</i>
   <i name="NELECT">    128.00000000</i>
   <i type="int" name="TURBO">     0</i>
   <i type="int" name="IRESTART">     0</i>
   <i type="int" name="NREBOOT">     0</i>
   <i type="int" name="NMIN">     0</i>
   <i name="EREF">      0.00000000</i>
   <separator name="electronic smearing" >
    <i type="int" name="ISMEAR">    -5</i>
    <i name="SIGMA">      0.20000000</i>
    <i name="KSPACING">      0.50000000</i>
    <i type="logical" name="KGAMMA"> T  </i>
   </separator>
   <separator name="electronic projectors" >
    <i type="logical" name="LREAL"> F  </i>
    <v name="ROPT">      0.00000000      0.00000000      0.00000000</v>
    <i type="int" name="LMAXPAW">  -100</i>
    <i type="int" name="LMAXMIX">     2</i>
    <i type="logical" name="NLSPLINE"> F  </i>
   </separator>
   <separator name="electronic startup" >
    <i type="int" name="ISTART">     0</i>
    <i type="int" name="ICHARG">     2</i>
    <i type="int" name="INIWAV">     1</i>
   </separator>
   <separator name="electronic spin" >
    <i type="int" name="ISPIN">     1</i>
    <i type="logical" name="LNONCOLLINEAR"> F  </i>
    <v name="MAGMOM">      1.00000000      1.00000000      1.00000000      1.00000000      1.00000000      1.00000000      1.00000000      1.00000000      1.00000000      1.00000000      1.00000000      1.00000000      1.00000000      1.00000000      1.00000000      1.00000000      1.00000000      1.00000000      1.00000000      1.00000000
</v>
    <i name="NUPDOWN">     -1.00000000</i>
    <i type="logical" name="LSORBIT"> F  </i>
    <v name="SAXIS">      0.00000000      0.00000000      1.00000000</v>
    <i type="logical" name="LSPIRAL"> F  </i>
    <v name="QSPIRAL">      0.00000000      0.00000000      0.00000000</v>
    <i type="logical" name="LZEROZ"> F  </i>
   </separator>
   <separator name="electronic exchange-correlation" >
    <i type="logical" name="LASPH"> F  </i>
    <i type="logical" name="LMETAGGA"> F  </i>
   </separator>
   <separator name="electronic convergence" >
    <i type="int" name="NELM">    60</i>
    <i type="int" name="NELMDL">    -5</i>
    <i type="int" name="NELMIN">     4</i>
    <i name="ENINI">    500.00000000</i>
    <separator name="electronic convergence detail" >
     <i type="logical" name="LDIAG"> T  </i>
     <i type="logical" name="LSUBROT"> F  </i>
     <i name="WEIMIN">      0.00000000</i>
     <i name="EBREAK">      0.00000003</i>
     <i name="DEPER">      0.30000000</i>
     <i type="int" name="NRMM">     4</i>
     <i name="TIME">      0.40000000</i>
    </separator>
   </separator>
   <separator name="electronic mixer" >
    <i name="AMIX">      0.40000000</i>
    <i name="BMIX">      1.00000000</i>
    <i name="AMIN">      0.10000000</i>
    <i name="AMIX_MAG">      1.60000000</i>
    <i name="BMIX_MAG">      1.00000000</i>
    <separator name="electronic mixer details" >
     <i type="int" name="IMIX">     4</i>
     <i type="logical" name="MIXFIRST"> F  </i>
     <i type="int" name="MAXMIX">   -45</i>
     <i name="WC">    100.00000000</i>
     <i type="int" name="INIMIX">     1</i>
     <i type="int" name="MIXPRE">     1</i>
     <i type="int" name="MREMOVE">     5</i>
    </separator>
   </separator>
   <separator name="electronic dipolcorrection" >
    <i type="logical" name="LDIPOL"> F  </i>
    <i type="logical" name="LMONO"> F  </i>
    <i type="int" name="IDIPOL">     0</i>
    <i name="EPSILON">      1.00000000</i>
    <v name="DIPOL">   -100.00000000   -100.00000000   -100.00000000</v>
    <i name="EFIELD">      0.00000000</i>
   </separator>
  </separator>
  <separator name="grids" >
   <i type="int" name="NGX">    24</i>
   <i type="int" name="NGY">    24</i>
   <i type="int" name="NGZ">   192</i>
   <i type="int" name="NGXF">    48</i>
   <i type="int" name="NGYF">    48</i>
   <i type="int" name="NGZF">   384</i>
   <i type="logical" name="ADDGRID"> F  </i>
  </separator>
  <separator name="ionic" >
   <i type="int" name="NSW">     0</i>
   <i type="int" name="IBRION">    -1</i>
   <i type="int" name="MDALGO">     0</i>
   <i type="int" name="ISIF">     2</i>
   <i name="PSTRESS">      0.00000000</i>
   <i name="EDIFFG">      0.00010000</i>
   <i type="int" name="NFREE">     0</i>
   <i name="POTIM">      0.50000000</i>
   <i name="SMASS">     -3.00000000</i>
   <i name="SCALEE">      1.00000000</i>
  </separator>
  <separator name="ionic md" >
   <i name="TEBEG">      0.00010000</i>
   <i name="TEEND">      0.00010000</i>
   <i type="int" name="NBLOCK">     1</i>
   <i type="int" name="KBLOCK">     1</i>
   <i type="int" name="NPACO">   256</i>
   <i name="APACO">     16.00000000</i>
  </separator>
  <separator name="symmetry" >
   <i type="int" name="ISYM">     2</i>
   <i name="SYMPREC">      0.00001000</i>
  </separator>
  <separator name="dos" >
   <i type="int" name="LORBIT">     0</i>
   <v name="RWIGS">     -1.00000000     -1.00000000     -1.00000000</v>
   <i type="int" name="NEDOS">   301</i>
   <i name="EMIN">     10.00000000</i>
   <i name="EMAX">    -10.00000000</i>
   <i name="EFERMI">      0.00000000</i>
  </separator>
  <separator name="writing" >
   <i type="int" name="NWRITE">     2</i>
   <i type="logical" name="LWAVE"> F  </i>
   <i type="logical" name="LDOWNSAMPLE"> F  </i>
   <i type="logical" name="LCHARG"> T  </i>
   <i type="logical" name="LPARD"> F  </i>
   <i type="logical" name="LVTOT"> F  </i>
   <i type="logical" name="LVHAR"> F  </i>
   <i type="logical" name="LELF"> F  </i>
   <i type="logical" name="LOPTICS"> F  </i>
   <v name="STM">      0.00000000      0.00000000      0.00000000      0.00000000      0.00000000      0.00000000      0.00000000</v>
  </separator>
  <separator name="performance" >
   <i type="int" name="NPAR">     2</i>
   <i type="int" name="NSIM">     4</i>
   <i type="int" name="NBLK">    -1</i>
   <i type="logical" name="LPLANE"> T  </i>
   <i type="logical" name="LSCALAPACK"> T  </i>
   <i type="logical" name="LSCAAWARE"> F  </i>
   <i type="logical" name="LSCALU"> F  </i>
   <i type="logical" name="LASYNC"> F  </i>
   <i type="logical" name="LORBITALREAL"> F  </i>
  </separator>
  <separator name="miscellaneous" >
   <i type="int" name="IDIOT">     3</i>
   <i type="int" name="ISPECIAL">     0</i>
   <i type="logical" name="LMUSIC"> F  </i>
   <v name="POMASS">     16.00000000     87.62000000     47.88000000</v>
   <v name="DARWINR">      0.00000000      0.00000000      0.00000000</v>
   <v name="DARWINV">      1.00000000      1.00000000      1.00000000</v>
   <i type="logical" name="LCORR"> T  </i>
  </separator>
  <i type="logical" name="GGA_COMPAT"> T  </i>
  <i type="logical" name="LBERRY"> F  </i>
  <i type="int" name="ICORELEVEL">     0</i>
  <i type="logical" name="LDAU"> F  </i>
  <i type="int" name="I_CONSTRAINED_M">     0</i>
  <separator name="electronic exchange-correlation" >
   <i type="string" name="GGA">--</i>
   <i type="int" name="VOSKOWN">     0</i>
   <i type="logical" name="LHFCALC"> F  </i>
   <i type="string" name="PRECFOCK"></i>
   <i type="logical" name="LSYMGRAD"> F  </i>
   <i type="logical" name="LHFONE"> F  </i>
   <i type="logical" name="LRHFCALC"> F  </i>
   <i type="logical" name="LTHOMAS"> F  </i>
   <i type="logical" name="LMODELHF"> F  </i>
   <i name="ENCUT4O">     -1.00000000</i>
   <i type="int" name="EXXOEP">     0</i>
   <i type="int" name="FOURORBIT">     0</i>
   <i name="AEXX">      0.00000000</i>
   <i name="HFALPHA">      0.00000000</i>
   <i name="MCALPHA">      0.00000000</i>
   <i name="ALDAX">      1.00000000</i>
   <i name="AGGAX">      1.00000000</i>
   <i name="ALDAC">      1.00000000</i>
   <i name="AGGAC">      1.00000000</i>
   <i type="int" name="NKREDX">     1</i>
   <i type="int" name="NKREDY">     1</i>
   <i type="int" name="NKREDZ">     1</i>
   <i type="logical" name="SHIFTRED"> F  </i>
   <i type="logical" name="ODDONLY"> F  </i>
   <i type="logical" name="EVENONLY"> F  </i>
   <i type="int" name="LMAXFOCK">     0</i>
   <i type="int" name="NMAXFOCKAE">     0</i>
   <i type="logical" name="LFOCKAEDFT"> F  </i>
   <i name="HFSCREEN">      0.00000000</i>
   <i name="HFSCREENC">      0.00000000</i>
   <i type="int" name="NBANDSGWLOW">     0</i>
  </separator>
  <separator name="vdW DFT" >
   <i type="logical" name="LUSE_VDW"> F  </i>
   <i name="Zab_VDW">     -0.84910000</i>
   <i name="PARAM1">      0.12340000</i>
   <i name="PARAM2">      1.00000000</i>
   <i name="PARAM3">      0.00000000</i>
  </separator>
  <separator name="model GW" >
   <i type="int" name="MODEL_GW">     0</i>
   <i name="MODEL_EPS0">     15.80220731</i>
   <i name="MODEL_ALPHA">      1.00000000</i>
  </separator>
  <separator name="linear response parameters" >
   <i type="logical" name="LEPSILON"> F  </i>
   <i type="logical" name="LRPA"> F  </i>
   <i type="logical" name="LNABLA"> F  </i>
   <i type="logical" name="LVEL"> F  </i>
   <i type="int" name="KINTER">     0</i>
   <i name="CSHIFT">      0.10000000</i>
   <i name="OMEGAMAX">     -1.00000000</i>
   <i name="DEG_THRESHOLD">      0.00200000</i>
   <i name="RTIME">     -0.10000000</i>
   <i name="WPLASMAI">      0.00000000</i>
   <v name="DFIELD">      0.00000000      0.00000000      0.00000000</v>
   <v name="WPLASMA">      0.00000000      0.00000000      0.00000000      0.00000000      0.00000000      0.00000000      0.00000000      0.00000000      0.00000000</v>
  </separator>
  <separator name="orbital magnetization" >
   <i type="logical" name="NUCIND"> F  </i>
   <v name="MAGPOS">      0.00000000      0.00000000      0.00000000</v>
   <i type="logical" name="LNICSALL"> T  </i>
   <i type="logical" name="ORBITALMAG"> F  </i>
   <i type="logical" name="LMAGBLOCH"> F  </i>
   <i type="logical" name="LCHIMAG"> F  </i>
   <i type="logical" name="LGAUGE"> T  </i>
   <i type="int" name="MAGATOM">     0</i>
   <v name="MAGDIPOL">      0.00000000      0.00000000      0.00000000</v>
   <v name="AVECCONST">      0.00000000      0.00000000      0.00000000</v>
  </separator>
  <separator name="response functions" >
   <i type="logical" name="LADDER"> F  </i>
   <i type="logical" name="LRPAFORCE"> F  </i>
   <i type="logical" name="LFXC"> F  </i>
   <i type="logical" name="LHARTREE"> T  </i>
   <i type="int" name="IBSE">     0</i>
   <v type="int" name="KPOINT">    -1     0     0     0</v>
   <i type="logical" name="LTCTE"> F  </i>
   <i type="logical" name="LTETE"> F  </i>
   <i type="logical" name="LTRIPLET"> F  </i>
   <i type="logical" name="LFXCEPS"> F  </i>
   <i type="logical" name="LFXHEG"> F  </i>
   <i type="int" name="NATURALO">     2</i>
   <i type="logical" name="L2ORDER"> F  </i>
   <i type="logical" name="LMP2LT"> F  </i>
   <i type="logical" name="LUSEW"> F  </i>
   <i name="ENCUTGW">     -2.00000000</i>
   <i name="ENCUTGWSOFT">     -2.00000000</i>
   <i name="ENCUTLF">     -1.00000000</i>
   <i type="int" name="LMAXMP2">    -1</i>
   <i name="SCISSOR">      0.00000000</i>
   <i type="int" name="NOMEGA">     0</i>
   <i type="int" name="NOMEGAR">     0</i>
   <i type="int" name="NBANDSGW">    -1</i>
   <i type="int" name="NBANDSO">    -1</i>
   <i type="int" name="NBANDSV">    -1</i>
   <i type="int" name="NELM">     1</i>
   <i type="int" name="NELMHF">     1</i>
   <i type="int" name="DIM">     3</i>
   <i type="int" name="ANTIRES">     0</i>
   <i name="OMEGAMAX">    -30.00000000</i>
   <i name="OMEGAMIN">    -30.00000000</i>
   <i name="OMEGATL">   -200.00000000</i>
   <i type="int" name="OMEGAGRID">   140</i>
   <i name="CSHIFT">     -0.10000000</i>
   <i type="logical" name="SELFENERGY"> F  </i>
   <i type="logical" name="LSPECTRAL"> F  </i>
   <i type="logical" name="LSPECTRALGW"> F  </i>
   <i type="logical" name="LSINGLES"> F  </i>
   <i type="logical" name="LFERMIGW"> F  </i>
   <i type="logical" name="ODDONLYGW"> F  </i>
   <i type="logical" name="EVENONLYGW"> F  </i>
   <i type="int" name="NKREDLFX">     1</i>
   <i type="int" name="NKREDLFY">     1</i>
   <i type="int" name="NKREDLFZ">     1</i>
   <i type="int" name="MAXMEM">  2800</i>
   <i type="int" name="TELESCOPE">     0</i>
   <i type="int" name="TAUPAR">     1</i>
   <i type="int" name="OMEGAPAR">    -1</i>
   <i name="LAMBDA">      1.00000000</i>
  </separator>
  <separator name="External order field" >
   <i name="OFIELD_KAPPA">      0.00000000</i>
   <v name="OFIELD_K">      0.00000000      0.00000000      0.00000000</v>
   <i name="OFIELD_Q6_NEAR">      0.00000000</i>
   <i name="OFIELD_Q6_FAR">      0.00000000</i>
   <i name="OFIELD_A">      0.00000000</i>
  </separator>
 </parameters>
 <atominfo>
  <atoms>      20 </atoms>
  <types>       3 </types>
  <array name="atoms" >
   <dimension dim="1">ion</dimension>
   <field type="string">element</field>
   <field type="int">atomtype</field>
   <set>
    <rc><c>O </c><c>   1</c></rc>
    <rc><c>O </c><c>   1</c></rc>
    <rc><c>O </c><c>   1</c></rc>
    <rc><c>O </c><c>   1</c></rc>
    <rc><c>O </c><c>   1</c></rc>
    <rc><c>O </c><c>   1</c></rc>
    <rc><c>O </c><c>   1</c></rc>
    <rc><c>O </c><c>   1</c></rc>
    <rc><c>O </c><c>   1</c></rc>
    <rc><c>O </c><c>   1</c></rc>
    <rc><c>O </c><c>   1</c></rc>
    <rc><c>O </c><c>   1</c></rc>
    <rc><c>Sr</c><c>   2</c></rc>
    <rc><c>Sr</c><c>   2</c></rc>
    <rc><c>Sr</c><c>   2</c></rc>
    <rc><c>Sr</c><c>   2</c></rc>
    <rc><c>Ti</c><c>   3</c></rc>
    <rc><c>Ti</c><c>   3</c></rc>
    <rc><c>Ti</c><c>   3</c></rc>
    <rc><c>Ti</c><c>   3</c></rc>
   </set>
  </array>
  <array name="atomtypes" >
   <dimension dim="1">type</dimension>
   <field type="int">atomspertype</field>
   <field type="string">element</field>
   <field>mass</field>
   <field>valence</field>
   <field type="string">pseudopotential</field>
   <set>
    <rc><c>  12</c><c>O </c><c>     16.00000000</c><c>      6.00000000</c><c> PAW_PBE O 08Apr2002                    </c></rc>
    <rc><c>   4</c><c>Sr</c><c>     87.62000000</c><c>     10.00000000</c><c> PAW_PBE Sr_sv 07Sep2000                </c></rc>
    <rc><c>   4</c><c>Ti</c><c>     47.88000000</c><c>      4.00000000</c><c> PAW_PBE Ti 08Apr2002                   </c></rc>
   </set>
  </array>
 </atominfo>
 <structure name="initialpos" >
  <crystal>
   <varray name="basis" >
    <v>       3.94684634       0.00000000       0.00000000 </v>
    <v>       0.00000000       3.94684634       0.00000000 </v>
    <v>       0.00000000       0.00000000      33.81396220 </v>
   </varray>
   <i name="volume">    526.74024374 </i>
   <varray name="rec_basis" >
    <v>       0.25336684       0.00000000       0.00000000 </v>
    <v>       0.00000000       0.25336684       0.00000000 </v>
    <v>       0.00000000       0.00000000       0.02957358 </v>
   </varray>
  </crystal>
  <varray name="positions" >
   <v>       0.50000000       0.50000000       0.29573582 </v>
   <v>       0.50000000       0.00000000       0.35409702 </v>
   <v>       0.00000000       0.50000000       0.35409702 </v>
   <v>       0.50000000       0.50000000       0.41245821 </v>
   <v>       0.50000000       0.00000000       0.47081940 </v>
   <v>       0.00000000       0.50000000       0.47081940 </v>
   <v>       0.50000000       0.50000000       0.52918060 </v>
   <v>       0.50000000       0.00000000       0.58754179 </v>
   <v>       0.00000000       0.50000000       0.58754179 </v>
   <v>       0.50000000       0.50000000       0.64590298 </v>
   <v>       0.50000000       0.00000000       0.70426418 </v>
   <v>       0.00000000       0.50000000       0.70426418 </v>
   <v>       0.00000000       0.00000000       0.29573582 </v>
   <v>       0.00000000       0.00000000       0.41245821 </v>
   <v>       0.00000000       0.00000000       0.52918060 </v>
   <v>       0.00000000       0.00000000       0.64590298 </v>
   <v>       0.50000000       0.50000000       0.35409702 </v>
   <v>       0.50000000       0.50000000       0.47081940 </v>
   <v>       0.50000000       0.50000000       0.58754179 </v>
   <v>       0.50000000       0.50000000       0.70426418 </v>
  </varray>
 </structure>
 <calculation>
  <scstep>
   <time name="dav">    7.49    7.49</time>
   <time name="total">    7.67    7.68</time>
   <energy>
    <i name="alphaZ">    335.41725986 </i>
    <i name="ewald">  69617.67506160 </i>
    <i name="hartreedc"> -77721.60315735 </i>
    <i name="XCdc">    325.52642282 </i>
    <i name="pawpsdc">   5334.45189010 </i>
    <i name="pawaedc">  -5139.13784255 </i>
    <i name="eentropy">      0.00000000 </i>
    <i name="bandstr">    -91.89061995 </i>
    <i name="atom">   8937.26825017 </i>
    <i name="e_fr_energy">   1597.70726472 </i>
    <i name="e_wo_entrp">   1597.70726472 </i>
    <i name="e_0_energy">   1597.70726472 </i>
   </energy>
  </scstep>
  <scstep>
   <time name="dav">    8.80    8.80</time>
   <time name="total">    8.81    8.81</time>
   <energy>
    <i name="e_fr_energy">    180.09294091 </i>
    <i name="e_wo_entrp">    180.09294091 </i>
    <i name="e_0_energy">    180.09294091 </i>
   </energy>
  </scstep>
  <scstep>
   <time name="dav">    9.47    9.47</time>
   <time name="total">    9.47    9.47</time>
   <energy>
    <i name="e_fr_energy">   -177.67376654 </i>
    <i name="e_wo_entrp">   -177.67376654 </i>
    <i name="e_0_energy">   -177.67376654 </i>
   </energy>
  </scstep>
  <scstep>
   <time name="dav">    9.06    9.06</time>
   <time name="total">    9.07    9.07</time>
   <energy>
    <i name="e_fr_energy">   -200.95270850 </i>
    <i name="e_wo_entrp">   -200.95270850 </i>
    <i name="e_0_energy">   -200.95270850 </i>
   </energy>
  </scstep>
  <scstep>
   <time name="dav">   11.44   11.44</time>
   <time name="total">   11.76   11.76</time>
   <energy>
    <i name="e_fr_energy">   -202.30721095 </i>
    <i name="e_wo_entrp">   -202.30721095 </i>
    <i name="e_0_energy">   -202.30721095 </i>
   </energy>
  </scstep>
  <scstep>
   <time name="diag">    0.92    0.92</time>
   <time name="diis">    5.92    5.92</time>
   <time name="orth">    0.16    0.16</time>
   <time name="total">    7.49    7.49</time>
   <energy>
    <i name="e_fr_energy">   -161.74405619 </i>
    <i name="e_wo_entrp">   -161.74405619 </i>
    <i name="e_0_energy">   -161.74405619 </i>
   </energy>
  </scstep>
  <scstep>
   <time name="diag">    0.92    0.92</time>
   <time name="diis">    6.37    6.36</time>
   <time name="orth">    0.16    0.16</time>
   <time name="total">    7.92    7.92</time>
   <energy>
    <i name="e_fr_energy">   -157.73086998 </i>
    <i name="e_wo_entrp">   -157.73086998 </i>
    <i name="e_0_energy">   -157.73086998 </i>
   </energy>
  </scstep>
  <scstep>
   <time name="diag">    0.92    0.92</time>
   <time name="diis">    7.33    7.32</time>
   <time name="orth">    0.16    0.16</time>
   <time name="total">    8.88    8.88</time>
   <energy>
    <i name="e_fr_energy">   -156.98456629 </i>
    <i name="e_wo_entrp">   -156.98456629 </i>
    <i name="e_0_energy">   -156.98456629 </i>
   </energy>
  </scstep>
  <scstep>
   <time name="diag">    0.92    0.92</time>
   <time name="diis">    7.10    7.10</time>
   <time name="orth">    0.16    0.16</time>
   <time name="total">    8.66    8.66</time>
   <energy>
    <i name="e_fr_energy">   -156.73249344 </i>
    <i name="e_wo_entrp">   -156.73249344 </i>
    <i name="e_0_energy">   -156.73249344 </i>
   </energy>
  </scstep>
  <scstep>
   <time name="diag">    0.92    0.92</time>
   <time name="diis">    8.24    8.24</time>
   <time name="orth">    0.16    0.16</time>
   <time name="total">    9.79    9.79</time>
   <energy>
    <i name="e_fr_energy">   -156.68514879 </i>
    <i name="e_wo_entrp">   -156.68514879 </i>
    <i name="e_0_energy">   -156.68514879 </i>
   </energy>
  </scstep>
  <scstep>
   <time name="diag">    0.91    0.91</time>
   <time name="diis">    8.17    8.17</time>
   <time name="orth">    0.16    0.16</time>
   <time name="total">    9.70    9.70</time>
   <energy>
    <i name="e_fr_energy">   -156.66150853 </i>
    <i name="e_wo_entrp">   -156.66150853 </i>
    <i name="e_0_energy">   -156.66150853 </i>
   </energy>
  </scstep>
  <scstep>
   <time name="diag">    0.87    0.87</time>
   <time name="diis">    8.34    8.34</time>
   <time name="orth">    0.16    0.16</time>
   <time name="total">    9.84    9.85</time>
   <energy>
    <i name="e_fr_energy">   -156.65170849 </i>
    <i name="e_wo_entrp">   -156.65170849 </i>
    <i name="e_0_energy">   -156.65170849 </i>
   </energy>
  </scstep>
  <scstep>
   <time name="diag">    0.85    0.85</time>
   <time name="diis">    8.38    8.38</time>
   <time name="orth">    0.16    0.16</time>
   <time name="total">    9.86    9.86</time>
   <energy>
    <i name="e_fr_energy">   -156.64587651 </i>
    <i name="e_wo_entrp">   -156.64587651 </i>
    <i name="e_0_energy">   -156.64587651 </i>
   </energy>
  </scstep>
  <scstep>
   <time name="diag">    0.82    0.82</time>
   <time name="diis">    6.78    6.78</time>
   <time name="orth">    0.15    0.15</time>
   <time name="total">    8.17    8.17</time>
   <energy>
    <i name="e_fr_energy">   -156.64270136 </i>
    <i name="e_wo_entrp">   -156.64270136 </i>
    <i name="e_0_energy">   -156.64270136 </i>
   </energy>
  </scstep>
  <scstep>
   <time name="diag">    0.75    0.75</time>
   <time name="diis">    7.21    7.21</time>
   <time name="orth">    0.15    0.15</time>
   <time name="total">    8.53    8.53</time>
   <energy>
    <i name="e_fr_energy">   -156.64261786 </i>
    <i name="e_wo_entrp">   -156.64261786 </i>
    <i name="e_0_energy">   -156.64261786 </i>
   </energy>
  </scstep>
  <scstep>
   <time name="diag">    0.75    0.75</time>
   <time name="diis">    6.87    6.87</time>
   <time name="orth">    0.15    0.15</time>
   <time name="total">    8.18    8.18</time>
   <energy>
    <i name="e_fr_energy">   -156.64438964 </i>
    <i name="e_wo_entrp">   -156.64438964 </i>
    <i name="e_0_energy">   -156.64438964 </i>
   </energy>
  </scstep>
  <scstep>
   <time name="diag">    0.75    0.75</time>
   <time name="diis">    6.84    6.84</time>
   <time name="orth">    0.15    0.15</time>
   <time name="total">    8.15    8.16</time>
   <energy>
    <i name="e_fr_energy">   -156.64559021 </i>
    <i name="e_wo_entrp">   -156.64559021 </i>
    <i name="e_0_energy">   -156.64559021 </i>
   </energy>
  </scstep>
  <scstep>
   <time name="diag">    0.76    0.76</time>
   <time name="diis">    6.94    6.94</time>
   <time name="orth">    0.15    0.15</time>
   <time name="total">    8.28    8.28</time>
   <energy>
    <i name="e_fr_energy">   -156.64616182 </i>
    <i name="e_wo_entrp">   -156.64616182 </i>
    <i name="e_0_energy">   -156.64616182 </i>
   </energy>
  </scstep>
  <scstep>
   <time name="diag">    0.75    0.75</time>
   <time name="diis">    6.25    6.24</time>
   <time name="orth">    0.15    0.15</time>
   <time name="total">    7.56    7.56</time>
   <energy>
    <i name="e_fr_energy">   -156.64709866 </i>
    <i name="e_wo_entrp">   -156.64709866 </i>
    <i name="e_0_energy">   -156.64709866 </i>
   </energy>
  </scstep>
  <scstep>
   <time name="diag">    0.75    0.75</time>
   <time name="diis">    5.64    5.63</time>
   <time name="orth">    0.15    0.15</time>
   <time name="total">    6.95    6.95</time>
   <energy>
    <i name="e_fr_energy">   -156.64764448 </i>
    <i name="e_wo_entrp">   -156.64764448 </i>
    <i name="e_0_energy">   -156.64764448 </i>
   </energy>
  </scstep>
  <scstep>
   <time name="diag">    0.75    0.75</time>
   <time name="diis">    5.47    5.46</time>
   <time name="orth">    0.15    0.15</time>
   <time name="total">    6.78    6.78</time>
   <energy>
    <i name="e_fr_energy">   -156.64801147 </i>
    <i name="e_wo_entrp">   -156.64801147 </i>
    <i name="e_0_energy">   -156.64801147 </i>
   </energy>
  </scstep>
  <scstep>
   <time name="diag">    0.75    0.75</time>
   <time name="diis">    4.73    4.73</time>
   <time name="orth">    0.15    0.15</time>
   <time name="total">    6.03    6.03</time>
   <energy>
    <i name="e_fr_energy">   -156.64810382 </i>
    <i name="e_wo_entrp">   -156.64810382 </i>
    <i name="e_0_energy">   -156.64810382 </i>
   </energy>
  </scstep>
  <scstep>
   <time name="diag">    0.75    0.76</time>
   <time name="diis">    3.96    3.96</time>
   <time name="orth">    0.15    0.15</time>
   <time name="total">    5.28    5.28</time>
   <energy>
    <i name="e_fr_energy">   -156.64816877 </i>
    <i name="e_wo_entrp">   -156.64816877 </i>
    <i name="e_0_energy">   -156.64816877 </i>
   </energy>
  </scstep>
  <scstep>
   <time name="diag">    0.75    0.75</time>
   <time name="diis">    3.80    3.80</time>
   <time name="orth">    0.15    0.15</time>
   <time name="total">    5.12    5.12</time>
   <energy>
    <i name="e_fr_energy">   -156.64819081 </i>
    <i name="e_wo_entrp">   -156.64819081 </i>
    <i name="e_0_energy">   -156.64819081 </i>
   </energy>
  </scstep>
  <scstep>
   <time name="diag">    0.75    0.75</time>
   <time name="diis">    3.64    3.64</time>
   <time name="orth">    0.15    0.15</time>
   <time name="total">    4.96    4.96</time>
   <energy>
    <i name="e_fr_energy">   -156.64820244 </i>
    <i name="e_wo_entrp">   -156.64820244 </i>
    <i name="e_0_energy">   -156.64820244 </i>
   </energy>
  </scstep>
  <scstep>
   <time name="diag">    0.74    0.75</time>
   <time name="diis">    3.37    3.36</time>
   <time name="orth">    0.14    0.15</time>
   <time name="total">    4.68    4.68</time>
   <energy>
    <i name="e_fr_energy">   -156.64821508 </i>
    <i name="e_wo_entrp">   -156.64821508 </i>
    <i name="e_0_energy">   -156.64821508 </i>
   </energy>
  </scstep>
  <scstep>
   <time name="diag">    0.76    0.76</time>
   <time name="diis">    3.36    3.36</time>
   <time name="orth">    0.14    0.15</time>
   <time name="total">    4.40    4.40</time>
   <energy>
    <i name="alphaZ">    335.41725986 </i>
    <i name="ewald">  69617.67506160 </i>
    <i name="hartreedc"> -78237.25869306 </i>
    <i name="XCdc">    341.54545573 </i>
    <i name="pawpsdc">   6145.04229182 </i>
    <i name="pawaedc">  -5974.97054073 </i>
    <i name="eentropy">      0.00000000 </i>
    <i name="bandstr">  -1321.36730512 </i>
    <i name="atom">   8937.26825017 </i>
    <i name="e_fr_energy">   -156.64821972 </i>
    <i name="e_wo_entrp">   -156.64821972 </i>
    <i name="e_0_energy">   -156.64821972 </i>
   </energy>
  </scstep>
  <structure>
   <crystal>
    <varray name="basis" >
     <v>       3.94684634       0.00000000       0.00000000 </v>
     <v>       0.00000000       3.94684634       0.00000000 </v>
     <v>       0.00000000       0.00000000      33.81396220 </v>
    </varray>
    <i name="volume">    526.74024374 </i>
    <varray name="rec_basis" >
     <v>       0.25336684       0.00000000       0.00000000 </v>
     <v>       0.00000000       0.25336684       0.00000000 </v>
     <v>       0.00000000       0.00000000       0.02957358 </v>
    </varray>
   </crystal>
   <varray name="positions" >
    <v>       0.50000000       0.50000000       0.29573582 </v>
    <v>       0.50000000       0.00000000       0.35409702 </v>
    <v>       0.00000000       0.50000000       0.35409702 </v>
    <v>       0.50000000       0.50000000       0.41245821 </v>
    <v>       0.50000000       0.00000000       0.47081940 </v>
    <v>       0.00000000       0.50000000       0.47081940 </v>
    <v>       0.50000000       0.50000000       0.52918060 </v>
    <v>       0.50000000       0.00000000       0.58754179 </v>
    <v>       0.00000000       0.50000000       0.58754179 </v>
    <v>       0.50000000       0.50000000       0.64590298 </v>
    <v>       0.50000000       0.00000000       0.70426418 </v>
    <v>       0.00000000       0.50000000       0.70426418 </v>
    <v>       0.00000000       0.00000000       0.29573582 </v>
    <v>       0.00000000       0.00000000       0.41245821 </v>
    <v>       0.00000000       0.00000000       0.52918060 </v>
    <v>       0.00000000       0.00000000       0.64590298 </v>
    <v>       0.50000000       0.50000000       0.35409702 </v>
    <v>       0.50000000       0.50000000       0.47081940 </v>
    <v>       0.50000000       0.50000000       0.58754179 </v>
    <v>       0.50000000       0.50000000       0.70426418 </v>
   </varray>
  </structure>
  <varray name="forces" >
   <v>       0.00000000       0.00000000      -0.74895069 </v>
   <v>       0.00000000      -0.00000000      -0.03741250 </v>
   <v>       0.00000000      -0.00000000      -0.03741250 </v>
   <v>       0.00000000       0.00000000       0.27654337 </v>
   <v>       0.00000000       0.00000000       0.03664222 </v>
   <v>       0.00000000       0.00000000       0.03664222 </v>
   <v>       0.00000000       0.00000000       0.20430521 </v>
   <v>      -0.00000000       0.00000000      -0.00676245 </v>
   <v>       0.00000000      -0.00000000      -0.00676245 </v>
   <v>       0.00000000       0.00000000       0.91342149 </v>
   <v>      -0.00000000       0.00000000       0.34651419 </v>
   <v>       0.00000000       0.00000000       0.34651419 </v>
   <v>       0.00000000       0.00000000       1.39685095 </v>
   <v>       0.00000000       0.00000000       0.03177032 </v>
   <v>       0.00000000       0.00000000      -0.01994244 </v>
   <v>       0.00000000       0.00000000       0.67299962 </v>
   <v>       0.00000000       0.00000000      -0.87429460 </v>
   <v>       0.00000000       0.00000000      -0.18960140 </v>
   <v>       0.00000000       0.00000000      -0.24716223 </v>
   <v>       0.00000000       0.00000000      -2.09390252 </v>
  </varray>
  <varray name="stress" >
   <v>     -17.47879030       0.00000000      -0.00000000 </v>
   <v>       0.00000000     -17.47879030       0.00000000 </v>
   <v>      -0.00000000       0.00000000     -10.47194570 </v>
  </varray>
  <energy>
   <i name="e_fr_energy">   -156.64821972 </i>
   <i name="e_wo_entrp">   -156.64821972 </i>
   <i name="e_0_energy">      0.00000000 </i>
  </energy>
  <time name="totalsc">  221.29  221.33</time>
  <eigenvalues>
   <array>
    <dimension dim="1">band</dimension>
    <dimension dim="2">kpoint</dimension>
    <dimension dim="3">spin</dimension>
    <field>eigene</field>
    <field>occ</field>
    <set>
     <set comment="spin 1">
      <set comment="kpoint 1">
       <r>  -35.0733    1.0000 </r>
       <r>  -33.9498    1.0000 </r>
       <r>  -33.9186    1.0000 </r>
       <r>  -33.7589    1.0000 </r>
       <r>  -18.6630    1.0000 </r>
       <r>  -18.5847    1.0000 </r>
       <r>  -18.4888    1.0000 </r>
       <r>  -17.9323    1.0000 </r>
       <r>  -17.5127    1.0000 </r>
       <r>  -17.5050    1.0000 </r>
       <r>  -17.4801    1.0000 </r>
       <r>  -17.4551    1.0000 </r>
       <r>  -17.4276    1.0000 </r>
       <r>  -17.3872    1.0000 </r>
       <r>  -16.9923    1.0000 </r>
       <r>  -16.9861    1.0000 </r>
       <r>  -16.9861    1.0000 </r>
       <r>  -16.8514    1.0000 </r>
       <r>  -16.7333    1.0000 </r>
       <r>  -15.9949    1.0000 </r>
       <r>  -15.9949    1.0000 </r>
       <r>  -15.9557    1.0000 </r>
       <r>  -15.9557    1.0000 </r>
       <r>  -15.8574    1.0000 </r>
       <r>  -15.8190    1.0000 </r>
       <r>  -15.8190    1.0000 </r>
       <r>  -15.5939    1.0000 </r>
       <r>  -15.4032    1.0000 </r>
       <r>   -5.2130    1.0000 </r>
       <r>   -4.7086    1.0000 </r>
       <r>   -4.1979    1.0000 </r>
       <r>   -3.9854    1.0000 </r>
       <r>   -3.9854    1.0000 </r>
       <r>   -3.9407    1.0000 </r>
       <r>   -3.9407    1.0000 </r>
       <r>   -3.9335    1.0000 </r>
       <r>   -3.9335    1.0000 </r>
       <r>   -3.6083    1.0000 </r>
       <r>   -3.4877    1.0000 </r>
       <r>   -3.4877    1.0000 </r>
       <r>   -3.2717    1.0000 </r>
       <r>   -3.1597    1.0000 </r>
       <r>   -3.1597    1.0000 </r>
       <r>   -2.9287    1.0000 </r>
       <r>   -2.8131    1.0000 </r>
       <r>   -2.7784    1.0000 </r>
       <r>   -2.7784    1.0000 </r>
       <r>   -2.7067    1.0000 </r>
       <r>   -2.4360    1.0000 </r>
       <r>   -2.4360    1.0000 </r>
       <r>   -2.3966    1.0000 </r>
       <r>   -2.3816    1.0000 </r>
       <r>   -2.1730    1.0000 </r>
       <r>   -2.1730    1.0000 </r>
       <r>   -1.8009    1.0000 </r>
       <r>   -1.8009    1.0000 </r>
       <r>   -1.7853    1.0000 </r>
       <r>   -1.7568    1.0000 </r>
       <r>   -1.6869    1.0000 </r>
       <r>   -1.6869    1.0000 </r>
       <r>   -1.5009    1.0000 </r>
       <r>   -1.5009    1.0000 </r>
       <r>   -1.0429    1.0000 </r>
       <r>   -1.0429    1.0000 </r>
       <r>    0.5099    0.0000 </r>
       <r>    0.5943    0.0000 </r>
       <r>    0.6214    0.0000 </r>
       <r>    0.6214    0.0000 </r>
       <r>    0.6750    0.0000 </r>
       <r>    0.9380    0.0000 </r>
       <r>    0.9794    0.0000 </r>
       <r>    1.1323    0.0000 </r>
       <r>    1.1337    0.0000 </r>
       <r>    1.7400    0.0000 </r>
       <r>    4.4402    0.0000 </r>
       <r>    4.4565    0.0000 </r>
      </set>
      <set comment="kpoint 2">
       <r>  -35.0703    1.0000 </r>
       <r>  -33.9463    1.0000 </r>
       <r>  -33.9152    1.0000 </r>
       <r>  -33.7554    1.0000 </r>
       <r>  -18.5861    1.0000 </r>
       <r>  -18.5261    1.0000 </r>
       <r>  -18.4736    1.0000 </r>
       <r>  -17.9338    1.0000 </r>
       <r>  -17.5717    1.0000 </r>
       <r>  -17.5451    1.0000 </r>
       <r>  -17.5059    1.0000 </r>
       <r>  -17.4607    1.0000 </r>
       <r>  -17.4505    1.0000 </r>
       <r>  -17.3651    1.0000 </r>
       <r>  -17.2265    1.0000 </r>
       <r>  -16.9792    1.0000 </r>
       <r>  -16.9623    1.0000 </r>
       <r>  -16.8481    1.0000 </r>
       <r>  -16.4668    1.0000 </r>
       <r>  -15.9866    1.0000 </r>
       <r>  -15.9470    1.0000 </r>
       <r>  -15.8981    1.0000 </r>
       <r>  -15.8805    1.0000 </r>
       <r>  -15.8371    1.0000 </r>
       <r>  -15.8102    1.0000 </r>
       <r>  -15.7254    1.0000 </r>
       <r>  -15.6144    1.0000 </r>
       <r>  -15.4317    1.0000 </r>
       <r>   -5.2255    1.0000 </r>
       <r>   -4.7522    1.0000 </r>
       <r>   -4.3528    1.0000 </r>
       <r>   -4.2655    1.0000 </r>
       <r>   -4.2218    1.0000 </r>
       <r>   -4.1301    1.0000 </r>
       <r>   -4.0663    1.0000 </r>
       <r>   -3.9892    1.0000 </r>
       <r>   -3.9447    1.0000 </r>
       <r>   -3.9290    1.0000 </r>
       <r>   -3.8155    1.0000 </r>
       <r>   -3.5518    1.0000 </r>
       <r>   -3.5046    1.0000 </r>
       <r>   -3.2930    1.0000 </r>
       <r>   -3.2393    1.0000 </r>
       <r>   -3.0419    1.0000 </r>
       <r>   -3.0105    1.0000 </r>
       <r>   -2.8703    1.0000 </r>
       <r>   -2.7165    1.0000 </r>
       <r>   -2.5723    1.0000 </r>
       <r>   -2.5314    1.0000 </r>
       <r>   -2.4280    1.0000 </r>
       <r>   -2.3775    1.0000 </r>
       <r>   -2.2939    1.0000 </r>
       <r>   -2.2730    1.0000 </r>
       <r>   -2.2238    1.0000 </r>
       <r>   -2.1198    1.0000 </r>
       <r>   -2.0591    1.0000 </r>
       <r>   -2.0539    1.0000 </r>
       <r>   -2.0088    1.0000 </r>
       <r>   -1.8842    1.0000 </r>
       <r>   -1.8143    1.0000 </r>
       <r>   -1.6412    1.0000 </r>
       <r>   -1.6247    1.0000 </r>
       <r>   -1.4119    1.0000 </r>
       <r>   -1.3513    1.0000 </r>
       <r>    0.6379    0.0000 </r>
       <r>    0.9180    0.0000 </r>
       <r>    0.9733    0.0000 </r>
       <r>    0.9958    0.0000 </r>
       <r>    1.0588    0.0000 </r>
       <r>    1.1541    0.0000 </r>
       <r>    1.2637    0.0000 </r>
       <r>    1.3444    0.0000 </r>
       <r>    1.5829    0.0000 </r>
       <r>    4.6985    0.0000 </r>
       <r>    4.7756    0.0000 </r>
       <r>    5.2645    0.0000 </r>
      </set>
      <set comment="kpoint 3">
       <r>  -35.0637    1.0000 </r>
       <r>  -33.9384    1.0000 </r>
       <r>  -33.9076    1.0000 </r>
       <r>  -33.7475    1.0000 </r>
       <r>  -18.5256    1.0000 </r>
       <r>  -18.4517    1.0000 </r>
       <r>  -18.3443    1.0000 </r>
       <r>  -17.9419    1.0000 </r>
       <r>  -17.7416    1.0000 </r>
       <r>  -17.6204    1.0000 </r>
       <r>  -17.5803    1.0000 </r>
       <r>  -17.4841    1.0000 </r>
       <r>  -17.4349    1.0000 </r>
       <r>  -17.3060    1.0000 </r>
       <r>  -17.2518    1.0000 </r>
       <r>  -16.9637    1.0000 </r>
       <r>  -16.9519    1.0000 </r>
       <r>  -16.8303    1.0000 </r>
       <r>  -16.1635    1.0000 </r>
       <r>  -15.9677    1.0000 </r>
       <r>  -15.9273    1.0000 </r>
       <r>  -15.8719    1.0000 </r>
       <r>  -15.7902    1.0000 </r>
       <r>  -15.7289    1.0000 </r>
       <r>  -15.6748    1.0000 </r>
       <r>  -15.6333    1.0000 </r>
       <r>  -15.5481    1.0000 </r>
       <r>  -15.4779    1.0000 </r>
       <r>   -5.2687    1.0000 </r>
       <r>   -5.0838    1.0000 </r>
       <r>   -4.8601    1.0000 </r>
       <r>   -4.8384    1.0000 </r>
       <r>   -4.7473    1.0000 </r>
       <r>   -4.6014    1.0000 </r>
       <r>   -4.5145    1.0000 </r>
       <r>   -4.2064    1.0000 </r>
       <r>   -4.1374    1.0000 </r>
       <r>   -3.9884    1.0000 </r>
       <r>   -3.9434    1.0000 </r>
       <r>   -3.9105    1.0000 </r>
       <r>   -3.8554    1.0000 </r>
       <r>   -3.7077    1.0000 </r>
       <r>   -3.4462    1.0000 </r>
       <r>   -3.3656    1.0000 </r>
       <r>   -3.1848    1.0000 </r>
       <r>   -3.1606    1.0000 </r>
       <r>   -2.9185    1.0000 </r>
       <r>   -2.8645    1.0000 </r>
       <r>   -2.8326    1.0000 </r>
       <r>   -2.7591    1.0000 </r>
       <r>   -2.7236    1.0000 </r>
       <r>   -2.6688    1.0000 </r>
       <r>   -2.4907    1.0000 </r>
       <r>   -2.4494    1.0000 </r>
       <r>   -2.4150    1.0000 </r>
       <r>   -2.2206    1.0000 </r>
       <r>   -2.1661    1.0000 </r>
       <r>   -2.0287    1.0000 </r>
       <r>   -1.8485    1.0000 </r>
       <r>   -1.8240    1.0000 </r>
       <r>   -1.7657    1.0000 </r>
       <r>   -1.7535    1.0000 </r>
       <r>   -1.6337    1.0000 </r>
       <r>   -1.5531    1.0000 </r>
       <r>    0.6827    0.0000 </r>
       <r>    1.1696    0.0000 </r>
       <r>    1.6617    0.0000 </r>
       <r>    1.6697    0.0000 </r>
       <r>    1.6956    0.0000 </r>
       <r>    1.7692    0.0000 </r>
       <r>    1.7917    0.0000 </r>
       <r>    1.8524    0.0000 </r>
       <r>    2.0004    0.0000 </r>
       <r>    2.0833    0.0000 </r>
       <r>    2.1759    0.0000 </r>
       <r>    5.5933    0.0000 </r>
      </set>
      <set comment="kpoint 4">
       <r>  -35.0584    1.0000 </r>
       <r>  -33.9321    1.0000 </r>
       <r>  -33.9014    1.0000 </r>
       <r>  -33.7412    1.0000 </r>
       <r>  -18.5942    1.0000 </r>
       <r>  -18.4362    1.0000 </r>
       <r>  -18.1978    1.0000 </r>
       <r>  -17.8879    1.0000 </r>
       <r>  -17.8131    1.0000 </r>
       <r>  -17.6945    1.0000 </r>
       <r>  -17.5571    1.0000 </r>
       <r>  -17.4995    1.0000 </r>
       <r>  -17.4445    1.0000 </r>
       <r>  -17.3334    1.0000 </r>
       <r>  -17.1373    1.0000 </r>
       <r>  -16.9512    1.0000 </r>
       <r>  -16.9108    1.0000 </r>
       <r>  -16.8161    1.0000 </r>
       <r>  -15.9938    1.0000 </r>
       <r>  -15.9524    1.0000 </r>
       <r>  -15.9114    1.0000 </r>
       <r>  -15.8667    1.0000 </r>
       <r>  -15.7740    1.0000 </r>
       <r>  -15.6930    1.0000 </r>
       <r>  -15.6074    1.0000 </r>
       <r>  -15.5178    1.0000 </r>
       <r>  -15.4977    1.0000 </r>
       <r>  -15.4221    1.0000 </r>
       <r>   -5.4523    1.0000 </r>
       <r>   -5.4360    1.0000 </r>
       <r>   -5.3316    1.0000 </r>
       <r>   -5.2890    1.0000 </r>
       <r>   -5.1241    1.0000 </r>
       <r>   -5.0280    1.0000 </r>
       <r>   -4.8321    1.0000 </r>
       <r>   -4.6296    1.0000 </r>
       <r>   -4.3908    1.0000 </r>
       <r>   -4.1065    1.0000 </r>
       <r>   -3.9551    1.0000 </r>
       <r>   -3.9233    1.0000 </r>
       <r>   -3.8790    1.0000 </r>
       <r>   -3.8245    1.0000 </r>
       <r>   -3.6618    1.0000 </r>
       <r>   -3.6334    1.0000 </r>
       <r>   -3.4611    1.0000 </r>
       <r>   -3.4159    1.0000 </r>
       <r>   -3.2656    1.0000 </r>
       <r>   -3.1513    1.0000 </r>
       <r>   -2.9903    1.0000 </r>
       <r>   -2.7938    1.0000 </r>
       <r>   -2.7629    1.0000 </r>
       <r>   -2.6995    1.0000 </r>
       <r>   -2.6908    1.0000 </r>
       <r>   -2.6474    1.0000 </r>
       <r>   -2.4016    1.0000 </r>
       <r>   -2.3663    1.0000 </r>
       <r>   -2.2042    1.0000 </r>
       <r>   -2.1012    1.0000 </r>
       <r>   -2.0662    1.0000 </r>
       <r>   -1.9589    1.0000 </r>
       <r>   -1.8721    1.0000 </r>
       <r>   -1.8493    1.0000 </r>
       <r>   -1.5494    1.0000 </r>
       <r>   -1.3252    1.0000 </r>
       <r>    0.7198    0.0000 </r>
       <r>    1.1995    0.0000 </r>
       <r>    1.7384    0.0000 </r>
       <r>    2.1662    0.0000 </r>
       <r>    2.1907    0.0000 </r>
       <r>    2.2283    0.0000 </r>
       <r>    2.2550    0.0000 </r>
       <r>    2.3053    0.0000 </r>
       <r>    2.3135    0.0000 </r>
       <r>    2.4613    0.0000 </r>
       <r>    6.0635    0.0000 </r>
       <r>    6.5033    0.0000 </r>
      </set>
      <set comment="kpoint 5">
       <r>  -35.0675    1.0000 </r>
       <r>  -33.9429    1.0000 </r>
       <r>  -33.9119    1.0000 </r>
       <r>  -33.7520    1.0000 </r>
       <r>  -18.5157    1.0000 </r>
       <r>  -18.4713    1.0000 </r>
       <r>  -18.4312    1.0000 </r>
       <r>  -17.9172    1.0000 </r>
       <r>  -17.5559    1.0000 </r>
       <r>  -17.5454    1.0000 </r>
       <r>  -17.5284    1.0000 </r>
       <r>  -17.5282    1.0000 </r>
       <r>  -17.4544    1.0000 </r>
       <r>  -17.3517    1.0000 </r>
       <r>  -17.3223    1.0000 </r>
       <r>  -16.9611    1.0000 </r>
       <r>  -16.9513    1.0000 </r>
       <r>  -16.8500    1.0000 </r>
       <r>  -16.3606    1.0000 </r>
       <r>  -15.9889    1.0000 </r>
       <r>  -15.9320    1.0000 </r>
       <r>  -15.8924    1.0000 </r>
       <r>  -15.8464    1.0000 </r>
       <r>  -15.7915    1.0000 </r>
       <r>  -15.7718    1.0000 </r>
       <r>  -15.6808    1.0000 </r>
       <r>  -15.6231    1.0000 </r>
       <r>  -15.4640    1.0000 </r>
       <r>   -5.2357    1.0000 </r>
       <r>   -4.8070    1.0000 </r>
       <r>   -4.5055    1.0000 </r>
       <r>   -4.3922    1.0000 </r>
       <r>   -4.3458    1.0000 </r>
       <r>   -4.2309    1.0000 </r>
       <r>   -4.0994    1.0000 </r>
       <r>   -4.0940    1.0000 </r>
       <r>   -4.0558    1.0000 </r>
       <r>   -4.0381    1.0000 </r>
       <r>   -3.9311    1.0000 </r>
       <r>   -3.8848    1.0000 </r>
       <r>   -3.6634    1.0000 </r>
       <r>   -3.5443    1.0000 </r>
       <r>   -3.3559    1.0000 </r>
       <r>   -3.2567    1.0000 </r>
       <r>   -3.0703    1.0000 </r>
       <r>   -3.0572    1.0000 </r>
       <r>   -2.9005    1.0000 </r>
       <r>   -2.8101    1.0000 </r>
       <r>   -2.7212    1.0000 </r>
       <r>   -2.5549    1.0000 </r>
       <r>   -2.4194    1.0000 </r>
       <r>   -2.3608    1.0000 </r>
       <r>   -2.1935    1.0000 </r>
       <r>   -2.1681    1.0000 </r>
       <r>   -2.1425    1.0000 </r>
       <r>   -2.1256    1.0000 </r>
       <r>   -2.1089    1.0000 </r>
       <r>   -2.0650    1.0000 </r>
       <r>   -1.9904    1.0000 </r>
       <r>   -1.9570    1.0000 </r>
       <r>   -1.8180    1.0000 </r>
       <r>   -1.7775    1.0000 </r>
       <r>   -1.6787    1.0000 </r>
       <r>   -1.2315    1.0000 </r>
       <r>    0.9150    0.0000 </r>
       <r>    1.0663    0.0000 </r>
       <r>    1.1602    0.0000 </r>
       <r>    1.2109    0.0000 </r>
       <r>    1.2539    0.0000 </r>
       <r>    1.3334    0.0000 </r>
       <r>    1.3697    0.0000 </r>
       <r>    1.4120    0.0000 </r>
       <r>    1.6086    0.0000 </r>
       <r>    1.8567    0.0000 </r>
       <r>    5.0975    0.0000 </r>
       <r>    5.2176    0.0000 </r>
      </set>
      <set comment="kpoint 6">
       <r>  -35.0610    1.0000 </r>
       <r>  -33.9351    1.0000 </r>
       <r>  -33.9044    1.0000 </r>
       <r>  -33.7443    1.0000 </r>
       <r>  -18.4599    1.0000 </r>
       <r>  -18.3821    1.0000 </r>
       <r>  -18.2634    1.0000 </r>
       <r>  -17.8901    1.0000 </r>
       <r>  -17.6991    1.0000 </r>
       <r>  -17.5947    1.0000 </r>
       <r>  -17.5597    1.0000 </r>
       <r>  -17.5108    1.0000 </r>
       <r>  -17.4495    1.0000 </r>
       <r>  -17.3690    1.0000 </r>
       <r>  -17.1995    1.0000 </r>
       <r>  -17.0045    1.0000 </r>
       <r>  -16.9018    1.0000 </r>
       <r>  -16.8397    1.0000 </r>
       <r>  -16.1858    1.0000 </r>
       <r>  -15.9895    1.0000 </r>
       <r>  -15.9264    1.0000 </r>
       <r>  -15.8866    1.0000 </r>
       <r>  -15.7656    1.0000 </r>
       <r>  -15.7629    1.0000 </r>
       <r>  -15.6891    1.0000 </r>
       <r>  -15.6356    1.0000 </r>
       <r>  -15.5505    1.0000 </r>
       <r>  -15.5175    1.0000 </r>
       <r>   -5.2713    1.0000 </r>
       <r>   -5.0664    1.0000 </r>
       <r>   -4.8952    1.0000 </r>
       <r>   -4.8583    1.0000 </r>
       <r>   -4.7458    1.0000 </r>
       <r>   -4.5906    1.0000 </r>
       <r>   -4.4929    1.0000 </r>
       <r>   -4.2564    1.0000 </r>
       <r>   -4.2183    1.0000 </r>
       <r>   -4.1729    1.0000 </r>
       <r>   -4.1512    1.0000 </r>
       <r>   -4.0967    1.0000 </r>
       <r>   -4.0238    1.0000 </r>
       <r>   -3.8526    1.0000 </r>
       <r>   -3.7674    1.0000 </r>
       <r>   -3.6938    1.0000 </r>
       <r>   -3.5753    1.0000 </r>
       <r>   -3.3370    1.0000 </r>
       <r>   -3.3109    1.0000 </r>
       <r>   -3.2303    1.0000 </r>
       <r>   -3.0759    1.0000 </r>
       <r>   -2.8417    1.0000 </r>
       <r>   -2.6591    1.0000 </r>
       <r>   -2.5788    1.0000 </r>
       <r>   -2.3669    1.0000 </r>
       <r>   -2.2898    1.0000 </r>
       <r>   -2.2511    1.0000 </r>
       <r>   -2.2055    1.0000 </r>
       <r>   -2.1497    1.0000 </r>
       <r>   -2.1268    1.0000 </r>
       <r>   -2.0558    1.0000 </r>
       <r>   -1.8715    1.0000 </r>
       <r>   -1.7961    1.0000 </r>
       <r>   -1.6468    1.0000 </r>
       <r>   -1.5660    1.0000 </r>
       <r>   -1.3084    1.0000 </r>
       <r>    1.0147    0.0000 </r>
       <r>    1.3752    0.0000 </r>
       <r>    1.6959    0.0000 </r>
       <r>    1.7646    0.0000 </r>
       <r>    1.7887    0.0000 </r>
       <r>    1.8075    0.0000 </r>
       <r>    1.8659    0.0000 </r>
       <r>    1.9148    0.0000 </r>
       <r>    2.1453    0.0000 </r>
       <r>    2.2527    0.0000 </r>
       <r>    5.8790    0.0000 </r>
       <r>    6.1448    0.0000 </r>
      </set>
      <set comment="kpoint 7">
       <r>  -35.0557    1.0000 </r>
       <r>  -33.9289    1.0000 </r>
       <r>  -33.8983    1.0000 </r>
       <r>  -33.7381    1.0000 </r>
       <r>  -18.5017    1.0000 </r>
       <r>  -18.3469    1.0000 </r>
       <r>  -18.1148    1.0000 </r>
       <r>  -17.8235    1.0000 </r>
       <r>  -17.7735    1.0000 </r>
       <r>  -17.6477    1.0000 </r>
       <r>  -17.5194    1.0000 </r>
       <r>  -17.5059    1.0000 </r>
       <r>  -17.4486    1.0000 </r>
       <r>  -17.3029    1.0000 </r>
       <r>  -17.0783    1.0000 </r>
       <r>  -17.0660    1.0000 </r>
       <r>  -16.8553    1.0000 </r>
       <r>  -16.8342    1.0000 </r>
       <r>  -16.0811    1.0000 </r>
       <r>  -15.9924    1.0000 </r>
       <r>  -15.9480    1.0000 </r>
       <r>  -15.8580    1.0000 </r>
       <r>  -15.7582    1.0000 </r>
       <r>  -15.7101    1.0000 </r>
       <r>  -15.6768    1.0000 </r>
       <r>  -15.5711    1.0000 </r>
       <r>  -15.5464    1.0000 </r>
       <r>  -15.4673    1.0000 </r>
       <r>   -5.4398    1.0000 </r>
       <r>   -5.3606    1.0000 </r>
       <r>   -5.3103    1.0000 </r>
       <r>   -5.2761    1.0000 </r>
       <r>   -5.1181    1.0000 </r>
       <r>   -4.9573    1.0000 </r>
       <r>   -4.8213    1.0000 </r>
       <r>   -4.6289    1.0000 </r>
       <r>   -4.4540    1.0000 </r>
       <r>   -4.3394    1.0000 </r>
       <r>   -4.1900    1.0000 </r>
       <r>   -4.1497    1.0000 </r>
       <r>   -4.1289    1.0000 </r>
       <r>   -4.0858    1.0000 </r>
       <r>   -4.0491    1.0000 </r>
       <r>   -3.9685    1.0000 </r>
       <r>   -3.7353    1.0000 </r>
       <r>   -3.5402    1.0000 </r>
       <r>   -3.4295    1.0000 </r>
       <r>   -3.3665    1.0000 </r>
       <r>   -3.2215    1.0000 </r>
       <r>   -2.9243    1.0000 </r>
       <r>   -2.7445    1.0000 </r>
       <r>   -2.6899    1.0000 </r>
       <r>   -2.4351    1.0000 </r>
       <r>   -2.3580    1.0000 </r>
       <r>   -2.3239    1.0000 </r>
       <r>   -2.2930    1.0000 </r>
       <r>   -2.2619    1.0000 </r>
       <r>   -2.1698    1.0000 </r>
       <r>   -2.0701    1.0000 </r>
       <r>   -1.9894    1.0000 </r>
       <r>   -1.8689    1.0000 </r>
       <r>   -1.5864    1.0000 </r>
       <r>   -1.4056    1.0000 </r>
       <r>   -1.3001    1.0000 </r>
       <r>    1.0511    0.0000 </r>
       <r>    1.4257    0.0000 </r>
       <r>    1.8701    0.0000 </r>
       <r>    2.2323    0.0000 </r>
       <r>    2.2424    0.0000 </r>
       <r>    2.2583    0.0000 </r>
       <r>    2.3039    0.0000 </r>
       <r>    2.3227    0.0000 </r>
       <r>    2.3797    0.0000 </r>
       <r>    2.4757    0.0000 </r>
       <r>    2.6443    0.0000 </r>
       <r>    6.5769    0.0000 </r>
      </set>
      <set comment="kpoint 8">
       <r>  -35.0547    1.0000 </r>
       <r>  -33.9278    1.0000 </r>
       <r>  -33.8972    1.0000 </r>
       <r>  -33.7369    1.0000 </r>
       <r>  -18.3268    1.0000 </r>
       <r>  -18.2276    1.0000 </r>
       <r>  -18.0713    1.0000 </r>
       <r>  -17.7716    1.0000 </r>
       <r>  -17.6830    1.0000 </r>
       <r>  -17.5966    1.0000 </r>
       <r>  -17.5378    1.0000 </r>
       <r>  -17.4672    1.0000 </r>
       <r>  -17.4456    1.0000 </r>
       <r>  -17.4395    1.0000 </r>
       <r>  -17.0721    1.0000 </r>
       <r>  -16.9886    1.0000 </r>
       <r>  -16.9035    1.0000 </r>
       <r>  -16.8407    1.0000 </r>
       <r>  -16.2464    1.0000 </r>
       <r>  -16.0310    1.0000 </r>
       <r>  -15.9488    1.0000 </r>
       <r>  -15.8888    1.0000 </r>
       <r>  -15.8458    1.0000 </r>
       <r>  -15.7540    1.0000 </r>
       <r>  -15.6999    1.0000 </r>
       <r>  -15.6624    1.0000 </r>
       <r>  -15.5868    1.0000 </r>
       <r>  -15.5570    1.0000 </r>
       <r>   -5.2862    1.0000 </r>
       <r>   -5.1305    1.0000 </r>
       <r>   -5.0595    1.0000 </r>
       <r>   -4.9380    1.0000 </r>
       <r>   -4.7667    1.0000 </r>
       <r>   -4.6359    1.0000 </r>
       <r>   -4.5856    1.0000 </r>
       <r>   -4.5577    1.0000 </r>
       <r>   -4.5543    1.0000 </r>
       <r>   -4.4652    1.0000 </r>
       <r>   -4.4484    1.0000 </r>
       <r>   -4.4120    1.0000 </r>
       <r>   -4.3150    1.0000 </r>
       <r>   -4.2246    1.0000 </r>
       <r>   -4.1755    1.0000 </r>
       <r>   -4.1451    1.0000 </r>
       <r>   -4.0974    1.0000 </r>
       <r>   -4.0649    1.0000 </r>
       <r>   -3.7475    1.0000 </r>
       <r>   -3.7293    1.0000 </r>
       <r>   -3.4893    1.0000 </r>
       <r>   -3.1903    1.0000 </r>
       <r>   -3.1248    1.0000 </r>
       <r>   -2.7134    1.0000 </r>
       <r>   -2.4683    1.0000 </r>
       <r>   -2.2827    1.0000 </r>
       <r>   -2.0133    1.0000 </r>
       <r>   -1.9746    1.0000 </r>
       <r>   -1.9049    1.0000 </r>
       <r>   -1.8336    1.0000 </r>
       <r>   -1.8166    1.0000 </r>
       <r>   -1.7165    1.0000 </r>
       <r>   -1.7074    1.0000 </r>
       <r>   -1.5669    1.0000 </r>
       <r>   -1.4940    1.0000 </r>
       <r>   -0.9158    1.0000 </r>
       <r>    1.5985    0.0000 </r>
       <r>    1.8149    0.0000 </r>
       <r>    1.8453    0.0000 </r>
       <r>    1.9813    0.0000 </r>
       <r>    2.0745    0.0000 </r>
       <r>    2.0899    0.0000 </r>
       <r>    2.1550    0.0000 </r>
       <r>    2.2257    0.0000 </r>
       <r>    2.2409    0.0000 </r>
       <r>    2.3336    0.0000 </r>
       <r>    2.4815    0.0000 </r>
       <r>    2.5127    0.0000 </r>
      </set>
      <set comment="kpoint 9">
       <r>  -35.0497    1.0000 </r>
       <r>  -33.9219    1.0000 </r>
       <r>  -33.8914    1.0000 </r>
       <r>  -33.7310    1.0000 </r>
       <r>  -18.2598    1.0000 </r>
       <r>  -18.1176    1.0000 </r>
       <r>  -17.9075    1.0000 </r>
       <r>  -17.7398    1.0000 </r>
       <r>  -17.6466    1.0000 </r>
       <r>  -17.6008    1.0000 </r>
       <r>  -17.5233    1.0000 </r>
       <r>  -17.4620    1.0000 </r>
       <r>  -17.4139    1.0000 </r>
       <r>  -17.2845    1.0000 </r>
       <r>  -17.0917    1.0000 </r>
       <r>  -16.9501    1.0000 </r>
       <r>  -16.8618    1.0000 </r>
       <r>  -16.8452    1.0000 </r>
       <r>  -16.3084    1.0000 </r>
       <r>  -16.0681    1.0000 </r>
       <r>  -16.0044    1.0000 </r>
       <r>  -15.9188    1.0000 </r>
       <r>  -15.8403    1.0000 </r>
       <r>  -15.7954    1.0000 </r>
       <r>  -15.6972    1.0000 </r>
       <r>  -15.6690    1.0000 </r>
       <r>  -15.6354    1.0000 </r>
       <r>  -15.5522    1.0000 </r>
       <r>   -5.4408    1.0000 </r>
       <r>   -5.3727    1.0000 </r>
       <r>   -5.3315    1.0000 </r>
       <r>   -5.1139    1.0000 </r>
       <r>   -5.0383    1.0000 </r>
       <r>   -5.0240    1.0000 </r>
       <r>   -4.9209    1.0000 </r>
       <r>   -4.8191    1.0000 </r>
       <r>   -4.7528    1.0000 </r>
       <r>   -4.6919    1.0000 </r>
       <r>   -4.6350    1.0000 </r>
       <r>   -4.6005    1.0000 </r>
       <r>   -4.5337    1.0000 </r>
       <r>   -4.4692    1.0000 </r>
       <r>   -4.4364    1.0000 </r>
       <r>   -4.2644    1.0000 </r>
       <r>   -4.1459    1.0000 </r>
       <r>   -4.0572    1.0000 </r>
       <r>   -3.9913    1.0000 </r>
       <r>   -3.9154    1.0000 </r>
       <r>   -3.6277    1.0000 </r>
       <r>   -3.4883    1.0000 </r>
       <r>   -3.1359    1.0000 </r>
       <r>   -2.6169    1.0000 </r>
       <r>   -2.5265    1.0000 </r>
       <r>   -2.3684    1.0000 </r>
       <r>   -2.0450    1.0000 </r>
       <r>   -1.9873    1.0000 </r>
       <r>   -1.7702    1.0000 </r>
       <r>   -1.7081    1.0000 </r>
       <r>   -1.6868    1.0000 </r>
       <r>   -1.6500    1.0000 </r>
       <r>   -1.6198    1.0000 </r>
       <r>   -1.4964    1.0000 </r>
       <r>   -1.2945    1.0000 </r>
       <r>   -0.7582    1.0000 </r>
       <r>    1.7142    0.0000 </r>
       <r>    1.9548    0.0000 </r>
       <r>    2.2251    0.0000 </r>
       <r>    2.2589    0.0000 </r>
       <r>    2.3848    0.0000 </r>
       <r>    2.4281    0.0000 </r>
       <r>    2.5007    0.0000 </r>
       <r>    2.5127    0.0000 </r>
       <r>    2.5273    0.0000 </r>
       <r>    2.5843    0.0000 </r>
       <r>    2.7130    0.0000 </r>
       <r>    6.4519    0.0000 </r>
      </set>
      <set comment="kpoint 10">
       <r>  -35.0448    1.0000 </r>
       <r>  -33.9163    1.0000 </r>
       <r>  -33.8858    1.0000 </r>
       <r>  -33.7254    1.0000 </r>
       <r>  -17.9871    1.0000 </r>
       <r>  -17.8717    1.0000 </r>
       <r>  -17.7672    1.0000 </r>
       <r>  -17.6984    1.0000 </r>
       <r>  -17.6485    1.0000 </r>
       <r>  -17.5626    1.0000 </r>
       <r>  -17.4601    1.0000 </r>
       <r>  -17.4421    1.0000 </r>
       <r>  -17.4125    1.0000 </r>
       <r>  -17.2751    1.0000 </r>
       <r>  -16.9867    1.0000 </r>
       <r>  -16.8823    1.0000 </r>
       <r>  -16.8579    1.0000 </r>
       <r>  -16.8275    1.0000 </r>
       <r>  -16.5730    1.0000 </r>
       <r>  -16.1117    1.0000 </r>
       <r>  -16.0579    1.0000 </r>
       <r>  -16.0575    1.0000 </r>
       <r>  -15.9457    1.0000 </r>
       <r>  -15.8116    1.0000 </r>
       <r>  -15.7846    1.0000 </r>
       <r>  -15.7235    1.0000 </r>
       <r>  -15.6115    1.0000 </r>
       <r>  -15.5934    1.0000 </r>
       <r>   -5.5548    1.0000 </r>
       <r>   -5.4984    1.0000 </r>
       <r>   -5.4599    1.0000 </r>
       <r>   -5.4041    1.0000 </r>
       <r>   -5.1922    1.0000 </r>
       <r>   -5.1827    1.0000 </r>
       <r>   -5.1288    1.0000 </r>
       <r>   -5.1052    1.0000 </r>
       <r>   -5.1043    1.0000 </r>
       <r>   -4.9401    1.0000 </r>
       <r>   -4.8848    1.0000 </r>
       <r>   -4.7508    1.0000 </r>
       <r>   -4.7241    1.0000 </r>
       <r>   -4.6844    1.0000 </r>
       <r>   -4.5151    1.0000 </r>
       <r>   -4.4567    1.0000 </r>
       <r>   -4.4434    1.0000 </r>
       <r>   -4.2464    1.0000 </r>
       <r>   -4.1391    1.0000 </r>
       <r>   -4.1017    1.0000 </r>
       <r>   -3.6966    1.0000 </r>
       <r>   -3.5621    1.0000 </r>
       <r>   -3.4138    1.0000 </r>
       <r>   -2.4953    1.0000 </r>
       <r>   -2.4683    1.0000 </r>
       <r>   -2.4030    1.0000 </r>
       <r>   -1.9981    1.0000 </r>
       <r>   -1.9582    1.0000 </r>
       <r>   -1.5926    1.0000 </r>
       <r>   -1.5543    1.0000 </r>
       <r>   -1.3314    1.0000 </r>
       <r>   -1.3270    1.0000 </r>
       <r>   -1.3086    1.0000 </r>
       <r>   -1.2554    1.0000 </r>
       <r>   -1.2503    1.0000 </r>
       <r>   -0.4278    1.0000 </r>
       <r>    2.2332    0.0000 </r>
       <r>    2.2821    0.0000 </r>
       <r>    2.4130    0.0000 </r>
       <r>    2.4519    0.0000 </r>
       <r>    2.6186    0.0000 </r>
       <r>    2.6551    0.0000 </r>
       <r>    2.6954    0.0000 </r>
       <r>    2.7603    0.0000 </r>
       <r>    2.7827    0.0000 </r>
       <r>    6.0356    0.0000 </r>
       <r>    6.1705    0.0000 </r>
       <r>    6.2372    0.0000 </r>
      </set>
     </set>
    </set>
   </array>
  </eigenvalues>
  <separator name="orbital magnetization" >
   <v name="MAGDIPOLOUT">      0.00000000      0.00000000      0.00000000</v>
  </separator>
  <dos>
   <i name="efermi">     -0.42725810 </i>
   <total>
    <array>
     <dimension dim="1">gridpoints</dimension>
     <dimension dim="2">spin</dimension>
     <field>energy</field>
     <field>total</field>
     <field>integrated</field>
     <set>
      <set comment="spin 1">
       <r>   -37.1558     0.0000     0.0000 </r>
       <r>   -37.0031     0.0000     0.0000 </r>
       <r>   -36.8504     0.0000     0.0000 </r>
       <r>   -36.6976     0.0000     0.0000 </r>
       <r>   -36.5449     0.0000     0.0000 </r>
       <r>   -36.3922     0.0000     0.0000 </r>
       <r>   -36.2395     0.0000     0.0000 </r>
       <r>   -36.0868     0.0000     0.0000 </r>
       <r>   -35.9340     0.0000     0.0000 </r>
       <r>   -35.7813     0.0000     0.0000 </r>
       <r>   -35.6286     0.0000     0.0000 </r>
       <r>   -35.4759     0.0000     0.0000 </r>
       <r>   -35.3232     0.0000     0.0000 </r>
       <r>   -35.1705     0.0000     0.0000 </r>
       <r>   -35.0177     0.0000     2.0000 </r>
       <r>   -34.8650     0.0000     2.0000 </r>
       <r>   -34.7123     0.0000     2.0000 </r>
       <r>   -34.5596     0.0000     2.0000 </r>
       <r>   -34.4069     0.0000     2.0000 </r>
       <r>   -34.2542     0.0000     2.0000 </r>
       <r>   -34.1014     0.0000     2.0000 </r>
       <r>   -33.9487    14.4203     2.0078 </r>
       <r>   -33.7960     0.0000     6.0000 </r>
       <r>   -33.6433     0.0000     8.0000 </r>
       <r>   -33.4906     0.0000     8.0000 </r>
       <r>   -33.3379     0.0000     8.0000 </r>
       <r>   -33.1851     0.0000     8.0000 </r>
       <r>   -33.0324     0.0000     8.0000 </r>
       <r>   -32.8797     0.0000     8.0000 </r>
       <r>   -32.7270     0.0000     8.0000 </r>
       <r>   -32.5743     0.0000     8.0000 </r>
       <r>   -32.4215     0.0000     8.0000 </r>
       <r>   -32.2688     0.0000     8.0000 </r>
       <r>   -32.1161     0.0000     8.0000 </r>
       <r>   -31.9634     0.0000     8.0000 </r>
       <r>   -31.8107     0.0000     8.0000 </r>
       <r>   -31.6580     0.0000     8.0000 </r>
       <r>   -31.5052     0.0000     8.0000 </r>
       <r>   -31.3525     0.0000     8.0000 </r>
       <r>   -31.1998     0.0000     8.0000 </r>
       <r>   -31.0471     0.0000     8.0000 </r>
       <r>   -30.8944     0.0000     8.0000 </r>
       <r>   -30.7417     0.0000     8.0000 </r>
       <r>   -30.5889     0.0000     8.0000 </r>
       <r>   -30.4362     0.0000     8.0000 </r>
       <r>   -30.2835     0.0000     8.0000 </r>
       <r>   -30.1308     0.0000     8.0000 </r>
       <r>   -29.9781     0.0000     8.0000 </r>
       <r>   -29.8254     0.0000     8.0000 </r>
       <r>   -29.6726     0.0000     8.0000 </r>
       <r>   -29.5199     0.0000     8.0000 </r>
       <r>   -29.3672     0.0000     8.0000 </r>
       <r>   -29.2145     0.0000     8.0000 </r>
       <r>   -29.0618     0.0000     8.0000 </r>
       <r>   -28.9090     0.0000     8.0000 </r>
       <r>   -28.7563     0.0000     8.0000 </r>
       <r>   -28.6036     0.0000     8.0000 </r>
       <r>   -28.4509     0.0000     8.0000 </r>
       <r>   -28.2982     0.0000     8.0000 </r>
       <r>   -28.1455     0.0000     8.0000 </r>
       <r>   -27.9927     0.0000     8.0000 </r>
       <r>   -27.8400     0.0000     8.0000 </r>
       <r>   -27.6873     0.0000     8.0000 </r>
       <r>   -27.5346     0.0000     8.0000 </r>
       <r>   -27.3819     0.0000     8.0000 </r>
       <r>   -27.2292     0.0000     8.0000 </r>
       <r>   -27.0764     0.0000     8.0000 </r>
       <r>   -26.9237     0.0000     8.0000 </r>
       <r>   -26.7710     0.0000     8.0000 </r>
       <r>   -26.6183     0.0000     8.0000 </r>
       <r>   -26.4656     0.0000     8.0000 </r>
       <r>   -26.3129     0.0000     8.0000 </r>
       <r>   -26.1601     0.0000     8.0000 </r>
       <r>   -26.0074     0.0000     8.0000 </r>
       <r>   -25.8547     0.0000     8.0000 </r>
       <r>   -25.7020     0.0000     8.0000 </r>
       <r>   -25.5493     0.0000     8.0000 </r>
       <r>   -25.3965     0.0000     8.0000 </r>
       <r>   -25.2438     0.0000     8.0000 </r>
       <r>   -25.0911     0.0000     8.0000 </r>
       <r>   -24.9384     0.0000     8.0000 </r>
       <r>   -24.7857     0.0000     8.0000 </r>
       <r>   -24.6330     0.0000     8.0000 </r>
       <r>   -24.4802     0.0000     8.0000 </r>
       <r>   -24.3275     0.0000     8.0000 </r>
       <r>   -24.1748     0.0000     8.0000 </r>
       <r>   -24.0221     0.0000     8.0000 </r>
       <r>   -23.8694     0.0000     8.0000 </r>
       <r>   -23.7167     0.0000     8.0000 </r>
       <r>   -23.5639     0.0000     8.0000 </r>
       <r>   -23.4112     0.0000     8.0000 </r>
       <r>   -23.2585     0.0000     8.0000 </r>
       <r>   -23.1058     0.0000     8.0000 </r>
       <r>   -22.9531     0.0000     8.0000 </r>
       <r>   -22.8004     0.0000     8.0000 </r>
       <r>   -22.6476     0.0000     8.0000 </r>
       <r>   -22.4949     0.0000     8.0000 </r>
       <r>   -22.3422     0.0000     8.0000 </r>
       <r>   -22.1895     0.0000     8.0000 </r>
       <r>   -22.0368     0.0000     8.0000 </r>
       <r>   -21.8840     0.0000     8.0000 </r>
       <r>   -21.7313     0.0000     8.0000 </r>
       <r>   -21.5786     0.0000     8.0000 </r>
       <r>   -21.4259     0.0000     8.0000 </r>
       <r>   -21.2732     0.0000     8.0000 </r>
       <r>   -21.1205     0.0000     8.0000 </r>
       <r>   -20.9677     0.0000     8.0000 </r>
       <r>   -20.8150     0.0000     8.0000 </r>
       <r>   -20.6623     0.0000     8.0000 </r>
       <r>   -20.5096     0.0000     8.0000 </r>
       <r>   -20.3569     0.0000     8.0000 </r>
       <r>   -20.2042     0.0000     8.0000 </r>
       <r>   -20.0514     0.0000     8.0000 </r>
       <r>   -19.8987     0.0000     8.0000 </r>
       <r>   -19.7460     0.0000     8.0000 </r>
       <r>   -19.5933     0.0000     8.0000 </r>
       <r>   -19.4406     0.0000     8.0000 </r>
       <r>   -19.2879     0.0000     8.0000 </r>
       <r>   -19.1351     0.0000     8.0000 </r>
       <r>   -18.9824     0.0000     8.0000 </r>
       <r>   -18.8297     0.0000     8.0000 </r>
       <r>   -18.6770     0.0000     8.0000 </r>
       <r>   -18.5243    13.6706     8.6615 </r>
       <r>   -18.3715    11.7101    10.7524 </r>
       <r>   -18.2188     6.9502    12.0317 </r>
       <r>   -18.0661     4.4921    13.0566 </r>
       <r>   -17.9134    13.9706    14.0825 </r>
       <r>   -17.7607    12.3430    15.9083 </r>
       <r>   -17.6080    19.2678    18.5039 </r>
       <r>   -17.4552    15.6537    23.8054 </r>
       <r>   -17.3025    14.9704    27.5526 </r>
       <r>   -17.1498     5.8482    28.8321 </r>
       <r>   -16.9971    22.7203    30.5230 </r>
       <r>   -16.8444    93.1872    34.3614 </r>
       <r>   -16.6917     0.1163    36.0024 </r>
       <r>   -16.5389     1.2640    36.1163 </r>
       <r>   -16.3862     2.4820    36.4093 </r>
       <r>   -16.2335     5.8392    37.0206 </r>
       <r>   -16.0808    10.6273    37.9391 </r>
       <r>   -15.9281    79.9734    42.0785 </r>
       <r>   -15.7754    47.5731    46.5897 </r>
       <r>   -15.6226    28.5799    51.5095 </r>
       <r>   -15.4699    15.2228    55.3659 </r>
       <r>   -15.3172     0.0000    56.0000 </r>
       <r>   -15.1645     0.0000    56.0000 </r>
       <r>   -15.0118     0.0000    56.0000 </r>
       <r>   -14.8590     0.0000    56.0000 </r>
       <r>   -14.7063     0.0000    56.0000 </r>
       <r>   -14.5536     0.0000    56.0000 </r>
       <r>   -14.4009     0.0000    56.0000 </r>
       <r>   -14.2482     0.0000    56.0000 </r>
       <r>   -14.0955     0.0000    56.0000 </r>
       <r>   -13.9427     0.0000    56.0000 </r>
       <r>   -13.7900     0.0000    56.0000 </r>
       <r>   -13.6373     0.0000    56.0000 </r>
       <r>   -13.4846     0.0000    56.0000 </r>
       <r>   -13.3319     0.0000    56.0000 </r>
       <r>   -13.1792     0.0000    56.0000 </r>
       <r>   -13.0264     0.0000    56.0000 </r>
       <r>   -12.8737     0.0000    56.0000 </r>
       <r>   -12.7210     0.0000    56.0000 </r>
       <r>   -12.5683     0.0000    56.0000 </r>
       <r>   -12.4156     0.0000    56.0000 </r>
       <r>   -12.2629     0.0000    56.0000 </r>
       <r>   -12.1101     0.0000    56.0000 </r>
       <r>   -11.9574     0.0000    56.0000 </r>
       <r>   -11.8047     0.0000    56.0000 </r>
       <r>   -11.6520     0.0000    56.0000 </r>
       <r>   -11.4993     0.0000    56.0000 </r>
       <r>   -11.3466     0.0000    56.0000 </r>
       <r>   -11.1938     0.0000    56.0000 </r>
       <r>   -11.0411     0.0000    56.0000 </r>
       <r>   -10.8884     0.0000    56.0000 </r>
       <r>   -10.7357     0.0000    56.0000 </r>
       <r>   -10.5830     0.0000    56.0000 </r>
       <r>   -10.4302     0.0000    56.0000 </r>
       <r>   -10.2775     0.0000    56.0000 </r>
       <r>   -10.1248     0.0000    56.0000 </r>
       <r>    -9.9721     0.0000    56.0000 </r>
       <r>    -9.8194     0.0000    56.0000 </r>
       <r>    -9.6667     0.0000    56.0000 </r>
       <r>    -9.5139     0.0000    56.0000 </r>
       <r>    -9.3612     0.0000    56.0000 </r>
       <r>    -9.2085     0.0000    56.0000 </r>
       <r>    -9.0558     0.0000    56.0000 </r>
       <r>    -8.9031     0.0000    56.0000 </r>
       <r>    -8.7504     0.0000    56.0000 </r>
       <r>    -8.5976     0.0000    56.0000 </r>
       <r>    -8.4449     0.0000    56.0000 </r>
       <r>    -8.2922     0.0000    56.0000 </r>
       <r>    -8.1395     0.0000    56.0000 </r>
       <r>    -7.9868     0.0000    56.0000 </r>
       <r>    -7.8341     0.0000    56.0000 </r>
       <r>    -7.6813     0.0000    56.0000 </r>
       <r>    -7.5286     0.0000    56.0000 </r>
       <r>    -7.3759     0.0000    56.0000 </r>
       <r>    -7.2232     0.0000    56.0000 </r>
       <r>    -7.0705     0.0000    56.0000 </r>
       <r>    -6.9177     0.0000    56.0000 </r>
       <r>    -6.7650     0.0000    56.0000 </r>
       <r>    -6.6123     0.0000    56.0000 </r>
       <r>    -6.4596     0.0000    56.0000 </r>
       <r>    -6.3069     0.0000    56.0000 </r>
       <r>    -6.1542     0.0000    56.0000 </r>
       <r>    -6.0014     0.0000    56.0000 </r>
       <r>    -5.8487     0.0000    56.0000 </r>
       <r>    -5.6960     0.0000    56.0000 </r>
       <r>    -5.5433     1.5650    56.0581 </r>
       <r>    -5.3906    12.0739    57.3979 </r>
       <r>    -5.2379    16.2255    59.9722 </r>
       <r>    -5.0851    15.4627    62.1692 </r>
       <r>    -4.9324    13.1087    64.5537 </r>
       <r>    -4.7797    14.9657    66.9192 </r>
       <r>    -4.6270    17.0742    69.6871 </r>
       <r>    -4.4743    17.6880    72.2859 </r>
       <r>    -4.3216    19.3129    75.3214 </r>
       <r>    -4.1688    23.3450    78.5381 </r>
       <r>    -4.0161    27.6784    82.7776 </r>
       <r>    -3.8634    14.6643    86.1513 </r>
       <r>    -3.7107    11.8043    88.1172 </r>
       <r>    -3.5580    14.1774    90.2536 </r>
       <r>    -3.4052    12.7702    92.4452 </r>
       <r>    -3.2525    12.9718    94.5201 </r>
       <r>    -3.0998    10.6690    96.3521 </r>
       <r>    -2.9471     8.5739    97.9484 </r>
       <r>    -2.7944    11.1530    99.4852 </r>
       <r>    -2.6417    16.8749   101.7391 </r>
       <r>    -2.4889    18.6940   103.9702 </r>
       <r>    -2.3362    22.1344   107.0810 </r>
       <r>    -2.1835    20.6493   110.1095 </r>
       <r>    -2.0308    27.9033   113.8196 </r>
       <r>    -1.8781    17.7996   117.0109 </r>
       <r>    -1.7254    18.3002   120.1989 </r>
       <r>    -1.5726    17.6622   122.9110 </r>
       <r>    -1.4199     9.6882   124.8971 </r>
       <r>    -1.2672     9.3687   126.7585 </r>
       <r>    -1.1145     1.7253   127.2845 </r>
       <r>    -0.9618     1.0745   127.4839 </r>
       <r>    -0.8091     1.0994   127.6425 </r>
       <r>    -0.6563     0.8966   127.8003 </r>
       <r>    -0.5036     0.6277   127.9167 </r>
       <r>    -0.3509     0.0000   128.0000 </r>
       <r>    -0.1982     0.0000   128.0000 </r>
       <r>    -0.0455     0.0000   128.0000 </r>
       <r>     0.1073     0.0000   128.0000 </r>
       <r>     0.2600     0.0000   128.0000 </r>
       <r>     0.4127     0.0000   128.0000 </r>
       <r>     0.5654     0.4513   128.0125 </r>
       <r>     0.7181     3.0813   128.2229 </r>
       <r>     0.8708     4.1233   128.8132 </r>
       <r>     1.0236     5.0562   129.5504 </r>
       <r>     1.1763     5.9087   130.3352 </r>
       <r>     1.3290     8.2667   131.5424 </r>
       <r>     1.4817     6.8741   132.7003 </r>
       <r>     1.6344     7.7884   133.8444 </r>
       <r>     1.7871    11.6679   135.4212 </r>
       <r>     1.9399    11.1642   137.1334 </r>
       <r>     2.0926    12.5097   138.9197 </r>
       <r>     2.2453    26.2742   141.5694 </r>
       <r>     2.3980    13.7721   144.5485 </r>
       <r>     2.5507     8.6820   146.4415 </r>
       <r>     2.7034     5.1261   147.5735 </r>
       <r>     2.8562     0.7579   147.8966 </r>
       <r>     3.0089     0.7571   148.0123 </r>
       <r>     3.1616     0.7563   148.1279 </r>
       <r>     3.3143     0.7555   148.2433 </r>
       <r>     3.4670     0.7547   148.3586 </r>
       <r>     3.6198     0.7539   148.4738 </r>
       <r>     3.7725     0.7531   148.5889 </r>
       <r>     3.9252     0.7524   148.7038 </r>
       <r>     4.0779     0.7516   148.8187 </r>
       <r>     4.2306     0.7508   148.9334 </r>
       <r>     4.3833     0.7500   149.0480 </r>
       <r>     4.5361     0.9209   149.1705 </r>
       <r>     4.6888     1.2036   149.3327 </r>
       <r>     4.8415     1.2647   149.5253 </r>
       <r>     4.9942     1.1279   149.7080 </r>
       <r>     5.1469     1.0439   149.8711 </r>
       <r>     5.2996     1.3586   150.0939 </r>
       <r>     5.4524     1.2550   150.2934 </r>
       <r>     5.6051     1.1565   150.4772 </r>
       <r>     5.7578     1.1204   150.6511 </r>
       <r>     5.9105     0.9480   150.8152 </r>
       <r>     6.0632     0.8275   150.9939 </r>
       <r>     6.2159     0.7224   151.1475 </r>
       <r>     6.3687     1.8996   151.4283 </r>
       <r>     6.5214     4.1452   151.7871 </r>
       <r>     6.6741     0.0000   152.0000 </r>
       <r>     6.8268     0.0000   152.0000 </r>
       <r>     6.9795     0.0000   152.0000 </r>
       <r>     7.1323     0.0000   152.0000 </r>
       <r>     7.2850     0.0000   152.0000 </r>
       <r>     7.4377     0.0000   152.0000 </r>
       <r>     7.5904     0.0000   152.0000 </r>
       <r>     7.7431     0.0000   152.0000 </r>
       <r>     7.8958     0.0000   152.0000 </r>
       <r>     8.0486     0.0000   152.0000 </r>
       <r>     8.2013     0.0000   152.0000 </r>
       <r>     8.3540     0.0000   152.0000 </r>
       <r>     8.5067     0.0000   152.0000 </r>
       <r>     8.6594     0.0000   152.0000 </r>
      </set>
     </set>
    </array>
   </total>
  </dos>
 </calculation>
 <structure name="finalpos" >
  <crystal>
   <varray name="basis" >
    <v>       3.94684634       0.00000000       0.00000000 </v>
    <v>       0.00000000       3.94684634       0.00000000 </v>
    <v>       0.00000000       0.00000000      33.81396220 </v>
   </varray>
   <i name="volume">    526.74024374 </i>
   <varray name="rec_basis" >
    <v>       0.25336684       0.00000000       0.00000000 </v>
    <v>       0.00000000       0.25336684       0.00000000 </v>
    <v>       0.00000000       0.00000000       0.02957358 </v>
   </varray>
  </crystal>
  <varray name="positions" >
   <v>       0.50000000       0.50000000       0.29573582 </v>
   <v>       0.50000000       0.00000000       0.35409702 </v>
   <v>       0.00000000       0.50000000       0.35409702 </v>
   <v>       0.50000000       0.50000000       0.41245821 </v>
   <v>       0.50000000       0.00000000       0.47081940 </v>
   <v>       0.00000000       0.50000000       0.47081940 </v>
   <v>       0.50000000       0.50000000       0.52918060 </v>
   <v>       0.50000000       0.00000000       0.58754179 </v>
   <v>       0.00000000       0.50000000       0.58754179 </v>
   <v>       0.50000000       0.50000000       0.64590298 </v>
   <v>       0.50000000       0.00000000       0.70426418 </v>
   <v>       0.00000000       0.50000000       0.70426418 </v>
   <v>       0.00000000       0.00000000       0.29573582 </v>
   <v>       0.00000000       0.00000000       0.41245821 </v>
   <v>       0.00000000       0.00000000       0.52918060 </v>
   <v>       0.00000000       0.00000000       0.64590298 </v>
   <v>       0.50000000       0.50000000       0.35409702 </v>
   <v>       0.50000000       0.50000000       0.47081940 </v>
   <v>       0.50000000       0.50000000       0.58754179 </v>
   <v>       0.50000000       0.50000000       0.70426418 </v>
  </varray>
 </structure>
</modeling>
