unknown system                          
           1
     3.946846    0.000000    0.000000
     0.000000    3.946846    0.000000
     0.000000    0.000000   33.813962
   O    Sr   Ti
  12   4   4
Direct configuration=     1
   0.50000000  0.50000000  0.29573582
   0.50000000  0.00000000  0.35409702
   0.00000000  0.50000000  0.35409702
   0.50000000  0.50000000  0.41245821
   0.50000000  0.00000000  0.47081940
   0.00000000  0.50000000  0.47081940
   0.50000000  0.50000000  0.52918060
   0.50000000  0.00000000  0.58754179
   0.00000000  0.50000000  0.58754179
   0.50000000  0.50000000  0.64590298
   0.50000000  0.00000000  0.70426418
   0.00000000  0.50000000  0.70426418
   0.00000000  0.00000000  0.29573582
   0.00000000  0.00000000  0.41245821
   0.00000000  0.00000000  0.52918060
   0.00000000  0.00000000  0.64590298
   0.50000000  0.50000000  0.35409702
   0.50000000  0.50000000  0.47081940
   0.50000000  0.50000000  0.58754179
   0.50000000  0.50000000  0.70426418
