unknown system                          
   1.00000000000000     
     4.913700    0.000000    0.000000
    -2.456850    4.255389    0.000000
     0.000000    0.000000    5.405130
   Si   O 
     3     6
Direct
  0.469800  0.020000  0.666670
  0.000000  0.469800  0.333330
  0.530200  0.530200  0.000000
  0.414500  0.266200  0.785600
  0.733800  0.148300  0.452270
  0.851700  0.585500  0.118930
  0.148300  0.733800  0.547730
  0.266200  0.414500  0.214400
  0.585500  0.851700  0.881070
 
   60   60   64
  1.4864      1.4244      1.4022      1.4086      1.4379      1.4880      1.5579      1.6467      1.7520      1.8709    
  2.0000      2.1358      2.2748      2.4141      2.5505      2.6810      2.8035      2.9180      3.0296      3.1504    
  3.2990      3.4982      3.7728      4.1490      4.6587      5.3465      6.2739      7.5170      9.1570      11.267    
  13.898      17.079      20.804      25.026      29.636      34.430      39.093      43.210      46.328      48.047    
  48.118      46.517      43.448      39.290      34.500      29.514      24.679      20.228      16.295      12.935    
  10.154      7.9186      6.1710      4.8338      3.8244      3.0677      2.5041      2.0911      1.7992      1.6047    
  1.4391      1.3741      1.3527      1.3644      1.4037      1.4687      1.5589      1.6734      1.8099      1.9650    
  2.1343      2.3131      2.4959      2.6776      2.8526      3.0160      3.1632      3.2914      3.4009      3.4980    
  3.5960      3.7145      3.8771      4.1085      4.4347      4.8868      5.5063      6.3479      7.4755      8.9533    
  10.832      13.140      15.873      18.993      22.420      26.018      29.586      32.856      35.521      37.283    
  37.916      37.328      35.579      32.871      29.497      25.772      21.983      18.354      15.036      12.121    
  9.6482      7.6186      6.0003      4.7390      3.7706      3.0332      2.4758      2.0617      1.7644      1.5632    
  1.4302      1.3663      1.3483      1.3664      1.4157      1.4948      1.6037      1.7419      1.9076      2.0973    
  2.3065      2.5298      2.7607      2.9916      3.2147      3.4219      3.6059      3.7607      3.8826      3.9727    
  4.0385      4.0953      4.1643      4.2705      4.4392      4.6963      5.0712      5.6012      6.3321      7.3151    
  8.5972      10.210      12.161      14.425      16.945      19.625      22.326      24.871      27.055      28.664    
  29.519      29.512      28.632      26.968      24.689      22.009      19.142      16.281      13.574      11.124    
  8.9940      7.2052      5.7486      4.5910      3.6862      2.9861      2.4497      2.0464      1.7537      1.5539    
  1.4490      1.3911      1.3798      1.4065      1.4669      1.5602      1.6871      1.8479      2.0412      2.2643    
  2.5132      2.7825      3.0654      3.3529      3.6345      3.8988      4.1345      4.3314      4.4816      4.5814    
  4.6332      4.6469      4.6407      4.6388      4.6681      4.7554      4.9262      5.2077      5.6315      6.2340    
  7.0531      8.1204      9.4518      11.040      12.847      14.808      16.825      18.775      20.515      21.894    
  22.778      23.068      22.722      21.767      20.291      18.428      16.328      14.144      12.004      10.010    
  8.2305      6.7008      5.4271      4.3932      3.5692      2.9209      2.4177      2.0356      1.7568      1.5661    
  1.4900      1.4433      1.4428      1.4810      1.5544      1.6628      1.8079      1.9906      2.2106      2.4662    
  2.7543      3.0707      3.4089      3.7597      4.1104      4.4461      4.7505      5.0081      5.2056      5.3340    
  5.3904      5.3799      5.3167      5.2233      5.1280      5.0609      5.0499      5.1204      5.2963      5.6027    
  6.0665      6.7133      7.5615      8.6147      9.8553      11.242      12.708      14.167      15.517      16.648    
  17.460      17.870      17.829      17.333      16.420      15.169      13.679      12.061      10.421      8.8467    
  7.4043      6.1341      5.0518      4.1536      3.4227      2.8376      2.3776      2.0258      1.7687      1.5943    
  1.5513      1.5211      1.5361      1.5894      1.6784      1.8040      1.9681      2.1729      2.4191      2.7064    
  3.0333      3.3971      3.7930      4.2121      4.6411      5.0618      5.4529      5.7922      6.0594      6.2388    
  6.3214      6.3070      6.2058      6.0380      5.8323      5.6222      5.4410      5.3181      5.2778      5.3402    
  5.5239      5.8466      6.3231      6.9607      7.7543      8.6811      9.6992      10.749      11.757      12.645    
  13.335      13.760      13.874      13.659      13.126      12.315      11.290      10.128      8.9070      7.6998    
  6.5636      5.5378      4.6429      3.8833      3.2524      2.7386      2.3300      2.0161      1.7880      1.6365    
  1.6321      1.6241      1.6595      1.7324      1.8407      1.9860      2.1711      2.3990      2.6717      2.9902    
  3.3552      3.7663      4.2208      4.7117      5.2258      5.7430      6.2375      6.6801      7.0420      7.2986    
  7.4330      7.4388      7.3211      7.0976      6.7968      6.4549      6.1108      5.8012      5.5564      5.3989    
  5.3450      5.4066      5.5928      5.9093      6.3552      6.9190      7.5757      8.2863      9.0001      9.6593    
  10.205      10.585      10.758      10.701      10.411      9.9052      9.2212      8.4090      7.5250      6.6236    
  5.7517      4.9441      4.2224      3.5961      3.0658      2.6275      2.2761      2.0066      1.8142      1.6921    
  1.7311      1.7512      1.8126      1.9101      2.0422      2.2110      2.4200      2.6731      2.9733      3.3233    
  3.7259      4.1833      4.6960      5.2598      5.8631      6.4853      7.0971      7.6629      8.1447      8.5075    
  8.7239      8.7786      8.6705      8.4134      8.0351      7.5741      7.0746      6.5814      6.1337      5.7620    
  5.4863      5.3181      5.2630      5.3231      5.4966      5.7760      6.1460      6.5811      7.0465      7.5009    
  7.9001      8.2030      8.3751      8.3932      8.2473      7.9422      7.4971      6.9424      6.3159      5.6573    
  5.0025      4.3805      3.8112      3.3066      2.8720      2.5091      2.2180      1.9979      1.8467      1.7601    
  1.8462      1.9001      1.9933      2.1211      2.2824      2.4795      2.7167      2.9983      3.3283      3.7108    
  4.1506      4.6530      5.2220      5.8575      6.5508      7.2825      8.0216      8.7271      9.3524      9.8508    
  10.182      10.320      10.253      9.9892      9.5551      8.9907      8.3456      7.6723      7.0206      6.4313    
  5.9334      5.5436      5.2683      5.1072      5.0560      5.1069      5.2481      5.4616      5.7226      6.0008    
  6.2630      6.4768      6.6138      6.6530      6.5823      6.3994      6.1123      5.7377      5.2994      4.8244    
  4.3395      3.8676      3.4262      3.0278      2.6804      2.3895      2.1589      1.9907      1.8849      1.8386    
  1.9742      2.0672      2.1980      2.3622      2.5590      2.7909      3.0620      3.3771      3.7408      4.1581    
  4.6354      5.1809      5.8030      6.5062      7.2866      8.1279      8.9995      9.8568      10.645      11.307    
  11.788      12.046      12.057      11.820      11.358      10.710      9.9315      9.0841      8.2279      7.4160    
  6.6889      6.0726      5.5789      5.2087      4.9558      4.8106      4.7610      4.7919      4.8837      5.0129    
  5.1530      5.2775      5.3627      5.3903      5.3479      5.2304      5.0396      4.7835      4.4758      4.1337    
  3.7759      3.4199      3.0810      2.7713      2.5004      2.2757      2.1031      1.9868      1.9283      1.9257    
  2.1116      2.2479      2.4218      2.6291      2.8688      3.1430      3.4559      3.8117      4.2152      4.6714    
  5.1879      5.7754      6.4462      7.2107      8.0714      9.0174      10.021      11.036      12.003      12.852    
  13.515      13.932      14.063      13.893      13.435      12.730      11.836      10.823      9.7636      8.7249    
  7.7606      6.9085      6.1890      5.6074      5.1583      4.8303      4.6095      4.4805      4.4258      4.4253    
  4.4564      4.4958      4.5225      4.5195      4.4751      4.3831      4.2426      4.0570      3.8335      3.5822    
  3.3153      3.0458      2.7862      2.5480      2.3414      2.1748      2.0555      1.9887      1.9768      2.0192    
  2.2546      2.4370      2.6588      2.9159      3.2067      3.5328      3.8973      4.3039      4.7562      5.2586    
  5.8187      6.4487      7.1645      7.9826      8.9131      9.9532      11.081      12.253      13.405      14.460    
  15.333      15.948      16.242      16.184      15.774      15.045      14.058      12.893      11.635      10.366    
  9.1572      8.0591      7.1033      6.3020      5.6525      5.1430      4.7572      4.4780      4.2877      4.1675    
  4.0967      4.0538      4.0183      3.9734      3.9072      3.8131      3.6891      3.5366      3.3596      3.1641    
  2.9578      2.7496      2.5492      2.3667      2.2120      2.0943      2.0213      1.9992      2.0313      2.1175    
  2.3993      2.6287      2.9021      3.2151      3.5657      3.9544      4.3829      4.8532      5.3671      5.9272    
  6.5397      7.2166      7.9765      8.8413      9.8296      10.948      12.185      13.502      14.837      16.106    
  17.211      18.056      18.559      18.662      18.348      17.639      16.593      15.297      13.849      12.350    
  10.889      9.5344      8.3304      7.2985      6.4405      5.7447      5.1930      4.7654      4.4423      4.2049    
  4.0333      3.9069      3.8050      3.7097      3.6080      3.4923      3.3598      3.2114      3.0502      2.8803    
  2.7070      2.5366      2.3763      2.2341      2.1190      2.0401      2.0054      2.0216      2.0925      2.2191    
  2.5423      2.8173      3.1435      3.5172      3.9357      4.3982      4.9045      5.4542      6.0463      6.6805    
  7.3599      8.0947      8.9038      9.8129      10.849      12.029      13.352      14.793      16.294      17.769    
  19.114      20.214      20.962      21.276      21.113      20.478      19.420      18.027      16.410      14.689    
  12.972      11.349      9.8831      8.6069      7.5291      6.6395      5.9176      5.3398      4.8832      4.5274    
  4.2525      4.0381      3.8635      3.7097      3.5614      3.4094      3.2497      3.0830      2.9123      2.7417    
  2.5756      2.4189      2.2775      2.1581      2.0686      2.0171      2.0114      2.0579      2.1610      2.3226    
  2.6802      2.9968      3.3745      3.8108      4.3033      4.8497      5.4476      6.0938      6.7838      7.5131    
  8.2804      9.0918      9.9637      10.923      12.002      13.228      14.613      16.146      17.781      19.438    
  21.009      22.368      23.386      23.953      23.998      23.498      22.488      21.051      19.305      17.384    
  15.419      13.523      11.781      10.244      8.9307      7.8354      6.9363      6.2052      5.6140      5.1383    
  4.7566      4.4487      4.1941      3.9727      3.7676      3.5668      3.3648      3.1617      2.9606      2.7661    
  2.5828      2.4156      2.2700      2.1526      2.0706      2.0316      2.0426      2.1095      2.2365      2.4265    
  2.8094      3.1617      3.5866      4.0839      4.6524      5.2895      5.9908      6.7498      7.5582      8.4065    
  9.2880      10.203      11.161      12.188      13.316      14.580      16.004      17.593      19.316      21.109    
  22.868      24.465      25.753      26.599      26.898      26.597      25.705      24.294      22.480      20.406    
  18.223      16.067      14.046      12.234      10.667      9.3499      8.2623      7.3722      6.6449      6.0494    
  5.5600      5.1547      4.8129      4.5143      4.2409      3.9788      3.7204      3.4642      3.2136      2.9738    
  2.7507      2.5495      2.3761      2.2372      2.1406      2.0942      2.1051      2.1789      2.3193      2.5290    
  2.9275      3.3071      3.7717      4.3242      4.9659      5.6951      6.5066      7.3911      8.3362      9.3276    
  10.352      11.402      12.481      13.604      14.802      16.108      17.558      19.168      20.928      22.793    
  24.677      26.458      27.987      29.108      29.687      29.638      28.937      27.633      25.832      23.679    
  21.338      18.961      16.682      14.598      12.768      11.214      9.9234      8.8655      7.9995      7.2858    
  6.6910      6.1881      5.7544      5.3695      5.0150      4.6763      4.3443      4.0165      3.6960      3.3892    
  3.1031      2.8444      2.6192      2.4346      2.2990      2.2216      2.2110      2.2733      2.4124      2.6300    
  3.0345      3.4299      3.9236      4.5212      5.2275      6.0434      6.9645      7.9802      9.0748      10.229    
  11.424      12.644      13.882      15.141      16.442      17.813      19.289      20.896      22.644      24.512    
  26.439      28.323      30.025      31.383      32.239      32.471      32.020      30.903      29.206      27.069    
  24.656      22.134      19.652      17.331      15.254      13.463      11.963      10.731      9.7234      8.8940    
  8.1993      7.6033      7.0778      6.6000      6.1512      5.7172      5.2891      4.8648      4.4482      4.0473    
  3.6709      3.3276      3.0244      2.7687      2.5690      2.4356      2.3788      2.4068      2.5243      2.7333    
  3.1353      3.5304      4.0385      4.6669      5.4235      6.3134      7.3347      8.4776      9.7249      11.054    
  12.440      13.861      15.296      16.738      18.187      19.660      21.182      22.783      24.485      26.290    
  28.172      30.060      31.840      33.359      34.448      34.958      34.791      33.924      32.418      30.395    
  28.017      25.453      22.864      20.383      18.114      16.121      14.430      13.030      11.885      10.946    
  10.160      9.4804      8.8696      8.2983      7.7453      7.1962      6.6443      6.0902      5.5408      5.0076    
  4.5031      4.0389      3.6244      3.2674      2.9763      2.7607      2.6317      2.5994      2.6708      2.8492    
  3.2417      3.6147      4.1174      4.7575      5.5450      6.4889      7.5919      8.8472      10.238      11.742    
  13.328      14.969      16.636      18.302      19.951      21.577      23.187      24.802      26.448      28.148    
  29.907      31.696      33.433      34.990      36.211      36.942      37.057      36.493      35.265      33.462    
  31.229      28.742      26.166      23.643      21.286      19.173      17.349      15.820      14.563      13.532    
  12.670      11.923      11.241      10.584      9.9241      9.2450      8.5412      7.8176      7.0874      6.3689    
  5.6822      5.0452      4.4718      3.9720      3.5536      3.2250      2.9955      2.8755      2.8735      2.9950    
  3.3721      3.6960      4.1681      4.7954      5.5892      6.5613      7.7192      9.0611      10.574      12.236    
  14.017      15.883      17.799      19.724      21.620      23.455      25.210      26.885      28.499      30.084    
  31.670      33.250      34.776      36.176      37.346      38.157      38.481      38.225      37.361      35.927    
  34.023      31.785      29.372      26.949      24.647      22.548      20.703      19.131      17.822      16.741    
  15.836      15.047      14.316      13.592      12.834      12.020      11.143      10.211      9.2457      8.2771    
  7.3369      6.4545      5.6531      4.9485      4.3504      3.8656      3.5003      3.2618      3.1575      3.1932    
  3.5494      3.7940      4.2055      4.7909      5.5615      6.5308      7.7105      9.1043      10.705      12.494    
  14.444      16.522      18.685      20.884      23.061      25.157      27.120      28.921      30.559      32.060    
  33.446      34.707      35.845      36.863      37.736      38.399      38.760      38.722      38.225      37.262    
  35.876      34.149      32.184      30.101      28.034      26.119      24.413      22.938      21.688      20.639    
  19.749      18.965      18.223      17.462      16.630      15.691      14.630      13.459      12.207      10.917    
  9.6398      8.4205      7.2983      6.3010      5.4455      4.7399      4.1876      3.7901      3.5496      3.4686    
  3.7984      3.9321      4.2513      4.7624      5.4765      6.4083      7.5721      8.9766      10.621      12.493    
  14.571      16.823      19.208      21.671      24.140      26.531      28.760      30.762      32.503      33.984    
  35.176      36.059      36.670      37.085      37.379      37.594      37.716      37.692      37.459      36.975    
  36.230      35.241      34.040      32.671      31.200      29.718      28.345      27.148      26.117      25.233    
  24.463      23.763      23.075      22.334      21.471      20.435      19.199      17.768      16.182      14.501    
  12.795      11.134      9.5783      8.1756      6.9566      5.9371      5.1210      4.5048      4.0824      3.8481    
  4.1454      4.1353      4.3303      4.7341      5.3573      6.2148      7.3226      8.6933      10.332      12.233    
  14.382      16.754      19.313      22.002      24.744      27.437      29.969      32.236      34.168      35.715    
  36.776      37.294      37.312      36.957      36.406      35.832      35.356      35.024      34.821      34.702    
  34.617      34.516      34.350      34.066      33.625      33.026      32.320      31.616      31.001      30.460    
  29.965      29.483      28.962      28.334      27.522      26.450      25.070      23.378      21.418      19.269    
  17.033      14.811      12.693      10.752      9.0381      7.5824      6.3955      5.4731      4.8016      4.3641    
  4.6228      4.4298      4.4681      4.7335      5.2326      5.9796      6.9915      8.2836      9.8652      11.738    
  13.894      16.317      18.980      21.833      24.799      27.768      30.606      33.178      35.376      37.088    
  38.128      38.374      37.832      36.640      35.051      33.376      31.907      30.853      30.315      30.301    
  30.753      31.572      32.621      33.733      34.739      35.502      35.958      36.140      36.170      36.178    
  36.161      36.088      35.912      35.563      34.943      33.951      32.506      30.581      28.217      25.520    
  22.632      19.703      16.867      14.231      11.869      9.8299      8.1370      6.7911      5.7755      5.0628    
  5.2752      4.8472      4.6912      4.7874      5.1326      5.7367      6.6160      7.7873      9.2634      11.050    
  13.148      15.549      18.235      21.170      24.284      27.469      30.581      33.463      35.970      37.937    
  39.091      39.221      38.254      36.289      33.606      30.625      27.817      25.603      24.271      23.954    
  24.652      26.253      28.549      31.258      34.051      36.617      38.731      40.302      41.392      42.185    
  42.864      43.439      43.859      44.037      43.847      43.143      41.792      39.725      36.967      33.645    
  29.959      26.133      22.374      18.842      15.644      12.850      10.492      8.5800      7.0973      6.0104    
  6.1645      5.4293      5.0295      4.9222      5.0861      5.5199      6.2357      7.2500      8.5776      10.228    
  12.206      14.513      17.140      20.065      23.235      26.551      29.872      33.027      35.846      38.129    
  39.528      39.729      38.552      36.011      32.348      28.032      23.686      19.952      17.359      16.242    
  16.733      18.775      22.143      26.460      31.234      35.946      40.155      43.595      46.225      48.203    
  49.812      51.279      52.588      53.624      54.209      54.124      53.155      51.153      48.098      44.122    
  39.490      34.535      29.578      24.874      20.592      16.826      13.617      10.974      8.8782      7.2933    
  7.3670      6.2310      5.5204      5.1655      5.1188      5.3594      5.8879      6.7171      7.8620      9.3346    
  11.143      13.292      15.785      18.613      21.741      25.090      28.530      31.890      34.984      37.599    
  39.340      39.795      38.665      35.842      31.472      26.003      20.138      14.710      10.501      8.0997    
  7.8410      9.8046      13.828      19.506      26.223      33.239      39.854      45.565      50.166      53.756    
  56.650      59.232      61.709      63.966      65.754      66.748      66.603      65.044      61.948      57.414    
  51.756      45.436      38.948      32.709      27.000      21.972      17.676      14.107      11.234      9.0090    
  8.9645      7.3168      6.2105      5.5493      5.2554      5.2800      5.6037      6.2288      7.1673      8.4315    
  10.031      11.976      14.273      16.928      19.924      23.206      26.666      30.143      33.445      36.363    
  38.498      39.355      38.523      35.759      31.075      24.820      17.695      10.648      4.6809     0.64725    
 -.87075     0.40958      4.4727      10.988      19.300      28.503      37.620      45.851      52.755      58.311    
  62.839      66.816      70.665      74.453      77.877      80.478      81.739      81.189      78.533      73.754    
  67.165      59.348      51.010      42.812      35.236      28.554      22.853      18.116      14.275      11.253    
  11.030      8.7513      7.1513      6.1107      5.5216      5.3025      5.4063      5.8162      6.5351      7.5733    
  8.9415      10.650      12.710      15.135      17.926      21.052      24.433      27.930      31.358      34.513    
  37.042      38.401      38.082      35.716      31.161      24.618      16.694      8.3560     0.74997     -5.0399    
 -8.1753     -8.1361     -4.7284      1.8874      11.142      22.071      33.479      44.244      53.616      61.374    
  67.782      73.392      78.777      84.265      89.644      94.337      97.623      98.786      97.271      92.848    
  85.720      76.519      66.166      55.629      45.703      36.882      29.365      23.142      18.102      14.107    
  13.617      10.586      8.3904      6.8880      5.9447      5.4463      5.3125      5.5000      5.9951      6.8014    
  7.9281      9.3855      11.186      13.347      15.882      18.783      22.001      25.426      28.892      32.202    
  35.079      36.982      37.336      35.663      31.675      25.397      17.272      8.1784     -.69901     -8.1157    
 -13.005     -14.605     -12.486     -6.5775      2.7509      14.624      27.754      40.751      52.516      62.536    
  70.935      78.283      85.289      92.485      99.921      107.00      112.81      116.38      116.83      113.62    
  106.69      96.607      84.406      71.374      58.705      47.253      37.440      29.338      22.806      17.634    
  16.754      12.850      9.9603      7.9136      6.5510      5.7294      5.3347      5.2922      5.5646      6.1422    
  7.0295      8.2356      9.7725      11.657      13.909      16.540      19.530      22.804      26.227      29.616    
  32.752      35.186      36.306      35.554      32.519      27.048      19.378      10.206     0.63229     -8.0419    
 -14.581     -18.001     -17.638     -13.169     -4.6970      7.1249      21.087      35.660      49.436      61.552    
  71.881      80.922      89.475      98.255      107.58      117.02      125.59      132.06      135.22      134.17    
  128.47      118.41      105.00      89.729      74.219      59.788      47.233      36.826      28.465      21.874    
  20.435      15.540      11.869      9.2039      7.3594      6.1672      5.4829      5.1991      5.2505      5.6080    
  6.2665      7.2319      8.5144      10.128      12.096      14.438      17.159      20.222      23.531      26.931    
  30.230      33.124      35.031      35.345      33.558      29.368      22.791      14.281      4.7410     -4.6058    
 -12.452     -17.639     -19.279     -16.803     -10.028     0.69792      14.397      29.583      44.659      58.424    
  70.421      80.958      90.829      100.90      111.72      123.19      134.34      143.83      150.25      152.26    
  148.87      139.93      126.32      109.60      91.635      74.230      58.685      45.625      35.102      26.836    
  24.616      18.619      14.093      10.752      8.3742      6.7677      5.7631      5.2231      5.0528      5.1999    
  5.6448      6.3870      7.4337      8.7964      10.494      12.551      14.989      17.805      20.944      24.295    
  27.691      30.928      33.564      34.988      34.631      32.072      27.133      20.003      11.302      2.0438    
 -6.5290     -13.173     -16.815     -16.651     -12.217     -3.5274      8.7743      23.420      38.804      53.486    
  66.660      78.335      89.177      100.12      111.91      124.74      137.94      150.14      159.86      165.46    
  165.39      158.84      146.22      129.12      109.62      89.757      71.356      55.526      42.622      32.463    
  29.185      22.007      16.575      12.523      9.5788      7.5263      6.1750      5.3629      4.9676      4.9121    
  5.1590      5.6980      6.5321      7.6692      9.1233      10.918      13.083      15.639      18.576      21.829    
  25.273      28.742      31.979      34.452      35.570      34.833      31.911      26.750      19.658      11.341    
  2.8277     -4.6902     -10.044     -12.227     -10.509     -4.5725      5.3228      18.254      32.792      47.424    
  61.057      73.351      84.720      96.032      108.16      121.58      135.98      150.14      162.60      171.67    
  175.42      172.35      162.18      146.06      126.20      104.94      84.321      65.988      50.724      38.583    
  33.939      25.569      19.219      14.449      10.932      8.4208      6.7074      5.6115      4.9876      4.7352    
  4.7980      5.1532      5.7978      6.7364      7.9785      9.5429      11.461      13.771      16.495      19.617    
  23.065      26.709      30.378      33.743      36.245      37.343      36.603      33.780      28.897      22.315    
  14.742      7.1602     0.69701     -3.5314     -4.5691     -1.7822      4.9611      15.156      27.703      41.196    
  54.397      66.645      78.022      89.198      101.06      114.26      128.86      143.98      158.19      169.94    
  177.23      178.12      171.57      157.99      139.27      117.93      96.220      76.101      58.848      44.864    
  38.563      29.103      21.889      16.436      12.369      9.4101      7.3360      5.9538      5.1012      4.6574    
  4.5478      4.7362      5.2123      5.9771      7.0370      8.4062      10.114      12.204      14.726      17.705    
  21.122      24.896      28.891      32.923      36.600      39.380      40.768      40.387      38.037      33.765    
  27.919      21.165      14.429      8.7965      5.3503      4.9864      8.2087      14.955      24.548      35.857    
  47.668      59.107      69.919      80.475      91.528      103.82      117.69      132.67      147.51      160.75    
  170.65      175.15      172.66      162.83      146.81      126.90      105.49      84.699      66.198      50.800    
  42.644      32.342      24.407      18.360      13.803      10.435      8.0221      6.3647      5.2905      4.6636    
  4.3931      4.4299      4.7554      5.3671      6.2698      7.4748      9.0081      10.916      13.261      16.101    
  19.465      23.326      27.591      32.110      36.677      40.861      44.145      46.067      46.270      44.558    
  40.959      35.785      29.659      23.482      18.322      15.227      15.006      18.014      24.033      32.323    
  41.863      51.717      61.369      70.860      80.699      91.573      103.98      117.82      132.21      145.79    
  157.04      164.15      165.36      159.68      147.48      130.42      110.75      90.590      71.868      55.759    
  45.731      34.980      26.566      20.078      15.131      11.423      8.7155      6.8098      5.5310      4.7345    
  4.3166      4.2166      4.4075      4.8835      5.6484      6.7133      8.1027      9.8628      12.063      14.782    
  18.086      21.996      26.472      31.400      36.608      41.858      46.698      50.617      53.154      53.938    
  52.753      49.601      44.779      38.911      32.909      27.830      24.666      24.109      26.375      31.162    
  37.766      45.356      53.284      61.312      69.652      78.814      89.320      101.31      114.29      127.23    
  138.72      147.22      151.14      149.22      141.17      127.90      111.13      92.861      75.048      59.110    
  47.423      36.720      28.157      21.441      16.247      12.295      9.3585      7.2478      5.7926      4.8465    
  4.2981      4.0771      4.1495      4.5053      5.1479      6.0899      7.3571      8.9966      11.081      13.701    
  16.947      20.883      25.516      30.780      36.532      42.565      48.598      54.146      58.672      61.683    
  62.784      61.743      58.578      53.632      47.584      41.377      36.043      32.483      31.257      32.472    
  35.803      40.651      46.390      52.614      59.264      66.607      75.059      84.863      95.802      107.22    
  118.06      126.94      132.45      133.38      129.08      119.79      106.59      91.135      75.235      60.365    
  47.477      37.339      28.999      22.313      17.047      12.973      9.8927      7.6349      6.0420      4.9730    
  4.3148      3.9909      3.9613      4.2122      4.7463      5.5782      6.7369      8.2728      10.262      12.801    
  15.998      19.943      24.690      30.224      36.449      43.175      50.137      56.977      63.151      68.062    