   9   9   0   0
  0.1255774E+02  0.4913700E-09  0.4913700E-09  0.5405130E-09  0.5000000E-15
  1.000000000000000E-004
  CAR 
 unknown system                          
     13.84315221    -20.45197342  301      1.21111427      1.00000000
    -20.452  0.0000E+00  0.0000E+00
    -20.338  0.0000E+00  0.0000E+00
    -20.223  0.0000E+00  0.0000E+00
    -20.109  0.0000E+00  0.0000E+00
    -19.995  0.0000E+00  0.0000E+00
    -19.880  0.0000E+00  0.0000E+00
    -19.766  0.0000E+00  0.0000E+00
    -19.652  0.0000E+00  0.0000E+00
    -19.537  0.0000E+00  0.0000E+00
    -19.423  0.0000E+00  0.0000E+00
    -19.309  0.0000E+00  0.0000E+00
    -19.194  0.0000E+00  0.0000E+00
    -19.080  0.0000E+00  0.0000E+00
    -18.966  0.0000E+00  0.0000E+00
    -18.852  0.0000E+00  0.0000E+00
    -18.737  0.0000E+00  0.0000E+00
    -18.623  0.0000E+00  0.0000E+00
    -18.509  0.0000E+00  0.0000E+00
    -18.394  0.5426E+00  0.1044E-01
    -18.280  0.1834E+01  0.1617E+00
    -18.166  0.4275E+01  0.4654E+00
    -18.051  0.7817E+01  0.1144E+01
    -17.937  0.2864E+01  0.1931E+01
    -17.823  0.0000E+00  0.2000E+01
    -17.708  0.1481E+01  0.2070E+01
    -17.594  0.3360E+01  0.2324E+01
    -17.480  0.6222E+01  0.2854E+01
    -17.365  0.7772E+01  0.3599E+01
    -17.251  0.9146E+00  0.3960E+01
    -17.137  0.0000E+00  0.4000E+01
    -17.022  0.6022E+00  0.4012E+01
    -16.908  0.2709E+01  0.4184E+01
    -16.794  0.7535E+01  0.4872E+01
    -16.680  0.3648E+01  0.5531E+01
    -16.565  0.2749E+01  0.5878E+01
    -16.451  0.6701E+01  0.6255E+01
    -16.337  0.6518E+01  0.7242E+01
    -16.222  0.4604E+01  0.7846E+01
    -16.108  0.1312E+02  0.9331E+01
    -15.994  0.0000E+00  0.1000E+02
    -15.879  0.2851E+02  0.1138E+02
    -15.765  0.0000E+00  0.1200E+02
    -15.651  0.0000E+00  0.1200E+02
    -15.536  0.0000E+00  0.1200E+02
    -15.422  0.0000E+00  0.1200E+02
    -15.308  0.0000E+00  0.1200E+02
    -15.193  0.0000E+00  0.1200E+02
    -15.079  0.0000E+00  0.1200E+02
    -14.965  0.0000E+00  0.1200E+02
    -14.850  0.0000E+00  0.1200E+02
    -14.736  0.0000E+00  0.1200E+02
    -14.622  0.0000E+00  0.1200E+02
    -14.507  0.0000E+00  0.1200E+02
    -14.393  0.0000E+00  0.1200E+02
    -14.279  0.0000E+00  0.1200E+02
    -14.165  0.0000E+00  0.1200E+02
    -14.050  0.0000E+00  0.1200E+02
    -13.936  0.0000E+00  0.1200E+02
    -13.822  0.0000E+00  0.1200E+02
    -13.707  0.0000E+00  0.1200E+02
    -13.593  0.0000E+00  0.1200E+02
    -13.479  0.0000E+00  0.1200E+02
    -13.364  0.0000E+00  0.1200E+02
    -13.250  0.0000E+00  0.1200E+02
    -13.136  0.0000E+00  0.1200E+02
    -13.021  0.0000E+00  0.1200E+02
    -12.907  0.0000E+00  0.1200E+02
    -12.793  0.0000E+00  0.1200E+02
    -12.678  0.0000E+00  0.1200E+02
    -12.564  0.0000E+00  0.1200E+02
    -12.450  0.0000E+00  0.1200E+02
    -12.335  0.0000E+00  0.1200E+02
    -12.221  0.0000E+00  0.1200E+02
    -12.107  0.0000E+00  0.1200E+02
    -11.993  0.0000E+00  0.1200E+02
    -11.878  0.0000E+00  0.1200E+02
    -11.764  0.0000E+00  0.1200E+02
    -11.650  0.0000E+00  0.1200E+02
    -11.535  0.0000E+00  0.1200E+02
    -11.421  0.0000E+00  0.1200E+02
    -11.307  0.0000E+00  0.1200E+02
    -11.192  0.0000E+00  0.1200E+02
    -11.078  0.0000E+00  0.1200E+02
    -10.964  0.0000E+00  0.1200E+02
    -10.849  0.0000E+00  0.1200E+02
    -10.735  0.0000E+00  0.1200E+02
    -10.621  0.0000E+00  0.1200E+02
    -10.506  0.0000E+00  0.1200E+02
    -10.392  0.0000E+00  0.1200E+02
    -10.278  0.0000E+00  0.1200E+02
    -10.163  0.0000E+00  0.1200E+02
    -10.049  0.0000E+00  0.1200E+02
     -9.935  0.0000E+00  0.1200E+02
     -9.820  0.0000E+00  0.1200E+02
     -9.706  0.0000E+00  0.1200E+02
     -9.592  0.0000E+00  0.1200E+02
     -9.478  0.0000E+00  0.1200E+02
     -9.363  0.0000E+00  0.1200E+02
     -9.249  0.0000E+00  0.1200E+02
     -9.135  0.0000E+00  0.1200E+02
     -9.020  0.0000E+00  0.1200E+02
     -8.906  0.0000E+00  0.1200E+02
     -8.792  0.0000E+00  0.1200E+02
     -8.677  0.0000E+00  0.1200E+02
     -8.563  0.0000E+00  0.1200E+02
     -8.449  0.0000E+00  0.1200E+02
     -8.334  0.0000E+00  0.1200E+02
     -8.220  0.3095E-01  0.1200E+02
     -8.106  0.3107E+00  0.1202E+02
     -7.991  0.4646E+00  0.1207E+02
     -7.877  0.6821E+00  0.1213E+02
     -7.763  0.8892E+00  0.1222E+02
     -7.648  0.1264E+01  0.1234E+02
     -7.534  0.1741E+01  0.1251E+02
     -7.420  0.3502E+01  0.1279E+02
     -7.306  0.5687E+01  0.1350E+02
     -7.191  0.1661E+01  0.1387E+02
     -7.077  0.4140E+00  0.1397E+02
     -6.963  0.2055E+00  0.1400E+02
     -6.848  0.2250E+00  0.1403E+02
     -6.734  0.3642E+00  0.1406E+02
     -6.620  0.6416E+00  0.1411E+02
     -6.505  0.1182E+01  0.1422E+02
     -6.391  0.2208E+01  0.1440E+02
     -6.277  0.3582E+01  0.1473E+02
     -6.162  0.4690E+01  0.1523E+02
     -6.048  0.1966E+01  0.1560E+02
     -5.934  0.1161E+01  0.1577E+02
     -5.819  0.7373E+00  0.1588E+02
     -5.705  0.5774E+00  0.1595E+02
     -5.591  0.1590E+00  0.1600E+02
     -5.476  0.4711E+00  0.1601E+02
     -5.362  0.2741E+01  0.1618E+02
     -5.248  0.3298E+01  0.1653E+02
     -5.133  0.3034E+01  0.1690E+02
     -5.019  0.2984E+01  0.1724E+02
     -4.905  0.2009E+01  0.1752E+02
     -4.791  0.1546E+01  0.1772E+02
     -4.676  0.1253E+01  0.1788E+02
     -4.562  0.4996E+00  0.1799E+02
     -4.448  0.5447E+01  0.1819E+02
     -4.333  0.8742E+01  0.1934E+02
     -4.219  0.4811E+01  0.2004E+02
     -4.105  0.1024E+02  0.2085E+02
     -3.990  0.5757E+01  0.2170E+02
     -3.876  0.1605E+01  0.2211E+02
     -3.762  0.8347E+01  0.2266E+02
     -3.647  0.5359E+01  0.2355E+02
     -3.533  0.2168E+01  0.2392E+02
     -3.419  0.0000E+00  0.2400E+02
     -3.304  0.0000E+00  0.2400E+02
     -3.190  0.0000E+00  0.2400E+02
     -3.076  0.0000E+00  0.2400E+02
     -2.961  0.0000E+00  0.2400E+02
     -2.847  0.0000E+00  0.2400E+02
     -2.733  0.0000E+00  0.2400E+02
     -2.619  0.0000E+00  0.2400E+02
     -2.504  0.0000E+00  0.2400E+02
     -2.390  0.0000E+00  0.2400E+02
     -2.276  0.0000E+00  0.2400E+02
     -2.161  0.1133E+02  0.2457E+02
     -2.047  0.6074E+01  0.2583E+02
     -1.933  0.7218E+01  0.2668E+02
     -1.818  0.6767E+01  0.2737E+02
     -1.704  0.2917E+01  0.2794E+02
     -1.590  0.8831E+01  0.2843E+02
     -1.475  0.7478E+01  0.2952E+02
     -1.361  0.6870E+00  0.3000E+02
     -1.247  0.9780E+01  0.3041E+02
     -1.132  0.8479E+01  0.3176E+02
     -1.018  0.1560E+01  0.3201E+02
     -0.904  0.1350E+02  0.3357E+02
     -0.789  0.9217E+00  0.3392E+02
     -0.675  0.6440E+01  0.3438E+02
     -0.561  0.1084E+02  0.3532E+02
     -0.446  0.7625E+01  0.3637E+02
     -0.332  0.5782E+01  0.3748E+02
     -0.218  0.5735E+01  0.3806E+02
     -0.104  0.8782E+01  0.3900E+02
      0.011  0.4790E+01  0.3988E+02
      0.125  0.8803E+01  0.4058E+02
      0.239  0.4934E+01  0.4186E+02
      0.354  0.3821E+01  0.4211E+02
      0.468  0.1044E+02  0.4337E+02
      0.582  0.2599E+01  0.4386E+02
      0.697  0.4952E+01  0.4434E+02
      0.811  0.1298E+02  0.4525E+02
      0.925  0.5046E+01  0.4624E+02
      1.040  0.1353E+02  0.4716E+02
      1.154  0.2648E+01  0.4797E+02
      1.268  0.0000E+00  0.4800E+02
      1.383  0.0000E+00  0.4800E+02
      1.497  0.0000E+00  0.4800E+02
      1.611  0.0000E+00  0.4800E+02
      1.726  0.0000E+00  0.4800E+02
      1.840  0.0000E+00  0.4800E+02
      1.954  0.0000E+00  0.4800E+02
      2.068  0.0000E+00  0.4800E+02
      2.183  0.0000E+00  0.4800E+02
      2.297  0.0000E+00  0.4800E+02
      2.411  0.0000E+00  0.4800E+02
      2.526  0.0000E+00  0.4800E+02
      2.640  0.0000E+00  0.4800E+02
      2.754  0.0000E+00  0.4800E+02
      2.869  0.0000E+00  0.4800E+02
      2.983  0.0000E+00  0.4800E+02
      3.097  0.0000E+00  0.4800E+02
      3.212  0.0000E+00  0.4800E+02
      3.326  0.0000E+00  0.4800E+02
      3.440  0.0000E+00  0.4800E+02
      3.555  0.0000E+00  0.4800E+02
      3.669  0.0000E+00  0.4800E+02
      3.783  0.0000E+00  0.4800E+02
      3.898  0.0000E+00  0.4800E+02
      4.012  0.0000E+00  0.4800E+02
      4.126  0.0000E+00  0.4800E+02
      4.241  0.0000E+00  0.4800E+02
      4.355  0.0000E+00  0.4800E+02
      4.469  0.0000E+00  0.4800E+02
      4.583  0.0000E+00  0.4800E+02
      4.698  0.0000E+00  0.4800E+02
      4.812  0.0000E+00  0.4800E+02
      4.926  0.0000E+00  0.4800E+02
      5.041  0.0000E+00  0.4800E+02
      5.155  0.0000E+00  0.4800E+02
      5.269  0.0000E+00  0.4800E+02
      5.384  0.0000E+00  0.4800E+02
      5.498  0.0000E+00  0.4800E+02
      5.612  0.0000E+00  0.4800E+02
      5.727  0.0000E+00  0.4800E+02
      5.841  0.0000E+00  0.4800E+02
      5.955  0.0000E+00  0.4800E+02
      6.070  0.0000E+00  0.4800E+02
      6.184  0.0000E+00  0.4800E+02
      6.298  0.0000E+00  0.4800E+02
      6.413  0.0000E+00  0.4800E+02
      6.527  0.0000E+00  0.4800E+02
      6.641  0.0000E+00  0.4800E+02
      6.755  0.0000E+00  0.4800E+02
      6.870  0.0000E+00  0.4800E+02
      6.984  0.0000E+00  0.4800E+02
      7.098  0.0000E+00  0.4800E+02
      7.213  0.1312E-01  0.4800E+02
      7.327  0.5261E-01  0.4800E+02
      7.441  0.1185E+00  0.4801E+02
      7.556  0.2051E+00  0.4803E+02
      7.670  0.2520E+00  0.4806E+02
      7.784  0.2809E+00  0.4809E+02
      7.899  0.3047E+00  0.4812E+02
      8.013  0.3508E+00  0.4816E+02
      8.127  0.3996E+00  0.4820E+02
      8.242  0.4510E+00  0.4825E+02
      8.356  0.5048E+00  0.4831E+02
      8.470  0.5609E+00  0.4837E+02
      8.585  0.7193E+00  0.4844E+02
      8.699  0.8731E+00  0.4853E+02
      8.813  0.8443E+00  0.4863E+02
      8.928  0.9070E+00  0.4873E+02
      9.042  0.9719E+00  0.4883E+02
      9.156  0.1039E+01  0.4895E+02
      9.270  0.1364E+01  0.4908E+02
      9.385  0.1573E+01  0.4925E+02
      9.499  0.1328E+01  0.4942E+02
      9.613  0.1254E+01  0.4957E+02
      9.728  0.1456E+01  0.4972E+02
      9.842  0.1773E+01  0.4989E+02
      9.956  0.1220E+01  0.5009E+02
     10.071  0.1061E+01  0.5022E+02
     10.185  0.2382E+01  0.5039E+02
     10.299  0.8447E+01  0.5094E+02
     10.414  0.4149E+01  0.5191E+02
     10.528  0.5258E+01  0.5240E+02
     10.642  0.8139E+01  0.5325E+02
     10.757  0.5249E+01  0.5403E+02
     10.871  0.2457E+01  0.5444E+02
     10.985  0.3480E+01  0.5474E+02
     11.100  0.6294E+01  0.5536E+02
     11.214  0.3690E+01  0.5597E+02
     11.328  0.4906E+01  0.5643E+02
     11.442  0.6882E+01  0.5714E+02
     11.557  0.4109E+01  0.5781E+02
     11.671  0.3251E+00  0.5799E+02
     11.785  0.1403E-01  0.5800E+02
     11.900  0.0000E+00  0.5800E+02
     12.014  0.0000E+00  0.5800E+02
     12.128  0.0000E+00  0.5800E+02
     12.243  0.0000E+00  0.5800E+02
     12.357  0.0000E+00  0.5800E+02
     12.471  0.0000E+00  0.5800E+02
     12.586  0.0000E+00  0.5800E+02
     12.700  0.0000E+00  0.5800E+02
     12.814  0.0000E+00  0.5800E+02
     12.929  0.0000E+00  0.5800E+02
     13.043  0.0000E+00  0.5800E+02
     13.157  0.0000E+00  0.5800E+02
     13.272  0.0000E+00  0.5800E+02
     13.386  0.0000E+00  0.5800E+02
     13.500  0.0000E+00  0.5800E+02
     13.615  0.0000E+00  0.5800E+02
     13.729  0.0000E+00  0.5800E+02
     13.843  0.0000E+00  0.5800E+02
