 vasp.5.4.1 05Feb16 (build Mar 02 2016 14:09:44) complex                        
  
 executed on   Abel-impi-ifc-cuda date 2019.09.13  11:29:19
 running on    1 total cores
 distrk:  each k-point on    1 cores,    1 groups
 distr:  one band on NCORES_PER_BAND=   1 cores,    1 groups


--------------------------------------------------------------------------------------------------------


 INCAR:
 POTCAR:   PAW_PBE Si 05Jan2001                   
 POTCAR:   PAW_PBE O 08Apr2002                    
 POTCAR:   PAW_PBE Si 05Jan2001                   
   VRHFIN =Si: s2p2                                                             
   LEXCH  = PE                                                                  
   EATOM  =   103.0669 eV,    7.5752 Ry                                         
                                                                                
   TITEL  = PAW_PBE Si 05Jan2001                                                
   LULTRA =        F    use ultrasoft PP ?                                      
   IUNSCR =        1    unscreen: 0-lin 1-nonlin 2-no                           
   RPACOR =    1.500    partial core radius                                     
   POMASS =   28.085; ZVAL   =    4.000    mass and valenz                      
   RCORE  =    1.900    outmost cutoff radius                                   
   RWIGS  =    2.480; RWIGS  =    1.312    wigner-seitz radius (au A)           
   ENMAX  =  245.345; ENMIN  =  184.009 eV                                      
   ICORE  =        2    local potential                                         
   LCOR   =        T    correct aug charges                                     
   LPAW   =        T    paw PP                                                  
   EAUG   =  322.069                                                            
   DEXC   =    -.007                                                            
   RMAX   =    2.944    core radius for proj-oper                               
   RAUG   =    1.300    factor for augmentation sphere                          
   RDEP   =    1.993    radius for radial grids                                 
   QCUT   =   -4.246; QGAM   =    8.493    optimization parameters              
                                                                                
   Description                                                                  
     l     E      TYP  RCUT    TYP  RCUT                                        
     0   .000     23  1.900                                                     
     0   .000     23  1.900                                                     
     1   .000     23  1.900                                                     
     1   .000     23  1.900                                                     
     2   .000      7  1.900                                                     
  local pseudopotential read in
  partial core-charges read in
  atomic valenz-charges read in
  non local Contribution for L=           0  read in
    real space projection operators read in
  non local Contribution for L=           0  read in
    real space projection operators read in
  non local Contribution for L=           1  read in
    real space projection operators read in
  non local Contribution for L=           1  read in
    real space projection operators read in
    PAW grid and wavefunctions read in
 
   number of l-projection  operators is LMAX  =           4
   number of lm-projection operators is LMMAX =           8
 
 POTCAR:   PAW_PBE O 08Apr2002                    
   VRHFIN =O: s2p4                                                              
   LEXCH  = PE                                                                  
   EATOM  =   432.3788 eV,   31.7789 Ry                                         
                                                                                
   TITEL  = PAW_PBE O 08Apr2002                                                 
   LULTRA =        F    use ultrasoft PP ?                                      
   IUNSCR =        0    unscreen: 0-lin 1-nonlin 2-no                           
   RPACOR =     .000    partial core radius                                     
   POMASS =   16.000; ZVAL   =    6.000    mass and valenz                      
   RCORE  =    1.520    outmost cutoff radius                                   
   RWIGS  =    1.550; RWIGS  =     .820    wigner-seitz radius (au A)           
   ENMAX  =  400.000; ENMIN  =  300.000 eV                                      
   ICORE  =        2    local potential                                         
   LCOR   =        T    correct aug charges                                     
   LPAW   =        T    paw PP                                                  
   EAUG   =  605.392                                                            
   DEXC   =     .000                                                            
   RMAX   =    2.264    core radius for proj-oper                               
   RAUG   =    1.300    factor for augmentation sphere                          
   RDEP   =    1.550    radius for radial grids                                 
   QCUT   =   -5.520; QGAM   =   11.041    optimization parameters              
                                                                                
   Description                                                                  
     l     E      TYP  RCUT    TYP  RCUT                                        
     0   .000     23  1.200                                                     
     0  -.700     23  1.200                                                     
     1   .000     23  1.520                                                     
     1   .600     23  1.520                                                     
     2   .000      7  1.500                                                     
  local pseudopotential read in
  atomic valenz-charges read in
  non local Contribution for L=           0  read in
    real space projection operators read in
  non local Contribution for L=           0  read in
    real space projection operators read in
  non local Contribution for L=           1  read in
    real space projection operators read in
  non local Contribution for L=           1  read in
    real space projection operators read in
    PAW grid and wavefunctions read in
 
   number of l-projection  operators is LMAX  =           4
   number of lm-projection operators is LMMAX =           8
 
 Optimization of the real space projectors (new method)

 maximal supplied QI-value         = 19.84
 optimisation between [QCUT,QGAM] = [ 12.50, 25.00] = [ 43.76,175.03] Ry 
 Optimized for a Real-space Cutoff    1.06 Angstroem

   l    n(q)    QCUT    max X(q) W(low)/X(q) W(high)/X(q)  e(spline) 
   0      8    12.501     8.708    0.92E-05    0.20E-04    0.67E-08
   0      8    12.501   106.241    0.25E-03    0.85E-04    0.84E-07
   1      7    12.501     5.901    0.73E-04    0.35E-04    0.14E-07
   1      7    12.501    73.241    0.31E-03    0.51E-03    0.85E-07
 Optimization of the real space projectors (new method)

 maximal supplied QI-value         = 24.76
 optimisation between [QCUT,QGAM] = [ 12.38, 25.00] = [ 42.90,175.06] Ry 
 Optimized for a Real-space Cutoff    1.06 Angstroem

   l    n(q)    QCUT    max X(q) W(low)/X(q) W(high)/X(q)  e(spline) 
   0      8    12.378     4.192    0.24E-04    0.14E-04    0.38E-07
   0      8    12.378     8.473    0.28E-03    0.14E-03    0.22E-06
   1      7    12.378     2.474    0.86E-04    0.10E-04    0.31E-07
   1      7    12.378     3.912    0.50E-03    0.11E-03    0.22E-06
 PAW_PBE Si 05Jan2001                   :
 energy of atom  1       EATOM= -103.0669
 kinetic energy error for atom=    0.0003 (will be added to EATOM!!)
 PAW_PBE O 08Apr2002                    :
 energy of atom  2       EATOM= -432.3788
 kinetic energy error for atom=    0.0168 (will be added to EATOM!!)
 
 
 POSCAR: SiO2_P3221_icsd_34644                   
  positions in direct lattice
  No initial velocities read in
 exchange correlation table for  LEXCH =        8
   RHO(1)=    0.500       N(1)  =     2000
   RHO(2)=  100.500       N(2)  =     4000
 


--------------------------------------------------------------------------------------------------------


 ion  position               nearest neighbor table
   1  0.470  0.020  0.667-   4 1.51   5 1.61   7 1.63   9 1.68   3 2.98   2 3.03   2 3.11   3 3.14

   2  0.000  0.470  0.333-   8 1.60   5 1.60   6 1.62   7 1.62   1 3.03   3 3.06   3 3.06   1 3.11

   3  0.530  0.530  0.000-   6 1.60   9 1.60   8 1.62   4 1.62   1 2.98   2 3.06   2 3.06   1 3.14

   4  0.414  0.266  0.786-   1 1.51   3 1.62
   5  0.734  0.148  0.452-   2 1.60   1 1.61
   6  0.852  0.586  0.119-   3 1.60   2 1.62
   7  0.148  0.734  0.548-   2 1.62   1 1.63
   8  0.266  0.414  0.214-   2 1.60   3 1.62
   9  0.586  0.852  0.881-   3 1.60   1 1.68
 
  LATTYP: Found a hexagonal cell.
 ALAT       =     4.9137000030
 C/A-ratio  =     1.1000122101
  
  Lattice vectors:
  
 A1 = (   4.9137000000,   0.0000000000,   0.0000000000)
 A2 = (  -2.4568500000,   4.2553890300,   0.0000000000)
 A3 = (   0.0000000000,   0.0000000000,   5.4051300000)


Analysis of symmetry for initial positions (statically):
=====================================================================
 Subroutine PRICEL returns:
 Original cell was already a primitive cell.
 

 Routine SETGRP: Setting up the symmetry group for a 
 hexagonal supercell.


 Subroutine GETGRP returns: Found  1 space group operations
 (whereof  1 operations were pure point group operations)
 out of a pool of 24 trial point group operations.


The static configuration has the point symmetry C_1 .


Analysis of symmetry for dynamics (positions and initial velocities):
=====================================================================
 Subroutine PRICEL returns:
 Original cell was already a primitive cell.
 

 Routine SETGRP: Setting up the symmetry group for a 
 hexagonal supercell.


 Subroutine GETGRP returns: Found  1 space group operations
 (whereof  1 operations were pure point group operations)
 out of a pool of 24 trial point group operations.


The dynamic configuration has the point symmetry C_1 .


 Subroutine INISYM returns: Found  1 space group operations
 (whereof  1 operations are pure point group operations),
 and found     1 'primitive' translations

 
 
 KPOINTS: k-density: 4.0                          

Automatic generation of k-mesh.
Space group operators:
 irot       det(A)        alpha          n_x          n_y          n_z        tau_x        tau_y        tau_z
    1     1.000000     0.000001     1.000000     0.000000     0.000000     0.000000     0.000000     0.000000
 
 Subroutine IBZKPT returns following result:
 ===========================================
 
 Found     92 irreducible k-points:
 
 Following reciprocal coordinates:
            Coordinates               Weight
  0.000000  0.000000  0.000000      1.000000
  0.166667  0.000000  0.000000      2.000000
  0.333333  0.000000  0.000000      2.000000
  0.500000  0.000000  0.000000      1.000000
  0.000000  0.166667  0.000000      2.000000
  0.166667  0.166667  0.000000      2.000000
  0.333333  0.166667  0.000000      2.000000
  0.500000  0.166667  0.000000      2.000000
 -0.333333  0.166667  0.000000      2.000000
 -0.166667  0.166667  0.000000      2.000000
  0.000000  0.333333  0.000000      2.000000
  0.166667  0.333333  0.000000      2.000000
  0.333333  0.333333  0.000000      2.000000
  0.500000  0.333333  0.000000      2.000000
 -0.333333  0.333333  0.000000      2.000000
 -0.166667  0.333333  0.000000      2.000000
  0.000000  0.500000  0.000000      1.000000
  0.166667  0.500000  0.000000      2.000000
  0.333333  0.500000  0.000000      2.000000
  0.500000  0.500000  0.000000      1.000000
  0.000000  0.000000  0.200000      2.000000
  0.166667  0.000000  0.200000      2.000000
  0.333333  0.000000  0.200000      2.000000
  0.500000  0.000000  0.200000      2.000000
 -0.333333  0.000000  0.200000      2.000000
 -0.166667  0.000000  0.200000      2.000000
  0.000000  0.166667  0.200000      2.000000
  0.166667  0.166667  0.200000      2.000000
  0.333333  0.166667  0.200000      2.000000
  0.500000  0.166667  0.200000      2.000000
 -0.333333  0.166667  0.200000      2.000000
 -0.166667  0.166667  0.200000      2.000000
  0.000000  0.333333  0.200000      2.000000
  0.166667  0.333333  0.200000      2.000000
  0.333333  0.333333  0.200000      2.000000
  0.500000  0.333333  0.200000      2.000000
 -0.333333  0.333333  0.200000      2.000000
 -0.166667  0.333333  0.200000      2.000000
  0.000000  0.500000  0.200000      2.000000
  0.166667  0.500000  0.200000      2.000000
  0.333333  0.500000  0.200000      2.000000
  0.500000  0.500000  0.200000      2.000000
 -0.333333  0.500000  0.200000      2.000000
 -0.166667  0.500000  0.200000      2.000000
  0.000000 -0.333333  0.200000      2.000000
  0.166667 -0.333333  0.200000      2.000000
  0.333333 -0.333333  0.200000      2.000000
  0.500000 -0.333333  0.200000      2.000000
 -0.333333 -0.333333  0.200000      2.000000
 -0.166667 -0.333333  0.200000      2.000000
  0.000000 -0.166667  0.200000      2.000000
  0.166667 -0.166667  0.200000      2.000000
  0.333333 -0.166667  0.200000      2.000000
  0.500000 -0.166667  0.200000      2.000000
 -0.333333 -0.166667  0.200000      2.000000
 -0.166667 -0.166667  0.200000      2.000000
  0.000000  0.000000  0.400000      2.000000
  0.166667  0.000000  0.400000      2.000000
  0.333333  0.000000  0.400000      2.000000
  0.500000  0.000000  0.400000      2.000000
 -0.333333  0.000000  0.400000      2.000000
 -0.166667  0.000000  0.400000      2.000000
  0.000000  0.166667  0.400000      2.000000
  0.166667  0.166667  0.400000      2.000000
  0.333333  0.166667  0.400000      2.000000
  0.500000  0.166667  0.400000      2.000000
 -0.333333  0.166667  0.400000      2.000000
 -0.166667  0.166667  0.400000      2.000000
  0.000000  0.333333  0.400000      2.000000
  0.166667  0.333333  0.400000      2.000000
  0.333333  0.333333  0.400000      2.000000
  0.500000  0.333333  0.400000      2.000000
 -0.333333  0.333333  0.400000      2.000000
 -0.166667  0.333333  0.400000      2.000000
  0.000000  0.500000  0.400000      2.000000
  0.166667  0.500000  0.400000      2.000000
  0.333333  0.500000  0.400000      2.000000
  0.500000  0.500000  0.400000      2.000000
 -0.333333  0.500000  0.400000      2.000000
 -0.166667  0.500000  0.400000      2.000000
  0.000000 -0.333333  0.400000      2.000000
  0.166667 -0.333333  0.400000      2.000000
  0.333333 -0.333333  0.400000      2.000000
  0.500000 -0.333333  0.400000      2.000000
 -0.333333 -0.333333  0.400000      2.000000
 -0.166667 -0.333333  0.400000      2.000000
  0.000000 -0.166667  0.400000      2.000000
  0.166667 -0.166667  0.400000      2.000000
  0.333333 -0.166667  0.400000      2.000000
  0.500000 -0.166667  0.400000      2.000000
 -0.333333 -0.166667  0.400000      2.000000
 -0.166667 -0.166667  0.400000      2.000000
 
 Following cartesian coordinates:
            Coordinates               Weight
  0.000000  0.000000  0.000000      1.000000
  0.033919  0.019583  0.000000      2.000000
  0.067838  0.039166  0.000000      2.000000
  0.101756  0.058749  0.000000      1.000000
  0.000000  0.039166  0.000000      2.000000
  0.033919  0.058749  0.000000      2.000000
  0.067838  0.078332  0.000000      2.000000
  0.101756  0.097915  0.000000      2.000000
 -0.067838  0.000000  0.000000      2.000000
 -0.033919  0.019583  0.000000      2.000000
  0.000000  0.078332  0.000000      2.000000
  0.033919  0.097915  0.000000      2.000000
  0.067838  0.117498  0.000000      2.000000
  0.101756  0.137081  0.000000      2.000000
 -0.067838  0.039166  0.000000      2.000000
 -0.033919  0.058749  0.000000      2.000000
  0.000000  0.117498  0.000000      1.000000
  0.033919  0.137081  0.000000      2.000000
  0.067838  0.156664  0.000000      2.000000
  0.101756  0.176247  0.000000      1.000000
  0.000000  0.000000  0.037002      2.000000
  0.033919  0.019583  0.037002      2.000000
  0.067838  0.039166  0.037002      2.000000
  0.101756  0.058749  0.037002      2.000000
 -0.067838 -0.039166  0.037002      2.000000
 -0.033919 -0.019583  0.037002      2.000000
  0.000000  0.039166  0.037002      2.000000
  0.033919  0.058749  0.037002      2.000000
  0.067838  0.078332  0.037002      2.000000
  0.101756  0.097915  0.037002      2.000000
 -0.067838  0.000000  0.037002      2.000000
 -0.033919  0.019583  0.037002      2.000000
  0.000000  0.078332  0.037002      2.000000
  0.033919  0.097915  0.037002      2.000000
  0.067838  0.117498  0.037002      2.000000
  0.101756  0.137081  0.037002      2.000000
 -0.067838  0.039166  0.037002      2.000000
 -0.033919  0.058749  0.037002      2.000000
  0.000000  0.117498  0.037002      2.000000
  0.033919  0.137081  0.037002      2.000000
  0.067838  0.156664  0.037002      2.000000
  0.101756  0.176247  0.037002      2.000000
 -0.067838  0.078332  0.037002      2.000000
 -0.033919  0.097915  0.037002      2.000000
  0.000000 -0.078332  0.037002      2.000000
  0.033919 -0.058749  0.037002      2.000000
  0.067838 -0.039166  0.037002      2.000000
  0.101756 -0.019583  0.037002      2.000000
 -0.067838 -0.117498  0.037002      2.000000
 -0.033919 -0.097915  0.037002      2.000000
  0.000000 -0.039166  0.037002      2.000000
  0.033919 -0.019583  0.037002      2.000000
  0.067838 -0.000000  0.037002      2.000000
  0.101756  0.019583  0.037002      2.000000
 -0.067838 -0.078332  0.037002      2.000000
 -0.033919 -0.058749  0.037002      2.000000
  0.000000  0.000000  0.074004      2.000000
  0.033919  0.019583  0.074004      2.000000
  0.067838  0.039166  0.074004      2.000000
  0.101756  0.058749  0.074004      2.000000
 -0.067838 -0.039166  0.074004      2.000000
 -0.033919 -0.019583  0.074004      2.000000
  0.000000  0.039166  0.074004      2.000000
  0.033919  0.058749  0.074004      2.000000
  0.067838  0.078332  0.074004      2.000000
  0.101756  0.097915  0.074004      2.000000
 -0.067838  0.000000  0.074004      2.000000
 -0.033919  0.019583  0.074004      2.000000
  0.000000  0.078332  0.074004      2.000000
  0.033919  0.097915  0.074004      2.000000
  0.067838  0.117498  0.074004      2.000000
  0.101756  0.137081  0.074004      2.000000
 -0.067838  0.039166  0.074004      2.000000
 -0.033919  0.058749  0.074004      2.000000
  0.000000  0.117498  0.074004      2.000000
  0.033919  0.137081  0.074004      2.000000
  0.067838  0.156664  0.074004      2.000000
  0.101756  0.176247  0.074004      2.000000
 -0.067838  0.078332  0.074004      2.000000
 -0.033919  0.097915  0.074004      2.000000
  0.000000 -0.078332  0.074004      2.000000
  0.033919 -0.058749  0.074004      2.000000
  0.067838 -0.039166  0.074004      2.000000
  0.101756 -0.019583  0.074004      2.000000
 -0.067838 -0.117498  0.074004      2.000000
 -0.033919 -0.097915  0.074004      2.000000
  0.000000 -0.039166  0.074004      2.000000
  0.033919 -0.019583  0.074004      2.000000
  0.067838 -0.000000  0.074004      2.000000
  0.101756  0.019583  0.074004      2.000000
 -0.067838 -0.078332  0.074004      2.000000
 -0.033919 -0.058749  0.074004      2.000000
 
 TETIRR: Found    540 inequivalent tetrahedra from     1080


--------------------------------------------------------------------------------------------------------




 Dimension of arrays:
   k-points           NKPTS =     92   k-points in BZ     NKDIM =     92   number of bands    NBANDS=     29
   number of dos      NEDOS =    301   number of ions     NIONS =      9
   non local maximal  LDIM  =      4   non local SUM 2l+1 LMDIM =      8
   total plane-waves  NPLWV =  28800
   max r-space proj   IRMAX =   1330   max aug-charges    IRDMAX=   8718
   dimension x,y,z NGX =    30 NGY =   30 NGZ =   32
   dimension x,y,z NGXF=    60 NGYF=   60 NGZF=   64
   support grid    NGXF=    60 NGYF=   60 NGZF=   64
   ions per type =               3   6
 NGX,Y,Z   is equivalent  to a cutoff of  10.15, 10.15,  9.84 a.u.
 NGXF,Y,Z  is equivalent  to a cutoff of  20.30, 20.30, 19.68 a.u.


 I would recommend the setting:
   dimension x,y,z NGX =    29 NGY =   29 NGZ =   32
 SYSTEM =  unknown system                          
 POSCAR =  SiO2_P3221_icsd_34644                   

 Startparameter for this run:
   NWRITE =      2    write-flag & timer
   PREC   = normal    normal or accurate (medium, high low for compatibility)
   ISTART =      0    job   : 0-new  1-cont  2-samecut
   ICHARG =      2    charge: 1-file 2-atom 10-const
   ISPIN  =      1    spin polarized calculation?
   LNONCOLLINEAR =      F non collinear calculations
   LSORBIT =      F    spin-orbit coupling
   INIWAV =      1    electr: 0-lowe 1-rand  2-diag
   LASPH  =      F    aspherical Exc in radial PAW
   METAGGA=      F    non-selfconsistent MetaGGA calc.

 Electronic Relaxation 1
   ENCUT  =  600.0 eV  44.10 Ry    6.64 a.u.   9.81  9.81 10.80*2*pi/ulx,y,z
   ENINI  =  600.0     initial cutoff
   ENAUG  =  605.4 eV  augmentation charge cutoff
   NELM   =     60;   NELMIN=  4; NELMDL= -5     # of ELM steps 
   EDIFF  = 0.1E-04   stopping-criterion for ELM
   LREAL  =      T    real-space projection
   NLSPLINE    = F    spline interpolate recip. space projectors
   LCOMPAT=      F    compatible to vasp.4.4
   GGA_COMPAT  = T    GGA compatible to vasp.4.4-vasp.4.6
   LMAXPAW     = -100 max onsite density
   LMAXMIX     =    2 max onsite mixed and CHGCAR
   VOSKOWN=      0    Vosko Wilk Nusair interpolation
   ROPT   =   -0.00050  -0.00050
 Ionic relaxation
   EDIFFG = 0.1E-03   stopping-criterion for IOM
   NSW    =      0    number of steps for IOM
   NBLOCK =      1;   KBLOCK =      1    inner block; outer block 
   IBRION =     -1    ionic relax: 0-MD 1-quasi-New 2-CG
   NFREE  =      0    steps in history (QN), initial steepest desc. (CG)
   ISIF   =      2    stress and relaxation
   IWAVPR =     10    prediction:  0-non 1-charg 2-wave 3-comb
   ISYM   =      2    0-nonsym 1-usesym 2-fastsym
   LCORR  =      T    Harris-Foulkes like correction to forces

   POTIM  = 0.5000    time-step for ionic-motion
   TEIN   =    0.0    initial temperature
   TEBEG  =    0.0;   TEEND  =   0.0 temperature during run
   SMASS  =  -3.00    Nose mass-parameter (am)
   estimated Nose-frequenzy (Omega)   =  0.10E-29 period in steps =****** mass=  -0.552E-27a.u.
   SCALEE = 1.0000    scale energy and forces
   NPACO  =    256;   APACO  = 16.0  distance and # of slots for P.C.
   PSTRESS=    0.0 pullay stress

  Mass of Ions in am
   POMASS =  28.09 16.00
  Ionic Valenz
   ZVAL   =   4.00  6.00
  Atomic Wigner-Seitz radii
   RWIGS  =  -1.00 -1.00
  virtual crystal weights 
   VCA    =   1.00  1.00
   NELECT =      48.0000    total number of electrons
   NUPDOWN=      -1.0000    fix difference up-down

 DOS related values:
   EMIN   =  10.00;   EMAX   =-10.00  energy-range for DOS
   EFERMI =   0.00
   ISMEAR =    -5;   SIGMA  =   0.20  broadening in eV -4-tet -1-fermi 0-gaus

 Electronic relaxation 2 (details)
   IALGO  =     68    algorithm
   LDIAG  =      T    sub-space diagonalisation (order eigenvalues)
   LSUBROT=      F    optimize rotation matrix (better conditioning)
   TURBO    =      0    0=normal 1=particle mesh
   IRESTART =      0    0=no restart 2=restart with 2 vectors
   NREBOOT  =      0    no. of reboots
   NMIN     =      0    reboot dimension
   EREF     =   0.00    reference energy to select bands
   IMIX   =      4    mixing-type and parameters
     AMIX     =   0.40;   BMIX     =  1.00
     AMIX_MAG =   1.60;   BMIX_MAG =  1.00
     AMIN     =   0.10
     WC   =   100.;   INIMIX=   1;  MIXPRE=   1;  MAXMIX= -45

 Intra band minimization:
   WEIMIN = 0.0000     energy-eigenvalue tresh-hold
   EBREAK =  0.86E-07  absolut break condition
   DEPER  =   0.30     relativ break condition  

   TIME   =   0.40     timestep for ELM

  volume/ion in A,a.u.               =      12.56        84.74
  Fermi-wavevector in a.u.,A,eV,Ry     =   1.230563  2.325427 20.603106  1.514286
  Thomas-Fermi vector in A             =   2.365407
 
 Write flags
   LWAVE  =      F    write WAVECAR
   LCHARG =      T    write CHGCAR
   LVTOT  =      F    write LOCPOT, total local potential
   LVHAR  =      F    write LOCPOT, Hartree potential only
   LELF   =      F    write electronic localiz. function (ELF)
   LORBIT =      0    0 simple, 1 ext, 2 COOP (PROOUT)


 Dipole corrections
   LMONO  =      F    monopole corrections only (constant potential shift)
   LDIPOL =      F    correct potential (dipole corrections)
   IDIPOL =      0    1-x, 2-y, 3-z, 4-all directions 
   EPSILON=  1.0000000 bulk dielectric constant

 Exchange correlation treatment:
   GGA     =    --    GGA type
   LEXCH   =     8    internal setting for exchange type
   VOSKOWN=      0    Vosko Wilk Nusair interpolation
   LHFCALC =     F    Hartree Fock is set to
   LHFONE  =     F    Hartree Fock one center treatment
   AEXX    =    0.0000 exact exchange contribution

 Linear response parameters
   LEPSILON=     F    determine dielectric tensor
   LRPA    =     F    only Hartree local field effects (RPA)
   LNABLA  =     F    use nabla operator in PAW spheres
   LVEL    =     F    velocity operator in full k-point grid
   LINTERFAST=   F  fast interpolation
   KINTER  =     0    interpolate to denser k-point grid
   CSHIFT  =0.1000    complex shift for real part using Kramers Kronig
   OMEGAMAX=  -1.0    maximum frequency
   DEG_THRESHOLD= 0.2000000E-02 threshold for treating states as degnerate
   RTIME   =    0.100 relaxation time in fs

 Orbital magnetization related:
   ORBITALMAG=     F  switch on orbital magnetization
   LCHIMAG   =     F  perturbation theory with respect to B field
   DQ        =  0.001000  dq finite difference perturbation B field



--------------------------------------------------------------------------------------------------------


 Static calculation
 charge density and potential will be updated during run
 non-spin polarized calculation
 RMM-DIIS sequential band-by-band and
  variant of blocked Davidson during initial phase
 perform sub-space diagonalisation
    before iterative eigenvector-optimisation
 modified Broyden-mixing scheme, WC =      100.0
 initial mixing is a Kerker type mixing with AMIX =  0.4000 and BMIX =      1.0000
 Hartree-type preconditioning will be used
 using additional bands            5
 real space projection scheme for non local part
 use partial core corrections
 calculate Harris-corrections to forces 
   (improved forces if not selfconsistent)
 use gradient corrections 
 use of overlap-Matrix (Vanderbilt PP)
 Fermi weights with tetrahedron method with Bloechl corrections


--------------------------------------------------------------------------------------------------------


  energy-cutoff  :      600.00
  volume of cell :      113.02
      direct lattice vectors                 reciprocal lattice vectors
     4.913700000  0.000000000  0.000000000     0.203512628  0.117498070  0.000000000
    -2.456850000  4.255389030  0.000000000     0.000000000  0.234996141  0.000000000
     0.000000000  0.000000000  5.405130000     0.000000000  0.000000000  0.185009426

  length of vectors
     4.913700000  4.913700003  5.405130000     0.234996141  0.234996141  0.185009426


 
 k-points in units of 2pi/SCALE and weight: k-density: 4.0                          
   0.00000000  0.00000000  0.00000000       0.006
   0.03391877  0.01958301  0.00000000       0.011
   0.06783754  0.03916602  0.00000000       0.011
   0.10175631  0.05874904  0.00000000       0.006
   0.00000000  0.03916602  0.00000000       0.011
   0.03391877  0.05874904  0.00000000       0.011
   0.06783754  0.07833205  0.00000000       0.011
   0.10175631  0.09791506  0.00000000       0.011
  -0.06783754  0.00000000  0.00000000       0.011
  -0.03391877  0.01958301  0.00000000       0.011
   0.00000000  0.07833205  0.00000000       0.011
   0.03391877  0.09791506  0.00000000       0.011
   0.06783754  0.11749807  0.00000000       0.011
   0.10175631  0.13708108  0.00000000       0.011
  -0.06783754  0.03916602  0.00000000       0.011
  -0.03391877  0.05874904  0.00000000       0.011
   0.00000000  0.11749807  0.00000000       0.006
   0.03391877  0.13708108  0.00000000       0.011
   0.06783754  0.15666409  0.00000000       0.011
   0.10175631  0.17624711  0.00000000       0.006
   0.00000000  0.00000000  0.03700189       0.011
   0.03391877  0.01958301  0.03700189       0.011
   0.06783754  0.03916602  0.03700189       0.011
   0.10175631  0.05874904  0.03700189       0.011
  -0.06783754 -0.03916602  0.03700189       0.011
  -0.03391877 -0.01958301  0.03700189       0.011
   0.00000000  0.03916602  0.03700189       0.011
   0.03391877  0.05874904  0.03700189       0.011
   0.06783754  0.07833205  0.03700189       0.011
   0.10175631  0.09791506  0.03700189       0.011
  -0.06783754  0.00000000  0.03700189       0.011
  -0.03391877  0.01958301  0.03700189       0.011
   0.00000000  0.07833205  0.03700189       0.011
   0.03391877  0.09791506  0.03700189       0.011
   0.06783754  0.11749807  0.03700189       0.011
   0.10175631  0.13708108  0.03700189       0.011
  -0.06783754  0.03916602  0.03700189       0.011
  -0.03391877  0.05874904  0.03700189       0.011
   0.00000000  0.11749807  0.03700189       0.011
   0.03391877  0.13708108  0.03700189       0.011
   0.06783754  0.15666409  0.03700189       0.011
   0.10175631  0.17624711  0.03700189       0.011
  -0.06783754  0.07833205  0.03700189       0.011
  -0.03391877  0.09791506  0.03700189       0.011
   0.00000000 -0.07833205  0.03700189       0.011
   0.03391877 -0.05874904  0.03700189       0.011
   0.06783754 -0.03916602  0.03700189       0.011
   0.10175631 -0.01958301  0.03700189       0.011
  -0.06783754 -0.11749807  0.03700189       0.011
  -0.03391877 -0.09791506  0.03700189       0.011
   0.00000000 -0.03916602  0.03700189       0.011
   0.03391877 -0.01958301  0.03700189       0.011
   0.06783754 -0.00000000  0.03700189       0.011
   0.10175631  0.01958301  0.03700189       0.011
  -0.06783754 -0.07833205  0.03700189       0.011
  -0.03391877 -0.05874904  0.03700189       0.011
   0.00000000  0.00000000  0.07400377       0.011
   0.03391877  0.01958301  0.07400377       0.011
   0.06783754  0.03916602  0.07400377       0.011
   0.10175631  0.05874904  0.07400377       0.011
  -0.06783754 -0.03916602  0.07400377       0.011
  -0.03391877 -0.01958301  0.07400377       0.011
   0.00000000  0.03916602  0.07400377       0.011
   0.03391877  0.05874904  0.07400377       0.011
   0.06783754  0.07833205  0.07400377       0.011
   0.10175631  0.09791506  0.07400377       0.011
  -0.06783754  0.00000000  0.07400377       0.011
  -0.03391877  0.01958301  0.07400377       0.011
   0.00000000  0.07833205  0.07400377       0.011
   0.03391877  0.09791506  0.07400377       0.011
   0.06783754  0.11749807  0.07400377       0.011
   0.10175631  0.13708108  0.07400377       0.011
  -0.06783754  0.03916602  0.07400377       0.011
  -0.03391877  0.05874904  0.07400377       0.011
   0.00000000  0.11749807  0.07400377       0.011
   0.03391877  0.13708108  0.07400377       0.011
   0.06783754  0.15666409  0.07400377       0.011
   0.10175631  0.17624711  0.07400377       0.011
  -0.06783754  0.07833205  0.07400377       0.011
  -0.03391877  0.09791506  0.07400377       0.011
   0.00000000 -0.07833205  0.07400377       0.011
   0.03391877 -0.05874904  0.07400377       0.011
   0.06783754 -0.03916602  0.07400377       0.011
   0.10175631 -0.01958301  0.07400377       0.011
  -0.06783754 -0.11749807  0.07400377       0.011
  -0.03391877 -0.09791506  0.07400377       0.011
   0.00000000 -0.03916602  0.07400377       0.011
   0.03391877 -0.01958301  0.07400377       0.011
   0.06783754 -0.00000000  0.07400377       0.011
   0.10175631  0.01958301  0.07400377       0.011
  -0.06783754 -0.07833205  0.07400377       0.011
  -0.03391877 -0.05874904  0.07400377       0.011
 
 k-points in reciprocal lattice and weights: k-density: 4.0                          
   0.00000000  0.00000000  0.00000000       0.006
   0.16666667  0.00000000  0.00000000       0.011
   0.33333333  0.00000000  0.00000000       0.011
   0.50000000  0.00000000  0.00000000       0.006
   0.00000000  0.16666667  0.00000000       0.011
   0.16666667  0.16666667  0.00000000       0.011
   0.33333333  0.16666667  0.00000000       0.011
   0.50000000  0.16666667  0.00000000       0.011
  -0.33333333  0.16666667  0.00000000       0.011
  -0.16666667  0.16666667  0.00000000       0.011
   0.00000000  0.33333333  0.00000000       0.011
   0.16666667  0.33333333  0.00000000       0.011
   0.33333333  0.33333333  0.00000000       0.011
   0.50000000  0.33333333  0.00000000       0.011
  -0.33333333  0.33333333  0.00000000       0.011
  -0.16666667  0.33333333  0.00000000       0.011
   0.00000000  0.50000000  0.00000000       0.006
   0.16666667  0.50000000  0.00000000       0.011
   0.33333333  0.50000000  0.00000000       0.011
   0.50000000  0.50000000  0.00000000       0.006
   0.00000000  0.00000000  0.20000000       0.011
   0.16666667  0.00000000  0.20000000       0.011
   0.33333333  0.00000000  0.20000000       0.011
   0.50000000  0.00000000  0.20000000       0.011
  -0.33333333  0.00000000  0.20000000       0.011
  -0.16666667  0.00000000  0.20000000       0.011
   0.00000000  0.16666667  0.20000000       0.011
   0.16666667  0.16666667  0.20000000       0.011
   0.33333333  0.16666667  0.20000000       0.011
   0.50000000  0.16666667  0.20000000       0.011
  -0.33333333  0.16666667  0.20000000       0.011
  -0.16666667  0.16666667  0.20000000       0.011
   0.00000000  0.33333333  0.20000000       0.011
   0.16666667  0.33333333  0.20000000       0.011
   0.33333333  0.33333333  0.20000000       0.011
   0.50000000  0.33333333  0.20000000       0.011
  -0.33333333  0.33333333  0.20000000       0.011
  -0.16666667  0.33333333  0.20000000       0.011
   0.00000000  0.50000000  0.20000000       0.011
   0.16666667  0.50000000  0.20000000       0.011
   0.33333333  0.50000000  0.20000000       0.011
   0.50000000  0.50000000  0.20000000       0.011
  -0.33333333  0.50000000  0.20000000       0.011
  -0.16666667  0.50000000  0.20000000       0.011
   0.00000000 -0.33333333  0.20000000       0.011
   0.16666667 -0.33333333  0.20000000       0.011
   0.33333333 -0.33333333  0.20000000       0.011
   0.50000000 -0.33333333  0.20000000       0.011
  -0.33333333 -0.33333333  0.20000000       0.011
  -0.16666667 -0.33333333  0.20000000       0.011
   0.00000000 -0.16666667  0.20000000       0.011
   0.16666667 -0.16666667  0.20000000       0.011
   0.33333333 -0.16666667  0.20000000       0.011
   0.50000000 -0.16666667  0.20000000       0.011
  -0.33333333 -0.16666667  0.20000000       0.011
  -0.16666667 -0.16666667  0.20000000       0.011
   0.00000000  0.00000000  0.40000000       0.011
   0.16666667  0.00000000  0.40000000       0.011
   0.33333333  0.00000000  0.40000000       0.011
   0.50000000  0.00000000  0.40000000       0.011
  -0.33333333  0.00000000  0.40000000       0.011
  -0.16666667  0.00000000  0.40000000       0.011
   0.00000000  0.16666667  0.40000000       0.011
   0.16666667  0.16666667  0.40000000       0.011
   0.33333333  0.16666667  0.40000000       0.011
   0.50000000  0.16666667  0.40000000       0.011
  -0.33333333  0.16666667  0.40000000       0.011
  -0.16666667  0.16666667  0.40000000       0.011
   0.00000000  0.33333333  0.40000000       0.011
   0.16666667  0.33333333  0.40000000       0.011
   0.33333333  0.33333333  0.40000000       0.011
   0.50000000  0.33333333  0.40000000       0.011
  -0.33333333  0.33333333  0.40000000       0.011
  -0.16666667  0.33333333  0.40000000       0.011
   0.00000000  0.50000000  0.40000000       0.011
   0.16666667  0.50000000  0.40000000       0.011
   0.33333333  0.50000000  0.40000000       0.011
   0.50000000  0.50000000  0.40000000       0.011
  -0.33333333  0.50000000  0.40000000       0.011
  -0.16666667  0.50000000  0.40000000       0.011
   0.00000000 -0.33333333  0.40000000       0.011
   0.16666667 -0.33333333  0.40000000       0.011
   0.33333333 -0.33333333  0.40000000       0.011
   0.50000000 -0.33333333  0.40000000       0.011
  -0.33333333 -0.33333333  0.40000000       0.011
  -0.16666667 -0.33333333  0.40000000       0.011
   0.00000000 -0.16666667  0.40000000       0.011
   0.16666667 -0.16666667  0.40000000       0.011
   0.33333333 -0.16666667  0.40000000       0.011
   0.50000000 -0.16666667  0.40000000       0.011
  -0.33333333 -0.16666667  0.40000000       0.011
  -0.16666667 -0.16666667  0.40000000       0.011
 
 position of ions in fractional coordinates (direct lattice) 
   0.46980000  0.02000000  0.66667000
   0.00000000  0.46980000  0.33333000
   0.53020000  0.53020000  0.00000000
   0.41450000  0.26620000  0.78560000
   0.73380000  0.14830000  0.45227000
   0.85170000  0.58550000  0.11893000
   0.14830000  0.73380000  0.54773000
   0.26620000  0.41450000  0.21440000
   0.58550000  0.85170000  0.88107000
 
 position of ions in cartesian coordinates  (Angst):
   2.25931926  0.08510778  3.60343802
  -1.15422813  1.99918177  1.80169198
   1.30262187  2.25620726  0.00000000
   1.38271518  1.13278456  4.24627013
   3.24132221  0.63107419  2.44457815
   2.74651261  2.49153028  0.64283211
  -1.07413482  3.12260447  2.96055185
   0.28966261  1.76385875  1.15885987
   0.78447221  3.62431484  4.76229789
 


--------------------------------------------------------------------------------------------------------


 k-point  1 :   0.0000 0.0000 0.0000  plane waves:    3753
 k-point  2 :   0.1667 0.0000 0.0000  plane waves:    3777
 k-point  3 :   0.3333 0.0000 0.0000  plane waves:    3783
 k-point  4 :   0.5000 0.0000 0.0000  plane waves:    3778
 k-point  5 :   0.0000 0.1667 0.0000  plane waves:    3777
 k-point  6 :   0.1667 0.1667 0.0000  plane waves:    3770
 k-point  7 :   0.3333 0.1667 0.0000  plane waves:    3767
 k-point  8 :   0.5000 0.1667 0.0000  plane waves:    3767
 k-point  9 :  -0.3333 0.1667 0.0000  plane waves:    3770
 k-point 10 :  -0.1667 0.1667 0.0000  plane waves:    3777
 k-point 11 :   0.0000 0.3333 0.0000  plane waves:    3783
 k-point 12 :   0.1667 0.3333 0.0000  plane waves:    3767
 k-point 13 :   0.3333 0.3333 0.0000  plane waves:    3762
 k-point 14 :   0.5000 0.3333 0.0000  plane waves:    3767
 k-point 15 :  -0.3333 0.3333 0.0000  plane waves:    3783
 k-point 16 :  -0.1667 0.3333 0.0000  plane waves:    3770
 k-point 17 :   0.0000 0.5000 0.0000  plane waves:    3778
 k-point 18 :   0.1667 0.5000 0.0000  plane waves:    3767
 k-point 19 :   0.3333 0.5000 0.0000  plane waves:    3767
 k-point 20 :   0.5000 0.5000 0.0000  plane waves:    3778
 k-point 21 :   0.0000 0.0000 0.2000  plane waves:    3759
 k-point 22 :   0.1667 0.0000 0.2000  plane waves:    3770
 k-point 23 :   0.3333 0.0000 0.2000  plane waves:    3772
 k-point 24 :   0.5000 0.0000 0.2000  plane waves:    3774
 k-point 25 :  -0.3333 0.0000 0.2000  plane waves:    3772
 k-point 26 :  -0.1667 0.0000 0.2000  plane waves:    3770
 k-point 27 :   0.0000 0.1667 0.2000  plane waves:    3770
 k-point 28 :   0.1667 0.1667 0.2000  plane waves:    3767
 k-point 29 :   0.3333 0.1667 0.2000  plane waves:    3773
 k-point 30 :   0.5000 0.1667 0.2000  plane waves:    3773
 k-point 31 :  -0.3333 0.1667 0.2000  plane waves:    3767
 k-point 32 :  -0.1667 0.1667 0.2000  plane waves:    3770
 k-point 33 :   0.0000 0.3333 0.2000  plane waves:    3772
 k-point 34 :   0.1667 0.3333 0.2000  plane waves:    3773
 k-point 35 :   0.3333 0.3333 0.2000  plane waves:    3747
 k-point 36 :   0.5000 0.3333 0.2000  plane waves:    3773
 k-point 37 :  -0.3333 0.3333 0.2000  plane waves:    3772
 k-point 38 :  -0.1667 0.3333 0.2000  plane waves:    3767
 k-point 39 :   0.0000 0.5000 0.2000  plane waves:    3774
 k-point 40 :   0.1667 0.5000 0.2000  plane waves:    3773
 k-point 41 :   0.3333 0.5000 0.2000  plane waves:    3773
 k-point 42 :   0.5000 0.5000 0.2000  plane waves:    3774
 k-point 43 :  -0.3333 0.5000 0.2000  plane waves:    3773
 k-point 44 :  -0.1667 0.5000 0.2000  plane waves:    3773
 k-point 45 :   0.0000-0.3333 0.2000  plane waves:    3772
 k-point 46 :   0.1667-0.3333 0.2000  plane waves:    3767
 k-point 47 :   0.3333-0.3333 0.2000  plane waves:    3772
 k-point 48 :   0.5000-0.3333 0.2000  plane waves:    3773
 k-point 49 :  -0.3333-0.3333 0.2000  plane waves:    3747
 k-point 50 :  -0.1667-0.3333 0.2000  plane waves:    3773
 k-point 51 :   0.0000-0.1667 0.2000  plane waves:    3770
 k-point 52 :   0.1667-0.1667 0.2000  plane waves:    3770
 k-point 53 :   0.3333-0.1667 0.2000  plane waves:    3767
 k-point 54 :   0.5000-0.1667 0.2000  plane waves:    3773
 k-point 55 :  -0.3333-0.1667 0.2000  plane waves:    3773
 k-point 56 :  -0.1667-0.1667 0.2000  plane waves:    3767
 k-point 57 :   0.0000 0.0000 0.4000  plane waves:    3754
 k-point 58 :   0.1667 0.0000 0.4000  plane waves:    3756
 k-point 59 :   0.3333 0.0000 0.4000  plane waves:    3779
 k-point 60 :   0.5000 0.0000 0.4000  plane waves:    3758
 k-point 61 :  -0.3333 0.0000 0.4000  plane waves:    3779
 k-point 62 :  -0.1667 0.0000 0.4000  plane waves:    3756
 k-point 63 :   0.0000 0.1667 0.4000  plane waves:    3756
 k-point 64 :   0.1667 0.1667 0.4000  plane waves:    3773
 k-point 65 :   0.3333 0.1667 0.4000  plane waves:    3782
 k-point 66 :   0.5000 0.1667 0.4000  plane waves:    3782
 k-point 67 :  -0.3333 0.1667 0.4000  plane waves:    3773
 k-point 68 :  -0.1667 0.1667 0.4000  plane waves:    3756
 k-point 69 :   0.0000 0.3333 0.4000  plane waves:    3779
 k-point 70 :   0.1667 0.3333 0.4000  plane waves:    3782
 k-point 71 :   0.3333 0.3333 0.4000  plane waves:    3777
 k-point 72 :   0.5000 0.3333 0.4000  plane waves:    3782
 k-point 73 :  -0.3333 0.3333 0.4000  plane waves:    3779
 k-point 74 :  -0.1667 0.3333 0.4000  plane waves:    3773
 k-point 75 :   0.0000 0.5000 0.4000  plane waves:    3758
 k-point 76 :   0.1667 0.5000 0.4000  plane waves:    3782
 k-point 77 :   0.3333 0.5000 0.4000  plane waves:    3782
 k-point 78 :   0.5000 0.5000 0.4000  plane waves:    3758
 k-point 79 :  -0.3333 0.5000 0.4000  plane waves:    3782
 k-point 80 :  -0.1667 0.5000 0.4000  plane waves:    3782
 k-point 81 :   0.0000-0.3333 0.4000  plane waves:    3779
 k-point 82 :   0.1667-0.3333 0.4000  plane waves:    3773
 k-point 83 :   0.3333-0.3333 0.4000  plane waves:    3779
 k-point 84 :   0.5000-0.3333 0.4000  plane waves:    3782
 k-point 85 :  -0.3333-0.3333 0.4000  plane waves:    3777
 k-point 86 :  -0.1667-0.3333 0.4000  plane waves:    3782
 k-point 87 :   0.0000-0.1667 0.4000  plane waves:    3756
 k-point 88 :   0.1667-0.1667 0.4000  plane waves:    3756
 k-point 89 :   0.3333-0.1667 0.4000  plane waves:    3773
 k-point 90 :   0.5000-0.1667 0.4000  plane waves:    3782
 k-point 91 :  -0.3333-0.1667 0.4000  plane waves:    3782
 k-point 92 :  -0.1667-0.1667 0.4000  plane waves:    3773

 maximum and minimum number of plane-waves per node :      3783     3747

 maximum number of plane-waves:      3783
 maximum index in each direction: 
   IXMAX=   10   IYMAX=   10   IZMAX=   10
   IXMIN=  -10   IYMIN=  -10   IZMIN=  -11

 WARNING: aliasing errors must be expected set NGX to  42 to avoid them
 WARNING: aliasing errors must be expected set NGY to  42 to avoid them
 WARNING: aliasing errors must be expected set NGZ to  44 to avoid them
 aliasing errors are usually negligible using standard VASP settings
 and one can safely disregard these warnings

 serial   3D FFT for wavefunctions
 parallel 3D FFT for charge:
    minimum data exchange during FFTs selected (reduces bandwidth)


 total amount of memory used by VASP on root node   218018. kBytes
========================================================================

   base      :      30000. kBytes
   nonlr-proj:        985. kBytes
   fftplans  :       8088. kBytes
   grid      :      14356. kBytes
   one-center:         27. kBytes
   wavefun   :     164562. kBytes
 
     INWAV:  cpu time    0.0010: real time    0.0003
 Broyden mixing: mesh for mixing (old mesh)
   NGX = 19   NGY = 19   NGZ = 21
  (NGX  = 60   NGY  = 60   NGZ  = 64)
  gives a total of   7581 points

 initial charge density was supplied:
 charge density of overlapping atoms calculated
 number of electron      48.0000000 magnetization 
 keeping initial charge density in first step


--------------------------------------------------------------------------------------------------------


 Maximum index for non-local projection operator         1255
 Maximum index for augmentation-charges         8261 (set IRDMAX)


--------------------------------------------------------------------------------------------------------


 First call to EWALD:  gamma=   0.367
 Maximum number of real-space cells 3x 3x 3
 Maximum number of reciprocal cells 3x 3x 3

 FEWALD executed in parallel
    FEWALD:  cpu time    0.0020: real time    0.0019


----------------------------------------- Iteration    1(   1)  ---------------------------------------


    POTLOK:  cpu time    0.1140: real time    0.1153
    SETDIJ:  cpu time    0.0140: real time    0.0144
     EDDAV:  cpu time   10.9173: real time   10.9157
 BZINTS: Fermi energy: 17.629457; 48.000000 electrons
         Band energy:   4.811476;  BLOECHL correction: -0.155638
       DOS:  cpu time    0.0330: real time    0.0332
    --------------------------------------------
      LOOP:  cpu time   11.0813: real time   11.1442

 eigenvalue-minimisations  :  5336
 total energy-change (2. order) : 0.3379344E+03  (-0.2781877E+04)
 number of electron      48.0000000 magnetization 
 augmentation part       48.0000000 magnetization 

 Free energy of the ion-electron system (eV)
  ---------------------------------------------------
  alpha Z        PSCENC =        69.72802778
  Ewald energy   TEWEN  =     -1886.62880430
  -Hartree energ DENC   =      -937.03789542
  -exchange      EXHF   =         0.00000000
  -V(xc)+E(xc)   XCENC  =       142.00811426
  PAW double counting   =      1574.92322788    -1533.24131965
  entropy T*S    EENTRO =         0.00000000
  eigenvalues    EBANDS =         4.81147637
  atomic energy  EATOM  =      2903.37156096
  Solvation  Ediel_sol  =         0.00000000
  ---------------------------------------------------
  free energy    TOTEN  =       337.93438789 eV

  energy without entropy =      337.93438789  energy(sigma->0) =      337.93438789


--------------------------------------------------------------------------------------------------------




----------------------------------------- Iteration    1(   2)  ---------------------------------------


     EDDAV:  cpu time   13.7179: real time   13.7157
 BZINTS: Fermi energy: -0.315946; 48.000000 electrons
         Band energy:-391.769460;  BLOECHL correction:  0.000000
       DOS:  cpu time    0.0090: real time    0.0091
    --------------------------------------------
      LOOP:  cpu time   13.7279: real time   13.7316

 eigenvalue-minimisations  :  7159
 total energy-change (2. order) :-0.3965809E+03  (-0.3876235E+03)
 number of electron      48.0000000 magnetization 
 augmentation part       48.0000000 magnetization 

 Free energy of the ion-electron system (eV)
  ---------------------------------------------------
  alpha Z        PSCENC =        69.72802778
  Ewald energy   TEWEN  =     -1886.62880430
  -Hartree energ DENC   =      -937.03789542
  -exchange      EXHF   =         0.00000000
  -V(xc)+E(xc)   XCENC  =       142.00811426
  PAW double counting   =      1574.92322788    -1533.24131965
  entropy T*S    EENTRO =         0.00000000
  eigenvalues    EBANDS =      -391.76946027
  atomic energy  EATOM  =      2903.37156096
  Solvation  Ediel_sol  =         0.00000000
  ---------------------------------------------------
  free energy    TOTEN  =       -58.64654875 eV

  energy without entropy =      -58.64654875  energy(sigma->0) =      -58.64654875


--------------------------------------------------------------------------------------------------------




----------------------------------------- Iteration    1(   3)  ---------------------------------------


     EDDAV:  cpu time   12.3951: real time   12.3926
 BZINTS: Fermi energy: -2.018759; 48.000000 electrons
         Band energy:-413.274022;  BLOECHL correction:  0.000000
       DOS:  cpu time    0.0050: real time    0.0056
    --------------------------------------------
      LOOP:  cpu time   12.4021: real time   12.4050

 eigenvalue-minimisations  :  6256
 total energy-change (2. order) :-0.2150456E+02  (-0.2144192E+02)
 number of electron      48.0000000 magnetization 
 augmentation part       48.0000000 magnetization 

 Free energy of the ion-electron system (eV)
  ---------------------------------------------------
  alpha Z        PSCENC =        69.72802778
  Ewald energy   TEWEN  =     -1886.62880430
  -Hartree energ DENC   =      -937.03789542
  -exchange      EXHF   =         0.00000000
  -V(xc)+E(xc)   XCENC  =       142.00811426
  PAW double counting   =      1574.92322788    -1533.24131965
  entropy T*S    EENTRO =         0.00000000
  eigenvalues    EBANDS =      -413.27402189
  atomic energy  EATOM  =      2903.37156096
  Solvation  Ediel_sol  =         0.00000000
  ---------------------------------------------------
  free energy    TOTEN  =       -80.15111037 eV

  energy without entropy =      -80.15111037  energy(sigma->0) =      -80.15111037


--------------------------------------------------------------------------------------------------------




----------------------------------------- Iteration    1(   4)  ---------------------------------------


     EDDAV:  cpu time   12.4071: real time   12.4044
 BZINTS: Fermi energy: -2.026062; 48.000000 electrons
         Band energy:-413.556757;  BLOECHL correction:  0.000000
       DOS:  cpu time    0.0060: real time    0.0057
    --------------------------------------------
      LOOP:  cpu time   12.4151: real time   12.4156

 eigenvalue-minimisations  :  6288
 total energy-change (2. order) :-0.2827347E+00  (-0.2822754E+00)
 number of electron      48.0000000 magnetization 
 augmentation part       48.0000000 magnetization 

 Free energy of the ion-electron system (eV)
  ---------------------------------------------------
  alpha Z        PSCENC =        69.72802778
  Ewald energy   TEWEN  =     -1886.62880430
  -Hartree energ DENC   =      -937.03789542
  -exchange      EXHF   =         0.00000000
  -V(xc)+E(xc)   XCENC  =       142.00811426
  PAW double counting   =      1574.92322788    -1533.24131965
  entropy T*S    EENTRO =         0.00000000
  eigenvalues    EBANDS =      -413.55675660
  atomic energy  EATOM  =      2903.37156096
  Solvation  Ediel_sol  =         0.00000000
  ---------------------------------------------------
  free energy    TOTEN  =       -80.43384508 eV

  energy without entropy =      -80.43384508  energy(sigma->0) =      -80.43384508


--------------------------------------------------------------------------------------------------------




----------------------------------------- Iteration    1(   5)  ---------------------------------------


     EDDAV:  cpu time   12.1112: real time   12.1085
 BZINTS: Fermi energy: -2.086203; 48.000000 electrons
         Band energy:-413.562240;  BLOECHL correction:  0.000000
       DOS:  cpu time    0.0050: real time    0.0047
    CHARGE:  cpu time    0.7659: real time    0.7658
    MIXING:  cpu time    0.0040: real time    0.0036
    --------------------------------------------
      LOOP:  cpu time   12.8870: real time   12.8890

 eigenvalue-minimisations  :  6131
 total energy-change (2. order) :-0.5483491E-02  (-0.5481314E-02)
 number of electron      48.0000079 magnetization 
 augmentation part        4.4785883 magnetization 

 Broyden mixing:
  rms(total) = 0.18835E+01    rms(broyden)= 0.18831E+01
  rms(prec ) = 0.35103E+01
  weight for this iteration     100.00

 Free energy of the ion-electron system (eV)
  ---------------------------------------------------
  alpha Z        PSCENC =        69.72802778
  Ewald energy   TEWEN  =     -1886.62880430
  -Hartree energ DENC   =      -937.03789542
  -exchange      EXHF   =         0.00000000
  -V(xc)+E(xc)   XCENC  =       142.00811426
  PAW double counting   =      1574.92322788    -1533.24131965
  entropy T*S    EENTRO =         0.00000000
  eigenvalues    EBANDS =      -413.56224009
  atomic energy  EATOM  =      2903.37156096
  Solvation  Ediel_sol  =         0.00000000
  ---------------------------------------------------
  free energy    TOTEN  =       -80.43932857 eV

  energy without entropy =      -80.43932857  energy(sigma->0) =      -80.43932857


--------------------------------------------------------------------------------------------------------




----------------------------------------- Iteration    1(   6)  ---------------------------------------


    POTLOK:  cpu time    0.1190: real time    0.1196
    SETDIJ:  cpu time    0.0140: real time    0.0144
    EDDIAG:  cpu time    2.0487: real time    2.0477
  RMM-DIIS:  cpu time    7.4219: real time    7.4196
    ORTHCH:  cpu time    0.2330: real time    0.2334
 BZINTS: Fermi energy:  0.752214; 48.000000 electrons
         Band energy:-299.768014;  BLOECHL correction:  0.000000
       DOS:  cpu time    0.0050: real time    0.0044
    CHARGE:  cpu time    0.7749: real time    0.7754
    MIXING:  cpu time    0.0040: real time    0.0037
    --------------------------------------------
      LOOP:  cpu time   10.6214: real time   10.6240

 eigenvalue-minimisations  :  5688
 total energy-change (2. order) : 0.9689650E+01  (-0.4235761E+01)
 number of electron      48.0000067 magnetization 
 augmentation part        3.6601819 magnetization 

 Broyden mixing:
  rms(total) = 0.51520E+00    rms(broyden)= 0.51476E+00
  rms(prec ) = 0.82531E+00
  weight for this iteration     100.00

 eigenvalues of (default mixing * dielectric matrix)
  average eigenvalue GAMMA=   0.9994
  0.9994

 Free energy of the ion-electron system (eV)
  ---------------------------------------------------
  alpha Z        PSCENC =        69.72802778
  Ewald energy   TEWEN  =     -1886.62880430
  -Hartree energ DENC   =     -1046.22891838
  -exchange      EXHF   =         0.00000000
  -V(xc)+E(xc)   XCENC  =       149.33376098
  PAW double counting   =      1884.81102643    -1845.36831725
  entropy T*S    EENTRO =         0.00000000
  eigenvalues    EBANDS =      -299.76801430
  atomic energy  EATOM  =      2903.37156096
  Solvation  Ediel_sol  =         0.00000000
  ---------------------------------------------------
  free energy    TOTEN  =       -70.74967807 eV

  energy without entropy =      -70.74967807  energy(sigma->0) =      -70.74967807


--------------------------------------------------------------------------------------------------------




----------------------------------------- Iteration    1(   7)  ---------------------------------------


    POTLOK:  cpu time    0.1130: real time    0.1134
    SETDIJ:  cpu time    0.0140: real time    0.0135
    EDDIAG:  cpu time    2.0377: real time    2.0383
  RMM-DIIS:  cpu time    7.9288: real time    7.9254
    ORTHCH:  cpu time    0.2400: real time    0.2407
 BZINTS: Fermi energy:  1.116750; 48.000000 electrons
         Band energy:-283.365399;  BLOECHL correction:  0.000000
       DOS:  cpu time    0.0050: real time    0.0046
    CHARGE:  cpu time    0.7819: real time    0.7823
    MIXING:  cpu time    0.0040: real time    0.0037
    --------------------------------------------
      LOOP:  cpu time   11.1253: real time   11.1292

 eigenvalue-minimisations  :  6151
 total energy-change (2. order) : 0.1722245E-01  (-0.1721135E+00)
 number of electron      48.0000066 magnetization 
 augmentation part        3.5475512 magnetization 

 Broyden mixing:
  rms(total) = 0.34059E+00    rms(broyden)= 0.34052E+00
  rms(prec ) = 0.48411E+00
  weight for this iteration     100.00

 eigenvalues of (default mixing * dielectric matrix)
  average eigenvalue GAMMA=   1.7411
  1.1571  2.3251

 Free energy of the ion-electron system (eV)
  ---------------------------------------------------
  alpha Z        PSCENC =        69.72802778
  Ewald energy   TEWEN  =     -1886.62880430
  -Hartree energ DENC   =     -1063.60381053
  -exchange      EXHF   =         0.00000000
  -V(xc)+E(xc)   XCENC  =       150.51203172
  PAW double counting   =      1977.50413979    -1938.25020197
  entropy T*S    EENTRO =         0.00000000
  eigenvalues    EBANDS =      -283.36539907
  atomic energy  EATOM  =      2903.37156096
  Solvation  Ediel_sol  =         0.00000000
  ---------------------------------------------------
  free energy    TOTEN  =       -70.73245563 eV

  energy without entropy =      -70.73245563  energy(sigma->0) =      -70.73245563


--------------------------------------------------------------------------------------------------------




----------------------------------------- Iteration    1(   8)  ---------------------------------------


    POTLOK:  cpu time    0.1150: real time    0.1161
    SETDIJ:  cpu time    0.0140: real time    0.0135
    EDDIAG:  cpu time    2.0357: real time    2.0390
  RMM-DIIS:  cpu time    7.9198: real time    7.9179
    ORTHCH:  cpu time    0.2440: real time    0.2437
 BZINTS: Fermi energy:  1.102632; 48.000000 electrons
         Band energy:-280.818731;  BLOECHL correction:  0.000000
       DOS:  cpu time    0.0050: real time    0.0057
    CHARGE:  cpu time    0.7749: real time    0.7741
    MIXING:  cpu time    0.0040: real time    0.0038
    --------------------------------------------
      LOOP:  cpu time   11.1143: real time   11.1213

 eigenvalue-minimisations  :  6052
 total energy-change (2. order) :-0.1596777E-01  (-0.2879253E-01)
 number of electron      48.0000066 magnetization 
 augmentation part        3.5896195 magnetization 

 Broyden mixing:
  rms(total) = 0.65511E-01    rms(broyden)= 0.65505E-01
  rms(prec ) = 0.12226E+00
  weight for this iteration     100.00

 eigenvalues of (default mixing * dielectric matrix)
  average eigenvalue GAMMA=   1.5717
  2.5482  1.0834  1.0834

 Free energy of the ion-electron system (eV)
  ---------------------------------------------------
  alpha Z        PSCENC =        69.72802778
  Ewald energy   TEWEN  =     -1886.62880430
  -Hartree energ DENC   =     -1066.56649616
  -exchange      EXHF   =         0.00000000
  -V(xc)+E(xc)   XCENC  =       150.79680664
  PAW double counting   =      2048.45400392    -2009.08479126
  entropy T*S    EENTRO =         0.00000000
  eigenvalues    EBANDS =      -280.81873097
  atomic energy  EATOM  =      2903.37156096
  Solvation  Ediel_sol  =         0.00000000
  ---------------------------------------------------
  free energy    TOTEN  =       -70.74842339 eV

  energy without entropy =      -70.74842339  energy(sigma->0) =      -70.74842339


--------------------------------------------------------------------------------------------------------




----------------------------------------- Iteration    1(   9)  ---------------------------------------


    POTLOK:  cpu time    0.1150: real time    0.1162
    SETDIJ:  cpu time    0.0140: real time    0.0139
    EDDIAG:  cpu time    2.0237: real time    2.0221
  RMM-DIIS:  cpu time    8.2317: real time    8.2295
    ORTHCH:  cpu time    0.2350: real time    0.2352
 BZINTS: Fermi energy:  1.196751; 48.000000 electrons
         Band energy:-276.103738;  BLOECHL correction:  0.000000
       DOS:  cpu time    0.0050: real time    0.0044
    CHARGE:  cpu time    0.7729: real time    0.7733
    MIXING:  cpu time    0.0040: real time    0.0038
    --------------------------------------------
      LOOP:  cpu time   11.4023: real time   11.4187

 eigenvalue-minimisations  :  6250
 total energy-change (2. order) : 0.8322173E-02  (-0.5340003E-02)
 number of electron      48.0000066 magnetization 
 augmentation part        3.5660081 magnetization 

 Broyden mixing:
  rms(total) = 0.15073E-01    rms(broyden)= 0.15062E-01
  rms(prec ) = 0.23548E-01
  weight for this iteration     100.00

 eigenvalues of (default mixing * dielectric matrix)
  average eigenvalue GAMMA=   1.6586
  2.6245  1.9672  1.0213  1.0213

 Free energy of the ion-electron system (eV)
  ---------------------------------------------------
  alpha Z        PSCENC =        69.72802778
  Ewald energy   TEWEN  =     -1886.62880430
  -Hartree energ DENC   =     -1071.53140270
  -exchange      EXHF   =         0.00000000
  -V(xc)+E(xc)   XCENC  =       151.13864836
  PAW double counting   =      2060.65647049    -2021.37086389
  entropy T*S    EENTRO =         0.00000000
  eigenvalues    EBANDS =      -276.10373793
  atomic energy  EATOM  =      2903.37156096
  Solvation  Ediel_sol  =         0.00000000
  ---------------------------------------------------
  free energy    TOTEN  =       -70.74010122 eV

  energy without entropy =      -70.74010122  energy(sigma->0) =      -70.74010122


--------------------------------------------------------------------------------------------------------




----------------------------------------- Iteration    1(  10)  ---------------------------------------


    POTLOK:  cpu time    0.1130: real time    0.1131
    SETDIJ:  cpu time    0.0130: real time    0.0135
    EDDIAG:  cpu time    2.0167: real time    2.0154
  RMM-DIIS:  cpu time    8.1038: real time    8.1033
    ORTHCH:  cpu time    0.2340: real time    0.2334
 BZINTS: Fermi energy:  1.218223; 48.000000 electrons
         Band energy:-274.807212;  BLOECHL correction:  0.000000
       DOS:  cpu time    0.0040: real time    0.0044
    CHARGE:  cpu time    0.7799: real time    0.7803
    MIXING:  cpu time    0.0040: real time    0.0039
    --------------------------------------------
      LOOP:  cpu time   11.2693: real time   11.2732

 eigenvalue-minimisations  :  6192
 total energy-change (2. order) :-0.2782424E-02  (-0.1608618E-02)
 number of electron      48.0000066 magnetization 
 augmentation part        3.5533798 magnetization 

 Broyden mixing:
  rms(total) = 0.19882E-01    rms(broyden)= 0.19876E-01
  rms(prec ) = 0.34216E-01
  weight for this iteration     100.00

 eigenvalues of (default mixing * dielectric matrix)
  average eigenvalue GAMMA=   1.6628
  2.6530  2.3706  1.0209  1.1348  1.1348

 Free energy of the ion-electron system (eV)
  ---------------------------------------------------
  alpha Z        PSCENC =        69.72802778
  Ewald energy   TEWEN  =     -1886.62880430
  -Hartree energ DENC   =     -1072.89692259
  -exchange      EXHF   =         0.00000000
  -V(xc)+E(xc)   XCENC  =       151.22908293
  PAW double counting   =      2058.02532281    -2018.76393905
  entropy T*S    EENTRO =         0.00000000
  eigenvalues    EBANDS =      -274.80721218
  atomic energy  EATOM  =      2903.37156096
  Solvation  Ediel_sol  =         0.00000000
  ---------------------------------------------------
  free energy    TOTEN  =       -70.74288364 eV

  energy without entropy =      -70.74288364  energy(sigma->0) =      -70.74288364


--------------------------------------------------------------------------------------------------------




----------------------------------------- Iteration    1(  11)  ---------------------------------------


    POTLOK:  cpu time    0.1130: real time    0.1136
    SETDIJ:  cpu time    0.0140: real time    0.0135
    EDDIAG:  cpu time    2.0537: real time    2.0530
  RMM-DIIS:  cpu time    8.0418: real time    8.0399
    ORTHCH:  cpu time    0.2350: real time    0.2355
 BZINTS: Fermi energy:  1.205117; 48.000000 electrons
         Band energy:-276.018128;  BLOECHL correction:  0.000000
       DOS:  cpu time    0.0050: real time    0.0047
    CHARGE:  cpu time    0.7909: real time    0.7906
    MIXING:  cpu time    0.0040: real time    0.0044
    --------------------------------------------
      LOOP:  cpu time   11.2593: real time   11.2627

 eigenvalue-minimisations  :  6185
 total energy-change (2. order) : 0.8622681E-03  (-0.4466150E-03)
 number of electron      48.0000066 magnetization 
 augmentation part        3.5608785 magnetization 

 Broyden mixing:
  rms(total) = 0.18197E-02    rms(broyden)= 0.18122E-02
  rms(prec ) = 0.26618E-02
  weight for this iteration     100.00

 eigenvalues of (default mixing * dielectric matrix)
  average eigenvalue GAMMA=   1.6451
  2.9021  2.4609  0.9619  1.2197  1.1629  1.1629

 Free energy of the ion-electron system (eV)
  ---------------------------------------------------
  alpha Z        PSCENC =        69.72802778
  Ewald energy   TEWEN  =     -1886.62880430
  -Hartree energ DENC   =     -1071.62336756
  -exchange      EXHF   =         0.00000000
  -V(xc)+E(xc)   XCENC  =       151.14166702
  PAW double counting   =      2053.38939655    -2014.10237397
  entropy T*S    EENTRO =         0.00000000
  eigenvalues    EBANDS =      -276.01812785
  atomic energy  EATOM  =      2903.37156096
  Solvation  Ediel_sol  =         0.00000000
  ---------------------------------------------------
  free energy    TOTEN  =       -70.74202137 eV

  energy without entropy =      -70.74202137  energy(sigma->0) =      -70.74202137


--------------------------------------------------------------------------------------------------------




----------------------------------------- Iteration    1(  12)  ---------------------------------------


    POTLOK:  cpu time    0.1200: real time    0.1209
    SETDIJ:  cpu time    0.0140: real time    0.0144
    EDDIAG:  cpu time    2.0257: real time    2.0246
  RMM-DIIS:  cpu time    7.6058: real time    7.6041
    ORTHCH:  cpu time    0.2490: real time    0.2486
 BZINTS: Fermi energy:  1.210702; 48.000000 electrons
         Band energy:-275.843957;  BLOECHL correction:  0.000000
       DOS:  cpu time    0.0040: real time    0.0047
    CHARGE:  cpu time    0.7979: real time    0.7979
    MIXING:  cpu time    0.0050: real time    0.0046
    --------------------------------------------
      LOOP:  cpu time   10.8244: real time   10.8261

 eigenvalue-minimisations  :  5737
 total energy-change (2. order) :-0.4220206E-04  (-0.1674937E-04)
 number of electron      48.0000066 magnetization 
 augmentation part        3.5604693 magnetization 

 Broyden mixing:
  rms(total) = 0.14257E-02    rms(broyden)= 0.14257E-02
  rms(prec ) = 0.24810E-02
  weight for this iteration     100.00

 eigenvalues of (default mixing * dielectric matrix)
  average eigenvalue GAMMA=   1.7242
  2.9799  2.3742  2.3742  0.9844  1.1379  1.1092  1.1092

 Free energy of the ion-electron system (eV)
  ---------------------------------------------------
  alpha Z        PSCENC =        69.72802778
  Ewald energy   TEWEN  =     -1886.62880430
  -Hartree energ DENC   =     -1071.80469358
  -exchange      EXHF   =         0.00000000
  -V(xc)+E(xc)   XCENC  =       151.15238191
  PAW double counting   =      2053.11271787    -2013.82929718
  entropy T*S    EENTRO =         0.00000000
  eigenvalues    EBANDS =      -275.84395703
  atomic energy  EATOM  =      2903.37156096
  Solvation  Ediel_sol  =         0.00000000
  ---------------------------------------------------
  free energy    TOTEN  =       -70.74206358 eV

  energy without entropy =      -70.74206358  energy(sigma->0) =      -70.74206358


--------------------------------------------------------------------------------------------------------




----------------------------------------- Iteration    1(  13)  ---------------------------------------


    POTLOK:  cpu time    0.1130: real time    0.1133
    SETDIJ:  cpu time    0.0130: real time    0.0135
    EDDIAG:  cpu time    2.0247: real time    2.0231
  RMM-DIIS:  cpu time    5.5891: real time    5.5885
    ORTHCH:  cpu time    0.2330: real time    0.2333
 BZINTS: Fermi energy:  1.211114; 48.000000 electrons
         Band energy:-275.869357;  BLOECHL correction:  0.000000
       DOS:  cpu time    0.0050: real time    0.0044
    --------------------------------------------
      LOOP:  cpu time    7.9788: real time    8.0077

 eigenvalue-minimisations  :  4018
 total energy-change (2. order) :-0.1080129E-05  (-0.1062788E-05)
 number of electron      48.0000066 magnetization 
 augmentation part        3.5604693 magnetization 

 Free energy of the ion-electron system (eV)
  ---------------------------------------------------
  alpha Z        PSCENC =        69.72802778
  Ewald energy   TEWEN  =     -1886.62880430
  -Hartree energ DENC   =     -1071.77774998
  -exchange      EXHF   =         0.00000000
  -V(xc)+E(xc)   XCENC  =       151.14999083
  PAW double counting   =      2053.11582521    -2013.83155820
  entropy T*S    EENTRO =         0.00000000
  eigenvalues    EBANDS =      -275.86935695
  atomic energy  EATOM  =      2903.37156096
  Solvation  Ediel_sol  =         0.00000000
  ---------------------------------------------------
  free energy    TOTEN  =       -70.74206466 eV

  energy without entropy =      -70.74206466  energy(sigma->0) =      -70.74206466


--------------------------------------------------------------------------------------------------------




 average (electrostatic) potential at core
  the test charge radii are     0.9892  0.7215
  (the norm of the test charge is              1.0000)
       1 -86.4021       2 -86.3389       3 -86.4261       4 -72.9092       5 -72.4223
       6 -72.3956       7 -72.1897       8 -72.3879       9 -72.0433
 
 
 
 E-fermi :   1.2111     XC(G=0):  -9.2017     alpha+bet :-10.3421


 k-point     1 :       0.0000    0.0000    0.0000
  band No.  band energies     occupation 
      1     -18.4520      2.00000
      2     -17.1492      2.00000
      3     -16.7886      2.00000
      4     -16.1743      2.00000
      5     -16.0433      2.00000
      6     -15.9635      2.00000
      7      -7.2688      2.00000
      8      -7.1095      2.00000
      9      -4.5348      2.00000
     10      -4.2264      2.00000
     11      -4.1302      2.00000
     12      -4.1118      2.00000
     13      -1.9451      2.00000
     14      -1.8390      2.00000
     15      -1.7516      2.00000
     16      -1.2618      2.00000
     17      -0.5507      2.00000
     18      -0.4362      2.00000
     19      -0.3902      2.00000
     20       0.1481      2.00000
     21       0.2307      2.00000
     22       0.4744      2.00000
     23       0.7534      2.00000
     24       0.8609      2.00000
     25       7.0987      0.00000
     26      10.3288      0.00000
     27      10.4302      0.00000
     28      10.8559      0.00000
     29      10.9555      0.00000

 k-point     2 :       0.1667    0.0000    0.0000
  band No.  band energies     occupation 
      1     -18.3827      2.00000
      2     -17.1776      2.00000
      3     -16.7795      2.00000
      4     -16.2776      2.00000
      5     -16.0853      2.00000
      6     -15.9127      2.00000
      7      -7.2995      2.00000
      8      -6.9305      2.00000
      9      -4.5605      2.00000
     10      -4.2950      2.00000
     11      -4.1691      2.00000
     12      -3.9818      2.00000
     13      -2.0130      2.00000
     14      -1.8703      2.00000
     15      -1.6333      2.00000
     16      -1.1866      2.00000
     17      -0.7451      2.00000
     18      -0.4643      2.00000
     19      -0.3929      2.00000
     20       0.0936      2.00000
     21       0.1322      2.00000
     22       0.3866      2.00000
     23       0.8384      2.00000
     24       0.9368      2.00000
     25       7.5216      0.00000
     26      10.3506      0.00000
     27      10.4718      0.00000
     28      10.8723      0.00000
     29      11.0849      0.00000

 k-point     3 :       0.3333    0.0000    0.0000
  band No.  band energies     occupation 
      1     -18.2112      2.00000
      2     -17.2739      2.00000
      3     -16.7613      2.00000
      4     -16.4582      2.00000
      5     -16.1177      2.00000
      6     -15.8793      2.00000
      7      -7.3644      2.00000
      8      -6.5098      2.00000
      9      -4.6202      2.00000
     10      -4.5361      2.00000
     11      -4.1843      2.00000
     12      -3.6775      2.00000
     13      -2.1314      2.00000
     14      -1.6929      2.00000
     15      -1.6132      2.00000
     16      -1.3006      2.00000
     17      -0.9857      2.00000
     18      -0.5526      2.00000
     19      -0.4484      2.00000
     20       0.0298      2.00000
     21       0.0717      2.00000
     22       0.2918      2.00000
     23       0.9139      2.00000
     24       1.0438      2.00000
     25       8.5196      0.00000
     26      10.3772      0.00000
     27      10.5971      0.00000
     28      11.0691      0.00000
     29      11.6603      0.00000

 k-point     4 :       0.5000    0.0000    0.0000
  band No.  band energies     occupation 
      1     -18.0944      2.00000
      2     -17.3600      2.00000
      3     -16.7528      2.00000
      4     -16.5337      2.00000
      5     -16.1315      2.00000
      6     -15.8711      2.00000
      7      -7.3962      2.00000
      8      -6.2469      2.00000
      9      -4.7704      2.00000
     10      -4.5708      2.00000
     11      -4.1934      2.00000
     12      -3.5090      2.00000
     13      -2.1344      2.00000
     14      -1.7721      2.00000
     15      -1.6024      2.00000
     16      -1.3126      2.00000
     17      -1.0531      2.00000
     18      -0.6312      2.00000
     19      -0.5211      2.00000
     20       0.0475      2.00000
     21       0.0681      2.00000
     22       0.2714      2.00000
     23       0.9165      2.00000
     24       1.0930      2.00000
     25       9.3502      0.00000
     26      10.0891      0.00000
     27      10.7763      0.00000
     28      10.9346      0.00000
     29      11.6194      0.00000

 k-point     5 :       0.0000    0.1667    0.0000
  band No.  band energies     occupation 
      1     -18.3768      2.00000
      2     -17.1886      2.00000
      3     -16.8126      2.00000
      4     -16.1816      2.00000
      5     -16.1109      2.00000
      6     -15.9440      2.00000
      7      -7.2551      2.00000
      8      -6.9859      2.00000
      9      -4.5438      2.00000
     10      -4.2907      2.00000
     11      -4.2027      2.00000
     12      -3.9509      2.00000
     13      -2.0630      2.00000
     14      -1.8102      2.00000
     15      -1.6880      2.00000
     16      -1.1531      2.00000
     17      -0.6876      2.00000
     18      -0.5016      2.00000
     19      -0.4530      2.00000
     20       0.1082      2.00000
     21       0.1765      2.00000
     22       0.3805      2.00000
     23       0.8410      2.00000
     24       0.9294      2.00000
     25       7.5190      0.00000
     26      10.3461      0.00000
     27      10.4374      0.00000
     28      10.9392      0.00000
     29      11.0564      0.00000

 k-point     6 :       0.1667    0.1667    0.0000
  band No.  band energies     occupation 
      1     -18.2538      2.00000
      2     -17.2560      2.00000
      3     -16.8056      2.00000
      4     -16.3273      2.00000
      5     -16.1343      2.00000
      6     -15.9027      2.00000
      7      -7.3444      2.00000
      8      -6.6298      2.00000
      9      -4.6956      2.00000
     10      -4.4117      2.00000
     11      -4.1195      2.00000
     12      -3.7769      2.00000
     13      -2.0913      2.00000
     14      -1.7947      2.00000
     15      -1.6095      2.00000
     16      -1.1947      2.00000
     17      -1.0179      2.00000
     18      -0.5325      2.00000
     19      -0.3329      2.00000
     20      -0.0290      2.00000
     21       0.1428      2.00000
     22       0.2873      2.00000
     23       0.9390      2.00000
     24       0.9749      2.00000
     25       8.2244      0.00000
     26      10.4339      0.00000
     27      10.5482      0.00000
     28      11.0085      0.00000
     29      11.2780      0.00000

 k-point     7 :       0.3333    0.1667    0.0000
  band No.  band energies     occupation 
      1     -18.0835      2.00000
      2     -17.3752      2.00000
      3     -16.8104      2.00000
      4     -16.4551      2.00000
      5     -16.1361      2.00000
      6     -15.8824      2.00000
      7      -7.4036      2.00000
      8      -6.1769      2.00000
      9      -5.0383      2.00000
     10      -4.4393      2.00000
     11      -4.1045      2.00000
     12      -3.5280      2.00000
     13      -2.1019      2.00000
     14      -1.7636      2.00000
     15      -1.6770      2.00000
     16      -1.2681      2.00000
     17      -1.0567      2.00000
     18      -0.6642      2.00000
     19      -0.3652      2.00000
     20      -0.1533      2.00000
     21       0.0258      2.00000
     22       0.3998      2.00000
     23       0.9096      2.00000
     24       1.0909      2.00000
     25       9.2316      0.00000
     26      10.3394      0.00000
     27      10.6847      0.00000
     28      11.1066      0.00000
     29      11.6272      0.00000

 k-point     8 :       0.5000    0.1667    0.0000
  band No.  band energies     occupation 
      1     -18.0778      2.00000
      2     -17.3822      2.00000
      3     -16.8076      2.00000
      4     -16.4764      2.00000
      5     -16.1165      2.00000
      6     -15.8819      2.00000
      7      -7.3940      2.00000
      8      -6.1849      2.00000
      9      -5.0484      2.00000
     10      -4.4247      2.00000
     11      -4.1207      2.00000
     12      -3.5270      2.00000
     13      -2.0961      2.00000
     14      -1.7776      2.00000
     15      -1.6881      2.00000
     16      -1.2151      2.00000
     17      -0.9920      2.00000
     18      -0.6661      2.00000
     19      -0.4972      2.00000
     20      -0.1807      2.00000
     21       0.0597      2.00000
     22       0.4332      2.00000
     23       0.8809      2.00000
     24       1.1264      2.00000
     25       9.2412      0.00000
     26      10.3193      0.00000
     27      10.6673      0.00000
     28      11.1231      0.00000
     29      11.4688      0.00000

 k-point     9 :      -0.3333    0.1667    0.0000
  band No.  band energies     occupation 
      1     -18.2468      2.00000
      2     -17.2631      2.00000
      3     -16.8046      2.00000
      4     -16.3829      2.00000
      5     -16.0788      2.00000
      6     -15.9029      2.00000
      7      -7.3130      2.00000
      8      -6.6602      2.00000
      9      -4.7185      2.00000
     10      -4.3896      2.00000
     11      -4.1367      2.00000
     12      -3.7757      2.00000
     13      -2.0964      2.00000
     14      -1.8364      2.00000
     15      -1.5183      2.00000
     16      -1.1581      2.00000
     17      -0.9716      2.00000
     18      -0.6025      2.00000
     19      -0.3880      2.00000
     20      -0.1493      2.00000
     21       0.1910      2.00000
     22       0.3486      2.00000
     23       0.8701      2.00000
     24       1.0722      2.00000
     25       8.2267      0.00000
     26      10.3695      0.00000
     27      10.5808      0.00000
     28      11.0226      0.00000
     29      11.2352      0.00000

 k-point    10 :      -0.1667    0.1667    0.0000
  band No.  band energies     occupation 
      1     -18.3742      2.00000
      2     -17.1901      2.00000
      3     -16.8142      2.00000
      4     -16.2369      2.00000
      5     -16.0488      2.00000
      6     -15.9499      2.00000
      7      -7.2078      2.00000
      8      -7.0332      2.00000
      9      -4.5519      2.00000
     10      -4.3057      2.00000
     11      -4.1827      2.00000
     12      -3.9548      2.00000
     13      -2.0741      2.00000
     14      -1.8334      2.00000
[...]
      8      -6.0399      2.00000
      9      -5.1144      2.00000
     10      -4.3281      2.00000
     11      -4.1213      2.00000
     12      -3.6982      2.00000
     13      -2.0730      2.00000
     14      -1.9848      2.00000
     15      -1.3655      2.00000
     16      -1.2809      2.00000
     17      -0.9547      2.00000
     18      -0.4909      2.00000
     19      -0.3662      2.00000
     20      -0.1619      2.00000
     21       0.1300      2.00000
     22       0.4813      2.00000
     23       0.8095      2.00000
     24       1.0143      2.00000
     25       9.1806      0.00000
     26      10.0726      0.00000
     27      10.4680      0.00000
     28      11.0108      0.00000
     29      11.3353      0.00000

 k-point    83 :       0.3333   -0.3333    0.4000
  band No.  band energies     occupation 
      1     -18.0410      2.00000
      2     -17.5313      2.00000
      3     -16.8435      2.00000
      4     -16.3314      2.00000
      5     -16.0825      2.00000
      6     -15.8762      2.00000
      7      -7.5117      2.00000
      8      -6.1192      2.00000
      9      -5.1829      2.00000
     10      -4.2257      2.00000
     11      -4.1684      2.00000
     12      -3.6825      2.00000
     13      -2.0935      2.00000
     14      -2.0699      2.00000
     15      -1.3335      2.00000
     16      -1.2358      2.00000
     17      -1.0039      2.00000
     18      -0.5185      2.00000
     19      -0.2907      2.00000
     20      -0.0991      2.00000
     21       0.1278      2.00000
     22       0.4178      2.00000
     23       0.7028      2.00000
     24       1.0838      2.00000
     25       9.3255      0.00000
     26      10.3611      0.00000
     27      10.4745      0.00000
     28      11.0195      0.00000
     29      11.2649      0.00000

 k-point    84 :       0.5000   -0.3333    0.4000
  band No.  band energies     occupation 
      1     -17.9774      2.00000
      2     -17.4616      2.00000
      3     -16.8981      2.00000
      4     -16.4103      2.00000
      5     -16.1316      2.00000
      6     -15.8857      2.00000
      7      -7.1743      2.00000
      8      -6.2479      2.00000
      9      -5.3676      2.00000
     10      -4.2836      2.00000
     11      -3.9899      2.00000
     12      -3.7382      2.00000
     13      -2.1535      2.00000
     14      -2.0797      2.00000
     15      -1.3997      2.00000
     16      -1.1664      2.00000
     17      -0.9240      2.00000
     18      -0.6528      2.00000
     19      -0.2270      2.00000
     20       0.0549      2.00000
     21       0.1974      2.00000
     22       0.3840      2.00000
     23       0.5983      2.00000
     24       0.9529      2.00000
     25       9.8111      0.00000
     26      10.4895      0.00000
     27      10.7579      0.00000
     28      11.0157      0.00000
     29      11.3562      0.00000

 k-point    85 :      -0.3333   -0.3333    0.4000
  band No.  band energies     occupation 
      1     -17.9335      2.00000
      2     -17.4817      2.00000
      3     -16.8261      2.00000
      4     -16.4735      2.00000
      5     -16.1912      2.00000
      6     -15.8886      2.00000
      7      -6.9723      2.00000
      8      -6.2912      2.00000
      9      -5.5111      2.00000
     10      -4.3122      2.00000
     11      -3.9031      2.00000
     12      -3.7823      2.00000
     13      -2.1837      2.00000
     14      -1.9642      2.00000
     15      -1.5680      2.00000
     16      -1.0824      2.00000
     17      -0.8675      2.00000
     18      -0.7959      2.00000
     19      -0.0920      2.00000
     20       0.1218      2.00000
     21       0.2782      2.00000
     22       0.3603      2.00000
     23       0.5705      2.00000
     24       0.7658      2.00000
     25      10.1288      0.00000
     26      10.5570      0.00000
     27      10.8658      0.00000
     28      11.2635      0.00000
     29      11.4594      0.00000

 k-point    86 :      -0.1667   -0.3333    0.4000
  band No.  band energies     occupation 
      1     -17.9616      2.00000
      2     -17.5521      2.00000
      3     -16.7094      2.00000
      4     -16.4691      2.00000
      5     -16.1897      2.00000
      6     -15.8837      2.00000
      7      -7.2355      2.00000
      8      -6.1633      2.00000
      9      -5.3670      2.00000
     10      -4.2918      2.00000
     11      -3.9757      2.00000
     12      -3.7584      2.00000
     13      -2.1696      2.00000
     14      -2.0269      2.00000
     15      -1.4947      2.00000
     16      -1.1908      2.00000
     17      -0.8785      2.00000
     18      -0.6202      2.00000
     19      -0.1558      2.00000
     20      -0.0570      2.00000
     21       0.1885      2.00000
     22       0.5051      2.00000
     23       0.6848      2.00000
     24       0.7839      2.00000
     25       9.8882      0.00000
     26      10.3254      0.00000
     27      10.7335      0.00000
     28      11.2378      0.00000
     29      11.5930      0.00000

 k-point    87 :       0.0000   -0.1667    0.4000
  band No.  band energies     occupation 
      1     -18.1444      2.00000
      2     -17.7049      2.00000
      3     -16.5883      2.00000
      4     -16.1836      2.00000
      5     -16.1243      2.00000
      6     -15.8443      2.00000
      7      -8.0327      2.00000
      8      -5.7669      2.00000
      9      -4.9742      2.00000
     10      -4.4569      2.00000
     11      -4.2823      2.00000
     12      -3.6674      2.00000
     13      -1.9296      2.00000
     14      -1.7473      2.00000
     15      -1.5056      2.00000
     16      -1.1989      2.00000
     17      -0.9207      2.00000
     18      -0.6108      2.00000
     19      -0.4765      2.00000
     20      -0.3315      2.00000
     21       0.0611      2.00000
     22       0.6983      2.00000
     23       0.9115      2.00000
     24       1.0310      2.00000
     25       8.7436      0.00000
     26       9.7543      0.00000
     27      10.3698      0.00000
     28      10.6382      0.00000
     29      11.2871      0.00000

 k-point    88 :       0.1667   -0.1667    0.4000
  band No.  band energies     occupation 
      1     -18.1504      2.00000
      2     -17.6853      2.00000
      3     -16.6217      2.00000
      4     -16.2317      2.00000
      5     -16.0610      2.00000
      6     -15.8391      2.00000
      7      -8.0252      2.00000
      8      -5.7870      2.00000
      9      -4.9719      2.00000
     10      -4.4522      2.00000
     11      -4.2900      2.00000
     12      -3.6515      2.00000
     13      -1.9293      2.00000
     14      -1.7509      2.00000
     15      -1.4987      2.00000
     16      -1.1988      2.00000
     17      -0.9236      2.00000
     18      -0.6657      2.00000
     19      -0.4318      2.00000
     20      -0.3119      2.00000
     21       0.0555      2.00000
     22       0.6593      2.00000
     23       0.8580      2.00000
     24       1.1183      2.00000
     25       8.7146      0.00000
     26       9.8197      0.00000
     27      10.2730      0.00000
     28      10.8117      0.00000
     29      11.2874      0.00000

 k-point    89 :       0.3333   -0.1667    0.4000
  band No.  band energies     occupation 
      1     -18.0903      2.00000
      2     -17.5629      2.00000
      3     -16.7067      2.00000
      4     -16.3626      2.00000
      5     -16.1043      2.00000
      6     -15.8523      2.00000
      7      -7.6848      2.00000
      8      -5.9343      2.00000
      9      -5.1595      2.00000
     10      -4.3571      2.00000
     11      -4.1301      2.00000
     12      -3.7180      2.00000
     13      -2.0815      2.00000
     14      -1.9169      2.00000
     15      -1.3930      2.00000
     16      -1.2842      2.00000
     17      -0.9094      2.00000
     18      -0.5337      2.00000
     19      -0.3948      2.00000
     20      -0.1061      2.00000
     21       0.1085      2.00000
     22       0.4759      2.00000
     23       0.7874      2.00000
     24       1.0218      2.00000
     25       9.1953      0.00000
     26      10.0786      0.00000
     27      10.4809      0.00000
     28      11.0056      0.00000
     29      11.4625      0.00000

 k-point    90 :       0.5000   -0.1667    0.4000
  band No.  band energies     occupation 
      1     -18.0249      2.00000
      2     -17.3910      2.00000
      3     -16.8554      2.00000
      4     -16.4577      2.00000
      5     -16.1727      2.00000
      6     -15.8654      2.00000
      7      -7.2377      2.00000
      8      -6.1574      2.00000
      9      -5.3224      2.00000
     10      -4.3672      2.00000
     11      -3.9246      2.00000
     12      -3.8047      2.00000
     13      -2.1780      2.00000
     14      -2.0129      2.00000
     15      -1.4241      2.00000
     16      -1.1865      2.00000
     17      -0.8960      2.00000
     18      -0.6346      2.00000
     19      -0.1807      2.00000
     20      -0.0028      2.00000
     21       0.2302      2.00000
     22       0.3286      2.00000
     23       0.6515      2.00000
     24       0.8902      2.00000
     25       9.8901      0.00000
     26      10.4007      0.00000
     27      10.7055      0.00000
     28      11.1014      0.00000
     29      11.5857      0.00000

 k-point    91 :      -0.3333   -0.1667    0.4000
  band No.  band energies     occupation 
      1     -18.0183      2.00000
      2     -17.4378      2.00000
      3     -16.7573      2.00000
      4     -16.5005      2.00000
      5     -16.1855      2.00000
      6     -15.8680      2.00000
      7      -7.2614      2.00000
      8      -6.1151      2.00000
      9      -5.3371      2.00000
     10      -4.3695      2.00000
     11      -3.9121      2.00000
     12      -3.8108      2.00000
     13      -2.1636      2.00000
     14      -2.0146      2.00000
     15      -1.4490      2.00000
     16      -1.1951      2.00000
     17      -0.9429      2.00000
     18      -0.5884      2.00000
     19      -0.1510      2.00000
     20      -0.0074      2.00000
     21       0.2222      2.00000
     22       0.3781      2.00000
     23       0.5927      2.00000
     24       0.8944      2.00000
     25       9.8122      0.00000
     26      10.5509      0.00000
     27      10.7817      0.00000
     28      11.1401      0.00000
     29      11.3345      0.00000

 k-point    92 :      -0.1667   -0.1667    0.4000
  band No.  band energies     occupation 
      1     -18.0774      2.00000
      2     -17.6149      2.00000
      3     -16.5787      2.00000
      4     -16.3954      2.00000
      5     -16.1544      2.00000
      6     -15.8592      2.00000
      7      -7.7078      2.00000
      8      -5.8803      2.00000
      9      -5.1795      2.00000
     10      -4.3497      2.00000
     11      -4.1321      2.00000
     12      -3.7288      2.00000
     13      -2.0690      2.00000
     14      -1.9091      2.00000
     15      -1.4244      2.00000
     16      -1.2922      2.00000
     17      -0.9418      2.00000
     18      -0.4935      2.00000
     19      -0.3541      2.00000
     20      -0.1767      2.00000
     21       0.1279      2.00000
     22       0.5871      2.00000
     23       0.7662      2.00000
     24       0.9447      2.00000
     25       9.1960      0.00000
     26      10.0710      0.00000
     27      10.6087      0.00000
     28      10.8893      0.00000
     29      11.4196      0.00000


--------------------------------------------------------------------------------------------------------


 soft charge-density along one line, spin component           1
         0         1         2         3         4         5         6         7         8         9
 total charge-density along one line
 
 pseudopotential strength for first ion, spin component:           1
 18.764   0.002   0.008   0.002  -0.005  -0.000  -0.000   0.000
  0.002   0.006  -0.000  -0.000   0.000   0.000   0.000  -0.000
  0.008  -0.000   4.222   0.002  -0.002  -0.003  -0.000   0.000
  0.002  -0.000   0.002   4.220  -0.003  -0.000  -0.003   0.000
 -0.005   0.000  -0.002  -0.003   4.221   0.000   0.000  -0.003
 -0.000   0.000  -0.003  -0.000   0.000   0.005   0.000  -0.000
 -0.000   0.000  -0.000  -0.003   0.000   0.000   0.005  -0.000
  0.000  -0.000   0.000   0.000  -0.003  -0.000  -0.000   0.005
 total augmentation occupancy for first ion, spin component:           1
  1.175  -1.654   0.068   0.014  -0.041  -0.129  -0.027   0.103
 -1.654   3.647  -0.173  -0.038   0.151   0.381   0.087  -0.314
  0.068  -0.173   1.065   0.072  -0.056  -1.249  -0.124   0.109
  0.014  -0.038   0.072   0.991  -0.090  -0.123  -1.144   0.155
 -0.041   0.151  -0.056  -0.090   0.985   0.109   0.156  -1.191
 -0.129   0.381  -1.249  -0.123   0.109   1.815   0.247  -0.219
 -0.027   0.087  -0.124  -1.144   0.156   0.247   1.616  -0.304
  0.103  -0.314   0.109   0.155  -1.191  -0.219  -0.304   1.718


------------------------ aborting loop because EDIFF is reached ----------------------------------------


    CHARGE:  cpu time    0.7759: real time    0.7770
    FORLOC:  cpu time    0.0160: real time    0.0154
    FORNL :  cpu time    3.2155: real time    3.2142
    STRESS:  cpu time    9.7325: real time    9.7301
    FORCOR:  cpu time    0.1190: real time    0.1185
    FORHAR:  cpu time    0.0300: real time    0.0303
    MIXING:  cpu time    0.0050: real time    0.0047
    OFIELD:  cpu time    0.0000: real time    0.0000

  FORCE on cell =-STRESS in cart. coord.  units (eV):
  Direction    XX          YY          ZZ          XY          YZ          ZX
  --------------------------------------------------------------------------------------
  Alpha Z    69.72803    69.72803    69.72803
  Ewald    -645.37924  -640.18347  -601.06990   -13.30450    14.70397   -23.87549
  Hartree   347.41507   347.77392   376.46823    -1.08920     1.43383    -2.68706
  E(xc)    -225.70044  -225.72177  -225.60725     0.06511    -0.05515     0.09198
  Local    -419.31207  -424.16631  -492.67428    12.65323   -14.10896    23.69187
  n-local   -50.71905   -50.16547   -51.34067    -1.47458     1.34819    -2.21171
  augment    27.12674    27.08092    27.09079     0.10568    -0.11563     0.19723
  Kinetic   903.17491   902.71230   902.05051     1.08799    -1.24383     1.98194
  Fock        0.00000     0.00000     0.00000     0.00000     0.00000     0.00000
  -------------------------------------------------------------------------------------
  Total       6.33394     7.05815     4.64546    -1.95627     1.96242    -2.81123
  in kB      89.79057   100.05696    65.85446   -27.73223    27.81940   -39.85224
  external pressure =       85.23 kB  Pullay stress =        0.00 kB


 VOLUME and BASIS-vectors are now :
 -----------------------------------------------------------------------------
  energy-cutoff  :      600.00
  volume of cell :      113.02
      direct lattice vectors                 reciprocal lattice vectors
     4.913700000  0.000000000  0.000000000     0.203512628  0.117498070  0.000000000
    -2.456850000  4.255389030  0.000000000     0.000000000  0.234996141  0.000000000
     0.000000000  0.000000000  5.405130000     0.000000000  0.000000000  0.185009426

  length of vectors
     4.913700000  4.913700003  5.405130000     0.234996141  0.234996141  0.185009426


 FORCES acting on ions
    electron-ion (+dipol)            ewald-force                    non-local-force                 convergence-correction
 -----------------------------------------------------------------------------------------------
   -.667E+01 0.123E+02 0.339E+01   0.540E+01 -.106E+02 -.301E+01   0.432E+01 -.632E+01 -.139E+01   0.133E-03 -.541E-03 0.403E-04
   -.213E+00 -.132E+01 0.178E+00   0.352E+00 0.129E+01 0.822E-01   -.247E+00 0.740E+00 -.188E+00   0.142E-03 0.100E-03 0.147E-03
   0.944E+00 0.106E+01 0.377E+00   -.130E+01 0.873E+00 0.899E-01   -.217E+00 -.140E+01 -.274E+00   -.559E-04 0.103E-02 0.228E-03
   0.792E+02 0.363E+00 0.244E+02   -.101E+03 0.477E+01 -.304E+02   0.196E+02 -.257E+01 0.740E+01   0.376E-03 -.181E-02 -.198E-02
   -.447E+02 0.625E+02 0.304E+02   0.543E+02 -.811E+02 -.404E+02   -.970E+01 0.182E+02 0.101E+02   0.740E-03 -.563E-03 -.734E-03
   -.301E+02 -.665E+02 0.303E+02   0.403E+02 0.823E+02 -.400E+02   -.974E+01 -.156E+02 0.956E+01   0.101E-02 0.132E-02 -.359E-03
   0.669E+02 -.795E+01 -.321E+02   -.825E+02 0.688E+01 0.433E+02   0.154E+02 0.151E+01 -.109E+02   -.166E-02 -.389E-03 0.249E-03
   -.294E+02 0.656E+02 -.302E+02   0.394E+02 -.805E+02 0.401E+02   -.935E+01 0.145E+02 -.100E+02   -.342E-03 -.811E-03 0.134E-02
   -.387E+02 -.594E+02 -.237E+02   0.452E+02 0.761E+02 0.302E+02   -.727E+01 -.156E+02 -.734E+01   0.128E-02 0.119E-02 0.155E-02
 -----------------------------------------------------------------------------------------------
   -.278E+01 0.657E+01 0.306E+01   -.355E-13 0.284E-13 0.000E+00   0.274E+01 -.655E+01 -.309E+01   0.162E-02 -.473E-03 0.479E-03
 
 
 POSITION                                       TOTAL-FORCE (eV/Angst)
 -----------------------------------------------------------------------------------
      2.25932      0.08511      3.60344         3.061412     -4.683568     -1.010684
     -1.15423      1.99918      1.80169        -0.103074      0.707159      0.075132
      1.30262      2.25621      0.00000        -0.566802      0.536929      0.196636
      1.38272      1.13278      4.24627        -2.440866      2.561276      1.419085
      3.24132      0.63107      2.44458        -0.087620     -0.414962      0.089290
      2.74651      2.49153      0.64283         0.440685      0.185811     -0.065407
     -1.07413      3.12260      2.96055        -0.196237      0.431856      0.241967
      0.28966      1.76386      1.15886         0.602567     -0.468831     -0.112767
      0.78447      3.62431      4.76230        -0.710064      1.144330     -0.833253
 -----------------------------------------------------------------------------------
    total drift:                               -0.043101      0.018255     -0.030058


--------------------------------------------------------------------------------------------------------



  FREE ENERGIE OF THE ION-ELECTRON SYSTEM (eV)
  ---------------------------------------------------
  free  energy   TOTEN  =       -70.74206466 eV

  energy  without entropy=      -70.74206466  energy(sigma->0) =      -70.74206466
 


--------------------------------------------------------------------------------------------------------


    POTLOK:  cpu time    0.1300: real time    0.1298


--------------------------------------------------------------------------------------------------------


     LOOP+:  cpu time  162.3653: real time  162.5840
    4ORBIT:  cpu time    0.0010: real time    0.0002
 BZINTS: Fermi energy:  1.211114; 48.000000 electrons
         Band energy:-275.869357;  BLOECHL correction:  0.000000

 total amount of memory used by VASP on root node   218018. kBytes
========================================================================

   base      :      30000. kBytes
   nonlr-proj:        985. kBytes
   fftplans  :       8088. kBytes
   grid      :      14356. kBytes
   one-center:         27. kBytes
   wavefun   :     164562. kBytes
 
  
  
 General timing and accounting informations for this job:
 ========================================================
  
                  Total CPU time used (sec):      165.241
                            User time (sec):      165.010
                          System time (sec):        0.231
                         Elapsed time (sec):      166.654
  
                   Maximum memory used (kb):      234112.
                   Average memory used (kb):           0.
  
                          Minor page faults:        83278
                          Major page faults:          344
                 Voluntary context switches:         2089
