<?xml version="1.0" encoding="ISO-8859-1"?>
<modeling>
 <generator>
  <i name="program" type="string">vasp </i>
  <i name="version" type="string">5.4.1  </i>
  <i name="subversion" type="string">05Feb16 (build Mar 02 2016 14:09:44) complex                          parallel </i>
  <i name="platform" type="string">Abel-impi-ifc-cuda </i>
  <i name="date" type="string">2019 09 13 </i>
  <i name="time" type="string">11:29:19 </i>
 </generator>
 <incar>
  <i type="string" name="PREC">normal    ! low/normal/accurate</i>
  <i type="string" name="ALGO"> Fast      ! Algorithm for electronic re</i>
  <i type="int" name="ISPIN">     1</i>
  <i type="int" name="NELMIN">     4</i>
  <i name="EDIFF">      0.00001000</i>
  <i type="int" name="NSW">     0</i>
  <i name="ENCUT">    600.00000000</i>
  <i type="string" name="LREAL"> Auto      ! Projection in reciprocal sp</i>
  <i type="int" name="ISMEAR">    -5</i>
  <i name="SIGMA">      0.20000000</i>
  <i type="logical" name="LWAVE"> F  </i>
  <v type="int" name="KPOINT_BSE">    -1     0     0     0</v>
 </incar>
 <kpoints>
  <generation param="Gamma">
   <v type="int" name="divisions">       6        6        5 </v>
   <v name="usershift">      0.00000000       0.00000000       0.00000000 </v>
   <v name="genvec1">      0.16666667       0.00000000       0.00000000 </v>
   <v name="genvec2">      0.00000000       0.16666667       0.00000000 </v>
   <v name="genvec3">      0.00000000       0.00000000       0.20000000 </v>
   <v name="shift">      0.00000000       0.00000000       0.00000000 </v>
  </generation>
  <varray name="kpointlist" >
   <v>       0.00000000       0.00000000       0.00000000 </v>
   <v>       0.16666667       0.00000000       0.00000000 </v>
   <v>       0.33333333       0.00000000       0.00000000 </v>
   <v>       0.50000000       0.00000000       0.00000000 </v>
   <v>       0.00000000       0.16666667       0.00000000 </v>
   <v>       0.16666667       0.16666667       0.00000000 </v>
   <v>       0.33333333       0.16666667       0.00000000 </v>
   <v>       0.50000000       0.16666667       0.00000000 </v>
   <v>      -0.33333333       0.16666667       0.00000000 </v>
   <v>      -0.16666667       0.16666667       0.00000000 </v>
   <v>       0.00000000       0.33333333       0.00000000 </v>
   <v>       0.16666667       0.33333333       0.00000000 </v>
   <v>       0.33333333       0.33333333       0.00000000 </v>
   <v>       0.50000000       0.33333333       0.00000000 </v>
   <v>      -0.33333333       0.33333333       0.00000000 </v>
   <v>      -0.16666667       0.33333333       0.00000000 </v>
   <v>       0.00000000       0.50000000       0.00000000 </v>
   <v>       0.16666667       0.50000000       0.00000000 </v>
   <v>       0.33333333       0.50000000       0.00000000 </v>
   <v>       0.50000000       0.50000000       0.00000000 </v>
   <v>       0.00000000       0.00000000       0.20000000 </v>
   <v>       0.16666667       0.00000000       0.20000000 </v>
   <v>       0.33333333       0.00000000       0.20000000 </v>
   <v>       0.50000000       0.00000000       0.20000000 </v>
   <v>      -0.33333333       0.00000000       0.20000000 </v>
   <v>      -0.16666667       0.00000000       0.20000000 </v>
   <v>       0.00000000       0.16666667       0.20000000 </v>
   <v>       0.16666667       0.16666667       0.20000000 </v>
   <v>       0.33333333       0.16666667       0.20000000 </v>
   <v>       0.50000000       0.16666667       0.20000000 </v>
   <v>      -0.33333333       0.16666667       0.20000000 </v>
   <v>      -0.16666667       0.16666667       0.20000000 </v>
   <v>       0.00000000       0.33333333       0.20000000 </v>
   <v>       0.16666667       0.33333333       0.20000000 </v>
   <v>       0.33333333       0.33333333       0.20000000 </v>
   <v>       0.50000000       0.33333333       0.20000000 </v>
   <v>      -0.33333333       0.33333333       0.20000000 </v>
   <v>      -0.16666667       0.33333333       0.20000000 </v>
   <v>       0.00000000       0.50000000       0.20000000 </v>
   <v>       0.16666667       0.50000000       0.20000000 </v>
   <v>       0.33333333       0.50000000       0.20000000 </v>
   <v>       0.50000000       0.50000000       0.20000000 </v>
   <v>      -0.33333333       0.50000000       0.20000000 </v>
   <v>      -0.16666667       0.50000000       0.20000000 </v>
   <v>       0.00000000      -0.33333333       0.20000000 </v>
   <v>       0.16666667      -0.33333333       0.20000000 </v>
   <v>       0.33333333      -0.33333333       0.20000000 </v>
   <v>       0.50000000      -0.33333333       0.20000000 </v>
   <v>      -0.33333333      -0.33333333       0.20000000 </v>
   <v>      -0.16666667      -0.33333333       0.20000000 </v>
   <v>       0.00000000      -0.16666667       0.20000000 </v>
   <v>       0.16666667      -0.16666667       0.20000000 </v>
   <v>       0.33333333      -0.16666667       0.20000000 </v>
   <v>       0.50000000      -0.16666667       0.20000000 </v>
   <v>      -0.33333333      -0.16666667       0.20000000 </v>
   <v>      -0.16666667      -0.16666667       0.20000000 </v>
   <v>       0.00000000       0.00000000       0.40000000 </v>
   <v>       0.16666667       0.00000000       0.40000000 </v>
   <v>       0.33333333       0.00000000       0.40000000 </v>
   <v>       0.50000000       0.00000000       0.40000000 </v>
   <v>      -0.33333333       0.00000000       0.40000000 </v>
   <v>      -0.16666667       0.00000000       0.40000000 </v>
   <v>       0.00000000       0.16666667       0.40000000 </v>
   <v>       0.16666667       0.16666667       0.40000000 </v>
   <v>       0.33333333       0.16666667       0.40000000 </v>
   <v>       0.50000000       0.16666667       0.40000000 </v>
   <v>      -0.33333333       0.16666667       0.40000000 </v>
   <v>      -0.16666667       0.16666667       0.40000000 </v>
   <v>       0.00000000       0.33333333       0.40000000 </v>
   <v>       0.16666667       0.33333333       0.40000000 </v>
   <v>       0.33333333       0.33333333       0.40000000 </v>
   <v>       0.50000000       0.33333333       0.40000000 </v>
   <v>      -0.33333333       0.33333333       0.40000000 </v>
   <v>      -0.16666667       0.33333333       0.40000000 </v>
   <v>       0.00000000       0.50000000       0.40000000 </v>
   <v>       0.16666667       0.50000000       0.40000000 </v>
   <v>       0.33333333       0.50000000       0.40000000 </v>
   <v>       0.50000000       0.50000000       0.40000000 </v>
   <v>      -0.33333333       0.50000000       0.40000000 </v>
   <v>      -0.16666667       0.50000000       0.40000000 </v>
   <v>       0.00000000      -0.33333333       0.40000000 </v>
   <v>       0.16666667      -0.33333333       0.40000000 </v>
   <v>       0.33333333      -0.33333333       0.40000000 </v>
   <v>       0.50000000      -0.33333333       0.40000000 </v>
   <v>      -0.33333333      -0.33333333       0.40000000 </v>
   <v>      -0.16666667      -0.33333333       0.40000000 </v>
   <v>       0.00000000      -0.16666667       0.40000000 </v>
   <v>       0.16666667      -0.16666667       0.40000000 </v>
   <v>       0.33333333      -0.16666667       0.40000000 </v>
   <v>       0.50000000      -0.16666667       0.40000000 </v>
   <v>      -0.33333333      -0.16666667       0.40000000 </v>
   <v>      -0.16666667      -0.16666667       0.40000000 </v>
  </varray>
  <varray name="weights" >
   <v>       0.00555556 </v>
   <v>       0.01111111 </v>
   <v>       0.01111111 </v>
   <v>       0.00555556 </v>
   <v>       0.01111111 </v>
   <v>       0.01111111 </v>
   <v>       0.01111111 </v>
   <v>       0.01111111 </v>
   <v>       0.01111111 </v>
   <v>       0.01111111 </v>
   <v>       0.01111111 </v>
   <v>       0.01111111 </v>
   <v>       0.01111111 </v>
   <v>       0.01111111 </v>
   <v>       0.01111111 </v>
   <v>       0.01111111 </v>
   <v>       0.00555556 </v>
   <v>       0.01111111 </v>
   <v>       0.01111111 </v>
   <v>       0.00555556 </v>
   <v>       0.01111111 </v>
   <v>       0.01111111 </v>
   <v>       0.01111111 </v>
   <v>       0.01111111 </v>
   <v>       0.01111111 </v>
   <v>       0.01111111 </v>
   <v>       0.01111111 </v>
   <v>       0.01111111 </v>
   <v>       0.01111111 </v>
   <v>       0.01111111 </v>
   <v>       0.01111111 </v>
   <v>       0.01111111 </v>
   <v>       0.01111111 </v>
   <v>       0.01111111 </v>
   <v>       0.01111111 </v>
   <v>       0.01111111 </v>
   <v>       0.01111111 </v>
   <v>       0.01111111 </v>
   <v>       0.01111111 </v>
   <v>       0.01111111 </v>
   <v>       0.01111111 </v>
   <v>       0.01111111 </v>
   <v>       0.01111111 </v>
   <v>       0.01111111 </v>
   <v>       0.01111111 </v>
   <v>       0.01111111 </v>
   <v>       0.01111111 </v>
   <v>       0.01111111 </v>
   <v>       0.01111111 </v>
   <v>       0.01111111 </v>
   <v>       0.01111111 </v>
   <v>       0.01111111 </v>
   <v>       0.01111111 </v>
   <v>       0.01111111 </v>
   <v>       0.01111111 </v>
   <v>       0.01111111 </v>
   <v>       0.01111111 </v>
   <v>       0.01111111 </v>
   <v>       0.01111111 </v>
   <v>       0.01111111 </v>
   <v>       0.01111111 </v>
   <v>       0.01111111 </v>
   <v>       0.01111111 </v>
   <v>       0.01111111 </v>
   <v>       0.01111111 </v>
   <v>       0.01111111 </v>
   <v>       0.01111111 </v>
   <v>       0.01111111 </v>
   <v>       0.01111111 </v>
   <v>       0.01111111 </v>
   <v>       0.01111111 </v>
   <v>       0.01111111 </v>
   <v>       0.01111111 </v>
   <v>       0.01111111 </v>
   <v>       0.01111111 </v>
   <v>       0.01111111 </v>
   <v>       0.01111111 </v>
   <v>       0.01111111 </v>
   <v>       0.01111111 </v>
   <v>       0.01111111 </v>
   <v>       0.01111111 </v>
   <v>       0.01111111 </v>
   <v>       0.01111111 </v>
   <v>       0.01111111 </v>
   <v>       0.01111111 </v>
   <v>       0.01111111 </v>
   <v>       0.01111111 </v>
   <v>       0.01111111 </v>
   <v>       0.01111111 </v>
   <v>       0.01111111 </v>
   <v>       0.01111111 </v>
   <v>       0.01111111 </v>
  </varray>
  <varray name="tetrahedronlist"  type="int" >
   <v type="int" >        2        2        5        6       27 </v>
   <v type="int" >        2        1        2        5       27 </v>
   <v type="int" >        2        1        2       21       27 </v>
   <v type="int" >        2        2        6       27       28 </v>
   <v type="int" >        2        2       22       27       28 </v>
   <v type="int" >        2        2       21       22       27 </v>
   <v type="int" >        2        3        6        7       28 </v>
   <v type="int" >        2        2        3        6       28 </v>
   <v type="int" >        2        2        3       22       28 </v>
   <v type="int" >        2        3        7       28       29 </v>
   <v type="int" >        2        3       23       28       29 </v>
   <v type="int" >        2        3       22       23       28 </v>
   <v type="int" >        2        4        7        8       29 </v>
   <v type="int" >        2        3        4        7       29 </v>
   <v type="int" >        2        3        4       23       29 </v>
   <v type="int" >        2        4        8       29       30 </v>
   <v type="int" >        2        4       24       29       30 </v>
   <v type="int" >        2        4       23       24       29 </v>
   <v type="int" >        2        3        8        9       30 </v>
   <v type="int" >        2        3        4        8       30 </v>
   <v type="int" >        2        3        4       24       30 </v>
   <v type="int" >        2        3        9       30       31 </v>
   <v type="int" >        2        3       25       30       31 </v>
   <v type="int" >        2        3       24       25       30 </v>
   <v type="int" >        2        2        9       10       31 </v>
   <v type="int" >        2        2        3        9       31 </v>
   <v type="int" >        2        2        3       25       31 </v>
   <v type="int" >        2        2       10       31       32 </v>
   <v type="int" >        2        2       26       31       32 </v>
   <v type="int" >        2        2       25       26       31 </v>
   <v type="int" >        2        1        5       10       32 </v>
   <v type="int" >        2        1        2       10       32 </v>
   <v type="int" >        2        1        2       26       32 </v>
   <v type="int" >        2        1        5       27       32 </v>
   <v type="int" >        2        1       21       27       32 </v>
   <v type="int" >        2        1       21       26       32 </v>
   <v type="int" >        2        6       11       12       33 </v>
   <v type="int" >        2        5        6       11       33 </v>
   <v type="int" >        2        5        6       27       33 </v>
   <v type="int" >        2        6       12       33       34 </v>
   <v type="int" >        2        6       28       33       34 </v>
   <v type="int" >        2        6       27       28       33 </v>
   <v type="int" >        2        7       12       13       34 </v>
   <v type="int" >        2        6        7       12       34 </v>
   <v type="int" >        2        6        7       28       34 </v>
   <v type="int" >        2        7       13       34       35 </v>
   <v type="int" >        2        7       29       34       35 </v>
   <v type="int" >        2        7       28       29       34 </v>
   <v type="int" >        2        8       13       14       35 </v>
   <v type="int" >        2        7        8       13       35 </v>
   <v type="int" >        2        7        8       29       35 </v>
   <v type="int" >        2        8       14       35       36 </v>
   <v type="int" >        2        8       30       35       36 </v>
   <v type="int" >        2        8       29       30       35 </v>
   <v type="int" >        2        9       14       15       36 </v>
   <v type="int" >        2        8        9       14       36 </v>
   <v type="int" >        2        8        9       30       36 </v>
   <v type="int" >        2        9       15       36       37 </v>
   <v type="int" >        2        9       31       36       37 </v>
   <v type="int" >        2        9       30       31       36 </v>
   <v type="int" >        2       10       15       16       37 </v>
   <v type="int" >        2        9       10       15       37 </v>
   <v type="int" >        2        9       10       31       37 </v>
   <v type="int" >        2       10       16       37       38 </v>
   <v type="int" >        2       10       32       37       38 </v>
   <v type="int" >        2       10       31       32       37 </v>
   <v type="int" >        2        5       11       16       38 </v>
   <v type="int" >        2        5       10       16       38 </v>
   <v type="int" >        2        5       10       32       38 </v>
   <v type="int" >        2        5       11       33       38 </v>
   <v type="int" >        2        5       27       33       38 </v>
   <v type="int" >        2        5       27       32       38 </v>
   <v type="int" >        2       12       17       18       39 </v>
   <v type="int" >        2       11       12       17       39 </v>
   <v type="int" >        2       11       12       33       39 </v>
   <v type="int" >        2       12       18       39       40 </v>
   <v type="int" >        2       12       34       39       40 </v>
   <v type="int" >        2       12       33       34       39 </v>
   <v type="int" >        2       13       18       19       40 </v>
   <v type="int" >        2       12       13       18       40 </v>
   <v type="int" >        2       12       13       34       40 </v>
   <v type="int" >        2       13       19       40       41 </v>
   <v type="int" >        2       13       35       40       41 </v>
   <v type="int" >        2       13       34       35       40 </v>
   <v type="int" >        2       14       19       20       41 </v>
   <v type="int" >        2       13       14       19       41 </v>
   <v type="int" >        2       13       14       35       41 </v>
   <v type="int" >        2       14       20       41       42 </v>
   <v type="int" >        2       14       36       41       42 </v>
   <v type="int" >        2       14       35       36       41 </v>
   <v type="int" >        2       15       19       20       42 </v>
   <v type="int" >        2       14       15       20       42 </v>
   <v type="int" >        2       14       15       36       42 </v>
   <v type="int" >        2       15       19       42       43 </v>
   <v type="int" >        2       15       37       42       43 </v>
   <v type="int" >        2       15       36       37       42 </v>
   <v type="int" >        2       16       18       19       43 </v>
   <v type="int" >        2       15       16       19       43 </v>
   <v type="int" >        2       15       16       37       43 </v>
   <v type="int" >        2       16       18       43       44 </v>
   <v type="int" >        2       16       38       43       44 </v>
   <v type="int" >        2       16       37       38       43 </v>
   <v type="int" >        2       11       17       18       44 </v>
   <v type="int" >        2       11       16       18       44 </v>
   <v type="int" >        2       11       16       38       44 </v>
   <v type="int" >        2       11       17       39       44 </v>
   <v type="int" >        2       11       33       39       44 </v>
   <v type="int" >        2       11       33       38       44 </v>
   <v type="int" >        2       11       16       18       45 </v>
   <v type="int" >        2       11       17       18       45 </v>
   <v type="int" >        2       17       18       39       45 </v>
   <v type="int" >        2       16       18       45       46 </v>
   <v type="int" >        2       18       40       45       46 </v>
   <v type="int" >        2       18       39       40       45 </v>
   <v type="int" >        2       15       16       19       46 </v>
   <v type="int" >        2       16       18       19       46 </v>
   <v type="int" >        2       18       19       40       46 </v>
   <v type="int" >        2       15       19       46       47 </v>
   <v type="int" >        2       19       41       46       47 </v>
   <v type="int" >        2       19       40       41       46 </v>
   <v type="int" >        2       14       15       20       47 </v>
   <v type="int" >        2       15       19       20       47 </v>
   <v type="int" >        2       19       20       41       47 </v>
   <v type="int" >        2       14       20       47       48 </v>
   <v type="int" >        2       20       42       47       48 </v>
   <v type="int" >        2       20       41       42       47 </v>
   <v type="int" >        2       13       14       19       48 </v>
   <v type="int" >        2       14       19       20       48 </v>
   <v type="int" >        2       19       20       42       48 </v>
   <v type="int" >        2       13       19       48       49 </v>
   <v type="int" >        2       19       43       48       49 </v>
   <v type="int" >        2       19       42       43       48 </v>
   <v type="int" >        2       12       13       18       49 </v>
   <v type="int" >        2       13       18       19       49 </v>
   <v type="int" >        2       18       19       43       49 </v>
   <v type="int" >        2       12       18       49       50 </v>
   <v type="int" >        2       18       44       49       50 </v>
   <v type="int" >        2       18       43       44       49 </v>
   <v type="int" >        2       11       12       17       50 </v>
   <v type="int" >        2       12       17       18       50 </v>
   <v type="int" >        2       17       18       44       50 </v>
   <v type="int" >        2       11       17       45       50 </v>
   <v type="int" >        2       17       39       45       50 </v>
   <v type="int" >        2       17       39       44       50 </v>
   <v type="int" >        2        5       10       16       51 </v>
   <v type="int" >        2        5       11       16       51 </v>
   <v type="int" >        2       11       16       45       51 </v>
   <v type="int" >        2       10       16       51       52 </v>
   <v type="int" >        2       16       46       51       52 </v>
   <v type="int" >        2       16       45       46       51 </v>
   <v type="int" >        2        9       10       15       52 </v>
   <v type="int" >        2       10       15       16       52 </v>
   <v type="int" >        2       15       16       46       52 </v>
   <v type="int" >        2        9       15       52       53 </v>
   <v type="int" >        2       15       47       52       53 </v>
   <v type="int" >        2       15       46       47       52 </v>
   <v type="int" >        2        8        9       14       53 </v>
   <v type="int" >        2        9       14       15       53 </v>
   <v type="int" >        2       14       15       47       53 </v>
   <v type="int" >        2        8       14       53       54 </v>
   <v type="int" >        2       14       48       53       54 </v>
   <v type="int" >        2       14       47       48       53 </v>
   <v type="int" >        2        7        8       13       54 </v>
   <v type="int" >        2        8       13       14       54 </v>
   <v type="int" >        2       13       14       48       54 </v>
   <v type="int" >        2        7       13       54       55 </v>
   <v type="int" >        2       13       49       54       55 </v>
   <v type="int" >        2       13       48       49       54 </v>
   <v type="int" >        2        6        7       12       55 </v>
   <v type="int" >        2        7       12       13       55 </v>
   <v type="int" >        2       12       13       49       55 </v>
   <v type="int" >        2        6       12       55       56 </v>
   <v type="int" >        2       12       50       55       56 </v>
   <v type="int" >        2       12       49       50       55 </v>
   <v type="int" >        2        5        6       11       56 </v>
   <v type="int" >        2        6       11       12       56 </v>
   <v type="int" >        2       11       12       50       56 </v>
   <v type="int" >        2        5       11       51       56 </v>
   <v type="int" >        2       11       45       51       56 </v>
   <v type="int" >        2       11       45       50       56 </v>
   <v type="int" >        2        1        2       10       21 </v>
   <v type="int" >        2        1        5       10       21 </v>
   <v type="int" >        2        5       10       21       51 </v>
   <v type="int" >        2        2       10       21       22 </v>
   <v type="int" >        2       10       21       22       52 </v>
   <v type="int" >        2       10       21       51       52 </v>
   <v type="int" >        2        2        3        9       22 </v>
   <v type="int" >        2        2        9       10       22 </v>
   <v type="int" >        2        9       10       22       52 </v>
   <v type="int" >        2        3        9       22       23 </v>
   <v type="int" >        2        9       22       23       53 </v>
   <v type="int" >        2        9       22       52       53 </v>
   <v type="int" >        2        3        4        8       23 </v>
   <v type="int" >        2        3        8        9       23 </v>
   <v type="int" >        2        8        9       23       53 </v>
   <v type="int" >        2        4        8       23       24 </v>
   <v type="int" >        2        8       23       24       54 </v>
   <v type="int" >        2        8       23       53       54 </v>
   <v type="int" >        2        3        4        7       24 </v>
   <v type="int" >        2        4        7        8       24 </v>
   <v type="int" >        2        7        8       24       54 </v>
   <v type="int" >        2        3        7       24       25 </v>
   <v type="int" >        2        7       24       25       55 </v>
   <v type="int" >        2        7       24       54       55 </v>
   <v type="int" >        2        2        3        6       25 </v>
   <v type="int" >        2        3        6        7       25 </v>
   <v type="int" >        2        6        7       25       55 </v>
   <v type="int" >        2        2        6       25       26 </v>
   <v type="int" >        2        6       25       26       56 </v>
   <v type="int" >        2        6       25       55       56 </v>
   <v type="int" >        2        1        2        5       26 </v>
   <v type="int" >        2        2        5        6       26 </v>
   <v type="int" >        2        5        6       26       56 </v>
   <v type="int" >        2        1        5       21       26 </v>
   <v type="int" >        2        5       21       26       51 </v>
   <v type="int" >        2        5       26       51       56 </v>
   <v type="int" >        2       22       27       28       63 </v>
   <v type="int" >        2       21       22       27       63 </v>
   <v type="int" >        2       21       22       57       63 </v>
   <v type="int" >        2       22       28       63       64 </v>
   <v type="int" >        2       22       58       63       64 </v>
   <v type="int" >        2       22       57       58       63 </v>
   <v type="int" >        2       23       28       29       64 </v>
   <v type="int" >        2       22       23       28       64 </v>
   <v type="int" >        2       22       23       58       64 </v>
   <v type="int" >        2       23       29       64       65 </v>
   <v type="int" >        2       23       59       64       65 </v>
   <v type="int" >        2       23       58       59       64 </v>
   <v type="int" >        2       24       29       30       65 </v>
   <v type="int" >        2       23       24       29       65 </v>
   <v type="int" >        2       23       24       59       65 </v>
   <v type="int" >        2       24       30       65       66 </v>
   <v type="int" >        2       24       60       65       66 </v>
   <v type="int" >        2       24       59       60       65 </v>
   <v type="int" >        2       25       30       31       66 </v>
   <v type="int" >        2       24       25       30       66 </v>
   <v type="int" >        2       24       25       60       66 </v>
   <v type="int" >        2       25       31       66       67 </v>
   <v type="int" >        2       25       61       66       67 </v>
   <v type="int" >        2       25       60       61       66 </v>
   <v type="int" >        2       26       31       32       67 </v>
   <v type="int" >        2       25       26       31       67 </v>
   <v type="int" >        2       25       26       61       67 </v>
   <v type="int" >        2       26       32       67       68 </v>
   <v type="int" >        2       26       62       67       68 </v>
   <v type="int" >        2       26       61       62       67 </v>
   <v type="int" >        2       21       27       32       68 </v>
   <v type="int" >        2       21       26       32       68 </v>
   <v type="int" >        2       21       26       62       68 </v>
   <v type="int" >        2       21       27       63       68 </v>
   <v type="int" >        2       21       57       63       68 </v>
   <v type="int" >        2       21       57       62       68 </v>
   <v type="int" >        2       28       33       34       69 </v>
   <v type="int" >        2       27       28       33       69 </v>
   <v type="int" >        2       27       28       63       69 </v>
   <v type="int" >        2       28       34       69       70 </v>
   <v type="int" >        2       28       64       69       70 </v>
   <v type="int" >        2       28       63       64       69 </v>
   <v type="int" >        2       29       34       35       70 </v>
   <v type="int" >        2       28       29       34       70 </v>
   <v type="int" >        2       28       29       64       70 </v>
   <v type="int" >        2       29       35       70       71 </v>
   <v type="int" >        2       29       65       70       71 </v>
   <v type="int" >        2       29       64       65       70 </v>
   <v type="int" >        2       30       35       36       71 </v>
   <v type="int" >        2       29       30       35       71 </v>
   <v type="int" >        2       29       30       65       71 </v>
   <v type="int" >        2       30       36       71       72 </v>
   <v type="int" >        2       30       66       71       72 </v>
   <v type="int" >        2       30       65       66       71 </v>
   <v type="int" >        2       31       36       37       72 </v>
   <v type="int" >        2       30       31       36       72 </v>
   <v type="int" >        2       30       31       66       72 </v>
   <v type="int" >        2       31       37       72       73 </v>
   <v type="int" >        2       31       67       72       73 </v>
   <v type="int" >        2       31       66       67       72 </v>
   <v type="int" >        2       32       37       38       73 </v>
   <v type="int" >        2       31       32       37       73 </v>
   <v type="int" >        2       31       32       67       73 </v>
   <v type="int" >        2       32       38       73       74 </v>
   <v type="int" >        2       32       68       73       74 </v>
   <v type="int" >        2       32       67       68       73 </v>
   <v type="int" >        2       27       33       38       74 </v>
   <v type="int" >        2       27       32       38       74 </v>
   <v type="int" >        2       27       32       68       74 </v>
   <v type="int" >        2       27       33       69       74 </v>
   <v type="int" >        2       27       63       69       74 </v>
   <v type="int" >        2       27       63       68       74 </v>
   <v type="int" >        2       34       39       40       75 </v>
   <v type="int" >        2       33       34       39       75 </v>
   <v type="int" >        2       33       34       69       75 </v>
   <v type="int" >        2       34       40       75       76 </v>
   <v type="int" >        2       34       70       75       76 </v>
   <v type="int" >        2       34       69       70       75 </v>
   <v type="int" >        2       35       40       41       76 </v>
   <v type="int" >        2       34       35       40       76 </v>
   <v type="int" >        2       34       35       70       76 </v>
   <v type="int" >        2       35       41       76       77 </v>
   <v type="int" >        2       35       71       76       77 </v>
   <v type="int" >        2       35       70       71       76 </v>
   <v type="int" >        2       36       41       42       77 </v>
   <v type="int" >        2       35       36       41       77 </v>
   <v type="int" >        2       35       36       71       77 </v>
   <v type="int" >        2       36       42       77       78 </v>
   <v type="int" >        2       36       72       77       78 </v>
   <v type="int" >        2       36       71       72       77 </v>
   <v type="int" >        2       37       42       43       78 </v>
   <v type="int" >        2       36       37       42       78 </v>
   <v type="int" >        2       36       37       72       78 </v>
   <v type="int" >        2       37       43       78       79 </v>
   <v type="int" >        2       37       73       78       79 </v>
   <v type="int" >        2       37       72       73       78 </v>
   <v type="int" >        2       38       43       44       79 </v>
   <v type="int" >        2       37       38       43       79 </v>
   <v type="int" >        2       37       38       73       79 </v>
   <v type="int" >        2       38       44       79       80 </v>
   <v type="int" >        2       38       74       79       80 </v>
   <v type="int" >        2       38       73       74       79 </v>
   <v type="int" >        2       33       39       44       80 </v>
   <v type="int" >        2       33       38       44       80 </v>
   <v type="int" >        2       33       38       74       80 </v>
   <v type="int" >        2       33       39       75       80 </v>
   <v type="int" >        2       33       69       75       80 </v>
   <v type="int" >        2       33       69       74       80 </v>
   <v type="int" >        2       40       45       46       81 </v>
   <v type="int" >        2       39       40       45       81 </v>
   <v type="int" >        2       39       40       75       81 </v>
   <v type="int" >        2       40       46       81       82 </v>
   <v type="int" >        2       40       76       81       82 </v>
   <v type="int" >        2       40       75       76       81 </v>
   <v type="int" >        2       41       46       47       82 </v>
   <v type="int" >        2       40       41       46       82 </v>
   <v type="int" >        2       40       41       76       82 </v>
   <v type="int" >        2       41       47       82       83 </v>
   <v type="int" >        2       41       77       82       83 </v>
   <v type="int" >        2       41       76       77       82 </v>
   <v type="int" >        2       42       47       48       83 </v>
   <v type="int" >        2       41       42       47       83 </v>
   <v type="int" >        2       41       42       77       83 </v>
   <v type="int" >        2       42       48       83       84 </v>
   <v type="int" >        2       42       78       83       84 </v>
   <v type="int" >        2       42       77       78       83 </v>
   <v type="int" >        2       43       48       49       84 </v>
   <v type="int" >        2       42       43       48       84 </v>
   <v type="int" >        2       42       43       78       84 </v>
   <v type="int" >        2       43       49       84       85 </v>
   <v type="int" >        2       43       79       84       85 </v>
   <v type="int" >        2       43       78       79       84 </v>
   <v type="int" >        2       44       49       50       85 </v>
   <v type="int" >        2       43       44       49       85 </v>
   <v type="int" >        2       43       44       79       85 </v>
   <v type="int" >        2       44       50       85       86 </v>
   <v type="int" >        2       44       80       85       86 </v>
   <v type="int" >        2       44       79       80       85 </v>
   <v type="int" >        2       39       45       50       86 </v>
   <v type="int" >        2       39       44       50       86 </v>
   <v type="int" >        2       39       44       80       86 </v>
   <v type="int" >        2       39       45       81       86 </v>
   <v type="int" >        2       39       75       81       86 </v>
   <v type="int" >        2       39       75       80       86 </v>
   <v type="int" >        2       46       51       52       87 </v>
   <v type="int" >        2       45       46       51       87 </v>
   <v type="int" >        2       45       46       81       87 </v>
   <v type="int" >        2       46       52       87       88 </v>
   <v type="int" >        2       46       82       87       88 </v>
   <v type="int" >        2       46       81       82       87 </v>
   <v type="int" >        2       47       52       53       88 </v>
   <v type="int" >        2       46       47       52       88 </v>
   <v type="int" >        2       46       47       82       88 </v>
   <v type="int" >        2       47       53       88       89 </v>
   <v type="int" >        2       47       83       88       89 </v>
   <v type="int" >        2       47       82       83       88 </v>
   <v type="int" >        2       48       53       54       89 </v>
   <v type="int" >        2       47       48       53       89 </v>
   <v type="int" >        2       47       48       83       89 </v>
   <v type="int" >        2       48       54       89       90 </v>
   <v type="int" >        2       48       84       89       90 </v>
   <v type="int" >        2       48       83       84       89 </v>
   <v type="int" >        2       49       54       55       90 </v>
   <v type="int" >        2       48       49       54       90 </v>
   <v type="int" >        2       48       49       84       90 </v>
   <v type="int" >        2       49       55       90       91 </v>
   <v type="int" >        2       49       85       90       91 </v>
   <v type="int" >        2       49       84       85       90 </v>
   <v type="int" >        2       50       55       56       91 </v>
   <v type="int" >        2       49       50       55       91 </v>
   <v type="int" >        2       49       50       85       91 </v>
   <v type="int" >        2       50       56       91       92 </v>
   <v type="int" >        2       50       86       91       92 </v>
   <v type="int" >        2       50       85       86       91 </v>
   <v type="int" >        2       45       51       56       92 </v>
   <v type="int" >        2       45       50       56       92 </v>
   <v type="int" >        2       45       50       86       92 </v>
   <v type="int" >        2       45       51       87       92 </v>
   <v type="int" >        2       45       81       87       92 </v>
   <v type="int" >        2       45       81       86       92 </v>
   <v type="int" >        2       21       22       52       57 </v>
   <v type="int" >        2       21       51       52       57 </v>
   <v type="int" >        2       51       52       57       87 </v>
   <v type="int" >        2       22       52       57       58 </v>
   <v type="int" >        2       52       57       58       88 </v>
   <v type="int" >        2       52       57       87       88 </v>
   <v type="int" >        2       22       23       53       58 </v>
   <v type="int" >        2       22       52       53       58 </v>
   <v type="int" >        2       52       53       58       88 </v>
   <v type="int" >        2       23       53       58       59 </v>
   <v type="int" >        2       53       58       59       89 </v>
   <v type="int" >        2       53       58       88       89 </v>
   <v type="int" >        2       23       24       54       59 </v>
   <v type="int" >        2       23       53       54       59 </v>
   <v type="int" >        2       53       54       59       89 </v>
   <v type="int" >        2       24       54       59       60 </v>
   <v type="int" >        2       54       59       60       90 </v>
   <v type="int" >        2       54       59       89       90 </v>
   <v type="int" >        2       24       25       55       60 </v>
   <v type="int" >        2       24       54       55       60 </v>
   <v type="int" >        2       54       55       60       90 </v>
   <v type="int" >        2       25       55       60       61 </v>
   <v type="int" >        2       55       60       61       91 </v>
   <v type="int" >        2       55       60       90       91 </v>
   <v type="int" >        2       25       26       56       61 </v>
   <v type="int" >        2       25       55       56       61 </v>
   <v type="int" >        2       55       56       61       91 </v>
   <v type="int" >        2       26       56       61       62 </v>
   <v type="int" >        2       56       61       62       92 </v>
   <v type="int" >        2       56       61       91       92 </v>
   <v type="int" >        2       21       26       51       62 </v>
   <v type="int" >        2       26       51       56       62 </v>
   <v type="int" >        2       51       56       62       92 </v>
   <v type="int" >        2       21       51       57       62 </v>
   <v type="int" >        2       51       57       62       87 </v>
   <v type="int" >        2       51       62       87       92 </v>
   <v type="int" >        2       58       63       64       87 </v>
   <v type="int" >        2       57       58       63       87 </v>
   <v type="int" >        2       57       57       58       87 </v>
   <v type="int" >        2       58       64       87       92 </v>
   <v type="int" >        2       58       62       87       92 </v>
   <v type="int" >        2       57       58       62       87 </v>
   <v type="int" >        2       59       64       65       92 </v>
   <v type="int" >        2       58       59       64       92 </v>
   <v type="int" >        2       58       59       62       92 </v>
   <v type="int" >        2       59       65       91       92 </v>
   <v type="int" >        2       59       61       91       92 </v>
   <v type="int" >        2       59       61       62       92 </v>
   <v type="int" >        2       60       65       66       91 </v>
   <v type="int" >        2       59       60       65       91 </v>
   <v type="int" >        2       59       60       61       91 </v>
   <v type="int" >        2       60       66       90       91 </v>
   <v type="int" >        2       60       60       90       91 </v>
   <v type="int" >        2       60       60       61       91 </v>
   <v type="int" >        2       61       66       67       90 </v>
   <v type="int" >        2       60       61       66       90 </v>
   <v type="int" >        2       60       60       61       90 </v>
   <v type="int" >        2       61       67       89       90 </v>
   <v type="int" >        2       59       61       89       90 </v>
   <v type="int" >        2       59       60       61       90 </v>
   <v type="int" >        2       62       67       68       89 </v>
   <v type="int" >        2       61       62       67       89 </v>
   <v type="int" >        2       59       61       62       89 </v>
   <v type="int" >        2       62       68       88       89 </v>
   <v type="int" >        2       58       62       88       89 </v>
   <v type="int" >        2       58       59       62       89 </v>
   <v type="int" >        2       57       63       68       88 </v>
   <v type="int" >        2       57       62       68       88 </v>
   <v type="int" >        2       57       58       62       88 </v>
   <v type="int" >        2       57       63       87       88 </v>
   <v type="int" >        2       57       57       87       88 </v>
   <v type="int" >        2       57       57       58       88 </v>
   <v type="int" >        2       64       69       70       81 </v>
   <v type="int" >        2       63       64       69       81 </v>
   <v type="int" >        2       63       64       81       87 </v>
   <v type="int" >        2       64       70       81       86 </v>
   <v type="int" >        2       64       81       86       92 </v>
   <v type="int" >        2       64       81       87       92 </v>
   <v type="int" >        2       65       70       71       86 </v>
   <v type="int" >        2       64       65       70       86 </v>
   <v type="int" >        2       64       65       86       92 </v>
   <v type="int" >        2       65       71       85       86 </v>
   <v type="int" >        2       65       85       86       91 </v>
   <v type="int" >        2       65       86       91       92 </v>
   <v type="int" >        2       66       71       72       85 </v>
   <v type="int" >        2       65       66       71       85 </v>
   <v type="int" >        2       65       66       85       91 </v>
   <v type="int" >        2       66       72       84       85 </v>
   <v type="int" >        2       66       84       85       90 </v>
   <v type="int" >        2       66       85       90       91 </v>
   <v type="int" >        2       67       72       73       84 </v>
   <v type="int" >        2       66       67       72       84 </v>
   <v type="int" >        2       66       67       84       90 </v>
   <v type="int" >        2       67       73       83       84 </v>
   <v type="int" >        2       67       83       84       89 </v>
   <v type="int" >        2       67       84       89       90 </v>
   <v type="int" >        2       68       73       74       83 </v>
   <v type="int" >        2       67       68       73       83 </v>
   <v type="int" >        2       67       68       83       89 </v>
   <v type="int" >        2       68       74       82       83 </v>
   <v type="int" >        2       68       82       83       88 </v>
   <v type="int" >        2       68       83       88       89 </v>
   <v type="int" >        2       63       69       74       82 </v>
   <v type="int" >        2       63       68       74       82 </v>
   <v type="int" >        2       63       68       82       88 </v>
   <v type="int" >        2       63       69       81       82 </v>
   <v type="int" >        2       63       81       82       87 </v>
   <v type="int" >        2       63       82       87       88 </v>
   <v type="int" >        2       70       75       75       76 </v>
   <v type="int" >        2       69       70       75       75 </v>
   <v type="int" >        2       69       70       75       81 </v>
   <v type="int" >        2       70       75       76       80 </v>
   <v type="int" >        2       70       75       80       86 </v>
   <v type="int" >        2       70       75       81       86 </v>
   <v type="int" >        2       71       76       77       80 </v>
   <v type="int" >        2       70       71       76       80 </v>
   <v type="int" >        2       70       71       80       86 </v>
   <v type="int" >        2       71       77       79       80 </v>
   <v type="int" >        2       71       79       80       85 </v>
   <v type="int" >        2       71       80       85       86 </v>
   <v type="int" >        2       72       77       78       79 </v>
   <v type="int" >        2       71       72       77       79 </v>
   <v type="int" >        2       71       72       79       85 </v>
   <v type="int" >        2       72       78       78       79 </v>
   <v type="int" >        2       72       78       79       84 </v>
   <v type="int" >        2       72       79       84       85 </v>
   <v type="int" >        2       73       78       78       79 </v>
   <v type="int" >        2       72       73       78       78 </v>
   <v type="int" >        2       72       73       78       84 </v>
   <v type="int" >        2       73       77       78       79 </v>
   <v type="int" >        2       73       77       78       83 </v>
   <v type="int" >        2       73       78       83       84 </v>
   <v type="int" >        2       74       77       79       80 </v>
   <v type="int" >        2       73       74       77       79 </v>
   <v type="int" >        2       73       74       77       83 </v>
   <v type="int" >        2       74       76       77       80 </v>
   <v type="int" >        2       74       76       77       82 </v>
   <v type="int" >        2       74       77       82       83 </v>
   <v type="int" >        2       69       75       76       80 </v>
   <v type="int" >        2       69       74       76       80 </v>
   <v type="int" >        2       69       74       76       82 </v>
   <v type="int" >        2       69       75       75       76 </v>
   <v type="int" >        2       69       75       76       81 </v>
   <v type="int" >        2       69       76       81       82 </v>
  </varray>
  <i name="volumeweight">      0.00092593 </i>
 </kpoints>
 <parameters>
  <separator name="general" >
   <i type="string" name="SYSTEM">unknown system</i>
   <i type="logical" name="LCOMPAT"> F  </i>
  </separator>
  <separator name="electronic" >
   <i type="string" name="PREC">normal</i>
   <i name="ENMAX">    600.00000000</i>
   <i name="ENAUG">    605.39200000</i>
   <i name="EDIFF">      0.00001000</i>
   <i type="int" name="IALGO">    68</i>
   <i type="int" name="IWAVPR">    10</i>
   <i type="int" name="NBANDS">    29</i>
   <i name="NELECT">     48.00000000</i>
   <i type="int" name="TURBO">     0</i>
   <i type="int" name="IRESTART">     0</i>
   <i type="int" name="NREBOOT">     0</i>
   <i type="int" name="NMIN">     0</i>
   <i name="EREF">      0.00000000</i>
   <separator name="electronic smearing" >
    <i type="int" name="ISMEAR">    -5</i>
    <i name="SIGMA">      0.20000000</i>
    <i name="KSPACING">      0.50000000</i>
    <i type="logical" name="KGAMMA"> T  </i>
   </separator>
   <separator name="electronic projectors" >
    <i type="logical" name="LREAL"> T  </i>
    <v name="ROPT">     -0.00050000     -0.00050000</v>
    <i type="int" name="LMAXPAW">  -100</i>
    <i type="int" name="LMAXMIX">     2</i>
    <i type="logical" name="NLSPLINE"> F  </i>
   </separator>
   <separator name="electronic startup" >
    <i type="int" name="ISTART">     0</i>
    <i type="int" name="ICHARG">     2</i>
    <i type="int" name="INIWAV">     1</i>
   </separator>
   <separator name="electronic spin" >
    <i type="int" name="ISPIN">     1</i>
    <i type="logical" name="LNONCOLLINEAR"> F  </i>
    <v name="MAGMOM">      1.00000000      1.00000000      1.00000000      1.00000000      1.00000000      1.00000000      1.00000000      1.00000000      1.00000000</v>
    <i name="NUPDOWN">     -1.00000000</i>
    <i type="logical" name="LSORBIT"> F  </i>
    <v name="SAXIS">      0.00000000      0.00000000      1.00000000</v>
    <i type="logical" name="LSPIRAL"> F  </i>
    <v name="QSPIRAL">      0.00000000      0.00000000      0.00000000</v>
    <i type="logical" name="LZEROZ"> F  </i>
   </separator>
   <separator name="electronic exchange-correlation" >
    <i type="logical" name="LASPH"> F  </i>
    <i type="logical" name="LMETAGGA"> F  </i>
   </separator>
   <separator name="electronic convergence" >
    <i type="int" name="NELM">    60</i>
    <i type="int" name="NELMDL">    -5</i>
    <i type="int" name="NELMIN">     4</i>
    <i name="ENINI">    600.00000000</i>
    <separator name="electronic convergence detail" >
     <i type="logical" name="LDIAG"> T  </i>
     <i type="logical" name="LSUBROT"> F  </i>
     <i name="WEIMIN">      0.00000000</i>
     <i name="EBREAK">      0.00000009</i>
     <i name="DEPER">      0.30000000</i>
     <i type="int" name="NRMM">     4</i>
     <i name="TIME">      0.40000000</i>
    </separator>
   </separator>
   <separator name="electronic mixer" >
    <i name="AMIX">      0.40000000</i>
    <i name="BMIX">      1.00000000</i>
    <i name="AMIN">      0.10000000</i>
    <i name="AMIX_MAG">      1.60000000</i>
    <i name="BMIX_MAG">      1.00000000</i>
    <separator name="electronic mixer details" >
     <i type="int" name="IMIX">     4</i>
     <i type="logical" name="MIXFIRST"> F  </i>
     <i type="int" name="MAXMIX">   -45</i>
     <i name="WC">    100.00000000</i>
     <i type="int" name="INIMIX">     1</i>
     <i type="int" name="MIXPRE">     1</i>
     <i type="int" name="MREMOVE">     5</i>
    </separator>
   </separator>
   <separator name="electronic dipolcorrection" >
    <i type="logical" name="LDIPOL"> F  </i>
    <i type="logical" name="LMONO"> F  </i>
    <i type="int" name="IDIPOL">     0</i>
    <i name="EPSILON">      1.00000000</i>
    <v name="DIPOL">   -100.00000000   -100.00000000   -100.00000000</v>
    <i name="EFIELD">      0.00000000</i>
   </separator>
  </separator>
  <separator name="grids" >
   <i type="int" name="NGX">    30</i>
   <i type="int" name="NGY">    30</i>
   <i type="int" name="NGZ">    32</i>
   <i type="int" name="NGXF">    60</i>
   <i type="int" name="NGYF">    60</i>
   <i type="int" name="NGZF">    64</i>
   <i type="logical" name="ADDGRID"> F  </i>
  </separator>
  <separator name="ionic" >
   <i type="int" name="NSW">     0</i>
   <i type="int" name="IBRION">    -1</i>
   <i type="int" name="ISIF">     2</i>
   <i name="PSTRESS">      0.00000000</i>
   <i name="EDIFFG">      0.00010000</i>
   <i type="int" name="NFREE">     0</i>
   <i name="POTIM">      0.50000000</i>
   <i name="SMASS">     -3.00000000</i>
   <i name="SCALEE">      1.00000000</i>
  </separator>
  <separator name="ionic md" >
   <i name="TEBEG">      0.00010000</i>
   <i name="TEEND">      0.00010000</i>
   <i type="int" name="NBLOCK">     1</i>
   <i type="int" name="KBLOCK">     1</i>
   <i type="int" name="NPACO">   256</i>
   <i name="APACO">     16.00000000</i>
  </separator>
  <separator name="symmetry" >
   <i type="int" name="ISYM">     2</i>
   <i name="SYMPREC">      0.00001000</i>
  </separator>
  <separator name="dos" >
   <i type="logical" name="LORBIT"> F  </i>
   <v name="RWIGS">     -1.00000000     -1.00000000</v>
   <i type="int" name="NEDOS">   301</i>
   <i name="EMIN">     10.00000000</i>
   <i name="EMAX">    -10.00000000</i>
   <i name="EFERMI">      0.00000000</i>
  </separator>
  <separator name="writing" >
   <i type="int" name="NWRITE">     2</i>
   <i type="logical" name="LWAVE"> F  </i>
   <i type="logical" name="LCHARG"> T  </i>
   <i type="logical" name="LPARD"> F  </i>
   <i type="logical" name="LVTOT"> F  </i>
   <i type="logical" name="LVHAR"> F  </i>
   <i type="logical" name="LELF"> F  </i>
   <i type="logical" name="LOPTICS"> F  </i>
   <v name="STM">      0.00000000      0.00000000      0.00000000      0.00000000      0.00000000      0.00000000      0.00000000</v>
  </separator>
  <separator name="performance" >
   <i type="int" name="NPAR">     1</i>
   <i type="int" name="NSIM">     4</i>
   <i type="int" name="NBLK">    -1</i>
   <i type="logical" name="LPLANE"> T  </i>
   <i type="logical" name="LSCALAPACK"> F  </i>
   <i type="logical" name="LSCAAWARE"> F  </i>
   <i type="logical" name="LSCALU"> F  </i>
   <i type="logical" name="LASYNC"> F  </i>
   <i type="logical" name="LORBITALREAL"> F  </i>
  </separator>
  <separator name="miscellaneous" >
   <i type="int" name="IDIOT">     3</i>
   <i type="logical" name="LMUSIC"> F  </i>
   <v name="POMASS">     28.08500000     16.00000000</v>
   <v name="DARWINR">      0.00000000      0.00000000</v>
   <v name="DARWINV">      1.00000000      1.00000000</v>
   <i type="logical" name="LCORR"> T  </i>
  </separator>
  <i type="logical" name="GGA_COMPAT"> T  </i>
  <i type="logical" name="LBERRY"> F  </i>
  <i type="int" name="ICORELEVEL">     0</i>
  <i type="logical" name="LDAU"> F  </i>
  <i type="int" name="I_CONSTRAINED_M">     0</i>
  <separator name="electronic exchange-correlation" >
   <i type="string" name="GGA">--</i>
   <i type="int" name="VOSKOWN">     0</i>
   <i type="logical" name="LHFCALC"> F  </i>
   <i type="string" name="PRECFOCK"></i>
   <i type="logical" name="LSYMGRAD"> F  </i>
   <i type="logical" name="LHFONE"> F  </i>
   <i type="logical" name="LRHFCALC"> F  </i>
   <i type="logical" name="LTHOMAS"> F  </i>
   <i type="logical" name="LMODELHF"> F  </i>
   <i name="ENCUT4O">     -1.00000000</i>
   <i type="int" name="EXXOEP">     0</i>
   <i type="int" name="FOURORBIT">     0</i>
   <i name="AEXX">      0.00000000</i>
   <i name="HFALPHA">      0.00000000</i>
   <i name="MCALPHA">      0.00000000</i>
   <i name="ALDAX">      1.00000000</i>
   <i name="AGGAX">      1.00000000</i>
   <i name="ALDAC">      1.00000000</i>
   <i name="AGGAC">      1.00000000</i>
   <i type="int" name="NKREDX">     1</i>
   <i type="int" name="NKREDY">     1</i>
   <i type="int" name="NKREDZ">     1</i>
   <i type="logical" name="SHIFTRED"> F  </i>
   <i type="logical" name="ODDONLY"> F  </i>
   <i type="logical" name="EVENONLY"> F  </i>
   <i type="int" name="LMAXFOCK">     0</i>
   <i type="int" name="NMAXFOCKAE">     0</i>
   <i type="logical" name="LFOCKAEDFT"> F  </i>
   <i name="HFSCREEN">      0.00000000</i>
   <i name="HFSCREENC">      0.00000000</i>
   <i type="int" name="NBANDSGWLOW">     0</i>
  </separator>
  <separator name="vdW DFT" >
   <i type="logical" name="LUSE_VDW"> F  </i>
   <i name="Zab_VDW">     -0.84910000</i>
   <i name="PARAM1">      0.12340000</i>
   <i name="PARAM2">      1.00000000</i>
   <i name="PARAM3">      0.00000000</i>
  </separator>
  <separator name="model GW" >
   <i type="int" name="MODEL_GW">     0</i>
   <i name="MODEL_EPS0">      7.53464495</i>
   <i name="MODEL_ALPHA">      1.00000000</i>
  </separator>
  <separator name="linear response parameters" >
   <i type="logical" name="LEPSILON"> F  </i>
   <i type="logical" name="LRPA"> F  </i>
   <i type="logical" name="LNABLA"> F  </i>
   <i type="logical" name="LVEL"> F  </i>
   <i type="int" name="KINTER">     0</i>
   <i name="CSHIFT">      0.10000000</i>
   <i name="OMEGAMAX">     -1.00000000</i>
   <i name="DEG_THRESHOLD">      0.00200000</i>
  </separator>
  <separator name="orbital magnetization" >
   <i type="logical" name="NUCIND"> F  </i>
   <v name="MAGPOS">      0.00000000      0.00000000      0.00000000</v>
   <i type="logical" name="LNICSALL"> T  </i>
   <i type="logical" name="ORBITALMAG"> F  </i>
   <i type="logical" name="LMAGBLOCH"> F  </i>
   <i type="logical" name="LCHIMAG"> F  </i>
   <i type="logical" name="LGAUGE"> T  </i>
   <i type="int" name="MAGATOM">     0</i>
   <v name="MAGDIPOL">      0.00000000      0.00000000      0.00000000</v>
   <v name="AVECCONST">      0.00000000      0.00000000      0.00000000</v>
  </separator>
  <separator name="response functions" >
   <i type="logical" name="LADDER"> F  </i>
   <i type="logical" name="LFXC"> F  </i>
   <i type="logical" name="LHARTREE"> T  </i>
   <i type="int" name="IBSE">     0</i>
   <v type="int" name="KPOINT">    -1     0     0     0</v>
   <i type="logical" name="LTCTE"> F  </i>
   <i type="logical" name="LTETE"> F  </i>
   <i type="logical" name="LTRIPLET"> F  </i>
   <i type="logical" name="LFXCEPS"> F  </i>
   <i type="logical" name="LFXHEG"> F  </i>
   <i type="int" name="NATURALO">     0</i>
   <i type="logical" name="L2ORDER"> F  </i>
   <i type="logical" name="LUSEW"> F  </i>
   <i name="ENCUTGW">     -2.00000000</i>
   <i name="ENCUTGWSOFT">     -2.00000000</i>
   <i name="ENCUTLF">     -1.00000000</i>
   <i type="int" name="LMAXMP2">    -1</i>
   <i name="SCISSOR">      0.00000000</i>
   <i type="int" name="NOMEGA">     0</i>
   <i type="int" name="NOMEGAR">     0</i>
   <i type="int" name="NBANDSGW">    -1</i>
   <i type="int" name="NBANDSO">    -1</i>
   <i type="int" name="NBANDSV">    -1</i>
   <i type="int" name="NELM">     1</i>
   <i type="int" name="NELMHF">     1</i>
   <i type="int" name="DIM">     3</i>
   <i type="int" name="ANTIRES">     0</i>
   <i name="OMEGAMAX">    -30.00000000</i>
   <i name="OMEGAMIN">    -30.00000000</i>
   <i name="OMEGATL">   -200.00000000</i>
   <i type="int" name="OMEGAGRID">     0</i>
   <i name="CSHIFT">     -0.10000000</i>
   <i type="logical" name="SELFENERGY"> F  </i>
   <i type="logical" name="LSPECTRAL"> F  </i>
   <i type="logical" name="LSPECTRALGW"> F  </i>
   <i type="logical" name="LSINGLES"> F  </i>
   <i type="logical" name="LFERMIGW"> F  </i>
   <i type="logical" name="ODDONLYGW"> F  </i>
   <i type="logical" name="EVENONLYGW"> F  </i>
   <i type="int" name="NKREDLFX">     1</i>
   <i type="int" name="NKREDLFY">     1</i>
   <i type="int" name="NKREDLFZ">     1</i>
   <i type="int" name="MAXMEM">  1800</i>
   <i type="int" name="TELESCOPE">     0</i>
   <i type="int" name="TAUPAR">     1</i>
   <i type="int" name="OMEGAPAR">    -1</i>
   <i name="LAMBDA">      1.00000000</i>
  </separator>
  <separator name="External order field" >
   <i name="OFIELD_KAPPA">      0.00000000</i>
   <v name="OFIELD_K">      0.00000000      0.00000000      0.00000000</v>
   <i name="OFIELD_Q6_NEAR">      0.00000000</i>
   <i name="OFIELD_Q6_FAR">      0.00000000</i>
   <i name="OFIELD_A">      0.00000000</i>
  </separator>
 </parameters>
 <atominfo>
  <atoms>       9 </atoms>
  <types>       2 </types>
  <array name="atoms" >
   <dimension dim="1">ion</dimension>
   <field type="string">element</field>
   <field type="int">atomtype</field>
   <set>
    <rc><c>Si</c><c>   1</c></rc>
    <rc><c>Si</c><c>   1</c></rc>
    <rc><c>Si</c><c>   1</c></rc>
    <rc><c>O </c><c>   2</c></rc>
    <rc><c>O </c><c>   2</c></rc>
    <rc><c>O </c><c>   2</c></rc>
    <rc><c>O </c><c>   2</c></rc>
    <rc><c>O </c><c>   2</c></rc>
    <rc><c>O </c><c>   2</c></rc>
   </set>
  </array>
  <array name="atomtypes" >
   <dimension dim="1">type</dimension>
   <field type="int">atomspertype</field>
   <field type="string">element</field>
   <field>mass</field>
   <field>valence</field>
   <field type="string">pseudopotential</field>
   <set>
    <rc><c>   3</c><c>Si</c><c>     28.08500000</c><c>      4.00000000</c><c> PAW_PBE Si 05Jan2001                   </c></rc>
    <rc><c>   6</c><c>O </c><c>     16.00000000</c><c>      6.00000000</c><c> PAW_PBE O 08Apr2002                    </c></rc>
   </set>
  </array>
 </atominfo>
 <structure name="initialpos" >
  <crystal>
   <varray name="basis" >
    <v>       4.91370000       0.00000000       0.00000000 </v>
    <v>      -2.45685000       4.25538903       0.00000000 </v>
    <v>       0.00000000       0.00000000       5.40513000 </v>
   </varray>
   <i name="volume">    113.01967420 </i>
   <varray name="rec_basis" >
    <v>       0.20351263       0.11749807       0.00000000 </v>
    <v>       0.00000000       0.23499614       0.00000000 </v>
    <v>       0.00000000       0.00000000       0.18500943 </v>
   </varray>
  </crystal>
  <varray name="positions" >
   <v>       0.46980000       0.02000000       0.66667000 </v>
   <v>       0.00000000       0.46980000       0.33333000 </v>
   <v>       0.53020000       0.53020000       0.00000000 </v>
   <v>       0.41450000       0.26620000       0.78560000 </v>
   <v>       0.73380000       0.14830000       0.45227000 </v>
   <v>       0.85170000       0.58550000       0.11893000 </v>
   <v>       0.14830000       0.73380000       0.54773000 </v>
   <v>       0.26620000       0.41450000       0.21440000 </v>
   <v>       0.58550000       0.85170000       0.88107000 </v>
  </varray>
 </structure>
 <calculation>
  <scstep>
   <time name="dav">   10.92   10.92</time>
   <time name="total">   11.08   11.14</time>
   <energy>
    <i name="alphaZ">     69.72802778 </i>
    <i name="ewald">  -1886.62880430 </i>
    <i name="hartreedc">   -937.03789542 </i>
    <i name="XCdc">    142.00811426 </i>
    <i name="pawpsdc">   1574.92322788 </i>
    <i name="pawaedc">  -1533.24131965 </i>
    <i name="eentropy">      0.00000000 </i>
    <i name="bandstr">      4.81147637 </i>
    <i name="atom">   2903.37156096 </i>
    <i name="e_fr_energy">    337.93438789 </i>
    <i name="e_wo_entrp">    337.93438789 </i>
    <i name="e_0_energy">    337.93438789 </i>
   </energy>
  </scstep>
  <scstep>
   <time name="dav">   13.72   13.72</time>
   <time name="total">   13.73   13.73</time>
   <energy>
    <i name="e_fr_energy">    -58.64654875 </i>
    <i name="e_wo_entrp">    -58.64654875 </i>
    <i name="e_0_energy">    -58.64654875 </i>
   </energy>
  </scstep>
  <scstep>
   <time name="dav">   12.40   12.39</time>
   <time name="total">   12.40   12.41</time>
   <energy>
    <i name="e_fr_energy">    -80.15111037 </i>
    <i name="e_wo_entrp">    -80.15111037 </i>
    <i name="e_0_energy">    -80.15111037 </i>
   </energy>
  </scstep>
  <scstep>
   <time name="dav">   12.41   12.40</time>
   <time name="total">   12.42   12.42</time>
   <energy>
    <i name="e_fr_energy">    -80.43384508 </i>
    <i name="e_wo_entrp">    -80.43384508 </i>
    <i name="e_0_energy">    -80.43384508 </i>
   </energy>
  </scstep>
  <scstep>
   <time name="dav">   12.11   12.11</time>
   <time name="total">   12.89   12.89</time>
   <energy>
    <i name="e_fr_energy">    -80.43932857 </i>
    <i name="e_wo_entrp">    -80.43932857 </i>
    <i name="e_0_energy">    -80.43932857 </i>
   </energy>
  </scstep>
  <scstep>
   <time name="diag">    2.05    2.05</time>
   <time name="diis">    7.42    7.42</time>
   <time name="orth">    0.23    0.23</time>
   <time name="total">   10.62   10.62</time>
   <energy>
    <i name="e_fr_energy">    -70.74967807 </i>
    <i name="e_wo_entrp">    -70.74967807 </i>
    <i name="e_0_energy">    -70.74967807 </i>
   </energy>
  </scstep>
  <scstep>
   <time name="diag">    2.04    2.04</time>
   <time name="diis">    7.93    7.93</time>
   <time name="orth">    0.24    0.24</time>
   <time name="total">   11.13   11.13</time>
   <energy>
    <i name="e_fr_energy">    -70.73245563 </i>
    <i name="e_wo_entrp">    -70.73245563 </i>
    <i name="e_0_energy">    -70.73245563 </i>
   </energy>
  </scstep>
  <scstep>
   <time name="diag">    2.04    2.04</time>
   <time name="diis">    7.92    7.92</time>
   <time name="orth">    0.24    0.24</time>
   <time name="total">   11.11   11.12</time>
   <energy>
    <i name="e_fr_energy">    -70.74842339 </i>
    <i name="e_wo_entrp">    -70.74842339 </i>
    <i name="e_0_energy">    -70.74842339 </i>
   </energy>
  </scstep>
  <scstep>
   <time name="diag">    2.02    2.02</time>
   <time name="diis">    8.23    8.23</time>
   <time name="orth">    0.23    0.24</time>
   <time name="total">   11.40   11.42</time>
   <energy>
    <i name="e_fr_energy">    -70.74010122 </i>
    <i name="e_wo_entrp">    -70.74010122 </i>
    <i name="e_0_energy">    -70.74010122 </i>
   </energy>
  </scstep>
  <scstep>
   <time name="diag">    2.02    2.02</time>
   <time name="diis">    8.10    8.10</time>
   <time name="orth">    0.23    0.23</time>
   <time name="total">   11.27   11.27</time>
   <energy>
    <i name="e_fr_energy">    -70.74288364 </i>
    <i name="e_wo_entrp">    -70.74288364 </i>
    <i name="e_0_energy">    -70.74288364 </i>
   </energy>
  </scstep>
  <scstep>
   <time name="diag">    2.05    2.05</time>
   <time name="diis">    8.04    8.04</time>
   <time name="orth">    0.23    0.24</time>
   <time name="total">   11.26   11.26</time>
   <energy>
    <i name="e_fr_energy">    -70.74202137 </i>
    <i name="e_wo_entrp">    -70.74202137 </i>
    <i name="e_0_energy">    -70.74202137 </i>
   </energy>
  </scstep>
  <scstep>
   <time name="diag">    2.03    2.02</time>
   <time name="diis">    7.61    7.60</time>
   <time name="orth">    0.25    0.25</time>
   <time name="total">   10.82   10.83</time>
   <energy>
    <i name="e_fr_energy">    -70.74206358 </i>
    <i name="e_wo_entrp">    -70.74206358 </i>
    <i name="e_0_energy">    -70.74206358 </i>
   </energy>
  </scstep>
  <scstep>
   <time name="diag">    2.02    2.02</time>
   <time name="diis">    5.59    5.59</time>
   <time name="orth">    0.23    0.23</time>
   <time name="total">    7.98    8.01</time>
   <energy>
    <i name="alphaZ">     69.72802778 </i>
    <i name="ewald">  -1886.62880430 </i>
    <i name="hartreedc">  -1071.77774998 </i>
    <i name="XCdc">    151.14999083 </i>
    <i name="pawpsdc">   2053.11582521 </i>
    <i name="pawaedc">  -2013.83155820 </i>
    <i name="eentropy">      0.00000000 </i>
    <i name="bandstr">   -275.86935695 </i>
    <i name="atom">   2903.37156096 </i>
    <i name="e_fr_energy">    -70.74206466 </i>
    <i name="e_wo_entrp">    -70.74206466 </i>
    <i name="e_0_energy">    -70.74206466 </i>
   </energy>
  </scstep>
  <structure>
   <crystal>
    <varray name="basis" >
     <v>       4.91370000       0.00000000       0.00000000 </v>
     <v>      -2.45685000       4.25538903       0.00000000 </v>
     <v>       0.00000000       0.00000000       5.40513000 </v>
    </varray>
    <i name="volume">    113.01967420 </i>
    <varray name="rec_basis" >
     <v>       0.20351263       0.11749807       0.00000000 </v>
     <v>       0.00000000       0.23499614       0.00000000 </v>
     <v>       0.00000000       0.00000000       0.18500943 </v>
    </varray>
   </crystal>
   <varray name="positions" >
    <v>       0.46980000       0.02000000       0.66667000 </v>
    <v>       0.00000000       0.46980000       0.33333000 </v>
    <v>       0.53020000       0.53020000       0.00000000 </v>
    <v>       0.41450000       0.26620000       0.78560000 </v>
    <v>       0.73380000       0.14830000       0.45227000 </v>
    <v>       0.85170000       0.58550000       0.11893000 </v>
    <v>       0.14830000       0.73380000       0.54773000 </v>
    <v>       0.26620000       0.41450000       0.21440000 </v>
    <v>       0.58550000       0.85170000       0.88107000 </v>
   </varray>
  </structure>
  <varray name="forces" >
   <v>       3.06141168      -4.68356842      -1.01068410 </v>
   <v>      -0.10307448       0.70715887       0.07513234 </v>
   <v>      -0.56680166       0.53692915       0.19663581 </v>
   <v>      -2.44086596       2.56127618       1.41908545 </v>
   <v>      -0.08762001      -0.41496184       0.08928984 </v>
   <v>       0.44068502       0.18581117      -0.06540688 </v>
   <v>      -0.19623716       0.43185636       0.24196669 </v>
   <v>       0.60256667      -0.46883103      -0.11276659 </v>
   <v>      -0.71006409       1.14432955      -0.83325256 </v>
  </varray>
  <varray name="stress" >
   <v>      89.79056986     -27.73222740     -39.85224297 </v>
   <v>     -27.73222733     100.05695999      27.81939581 </v>
   <v>     -39.85224296      27.81939588      65.85446250 </v>
  </varray>
  <energy>
   <i name="e_fr_energy">    -70.74206466 </i>
   <i name="e_wo_entrp">    -70.74206466 </i>
   <i name="e_0_energy">      0.00000000 </i>
  </energy>
  <time name="totalsc">  162.37  162.58</time>
  <eigenvalues>
   <array>
    <dimension dim="1">band</dimension>
    <dimension dim="2">kpoint</dimension>
    <dimension dim="3">spin</dimension>
    <field>eigene</field>
    <field>occ</field>
    <set>
     <set comment="spin 1">
      <set comment="kpoint 1">
       <r>  -18.4520    1.0000 </r>
       <r>  -17.1492    1.0000 </r>
       <r>  -16.7886    1.0000 </r>
       <r>  -16.1743    1.0000 </r>
       <r>  -16.0433    1.0000 </r>
       <r>  -15.9635    1.0000 </r>
       <r>   -7.2688    1.0000 </r>
       <r>   -7.1095    1.0000 </r>
       <r>   -4.5348    1.0000 </r>
       <r>   -4.2264    1.0000 </r>
       <r>   -4.1302    1.0000 </r>
       <r>   -4.1118    1.0000 </r>
       <r>   -1.9451    1.0000 </r>
       <r>   -1.8390    1.0000 </r>
       <r>   -1.7516    1.0000 </r>
       <r>   -1.2618    1.0000 </r>
       <r>   -0.5507    1.0000 </r>
       <r>   -0.4362    1.0000 </r>
       <r>   -0.3902    1.0000 </r>
       <r>    0.1481    1.0000 </r>
       <r>    0.2307    1.0000 </r>
       <r>    0.4744    1.0000 </r>
       <r>    0.7534    1.0000 </r>
       <r>    0.8609    1.0000 </r>
       <r>    7.0987    0.0000 </r>
       <r>   10.3288    0.0000 </r>
       <r>   10.4302    0.0000 </r>
       <r>   10.8559    0.0000 </r>
       <r>   10.9555    0.0000 </r>
      </set>
      <set comment="kpoint 2">
       <r>  -18.3827    1.0000 </r>
       <r>  -17.1776    1.0000 </r>
       <r>  -16.7795    1.0000 </r>
       <r>  -16.2776    1.0000 </r>
       <r>  -16.0853    1.0000 </r>
       <r>  -15.9127    1.0000 </r>
       <r>   -7.2995    1.0000 </r>
       <r>   -6.9305    1.0000 </r>
       <r>   -4.5605    1.0000 </r>
       <r>   -4.2950    1.0000 </r>
       <r>   -4.1691    1.0000 </r>
       <r>   -3.9818    1.0000 </r>
       <r>   -2.0130    1.0000 </r>
       <r>   -1.8703    1.0000 </r>
       <r>   -1.6333    1.0000 </r>
       <r>   -1.1866    1.0000 </r>
       <r>   -0.7451    1.0000 </r>
       <r>   -0.4643    1.0000 </r>
       <r>   -0.3929    1.0000 </r>
       <r>    0.0936    1.0000 </r>
       <r>    0.1322    1.0000 </r>
       <r>    0.3866    1.0000 </r>
       <r>    0.8384    1.0000 </r>
       <r>    0.9368    1.0000 </r>
       <r>    7.5216    0.0000 </r>
       <r>   10.3506    0.0000 </r>
       <r>   10.4718    0.0000 </r>
       <r>   10.8723    0.0000 </r>
       <r>   11.0849    0.0000 </r>
      </set>
      <set comment="kpoint 3">
       <r>  -18.2112    1.0000 </r>
       <r>  -17.2739    1.0000 </r>
       <r>  -16.7613    1.0000 </r>
       <r>  -16.4582    1.0000 </r>
       <r>  -16.1177    1.0000 </r>
       <r>  -15.8793    1.0000 </r>
       <r>   -7.3644    1.0000 </r>
       <r>   -6.5098    1.0000 </r>
       <r>   -4.6202    1.0000 </r>
       <r>   -4.5361    1.0000 </r>
       <r>   -4.1843    1.0000 </r>
       <r>   -3.6775    1.0000 </r>
       <r>   -2.1314    1.0000 </r>
       <r>   -1.6929    1.0000 </r>
       <r>   -1.6132    1.0000 </r>
       <r>   -1.3006    1.0000 </r>
       <r>   -0.9857    1.0000 </r>
       <r>   -0.5526    1.0000 </r>
       <r>   -0.4484    1.0000 </r>
       <r>    0.0298    1.0000 </r>
       <r>    0.0717    1.0000 </r>
       <r>    0.2918    1.0000 </r>
       <r>    0.9139    1.0000 </r>
       <r>    1.0438    1.0000 </r>
       <r>    8.5196    0.0000 </r>
       <r>   10.3772    0.0000 </r>
       <r>   10.5971    0.0000 </r>
       <r>   11.0691    0.0000 </r>
       <r>   11.6603    0.0000 </r>
      </set>
      <set comment="kpoint 4">
       <r>  -18.0944    1.0000 </r>
       <r>  -17.3600    1.0000 </r>
       <r>  -16.7528    1.0000 </r>
       <r>  -16.5337    1.0000 </r>
       <r>  -16.1315    1.0000 </r>
       <r>  -15.8711    1.0000 </r>
       <r>   -7.3962    1.0000 </r>
       <r>   -6.2469    1.0000 </r>
       <r>   -4.7704    1.0000 </r>
       <r>   -4.5708    1.0000 </r>
       <r>   -4.1934    1.0000 </r>
       <r>   -3.5090    1.0000 </r>
       <r>   -2.1344    1.0000 </r>
       <r>   -1.7721    1.0000 </r>
       <r>   -1.6024    1.0000 </r>
       <r>   -1.3126    1.0000 </r>
       <r>   -1.0531    1.0000 </r>
       <r>   -0.6312    1.0000 </r>
       <r>   -0.5211    1.0000 </r>
       <r>    0.0475    1.0000 </r>
       <r>    0.0681    1.0000 </r>
       <r>    0.2714    1.0000 </r>
       <r>    0.9165    1.0000 </r>
       <r>    1.0930    1.0000 </r>
       <r>    9.3502    0.0000 </r>
       <r>   10.0891    0.0000 </r>
       <r>   10.7763    0.0000 </r>
       <r>   10.9346    0.0000 </r>
       <r>   11.6194    0.0000 </r>
      </set>
      <set comment="kpoint 5">
       <r>  -18.3768    1.0000 </r>
       <r>  -17.1886    1.0000 </r>
       <r>  -16.8126    1.0000 </r>
       <r>  -16.1816    1.0000 </r>
       <r>  -16.1109    1.0000 </r>
       <r>  -15.9440    1.0000 </r>
       <r>   -7.2551    1.0000 </r>
       <r>   -6.9859    1.0000 </r>
       <r>   -4.5438    1.0000 </r>
       <r>   -4.2907    1.0000 </r>
       <r>   -4.2027    1.0000 </r>
       <r>   -3.9509    1.0000 </r>
       <r>   -2.0630    1.0000 </r>
       <r>   -1.8102    1.0000 </r>
       <r>   -1.6880    1.0000 </r>
       <r>   -1.1531    1.0000 </r>
       <r>   -0.6876    1.0000 </r>
       <r>   -0.5016    1.0000 </r>
       <r>   -0.4530    1.0000 </r>
       <r>    0.1082    1.0000 </r>
       <r>    0.1765    1.0000 </r>
       <r>    0.3805    1.0000 </r>
       <r>    0.8410    1.0000 </r>
       <r>    0.9294    1.0000 </r>
       <r>    7.5190    0.0000 </r>
       <r>   10.3461    0.0000 </r>
       <r>   10.4374    0.0000 </r>
       <r>   10.9392    0.0000 </r>
       <r>   11.0564    0.0000 </r>
      </set>
      <set comment="kpoint 6">
       <r>  -18.2538    1.0000 </r>
       <r>  -17.2560    1.0000 </r>
       <r>  -16.8056    1.0000 </r>
       <r>  -16.3273    1.0000 </r>
       <r>  -16.1343    1.0000 </r>
       <r>  -15.9027    1.0000 </r>
       <r>   -7.3444    1.0000 </r>
       <r>   -6.6298    1.0000 </r>
       <r>   -4.6956    1.0000 </r>
       <r>   -4.4117    1.0000 </r>
       <r>   -4.1195    1.0000 </r>
       <r>   -3.7769    1.0000 </r>
       <r>   -2.0913    1.0000 </r>
       <r>   -1.7947    1.0000 </r>
       <r>   -1.6095    1.0000 </r>
       <r>   -1.1947    1.0000 </r>
       <r>   -1.0179    1.0000 </r>
       <r>   -0.5325    1.0000 </r>
       <r>   -0.3329    1.0000 </r>
       <r>   -0.0290    1.0000 </r>
       <r>    0.1428    1.0000 </r>
       <r>    0.2873    1.0000 </r>
       <r>    0.9390    1.0000 </r>
       <r>    0.9749    1.0000 </r>
       <r>    8.2244    0.0000 </r>
       <r>   10.4339    0.0000 </r>
       <r>   10.5482    0.0000 </r>
       <r>   11.0085    0.0000 </r>
       <r>   11.2780    0.0000 </r>
      </set>
      <set comment="kpoint 7">
       <r>  -18.0835    1.0000 </r>
       <r>  -17.3752    1.0000 </r>
       <r>  -16.8104    1.0000 </r>
       <r>  -16.4551    1.0000 </r>
       <r>  -16.1361    1.0000 </r>
       <r>  -15.8824    1.0000 </r>
       <r>   -7.4036    1.0000 </r>
       <r>   -6.1769    1.0000 </r>
       <r>   -5.0383    1.0000 </r>
       <r>   -4.4393    1.0000 </r>
       <r>   -4.1045    1.0000 </r>
       <r>   -3.5280    1.0000 </r>
       <r>   -2.1019    1.0000 </r>
       <r>   -1.7636    1.0000 </r>
       <r>   -1.6770    1.0000 </r>
       <r>   -1.2681    1.0000 </r>
       <r>   -1.0567    1.0000 </r>
       <r>   -0.6642    1.0000 </r>
       <r>   -0.3652    1.0000 </r>
       <r>   -0.1533    1.0000 </r>
       <r>    0.0258    1.0000 </r>
       <r>    0.3998    1.0000 </r>
       <r>    0.9096    1.0000 </r>
       <r>    1.0909    1.0000 </r>
       <r>    9.2316    0.0000 </r>
       <r>   10.3394    0.0000 </r>
       <r>   10.6847    0.0000 </r>
       <r>   11.1066    0.0000 </r>
       <r>   11.6272    0.0000 </r>
      </set>
      <set comment="kpoint 8">
       <r>  -18.0778    1.0000 </r>
       <r>  -17.3822    1.0000 </r>
       <r>  -16.8076    1.0000 </r>
       <r>  -16.4764    1.0000 </r>
       <r>  -16.1165    1.0000 </r>
       <r>  -15.8819    1.0000 </r>
       <r>   -7.3940    1.0000 </r>
       <r>   -6.1849    1.0000 </r>
       <r>   -5.0484    1.0000 </r>
       <r>   -4.4247    1.0000 </r>
       <r>   -4.1207    1.0000 </r>
       <r>   -3.5270    1.0000 </r>
       <r>   -2.0961    1.0000 </r>
       <r>   -1.7776    1.0000 </r>
       <r>   -1.6881    1.0000 </r>
       <r>   -1.2151    1.0000 </r>
       <r>   -0.9920    1.0000 </r>
       <r>   -0.6661    1.0000 </r>
       <r>   -0.4972    1.0000 </r>
       <r>   -0.1807    1.0000 </r>
       <r>    0.0597    1.0000 </r>
       <r>    0.4332    1.0000 </r>
       <r>    0.8809    1.0000 </r>
       <r>    1.1264    1.0000 </r>
       <r>    9.2412    0.0000 </r>
       <r>   10.3193    0.0000 </r>
       <r>   10.6673    0.0000 </r>
       <r>   11.1231    0.0000 </r>
       <r>   11.4688    0.0000 </r>
      </set>
      <set comment="kpoint 9">
       <r>  -18.2468    1.0000 </r>
       <r>  -17.2631    1.0000 </r>
       <r>  -16.8046    1.0000 </r>
       <r>  -16.3829    1.0000 </r>
       <r>  -16.0788    1.0000 </r>
       <r>  -15.9029    1.0000 </r>
       <r>   -7.3130    1.0000 </r>
       <r>   -6.6602    1.0000 </r>
       <r>   -4.7185    1.0000 </r>
       <r>   -4.3896    1.0000 </r>
       <r>   -4.1367    1.0000 </r>
       <r>   -3.7757    1.0000 </r>
       <r>   -2.0964    1.0000 </r>
       <r>   -1.8364    1.0000 </r>
       <r>   -1.5183    1.0000 </r>
       <r>   -1.1581    1.0000 </r>
       <r>   -0.9716    1.0000 </r>
       <r>   -0.6025    1.0000 </r>
       <r>   -0.3880    1.0000 </r>
       <r>   -0.1493    1.0000 </r>
       <r>    0.1910    1.0000 </r>
       <r>    0.3486    1.0000 </r>
       <r>    0.8701    1.0000 </r>
       <r>    1.0722    1.0000 </r>
       <r>    8.2267    0.0000 </r>
       <r>   10.3695    0.0000 </r>
       <r>   10.5808    0.0000 </r>
       <r>   11.0226    0.0000 </r>
       <r>   11.2352    0.0000 </r>
      </set>
      <set comment="kpoint 10">
       <r>  -18.3742    1.0000 </r>
       <r>  -17.1901    1.0000 </r>
       <r>  -16.8142    1.0000 </r>
       <r>  -16.2369    1.0000 </r>
       <r>  -16.0488    1.0000 </r>
       <r>  -15.9499    1.0000 </r>
       <r>   -7.2078    1.0000 </r>
       <r>   -7.0332    1.0000 </r>
       <r>   -4.5519    1.0000 </r>
       <r>   -4.3057    1.0000 </r>
       <r>   -4.1827    1.0000 </r>
       <r>   -3.9548    1.0000 </r>
       <r>   -2.0741    1.0000 </r>
       <r>   -1.8334    1.0000 </r>
       <r>   -1.6225    1.0000 </r>
       <r>   -1.1407    1.0000 </r>
[...]
       <r>    1.0218    1.0000 </r>
       <r>    9.1953    0.0000 </r>
       <r>   10.0786    0.0000 </r>
       <r>   10.4809    0.0000 </r>
       <r>   11.0056    0.0000 </r>
       <r>   11.4625    0.0000 </r>
      </set>
      <set comment="kpoint 90">
       <r>  -18.0249    1.0000 </r>
       <r>  -17.3910    1.0000 </r>
       <r>  -16.8554    1.0000 </r>
       <r>  -16.4577    1.0000 </r>
       <r>  -16.1727    1.0000 </r>
       <r>  -15.8654    1.0000 </r>
       <r>   -7.2377    1.0000 </r>
       <r>   -6.1574    1.0000 </r>
       <r>   -5.3224    1.0000 </r>
       <r>   -4.3672    1.0000 </r>
       <r>   -3.9246    1.0000 </r>
       <r>   -3.8047    1.0000 </r>
       <r>   -2.1780    1.0000 </r>
       <r>   -2.0129    1.0000 </r>
       <r>   -1.4241    1.0000 </r>
       <r>   -1.1865    1.0000 </r>
       <r>   -0.8960    1.0000 </r>
       <r>   -0.6346    1.0000 </r>
       <r>   -0.1807    1.0000 </r>
       <r>   -0.0028    1.0000 </r>
       <r>    0.2302    1.0000 </r>
       <r>    0.3286    1.0000 </r>
       <r>    0.6515    1.0000 </r>
       <r>    0.8902    1.0000 </r>
       <r>    9.8901    0.0000 </r>
       <r>   10.4007    0.0000 </r>
       <r>   10.7055    0.0000 </r>
       <r>   11.1014    0.0000 </r>
       <r>   11.5857    0.0000 </r>
      </set>
      <set comment="kpoint 91">
       <r>  -18.0183    1.0000 </r>
       <r>  -17.4378    1.0000 </r>
       <r>  -16.7573    1.0000 </r>
       <r>  -16.5005    1.0000 </r>
       <r>  -16.1855    1.0000 </r>
       <r>  -15.8680    1.0000 </r>
       <r>   -7.2614    1.0000 </r>
       <r>   -6.1151    1.0000 </r>
       <r>   -5.3371    1.0000 </r>
       <r>   -4.3695    1.0000 </r>
       <r>   -3.9121    1.0000 </r>
       <r>   -3.8108    1.0000 </r>
       <r>   -2.1636    1.0000 </r>
       <r>   -2.0146    1.0000 </r>
       <r>   -1.4490    1.0000 </r>
       <r>   -1.1951    1.0000 </r>
       <r>   -0.9429    1.0000 </r>
       <r>   -0.5884    1.0000 </r>
       <r>   -0.1510    1.0000 </r>
       <r>   -0.0074    1.0000 </r>
       <r>    0.2222    1.0000 </r>
       <r>    0.3781    1.0000 </r>
       <r>    0.5927    1.0000 </r>
       <r>    0.8944    1.0000 </r>
       <r>    9.8122    0.0000 </r>
       <r>   10.5509    0.0000 </r>
       <r>   10.7817    0.0000 </r>
       <r>   11.1401    0.0000 </r>
       <r>   11.3345    0.0000 </r>
      </set>
      <set comment="kpoint 92">
       <r>  -18.0774    1.0000 </r>
       <r>  -17.6149    1.0000 </r>
       <r>  -16.5787    1.0000 </r>
       <r>  -16.3954    1.0000 </r>
       <r>  -16.1544    1.0000 </r>
       <r>  -15.8592    1.0000 </r>
       <r>   -7.7078    1.0000 </r>
       <r>   -5.8803    1.0000 </r>
       <r>   -5.1795    1.0000 </r>
       <r>   -4.3497    1.0000 </r>
       <r>   -4.1321    1.0000 </r>
       <r>   -3.7288    1.0000 </r>
       <r>   -2.0690    1.0000 </r>
       <r>   -1.9091    1.0000 </r>
       <r>   -1.4244    1.0000 </r>
       <r>   -1.2922    1.0000 </r>
       <r>   -0.9418    1.0000 </r>
       <r>   -0.4935    1.0000 </r>
       <r>   -0.3541    1.0000 </r>
       <r>   -0.1767    1.0000 </r>
       <r>    0.1279    1.0000 </r>
       <r>    0.5871    1.0000 </r>
       <r>    0.7662    1.0000 </r>
       <r>    0.9447    1.0000 </r>
       <r>    9.1960    0.0000 </r>
       <r>   10.0710    0.0000 </r>
       <r>   10.6087    0.0000 </r>
       <r>   10.8893    0.0000 </r>
       <r>   11.4196    0.0000 </r>
      </set>
     </set>
    </set>
   </array>
  </eigenvalues>
  <separator name="orbital magnetization" >
   <v name="MAGDIPOLOUT">      0.00000000      0.00000000      0.00000000</v>
  </separator>
  <dos>
   <i name="efermi">      1.21111427 </i>
   <total>
    <array>
     <dimension dim="1">gridpoints</dimension>
     <dimension dim="2">spin</dimension>
     <field>energy</field>
     <field>total</field>
     <field>integrated</field>
     <set>
      <set comment="spin 1">
       <r>   -20.4520     0.0000     0.0000 </r>
       <r>   -20.3377     0.0000     0.0000 </r>
       <r>   -20.2233     0.0000     0.0000 </r>
       <r>   -20.1090     0.0000     0.0000 </r>
       <r>   -19.9947     0.0000     0.0000 </r>
       <r>   -19.8804     0.0000     0.0000 </r>
       <r>   -19.7661     0.0000     0.0000 </r>
       <r>   -19.6518     0.0000     0.0000 </r>
       <r>   -19.5374     0.0000     0.0000 </r>
       <r>   -19.4231     0.0000     0.0000 </r>
       <r>   -19.3088     0.0000     0.0000 </r>
       <r>   -19.1945     0.0000     0.0000 </r>
       <r>   -19.0802     0.0000     0.0000 </r>
       <r>   -18.9659     0.0000     0.0000 </r>
       <r>   -18.8515     0.0000     0.0000 </r>
       <r>   -18.7372     0.0000     0.0000 </r>
       <r>   -18.6229     0.0000     0.0000 </r>
       <r>   -18.5086     0.0000     0.0000 </r>
       <r>   -18.3943     0.5426     0.0104 </r>
       <r>   -18.2799     1.8339     0.1617 </r>
       <r>   -18.1656     4.2747     0.4654 </r>
       <r>   -18.0513     7.8168     1.1435 </r>
       <r>   -17.9370     2.8640     1.9307 </r>
       <r>   -17.8227     0.0000     2.0000 </r>
       <r>   -17.7084     1.4812     2.0699 </r>
       <r>   -17.5940     3.3596     2.3243 </r>
       <r>   -17.4797     6.2217     2.8538 </r>
       <r>   -17.3654     7.7719     3.5992 </r>
       <r>   -17.2511     0.9146     3.9602 </r>
       <r>   -17.1368     0.0000     4.0000 </r>
       <r>   -17.0225     0.6022     4.0123 </r>
       <r>   -16.9081     2.7092     4.1840 </r>
       <r>   -16.7938     7.5351     4.8724 </r>
       <r>   -16.6795     3.6484     5.5305 </r>
       <r>   -16.5652     2.7488     5.8781 </r>
       <r>   -16.4509     6.7010     6.2547 </r>
       <r>   -16.3366     6.5185     7.2423 </r>
       <r>   -16.2222     4.6043     7.8459 </r>
       <r>   -16.1079    13.1238     9.3313 </r>
       <r>   -15.9936     0.0000    10.0000 </r>
       <r>   -15.8793    28.5092    11.3818 </r>
       <r>   -15.7650     0.0000    12.0000 </r>
       <r>   -15.6507     0.0000    12.0000 </r>
       <r>   -15.5363     0.0000    12.0000 </r>
       <r>   -15.4220     0.0000    12.0000 </r>
       <r>   -15.3077     0.0000    12.0000 </r>
       <r>   -15.1934     0.0000    12.0000 </r>
       <r>   -15.0791     0.0000    12.0000 </r>
       <r>   -14.9648     0.0000    12.0000 </r>
       <r>   -14.8504     0.0000    12.0000 </r>
       <r>   -14.7361     0.0000    12.0000 </r>
       <r>   -14.6218     0.0000    12.0000 </r>
       <r>   -14.5075     0.0000    12.0000 </r>
       <r>   -14.3932     0.0000    12.0000 </r>
       <r>   -14.2789     0.0000    12.0000 </r>
       <r>   -14.1645     0.0000    12.0000 </r>
       <r>   -14.0502     0.0000    12.0000 </r>
       <r>   -13.9359     0.0000    12.0000 </r>
       <r>   -13.8216     0.0000    12.0000 </r>
       <r>   -13.7073     0.0000    12.0000 </r>
       <r>   -13.5929     0.0000    12.0000 </r>
       <r>   -13.4786     0.0000    12.0000 </r>
       <r>   -13.3643     0.0000    12.0000 </r>
       <r>   -13.2500     0.0000    12.0000 </r>
       <r>   -13.1357     0.0000    12.0000 </r>
       <r>   -13.0214     0.0000    12.0000 </r>
       <r>   -12.9070     0.0000    12.0000 </r>
       <r>   -12.7927     0.0000    12.0000 </r>
       <r>   -12.6784     0.0000    12.0000 </r>
       <r>   -12.5641     0.0000    12.0000 </r>
       <r>   -12.4498     0.0000    12.0000 </r>
       <r>   -12.3355     0.0000    12.0000 </r>
       <r>   -12.2211     0.0000    12.0000 </r>
       <r>   -12.1068     0.0000    12.0000 </r>
       <r>   -11.9925     0.0000    12.0000 </r>
       <r>   -11.8782     0.0000    12.0000 </r>
       <r>   -11.7639     0.0000    12.0000 </r>
       <r>   -11.6496     0.0000    12.0000 </r>
       <r>   -11.5352     0.0000    12.0000 </r>
       <r>   -11.4209     0.0000    12.0000 </r>
       <r>   -11.3066     0.0000    12.0000 </r>
       <r>   -11.1923     0.0000    12.0000 </r>
       <r>   -11.0780     0.0000    12.0000 </r>
       <r>   -10.9637     0.0000    12.0000 </r>
       <r>   -10.8493     0.0000    12.0000 </r>
       <r>   -10.7350     0.0000    12.0000 </r>
       <r>   -10.6207     0.0000    12.0000 </r>
       <r>   -10.5064     0.0000    12.0000 </r>
       <r>   -10.3921     0.0000    12.0000 </r>
       <r>   -10.2778     0.0000    12.0000 </r>
       <r>   -10.1634     0.0000    12.0000 </r>
       <r>   -10.0491     0.0000    12.0000 </r>
       <r>    -9.9348     0.0000    12.0000 </r>
       <r>    -9.8205     0.0000    12.0000 </r>
       <r>    -9.7062     0.0000    12.0000 </r>
       <r>    -9.5919     0.0000    12.0000 </r>
       <r>    -9.4775     0.0000    12.0000 </r>
       <r>    -9.3632     0.0000    12.0000 </r>
       <r>    -9.2489     0.0000    12.0000 </r>
       <r>    -9.1346     0.0000    12.0000 </r>
       <r>    -9.0203     0.0000    12.0000 </r>
       <r>    -8.9059     0.0000    12.0000 </r>
       <r>    -8.7916     0.0000    12.0000 </r>
       <r>    -8.6773     0.0000    12.0000 </r>
       <r>    -8.5630     0.0000    12.0000 </r>
       <r>    -8.4487     0.0000    12.0000 </r>
       <r>    -8.3344     0.0000    12.0000 </r>
       <r>    -8.2200     0.0309    12.0003 </r>
       <r>    -8.1057     0.3107    12.0184 </r>
       <r>    -7.9914     0.4646    12.0665 </r>
       <r>    -7.8771     0.6821    12.1317 </r>
       <r>    -7.7628     0.8892    12.2223 </r>
       <r>    -7.6485     1.2636    12.3440 </r>
       <r>    -7.5341     1.7408    12.5136 </r>
       <r>    -7.4198     3.5022    12.7859 </r>
       <r>    -7.3055     5.6871    13.5029 </r>
       <r>    -7.1912     1.6607    13.8699 </r>
       <r>    -7.0769     0.4140    13.9705 </r>
       <r>    -6.9626     0.2055    14.0033 </r>
       <r>    -6.8482     0.2250    14.0257 </r>
       <r>    -6.7339     0.3642    14.0591 </r>
       <r>    -6.6196     0.6416    14.1137 </r>
       <r>    -6.5053     1.1817    14.2176 </r>
       <r>    -6.3910     2.2085    14.4011 </r>
       <r>    -6.2767     3.5817    14.7299 </r>
       <r>    -6.1623     4.6898    15.2350 </r>
       <r>    -6.0480     1.9663    15.5956 </r>
       <r>    -5.9337     1.1607    15.7708 </r>
       <r>    -5.8194     0.7373    15.8763 </r>
       <r>    -5.7051     0.5774    15.9499 </r>
       <r>    -5.5908     0.1590    15.9981 </r>
       <r>    -5.4764     0.4711    16.0132 </r>
       <r>    -5.3621     2.7411    16.1807 </r>
       <r>    -5.2478     3.2977    16.5298 </r>
       <r>    -5.1335     3.0336    16.8990 </r>
       <r>    -5.0192     2.9840    17.2389 </r>
       <r>    -4.9048     2.0085    17.5237 </r>
       <r>    -4.7905     1.5456    17.7244 </r>
       <r>    -4.6762     1.2532    17.8831 </r>
       <r>    -4.5619     0.4996    17.9932 </r>
       <r>    -4.4476     5.4467    18.1867 </r>
       <r>    -4.3333     8.7425    19.3421 </r>
       <r>    -4.2189     4.8113    20.0386 </r>
       <r>    -4.1046    10.2395    20.8513 </r>
       <r>    -3.9903     5.7572    21.6978 </r>
       <r>    -3.8760     1.6048    22.1117 </r>
       <r>    -3.7617     8.3470    22.6612 </r>
       <r>    -3.6474     5.3589    23.5519 </r>
       <r>    -3.5330     2.1685    23.9203 </r>
       <r>    -3.4187     0.0000    24.0000 </r>
       <r>    -3.3044     0.0000    24.0000 </r>
       <r>    -3.1901     0.0000    24.0000 </r>
       <r>    -3.0758     0.0000    24.0000 </r>
       <r>    -2.9615     0.0000    24.0000 </r>
       <r>    -2.8471     0.0000    24.0000 </r>
       <r>    -2.7328     0.0000    24.0000 </r>
       <r>    -2.6185     0.0000    24.0000 </r>
       <r>    -2.5042     0.0000    24.0000 </r>
       <r>    -2.3899     0.0000    24.0000 </r>
       <r>    -2.2756     0.0000    24.0000 </r>
       <r>    -2.1612    11.3304    24.5747 </r>
       <r>    -2.0469     6.0737    25.8321 </r>
       <r>    -1.9326     7.2183    26.6755 </r>
       <r>    -1.8183     6.7673    27.3723 </r>
       <r>    -1.7040     2.9167    27.9385 </r>
       <r>    -1.5897     8.8311    28.4267 </r>
       <r>    -1.4753     7.4778    29.5212 </r>
       <r>    -1.3610     0.6870    29.9960 </r>
       <r>    -1.2467     9.7801    30.4095 </r>
       <r>    -1.1324     8.4794    31.7568 </r>
       <r>    -1.0181     1.5600    32.0140 </r>
       <r>    -0.9038    13.5019    33.5746 </r>
       <r>    -0.7894     0.9217    33.9234 </r>
       <r>    -0.6751     6.4398    34.3845 </r>
       <r>    -0.5608    10.8413    35.3182 </r>
       <r>    -0.4465     7.6249    36.3650 </r>
       <r>    -0.3322     5.7824    37.4762 </r>
       <r>    -0.2178     5.7349    38.0605 </r>
       <r>    -0.1035     8.7817    39.0000 </r>
       <r>     0.0108     4.7903    39.8787 </r>
       <r>     0.1251     8.8032    40.5797 </r>
       <r>     0.2394     4.9335    41.8622 </r>
       <r>     0.3537     3.8208    42.1102 </r>
       <r>     0.4681    10.4422    43.3708 </r>
       <r>     0.5824     2.5986    43.8563 </r>
       <r>     0.6967     4.9519    44.3444 </r>
       <r>     0.8110    12.9753    45.2471 </r>
       <r>     0.9253     5.0460    46.2422 </r>
       <r>     1.0396    13.5344    47.1582 </r>
       <r>     1.1540     2.6480    47.9666 </r>
       <r>     1.2683     0.0000    48.0000 </r>
       <r>     1.3826     0.0000    48.0000 </r>
       <r>     1.4969     0.0000    48.0000 </r>
       <r>     1.6112     0.0000    48.0000 </r>
       <r>     1.7255     0.0000    48.0000 </r>
       <r>     1.8399     0.0000    48.0000 </r>
       <r>     1.9542     0.0000    48.0000 </r>
       <r>     2.0685     0.0000    48.0000 </r>
       <r>     2.1828     0.0000    48.0000 </r>
       <r>     2.2971     0.0000    48.0000 </r>
       <r>     2.4114     0.0000    48.0000 </r>
       <r>     2.5258     0.0000    48.0000 </r>
       <r>     2.6401     0.0000    48.0000 </r>
       <r>     2.7544     0.0000    48.0000 </r>
       <r>     2.8687     0.0000    48.0000 </r>
       <r>     2.9830     0.0000    48.0000 </r>
       <r>     3.0973     0.0000    48.0000 </r>
       <r>     3.2117     0.0000    48.0000 </r>
       <r>     3.3260     0.0000    48.0000 </r>
       <r>     3.4403     0.0000    48.0000 </r>
       <r>     3.5546     0.0000    48.0000 </r>
       <r>     3.6689     0.0000    48.0000 </r>
       <r>     3.7832     0.0000    48.0000 </r>
       <r>     3.8976     0.0000    48.0000 </r>
       <r>     4.0119     0.0000    48.0000 </r>
       <r>     4.1262     0.0000    48.0000 </r>
       <r>     4.2405     0.0000    48.0000 </r>
       <r>     4.3548     0.0000    48.0000 </r>
       <r>     4.4692     0.0000    48.0000 </r>
       <r>     4.5835     0.0000    48.0000 </r>
       <r>     4.6978     0.0000    48.0000 </r>
       <r>     4.8121     0.0000    48.0000 </r>
       <r>     4.9264     0.0000    48.0000 </r>
       <r>     5.0407     0.0000    48.0000 </r>
       <r>     5.1551     0.0000    48.0000 </r>
       <r>     5.2694     0.0000    48.0000 </r>
       <r>     5.3837     0.0000    48.0000 </r>
       <r>     5.4980     0.0000    48.0000 </r>
       <r>     5.6123     0.0000    48.0000 </r>
       <r>     5.7266     0.0000    48.0000 </r>
       <r>     5.8410     0.0000    48.0000 </r>
       <r>     5.9553     0.0000    48.0000 </r>
       <r>     6.0696     0.0000    48.0000 </r>
       <r>     6.1839     0.0000    48.0000 </r>
       <r>     6.2982     0.0000    48.0000 </r>
       <r>     6.4125     0.0000    48.0000 </r>
       <r>     6.5269     0.0000    48.0000 </r>
       <r>     6.6412     0.0000    48.0000 </r>
       <r>     6.7555     0.0000    48.0000 </r>
       <r>     6.8698     0.0000    48.0000 </r>
       <r>     6.9841     0.0000    48.0000 </r>
       <r>     7.0984     0.0000    48.0000 </r>
       <r>     7.2128     0.0131    48.0005 </r>
       <r>     7.3271     0.0526    48.0040 </r>
       <r>     7.4414     0.1185    48.0135 </r>
       <r>     7.5557     0.2051    48.0322 </r>
       <r>     7.6700     0.2520    48.0585 </r>
       <r>     7.7843     0.2809    48.0892 </r>
       <r>     7.8987     0.3047    48.1223 </r>
       <r>     8.0130     0.3508    48.1597 </r>
       <r>     8.1273     0.3996    48.2026 </r>
       <r>     8.2416     0.4510    48.2512 </r>
       <r>     8.3559     0.5048    48.3058 </r>
       <r>     8.4702     0.5609    48.3667 </r>
       <r>     8.5846     0.7193    48.4398 </r>
       <r>     8.6989     0.8731    48.5309 </r>
       <r>     8.8132     0.8443    48.6275 </r>
       <r>     8.9275     0.9070    48.7276 </r>
       <r>     9.0418     0.9719    48.8349 </r>
       <r>     9.1562     1.0389    48.9499 </r>
       <r>     9.2705     1.3637    49.0776 </r>
       <r>     9.3848     1.5725    49.2527 </r>
       <r>     9.4991     1.3279    49.4198 </r>
       <r>     9.6134     1.2535    49.5670 </r>
       <r>     9.7277     1.4563    49.7210 </r>
       <r>     9.8421     1.7732    49.8946 </r>
       <r>     9.9564     1.2199    50.0929 </r>
       <r>    10.0707     1.0606    50.2202 </r>
       <r>    10.1850     2.3825    50.3911 </r>
       <r>    10.2993     8.4473    50.9449 </r>
       <r>    10.4136     4.1491    51.9101 </r>
       <r>    10.5280     5.2582    52.4035 </r>
       <r>    10.6423     8.1390    53.2509 </r>
       <r>    10.7566     5.2487    54.0310 </r>
       <r>    10.8709     2.4575    54.4368 </r>
       <r>    10.9852     3.4804    54.7368 </r>
       <r>    11.0995     6.2942    55.3584 </r>
       <r>    11.2139     3.6903    55.9724 </r>
       <r>    11.3282     4.9057    56.4328 </r>
       <r>    11.4425     6.8822    57.1376 </r>
       <r>    11.5568     4.1093    57.8065 </r>
       <r>    11.6711     0.3251    57.9853 </r>
       <r>    11.7854     0.0140    57.9998 </r>
       <r>    11.8998     0.0000    58.0000 </r>
       <r>    12.0141     0.0000    58.0000 </r>
       <r>    12.1284     0.0000    58.0000 </r>
       <r>    12.2427     0.0000    58.0000 </r>
       <r>    12.3570     0.0000    58.0000 </r>
       <r>    12.4713     0.0000    58.0000 </r>
       <r>    12.5857     0.0000    58.0000 </r>
       <r>    12.7000     0.0000    58.0000 </r>
       <r>    12.8143     0.0000    58.0000 </r>
       <r>    12.9286     0.0000    58.0000 </r>
       <r>    13.0429     0.0000    58.0000 </r>
       <r>    13.1572     0.0000    58.0000 </r>
       <r>    13.2716     0.0000    58.0000 </r>
       <r>    13.3859     0.0000    58.0000 </r>
       <r>    13.5002     0.0000    58.0000 </r>
       <r>    13.6145     0.0000    58.0000 </r>
       <r>    13.7288     0.0000    58.0000 </r>
       <r>    13.8432     0.0000    58.0000 </r>
      </set>
     </set>
    </array>
   </total>
  </dos>
 </calculation>
 <structure name="finalpos" >
  <crystal>
   <varray name="basis" >
    <v>       4.91370000       0.00000000       0.00000000 </v>
    <v>      -2.45685000       4.25538903       0.00000000 </v>
    <v>       0.00000000       0.00000000       5.40513000 </v>
   </varray>
   <i name="volume">    113.01967420 </i>
   <varray name="rec_basis" >
    <v>       0.20351263       0.11749807       0.00000000 </v>
    <v>       0.00000000       0.23499614       0.00000000 </v>
    <v>       0.00000000       0.00000000       0.18500943 </v>
   </varray>
  </crystal>
  <varray name="positions" >
   <v>       0.46980000       0.02000000       0.66667000 </v>
   <v>       0.00000000       0.46980000       0.33333000 </v>
   <v>       0.53020000       0.53020000       0.00000000 </v>
   <v>       0.41450000       0.26620000       0.78560000 </v>
   <v>       0.73380000       0.14830000       0.45227000 </v>
   <v>       0.85170000       0.58550000       0.11893000 </v>
   <v>       0.14830000       0.73380000       0.54773000 </v>
   <v>       0.26620000       0.41450000       0.21440000 </v>
   <v>       0.58550000       0.85170000       0.88107000 </v>
  </varray>
 </structure>
</modeling>
