unknown system                          
   1.00000000000000     
     3.946846    0.000000    0.000000
     0.000000    3.946846    0.000000
     0.000000    0.000000    3.946846
   Sr   Ti   O 
     1     1     3
Direct
  0.000000  0.000000  0.000000
  0.500000  0.500000  0.500000
  0.500000  0.500000  0.000000
  0.500000  0.000000  0.500000
  0.000000  0.500000  0.500000
 
   48   48   48
  199.15      199.18      198.76      196.51      190.79      180.29      164.53      144.10      120.51      95.908    
  72.523      52.193      35.972      24.032      15.837      10.474      7.0718      4.9721      3.6947      2.9228    
  2.4611      2.1919      2.0432      1.9704      1.9489      1.9704      2.0432      2.1919      2.4611      2.9228    
  3.6947      4.9721      7.0718      10.474      15.837      24.032      35.972      52.193      72.523      95.908    
  120.51      144.10      164.53      180.29      190.79      196.51      198.76      199.18      199.18      199.12    
  198.45      195.86      189.77      178.96      163.01      142.51      119.00      94.569      71.434      51.375    
  35.405      23.668      15.619      10.352      7.0106      4.9481      3.6929      2.9342      2.4803      2.2158    
  2.0697      1.9983      1.9771      1.9983      2.0697      2.2158      2.4803      2.9342      3.6929      4.9481    
  7.0106      10.352      15.619      23.668      35.405      51.375      71.434      94.569      119.00      142.51    
  163.01      178.96      189.77      195.86      198.45      199.12      198.76      198.45      197.10      193.56    
  186.48      174.84      158.37      137.75      114.49      90.629      68.248      48.993      33.759      22.615    
  14.992      10.003      6.8384      4.8846      3.6947      2.9755      2.5458      2.2961      2.1588      2.0920    
  2.0723      2.0920      2.1588      2.2961      2.5458      2.9755      3.6947      4.8846      6.8384      10.003    
  14.992      22.615      33.759      48.993      68.248      90.629      114.49      137.75      158.37      174.84    
  186.48      193.56      197.10      198.45      196.51      195.86      193.56      188.72      180.30      167.57    
  150.50      129.87      107.17      84.318      63.202      45.258      31.200      20.991      14.031      9.4747    
  6.5868      4.8036      3.7178      3.0627      2.6735      2.4495      2.3279      2.2697      2.2526      2.2697    
  2.3279      2.4495      2.6735      3.0627      3.7178      4.8036      6.5868      9.4747      14.031      20.991    
  31.200      45.258      63.202      84.318      107.17      129.87      150.50      167.57      180.30      188.72    
  193.56      195.86      190.79      189.77      186.48      180.30      170.54      156.83      139.38      119.07    
  97.377      76.035      56.685      40.498      27.978      18.967      12.846      8.8376      6.3010      4.7359    
  3.7849      3.2145      2.8798      2.6913      2.5920      2.5459      2.5328      2.5459      2.5920      2.6913    
  2.8798      3.2145      3.7849      4.7359      6.3010      8.8376      12.846      18.967      27.978      40.498    
  56.685      76.035      97.377      119.07      139.38      156.83      170.54      180.30      186.48      189.77    
  180.29      178.96      174.84      167.57      156.83      142.57      125.24      105.80      85.660      66.344    
  49.206      35.129      24.397      16.747      11.563      8.1737      6.0348      4.7196      3.9262      3.4579    
  3.1912      3.0481      2.9781      2.9485      2.9407      2.9485      2.9781      3.0481      3.1912      3.4579    
  3.9262      4.7196      6.0348      8.1737      11.563      16.747      24.397      35.129      49.206      66.344    
  85.660      105.80      125.24      142.57      156.83      167.57      174.84      178.96      164.53      163.01    
  158.37      150.50      139.38      125.24      108.70      90.789      72.773      55.944      41.351      29.596    
  20.769      14.532      10.312      7.5674      5.8469      4.8013      4.1853      3.8382      3.6570      3.5743    
  3.5450      3.5389      3.5388      3.5389      3.5450      3.5743      3.6570      3.8382      4.1853      4.8013    
  5.8469      7.5674      10.312      14.532      20.769      29.596      41.351      55.944      72.773      90.789    
  108.70      125.24      139.38      150.50      158.37      163.01      144.10      142.51      137.75      129.87    
  119.07      105.80      90.789      75.023      59.612      45.588      33.705      24.318      17.370      12.493    
  9.2094      7.0981      5.7991      5.0376      4.6210      4.4206      4.3504      4.3511      4.3806      4.4097    
  4.4214      4.4097      4.3806      4.3511      4.3504      4.4206      4.6210      5.0376      5.7991      7.0981    
  9.2094      12.493      17.370      24.318      33.705      45.588      59.612      75.023      90.789      105.80    
  119.07      129.87      137.75      142.51      120.51      119.00      114.49      107.17      97.377      85.660    
  72.773      59.612      47.089      35.975      26.766      19.624      14.403      10.762      8.3485      6.8385    
  5.9572      5.4968      5.3092      5.2910      5.3681      5.4847      5.5987      5.6795      5.7086      5.6795    
  5.5987      5.4847      5.3681      5.2910      5.3092      5.4968      5.9572      6.8385      8.3485      10.762    
  14.403      19.624      26.766      35.975      47.089      59.612      72.773      85.660      97.377      107.17    
  114.49      119.00      95.908      94.569      90.629      84.318      76.035      66.344      55.944      45.588    
  35.975      27.640      20.877      15.717      11.985      9.4311      7.8017      6.8561      6.3944      6.2634    
  6.3490      6.5643      6.8402      7.1194      7.3550      7.5114      7.5661      7.5114      7.3550      7.1194    
  6.8402      6.5643      6.3490      6.2634      6.3944      6.8561      7.8017      9.4311      11.985      15.717    
  20.877      27.640      35.975      45.588      55.944      66.344      76.035      84.318      90.629      94.569    
  72.523      71.434      68.248      63.202      56.685      49.206      41.351      33.705      26.766      20.877    
  16.187      12.662      10.171      8.5512      7.6220      7.2159      7.1930      7.4408      7.8672      8.3928    
  8.9452      9.4583      9.8732      10.143      10.236      10.143      9.8732      9.4583      8.9452      8.3928    
  7.8672      7.4408      7.1930      7.2159      7.6220      8.5512      10.171      12.662      16.187      20.877    
  26.766      33.705      41.351      49.206      56.685      63.202      68.248      71.434      52.193      51.375    
  48.993      45.258      40.498      35.129      29.596      24.318      19.624      15.717      12.662      10.434    
  8.9630      8.1401      7.8493      7.9822      8.4441      9.1501      10.020      10.973      11.924      12.786    
  13.476      13.922      14.077      13.922      13.476      12.786      11.924      10.973      10.020      9.1501    
  8.4441      7.9822      7.8493      8.1401      8.9630      10.434      12.662      15.717      19.624      24.318    
  29.596      35.129      40.498      45.258      48.993      51.375      35.972      35.405      33.759      31.200    
  27.978      24.397      20.769      17.370      14.403      11.985      10.171      8.9630      8.3236      8.1951    
  8.5143      9.2189      10.247      11.535      13.008      14.575      16.126      17.535      18.667      19.404    
  19.659      19.404      18.667      17.535      16.126      14.575      13.008      11.535      10.247      9.2189    
  8.5143      8.1951      8.3236      8.9630      10.171      11.985      14.403      17.370      20.769      24.397    
  27.978      31.200      33.759      35.405      24.032      23.668      22.615      20.991      18.967      16.747    
  14.532      12.493      10.762      9.4311      8.5512      8.1401      8.1951      8.7024      9.6424      10.991    
  12.719      14.783      17.115      19.610      22.110      24.413      26.288      27.519      27.948      27.519    
  26.288      24.413      22.110      19.610      17.115      14.783      12.719      10.991      9.6424      8.7024    
  8.1951      8.1401      8.5512      9.4311      10.762      12.493      14.532      16.747      18.967      20.991    
  22.615      23.668      15.837      15.619      14.992      14.031      12.846      11.563      10.312      9.2094    
  8.3485      7.8017      7.6220      7.8493      8.5143      9.6424      11.255      13.373      16.009      19.157    
  22.769      26.712      30.752      34.544      37.677      39.754      40.481      39.754      37.677      34.544    
  30.752      26.712      22.769      19.157      16.009      13.373      11.255      9.6424      8.5143      7.8493    
  7.6220      7.8017      8.3485      9.2094      10.312      11.563      12.846      14.031      14.992      15.619    
  10.474      10.352      10.003      9.4747      8.8376      8.1737      7.5674      7.0981      6.8385      6.8561    
  7.2159      7.9822      9.2189      10.991      13.373      16.448      20.306      25.013      30.556      36.769    
  43.276      49.489      54.681      58.146      59.364      58.146      54.681      49.489      43.276      36.769    
  30.556      25.013      20.306      16.448      13.373      10.991      9.2189      7.9822      7.2159      6.8561    
  6.8385      7.0981      7.5674      8.1737      8.8376      9.4747      10.003      10.352      7.0718      7.0106    
  6.8384      6.5868      6.3010      6.0348      5.8469      5.7991      5.9572      6.3944      7.1930      8.4441    
  10.247      12.719      16.009      20.306      25.830      32.769      41.174      50.817      61.085      70.992    
  79.414      85.148      87.188      85.148      79.414      70.992      61.085      50.817      41.174      32.769    
  25.830      20.306      16.009      12.719      10.247      8.4441      7.1930      6.3944      5.9572      5.7991    
  5.8469      6.0348      6.3010      6.5868      6.8384      7.0106      4.9721      4.9481      4.8846      4.8036    
  4.7359      4.7196      4.8013      5.0376      5.4968      6.2634      7.4408      9.1501      11.535      14.783    
  19.157      25.013      32.769      42.800      55.238      69.732      85.561      101.56      115.64      125.36    
  128.84      125.36      115.64      101.56      85.561      69.732      55.238      42.800      32.769      25.013    
  19.157      14.783      11.535      9.1501      7.4408      6.2634      5.4968      5.0376      4.8013      4.7196    
  4.7359      4.8036      4.8846      4.9481      3.6947      3.6929      3.6947      3.7178      3.7849      3.9262    
  4.1853      4.6210      5.3092      6.3490      7.8672      10.020      13.008      17.115      22.769      30.556    
  41.174      55.238      72.961      94.424      119.10      144.53      166.91      182.28      187.75      182.28    
  166.91      144.53      119.10      94.424      72.961      55.238      41.174      30.556      22.769      17.115    
  13.008      10.020      7.8672      6.3490      5.3092      4.6210      4.1853      3.9262      3.7849      3.7178    
  3.6947      3.6929      2.9228      2.9342      2.9755      3.0627      3.2145      3.4579      3.8382      4.4206    
  5.2910      6.5643      8.3928      10.973      14.575      19.610      26.712      36.769      50.817      69.732    
  94.424      125.83      162.35      199.58      231.70      253.34      260.95      253.34      231.70      199.58    
  162.35      125.83      94.424      69.732      50.817      36.769      26.712      19.610      14.575      10.973    
  8.3928      6.5643      5.2910      4.4206      3.8382      3.4579      3.2145      3.0627      2.9755      2.9342    
  2.4611      2.4803      2.5458      2.6735      2.8798      3.1912      3.6570      4.3504      5.3681      6.8402    
  8.9452      11.924      16.126      22.110      30.752      43.276      61.085      85.561      119.10      162.35    
  211.96      261.17      302.30      329.25      338.57      329.25      302.30      261.17      211.96      162.35    
  119.10      85.561      61.085      43.276      30.752      22.110      16.126      11.924      8.9452      6.8402    
  5.3681      4.3504      3.6570      3.1912      2.8798      2.6735      2.5458      2.4803      2.1919      2.2158    
  2.2961      2.4495      2.6913      3.0481      3.5743      4.3511      5.4847      7.1194      9.4583      12.786    
  17.535      24.413      34.544      49.489      70.992      101.56      144.53      199.58      261.17      320.17    
  367.58      397.52      407.65      397.52      367.58      320.17      261.17      199.58      144.53      101.56    
  70.992      49.489      34.544      24.413      17.535      12.786      9.4583      7.1194      5.4847      4.3511    
  3.5743      3.0481      2.6913      2.4495      2.2961      2.2158      2.0432      2.0697      2.1588      2.3279    
  2.5920      2.9781      3.5450      4.3806      5.5987      7.3550      9.8732      13.476      18.667      26.288    
  37.677      54.681      79.414      115.64      166.91      231.70      302.30      367.58      417.86      448.33    
  458.36      448.33      417.86      367.58      302.30      231.70      166.91      115.64      79.414      54.681    
  37.677      26.288      18.667      13.476      9.8732      7.3550      5.5987      4.3806      3.5450      2.9781    
  2.5920      2.3279      2.1588      2.0697      1.9704      1.9983      2.0920      2.2697      2.5459      2.9485    
  3.5389      4.4097      5.6795      7.5114      10.143      13.922      19.404      27.519      39.754      58.146    
  85.148      125.36      182.28      253.34      329.25      397.52      448.33      478.02      487.54      478.02    
  448.33      397.52      329.25      253.34      182.28      125.36      85.148      58.146      39.754      27.519    
  19.404      13.922      10.143      7.5114      5.6795      4.4097      3.5389      2.9485      2.5459      2.2697    
  2.0920      1.9983      1.9489      1.9771      2.0723      2.2526      2.5328      2.9407      3.5388      4.4214    
  5.7086      7.5661      10.236      14.077      19.659      27.948      40.481      59.364      87.188      128.84    
  187.75      260.95      338.57      407.65      458.36      487.54      496.80      487.54      458.36      407.65    
  338.57      260.95      187.75      128.84      87.188      59.364      40.481      27.948      19.659      14.077    
  10.236      7.5661      5.7086      4.4214      3.5388      2.9407      2.5328      2.2526      2.0723      1.9771    
  1.9704      1.9983      2.0920      2.2697      2.5459      2.9485      3.5389      4.4097      5.6795      7.5114    
  10.143      13.922      19.404      27.519      39.754      58.146      85.148      125.36      182.28      253.34    
  329.25      397.52      448.33      478.02      487.54      478.02      448.33      397.52      329.25      253.34    
  182.28      125.36      85.148      58.146      39.754      27.519      19.404      13.922      10.143      7.5114    
  5.6795      4.4097      3.5389      2.9485      2.5459      2.2697      2.0920      1.9983      2.0432      2.0697    
  2.1588      2.3279      2.5920      2.9781      3.5450      4.3806      5.5987      7.3550      9.8732      13.476    
  18.667      26.288      37.677      54.681      79.414      115.64      166.91      231.70      302.30      367.58    
  417.86      448.33      458.36      448.33      417.86      367.58      302.30      231.70      166.91      115.64    
  79.414      54.681      37.677      26.288      18.667      13.476      9.8732      7.3550      5.5987      4.3806    
  3.5450      2.9781      2.5920      2.3279      2.1588      2.0697      2.1919      2.2158      2.2961      2.4495    
  2.6913      3.0481      3.5743      4.3511      5.4847      7.1194      9.4583      12.786      17.535      24.413    
  34.544      49.489      70.992      101.56      144.53      199.58      261.17      320.17      367.58      397.52    
  407.65      397.52      367.58      320.17      261.17      199.58      144.53      101.56      70.992      49.489    
  34.544      24.413      17.535      12.786      9.4583      7.1194      5.4847      4.3511      3.5743      3.0481    
  2.6913      2.4495      2.2961      2.2158      2.4611      2.4803      2.5458      2.6735      2.8798      3.1912    
  3.6570      4.3504      5.3681      6.8402      8.9452      11.924      16.126      22.110      30.752      43.276    
  61.085      85.561      119.10      162.35      211.96      261.17      302.30      329.25      338.57      329.25    
  302.30      261.17      211.96      162.35      119.10      85.561      61.085      43.276      30.752      22.110    
  16.126      11.924      8.9452      6.8402      5.3681      4.3504      3.6570      3.1912      2.8798      2.6735    
  2.5458      2.4803      2.9228      2.9342      2.9755      3.0627      3.2145      3.4579      3.8382      4.4206    
  5.2910      6.5643      8.3928      10.973      14.575      19.610      26.712      36.769      50.817      69.732    
  94.424      125.83      162.35      199.58      231.70      253.34      260.95      253.34      231.70      199.58    
  162.35      125.83      94.424      69.732      50.817      36.769      26.712      19.610      14.575      10.973    
  8.3928      6.5643      5.2910      4.4206      3.8382      3.4579      3.2145      3.0627      2.9755      2.9342    
  3.6947      3.6929      3.6947      3.7178      3.7849      3.9262      4.1853      4.6210      5.3092      6.3490    
  7.8672      10.020      13.008      17.115      22.769      30.556      41.174      55.238      72.961      94.424    
  119.10      144.53      166.91      182.28      187.75      182.28      166.91      144.53      119.10      94.424    
  72.961      55.238      41.174      30.556      22.769      17.115      13.008      10.020      7.8672      6.3490    
  5.3092      4.6210      4.1853      3.9262      3.7849      3.7178      3.6947      3.6929      4.9721      4.9481    
  4.8846      4.8036      4.7359      4.7196      4.8013      5.0376      5.4968      6.2634      7.4408      9.1501    
  11.535      14.783      19.157      25.013      32.769      42.800      55.238      69.732      85.561      101.56    
  115.64      125.36      128.84      125.36      115.64      101.56      85.561      69.732      55.238      42.800    
  32.769      25.013      19.157      14.783      11.535      9.1501      7.4408      6.2634      5.4968      5.0376    
  4.8013      4.7196      4.7359      4.8036      4.8846      4.9481      7.0718      7.0106      6.8384      6.5868    
  6.3010      6.0348      5.8469      5.7991      5.9572      6.3944      7.1930      8.4441      10.247      12.719    
  16.009      20.306      25.830      32.769      41.174      50.817      61.085      70.992      79.414      85.148    
  87.188      85.148      79.414      70.992      61.085      50.817      41.174      32.769      25.830      20.306    
  16.009      12.719      10.247      8.4441      7.1930      6.3944      5.9572      5.7991      5.8469      6.0348    
  6.3010      6.5868      6.8384      7.0106      10.474      10.352      10.003      9.4747      8.8376      8.1737    
  7.5674      7.0981      6.8385      6.8561      7.2159      7.9822      9.2189      10.991      13.373      16.448    
  20.306      25.013      30.556      36.769      43.276      49.489      54.681      58.146      59.364      58.146    
  54.681      49.489      43.276      36.769      30.556      25.013      20.306      16.448      13.373      10.991    
  9.2189      7.9822      7.2159      6.8561      6.8385      7.0981      7.5674      8.1737      8.8376      9.4747    
  10.003      10.352      15.837      15.619      14.992      14.031      12.846      11.563      10.312      9.2094    
  8.3485      7.8017      7.6220      7.8493      8.5143      9.6424      11.255      13.373      16.009      19.157    
  22.769      26.712      30.752      34.544      37.677      39.754      40.481      39.754      37.677      34.544    
  30.752      26.712      22.769      19.157      16.009      13.373      11.255      9.6424      8.5143      7.8493    
  7.6220      7.8017      8.3485      9.2094      10.312      11.563      12.846      14.031      14.992      15.619    
  24.032      23.668      22.615      20.991      18.967      16.747      14.532      12.493      10.762      9.4311    
  8.5512      8.1401      8.1951      8.7024      9.6424      10.991      12.719      14.783      17.115      19.610    
  22.110      24.413      26.288      27.519      27.948      27.519      26.288      24.413      22.110      19.610    
  17.115      14.783      12.719      10.991      9.6424      8.7024      8.1951      8.1401      8.5512      9.4311    
  10.762      12.493      14.532      16.747      18.967      20.991      22.615      23.668      35.972      35.405    
  33.759      31.200      27.978      24.397      20.769      17.370      14.403      11.985      10.171      8.9630    
  8.3236      8.1951      8.5143      9.2189      10.247      11.535      13.008      14.575      16.126      17.535    
  18.667      19.404      19.659      19.404      18.667      17.535      16.126      14.575      13.008      11.535    
  10.247      9.2189      8.5143      8.1951      8.3236      8.9630      10.171      11.985      14.403      17.370    
  20.769      24.397      27.978      31.200      33.759      35.405      52.193      51.375      48.993      45.258    
  40.498      35.129      29.596      24.318      19.624      15.717      12.662      10.434      8.9630      8.1401    
  7.8493      7.9822      8.4441      9.1501      10.020      10.973      11.924      12.786      13.476      13.922    
  14.077      13.922      13.476      12.786      11.924      10.973      10.020      9.1501      8.4441      7.9822    
  7.8493      8.1401      8.9630      10.434      12.662      15.717      19.624      24.318      29.596      35.129    
  40.498      45.258      48.993      51.375      72.523      71.434      68.248      63.202      56.685      49.206    
  41.351      33.705      26.766      20.877      16.187      12.662      10.171      8.5512      7.6220      7.2159    
  7.1930      7.4408      7.8672      8.3928      8.9452      9.4583      9.8732      10.143      10.236      10.143    
  9.8732      9.4583      8.9452      8.3928      7.8672      7.4408      7.1930      7.2159      7.6220      8.5512    
  10.171      12.662      16.187      20.877      26.766      33.705      41.351      49.206      56.685      63.202    
  68.248      71.434      95.908      94.569      90.629      84.318      76.035      66.344      55.944      45.588    
  35.975      27.640      20.877      15.717      11.985      9.4311      7.8017      6.8561      6.3944      6.2634    
  6.3490      6.5643      6.8402      7.1194      7.3550      7.5114      7.5661      7.5114      7.3550      7.1194    
  6.8402      6.5643      6.3490      6.2634      6.3944      6.8561      7.8017      9.4311      11.985      15.717    
  20.877      27.640      35.975      45.588      55.944      66.344      76.035      84.318      90.629      94.569    
  120.51      119.00      114.49      107.17      97.377      85.660      72.773      59.612      47.089      35.975    
  26.766      19.624      14.403      10.762      8.3485      6.8385      5.9572      5.4968      5.3092      5.2910    
  5.3681      5.4847      5.5987      5.6795      5.7086      5.6795      5.5987      5.4847      5.3681      5.2910    
  5.3092      5.4968      5.9572      6.8385      8.3485      10.762      14.403      19.624      26.766      35.975    
  47.089      59.612      72.773      85.660      97.377      107.17      114.49      119.00      144.10      142.51    
  137.75      129.87      119.07      105.80      90.789      75.023      59.612      45.588      33.705      24.318    
  17.370      12.493      9.2094      7.0981      5.7991      5.0376      4.6210      4.4206      4.3504      4.3511    
  4.3806      4.4097      4.4214      4.4097      4.3806      4.3511      4.3504      4.4206      4.6210      5.0376    
  5.7991      7.0981      9.2094      12.493      17.370      24.318      33.705      45.588      59.612      75.023    
  90.789      105.80      119.07      129.87      137.75      142.51      164.53      163.01      158.37      150.50    
  139.38      125.24      108.70      90.789      72.773      55.944      41.351      29.596      20.769      14.532    
  10.312      7.5674      5.8469      4.8013      4.1853      3.8382      3.6570      3.5743      3.5450      3.5389    
  3.5388      3.5389      3.5450      3.5743      3.6570      3.8382      4.1853      4.8013      5.8469      7.5674    
  10.312      14.532      20.769      29.596      41.351      55.944      72.773      90.789      108.70      125.24    
  139.38      150.50      158.37      163.01      180.29      178.96      174.84      167.57      156.83      142.57    
  125.24      105.80      85.660      66.344      49.206      35.129      24.397      16.747      11.563      8.1737    
  6.0348      4.7196      3.9262      3.4579      3.1912      3.0481      2.9781      2.9485      2.9407      2.9485    
  2.9781      3.0481      3.1912      3.4579      3.9262      4.7196      6.0348      8.1737      11.563      16.747    
  24.397      35.129      49.206      66.344      85.660      105.80      125.24      142.57      156.83      167.57    
  174.84      178.96      190.79      189.77      186.48      180.30      170.54      156.83      139.38      119.07    
  97.377      76.035      56.685      40.498      27.978      18.967      12.846      8.8376      6.3010      4.7359    
  3.7849      3.2145      2.8798      2.6913      2.5920      2.5459      2.5328      2.5459      2.5920      2.6913    
  2.8798      3.2145      3.7849      4.7359      6.3010      8.8376      12.846      18.967      27.978      40.498    
  56.685      76.035      97.377      119.07      139.38      156.83      170.54      180.30      186.48      189.77    
  196.51      195.86      193.56      188.72      180.30      167.57      150.50      129.87      107.17      84.318    
  63.202      45.258      31.200      20.991      14.031      9.4747      6.5868      4.8036      3.7178      3.0627    
  2.6735      2.4495      2.3279      2.2697      2.2526      2.2697      2.3279      2.4495      2.6735      3.0627    
  3.7178      4.8036      6.5868      9.4747      14.031      20.991      31.200      45.258      63.202      84.318    
  107.17      129.87      150.50      167.57      180.30      188.72      193.56      195.86      198.76      198.45    
  197.10      193.56      186.48      174.84      158.37      137.75      114.49      90.629      68.248      48.993    
  33.759      22.615      14.992      10.003      6.8384      4.8846      3.6947      2.9755      2.5458      2.2961    
  2.1588      2.0920      2.0723      2.0920      2.1588      2.2961      2.5458      2.9755      3.6947      4.8846    
  6.8384      10.003      14.992      22.615      33.759      48.993      68.248      90.629      114.49      137.75    
  158.37      174.84      186.48      193.56      197.10      198.45      199.18      199.12      198.45      195.86    
  189.77      178.96      163.01      142.51      119.00      94.569      71.434      51.375      35.405      23.668    
  15.619      10.352      7.0106      4.9481      3.6929      2.9342      2.4803      2.2158      2.0697      1.9983    
  1.9771      1.9983      2.0697      2.2158      2.4803      2.9342      3.6929      4.9481      7.0106      10.352    
  15.619      23.668      35.405      51.375      71.434      94.569      119.00      142.51      163.01      178.96    
  189.77      195.86      198.45      199.12      199.18      199.12      198.45      195.86      189.77      178.96    
  163.01      142.51      119.00      94.569      71.434      51.375      35.405      23.668      15.619      10.352    
  7.0106      4.9481      3.6929      2.9342      2.4803      2.2158      2.0697      1.9983      1.9771      1.9983    
  2.0697      2.2158      2.4803      2.9342      3.6929      4.9481      7.0106      10.352      15.619      23.668    
  35.405      51.375      71.434      94.569      119.00      142.51      163.01      178.96      189.77      195.86    
  198.45      199.12      199.12      198.98      198.07      195.15      188.72      177.61      161.47      140.92    
  117.48      93.243      70.358      50.569      34.846      23.310      15.405      10.232      6.9503      4.9244    
  3.6910      2.9453      2.4992      2.2393      2.0959      2.0258      2.0050      2.0258      2.0959      2.2393    
  2.4992      2.9453      3.6910      4.9244      6.9503      10.232      15.405      23.310      34.846      50.569    
  70.358      93.243      117.48      140.92      161.47      177.61      188.72      195.15      198.07      198.98    
  198.45      198.07      196.51      192.69      185.31      173.42      156.81      136.16      113.00      89.340    
  67.211      48.222      33.227      22.275      14.789      9.8886      6.7808      4.8616      3.6925      2.9857    
  2.5636      2.3184      2.1836      2.1181      2.0988      2.1181      2.1836      2.3184      2.5636      2.9857    
  3.6925      4.8616      6.7808      9.8886      14.789      22.275      33.227      48.222      67.211      89.340    