unknown system                          
   1.00000000000000     
     3.946846    0.000000    0.000000
     0.000000    3.946846    0.000000
     0.000000    0.000000    3.946846
   Sr   Ti   O 
     1     1     3
Direct
  0.000000  0.000000  0.000000
  0.500000  0.500000  0.500000
  0.500000  0.500000  0.000000
  0.500000  0.000000  0.500000
  0.000000  0.500000  0.500000
 
   48   48   48
 0.19914747876E+03 0.19918119328E+03 0.19875597119E+03 0.19650907652E+03 0.19078798491E+03
 0.18028655224E+03 0.16453355404E+03 0.14410137143E+03 0.12051464492E+03 0.95907503574E+02
 0.72522729198E+02 0.52193314772E+02 0.35972385233E+02 0.24032278873E+02 0.15836596796E+02
 0.10473935374E+02 0.70717752045E+01 0.49721380849E+01 0.36946818210E+01 0.29227776269E+01
 0.24611251830E+01 0.21919479677E+01 0.20431857306E+01 0.19704318894E+01 0.19488672387E+01
 0.19704318894E+01 0.20431857306E+01 0.21919479677E+01 0.24611251830E+01 0.29227776269E+01
 0.36946818210E+01 0.49721380849E+01 0.70717752045E+01 0.10473935374E+02 0.15836596796E+02
 0.24032278873E+02 0.35972385233E+02 0.52193314772E+02 0.72522729198E+02 0.95907503574E+02
 0.12051464492E+03 0.14410137143E+03 0.16453355404E+03 0.18028655224E+03 0.19078798491E+03
 0.19650907652E+03 0.19875597119E+03 0.19918119328E+03 0.19918119328E+03 0.19912466113E+03
 0.19845142373E+03 0.19585899667E+03 0.18977304180E+03 0.17896166919E+03 0.16300797934E+03
 0.14251132466E+03 0.11899537327E+03 0.94569209814E+02 0.71434012340E+02 0.51375335790E+02
 0.35404772988E+02 0.23667855662E+02 0.15618836512E+02 0.10351918284E+02 0.70105843629E+01
 0.49481434650E+01 0.36928805810E+01 0.29341509961E+01 0.24803499817E+01 0.22158275713E+01
 0.20697177088E+01 0.19983000721E+01 0.19771381324E+01 0.19983000721E+01 0.20697177088E+01
 0.22158275713E+01 0.24803499817E+01 0.29341509961E+01 0.36928805810E+01 0.49481434650E+01
 0.70105843629E+01 0.10351918284E+02 0.15618836512E+02 0.23667855662E+02 0.35404772988E+02
 0.51375335790E+02 0.71434012340E+02 0.94569209814E+02 0.11899537327E+03 0.14251132466E+03
 0.16300797934E+03 0.17896166919E+03 0.18977304180E+03 0.19585899667E+03 0.19845142373E+03
 0.19912466113E+03 0.19875597119E+03 0.19845142373E+03 0.19709744023E+03 0.19355956041E+03
 0.18648194479E+03 0.17484073843E+03 0.15837136289E+03 0.13774797787E+03 0.11448901582E+03
 0.90629098802E+02 0.68247779058E+02 0.48993435143E+02 0.33759086308E+02 0.22615322360E+02
 0.14992119279E+02 0.10002893022E+02 0.68384448471E+01 0.48845857657E+01 0.36947147155E+01
 0.29754717448E+01 0.25458289365E+01 0.22961358502E+01 0.21588232187E+01 0.20920147750E+01
 0.20722785218E+01 0.20920147750E+01 0.21588232187E+01 0.22961358502E+01 0.25458289365E+01
 0.29754717448E+01 0.36947147155E+01 0.48845857657E+01 0.68384448471E+01 0.10002893022E+02
 0.14992119279E+02 0.22615322360E+02 0.33759086308E+02 0.48993435143E+02 0.68247779058E+02
 0.90629098802E+02 0.11448901582E+03 0.13774797787E+03 0.15837136289E+03 0.17484073843E+03
 0.18648194479E+03 0.19355956041E+03 0.19709744023E+03 0.19845142373E+03 0.19650907652E+03
 0.19585899667E+03 0.19355956041E+03 0.18871874046E+03 0.18029713482E+03 0.16757334139E+03
 0.15050398979E+03 0.12986859438E+03 0.10716912209E+03 0.84317969688E+02 0.63202150258E+02
 0.45257920538E+02 0.31199823288E+02 0.20990637895E+02 0.14031297851E+02 0.94746904703E+01
 0.65868111192E+01 0.48036100034E+01 0.37177930894E+01 0.30627092717E+01 0.26734741189E+01
 0.24494511587E+01 0.23279222087E+01 0.22696532516E+01 0.22526119791E+01 0.22696532516E+01
 0.23279222087E+01 0.24494511587E+01 0.26734741189E+01 0.30627092717E+01 0.37177930894E+01
 0.48036100034E+01 0.65868111192E+01 0.94746904703E+01 0.14031297851E+02 0.20990637895E+02
 0.31199823288E+02 0.45257920538E+02 0.63202150258E+02 0.84317969688E+02 0.10716912209E+03
 0.12986859438E+03 0.15050398979E+03 0.16757334139E+03 0.18029713482E+03 0.18871874046E+03
 0.19355956041E+03 0.19585899667E+03 0.19078798491E+03 0.18977304180E+03 0.18648194479E+03
 0.18029713482E+03 0.17053892528E+03 0.15683058951E+03 0.13937853836E+03 0.11907277407E+03
 0.97376552122E+02 0.76034564534E+02 0.56684535740E+02 0.40498416684E+02 0.27977928116E+02
 0.18966927148E+02 0.12846052569E+02 0.88375707067E+01 0.63010254992E+01 0.47359485715E+01
 0.37848812641E+01 0.32145006069E+01 0.28798307462E+01 0.26912529431E+01 0.25919553725E+01
 0.25459108557E+01 0.25327652892E+01 0.25459108557E+01 0.25919553725E+01 0.26912529431E+01
 0.28798307462E+01 0.32145006069E+01 0.37848812641E+01 0.47359485715E+01 0.63010254992E+01
 0.88375707067E+01 0.12846052569E+02 0.18966927148E+02 0.27977928116E+02 0.40498416684E+02
 0.56684535740E+02 0.76034564534E+02 0.97376552122E+02 0.11907277407E+03 0.13937853836E+03
 0.15683058951E+03 0.17053892528E+03 0.18029713482E+03 0.18648194479E+03 0.18977304180E+03
 0.18028655224E+03 0.17896166919E+03 0.17484073843E+03 0.16757334139E+03 0.15683058951E+03
 0.14257054293E+03 0.12523523163E+03 0.10580165122E+03 0.85659506048E+02 0.66344194917E+02
 0.49206065947E+02 0.35128819269E+02 0.24396760775E+02 0.16747124093E+02 0.11563403769E+02
 0.81737009951E+01 0.60348494010E+01 0.47195961691E+01 0.39262290544E+01 0.34579444240E+01
 0.31912196276E+01 0.30481438143E+01 0.29781307735E+01 0.29485111549E+01 0.29406594151E+01
 0.29485111549E+01 0.29781307735E+01 0.30481438143E+01 0.31912196276E+01 0.34579444240E+01
 0.39262290544E+01 0.47195961691E+01 0.60348494010E+01 0.81737009951E+01 0.11563403769E+02
 0.16747124093E+02 0.24396760775E+02 0.35128819269E+02 0.49206065947E+02 0.66344194917E+02
 0.85659506048E+02 0.10580165122E+03 0.12523523163E+03 0.14257054293E+03 0.15683058951E+03
 0.16757334139E+03 0.17484073843E+03 0.17896166919E+03 0.16453355404E+03 0.16300797934E+03
 0.15837136289E+03 0.15050398979E+03 0.13937853836E+03 0.12523523163E+03 0.10870033609E+03
 0.90788859465E+02 0.72772653364E+02 0.55944279391E+02 0.41351409552E+02 0.29595882947E+02
 0.20768643134E+02 0.14532267151E+02 0.10312498224E+02 0.75673504460E+01 0.58469461962E+01
 0.48012944177E+01 0.41853179752E+01 0.38382315839E+01 0.36569736035E+01 0.35743006035E+01
 0.35449548457E+01 0.35389163156E+01 0.35388032087E+01 0.35389163156E+01 0.35449548457E+01
 0.35743006035E+01 0.36569736035E+01 0.38382315839E+01 0.41853179752E+01 0.48012944177E+01
 0.58469461962E+01 0.75673504460E+01 0.10312498224E+02 0.14532267151E+02 0.20768643134E+02
 0.29595882947E+02 0.41351409552E+02 0.55944279391E+02 0.72772653364E+02 0.90788859465E+02
 0.10870033609E+03 0.12523523163E+03 0.13937853836E+03 0.15050398979E+03 0.15837136289E+03
 0.16300797934E+03 0.14410137143E+03 0.14251132466E+03 0.13774797787E+03 0.12986859438E+03
 0.11907277407E+03 0.10580165122E+03 0.90788859465E+02 0.75022769220E+02 0.59612156795E+02
 0.45587777686E+02 0.33704805406E+02 0.24317566129E+02 0.17369692712E+02 0.12493016520E+02
 0.92093820221E+01 0.70980918735E+01 0.57991348262E+01 0.50375721676E+01 0.46209762462E+01
 0.44206022483E+01 0.43504405064E+01 0.43511461753E+01 0.43805945331E+01 0.44097445081E+01
 0.44213676669E+01 0.44097445081E+01 0.43805945331E+01 0.43511461753E+01 0.43504405064E+01
 0.44206022483E+01 0.46209762462E+01 0.50375721676E+01 0.57991348262E+01 0.70980918735E+01
 0.92093820221E+01 0.12493016520E+02 0.17369692712E+02 0.24317566129E+02 0.33704805406E+02
 0.45587777686E+02 0.59612156795E+02 0.75022769220E+02 0.90788859465E+02 0.10580165122E+03
 0.11907277407E+03 0.12986859438E+03 0.13774797787E+03 0.14251132466E+03 0.12051464492E+03
 0.11899537327E+03 0.11448901582E+03 0.10716912209E+03 0.97376552122E+02 0.85659506048E+02
 0.72772653364E+02 0.59612156795E+02 0.47089229867E+02 0.35974608767E+02 0.26765678881E+02
 0.19624090974E+02 0.14403256395E+02 0.10761778667E+02 0.83485131854E+01 0.68385315386E+01
 0.59572498276E+01 0.54967562586E+01 0.53091730023E+01 0.52910248852E+01 0.53680503871E+01
 0.54846777389E+01 0.55986773816E+01 0.56795310808E+01 0.57085798447E+01 0.56795310808E+01
 0.55986773816E+01 0.54846777389E+01 0.53680503871E+01 0.52910248852E+01 0.53091730023E+01
 0.54967562586E+01 0.59572498276E+01 0.68385315386E+01 0.83485131854E+01 0.10761778667E+02
 0.14403256395E+02 0.19624090974E+02 0.26765678881E+02 0.35974608767E+02 0.47089229867E+02
 0.59612156795E+02 0.72772653364E+02 0.85659506048E+02 0.97376552122E+02 0.10716912209E+03
 0.11448901582E+03 0.11899537327E+03 0.95907503574E+02 0.94569209814E+02 0.90629098802E+02
 0.84317969688E+02 0.76034564534E+02 0.66344194917E+02 0.55944279391E+02 0.45587777686E+02
 0.35974608767E+02 0.27640014700E+02 0.20876669157E+02 0.15717374614E+02 0.11985166148E+02
 0.94311012630E+01 0.78016959703E+01 0.68560818858E+01 0.63943672793E+01 0.62633815363E+01
 0.63489745064E+01 0.65643338253E+01 0.68402237838E+01 0.71194094301E+01 0.73550165221E+01
 0.75114207061E+01 0.75661264965E+01 0.75114207061E+01 0.73550165221E+01 0.71194094301E+01
 0.68402237838E+01 0.65643338253E+01 0.63489745064E+01 0.62633815363E+01 0.63943672793E+01
 0.68560818858E+01 0.78016959703E+01 0.94311012630E+01 0.11985166148E+02 0.15717374614E+02
 0.20876669157E+02 0.27640014700E+02 0.35974608767E+02 0.45587777686E+02 0.55944279391E+02
 0.66344194917E+02 0.76034564534E+02 0.84317969688E+02 0.90629098802E+02 0.94569209814E+02
 0.72522729198E+02 0.71434012340E+02 0.68247779058E+02 0.63202150258E+02 0.56684535740E+02
 0.49206065947E+02 0.41351409552E+02 0.33704805406E+02 0.26765678881E+02 0.20876669157E+02
 0.16186703010E+02 0.12661782749E+02 0.10170915764E+02 0.85512394798E+01 0.76220135902E+01
 0.72158963922E+01 0.71929933215E+01 0.74407917396E+01 0.78672110937E+01 0.83927548794E+01
 0.89452471013E+01 0.94583126043E+01 0.98732000294E+01 0.10142778380E+02 0.10236223247E+02
 0.10142778380E+02 0.98732000294E+01 0.94583126043E+01 0.89452471013E+01 0.83927548794E+01
 0.78672110937E+01 0.74407917396E+01 0.71929933215E+01 0.72158963922E+01 0.76220135902E+01
 0.85512394798E+01 0.10170915764E+02 0.12661782749E+02 0.16186703010E+02 0.20876669157E+02
 0.26765678881E+02 0.33704805406E+02 0.41351409552E+02 0.49206065947E+02 0.56684535740E+02
 0.63202150258E+02 0.68247779058E+02 0.71434012340E+02 0.52193314772E+02 0.51375335790E+02
 0.48993435143E+02 0.45257920538E+02 0.40498416684E+02 0.35128819269E+02 0.29595882947E+02
 0.24317566129E+02 0.19624090974E+02 0.15717374614E+02 0.12661782749E+02 0.10434217429E+02
 0.89630020062E+01 0.81401318076E+01 0.78492524305E+01 0.79822451500E+01 0.84440922054E+01
 0.91501016343E+01 0.10020069961E+02 0.10972900278E+02 0.11923925364E+02 0.12786197743E+02
 0.13476103300E+02 0.13922481035E+02 0.14076999140E+02 0.13922481035E+02 0.13476103300E+02
 0.12786197743E+02 0.11923925364E+02 0.10972900278E+02 0.10020069961E+02 0.91501016343E+01
 0.84440922054E+01 0.79822451500E+01 0.78492524305E+01 0.81401318076E+01 0.89630020062E+01
 0.10434217429E+02 0.12661782749E+02 0.15717374614E+02 0.19624090974E+02 0.24317566129E+02
 0.29595882947E+02 0.35128819269E+02 0.40498416684E+02 0.45257920538E+02 0.48993435143E+02
 0.51375335790E+02 0.35972385233E+02 0.35404772988E+02 0.33759086308E+02 0.31199823288E+02
 0.27977928116E+02 0.24396760775E+02 0.20768643134E+02 0.17369692712E+02 0.14403256395E+02
 0.11985166148E+02 0.10170915764E+02 0.89630020062E+01 0.83236250774E+01 0.81951463456E+01
 0.85143395015E+01 0.92188737163E+01 0.10247331180E+02 0.11535004234E+02 0.13007549690E+02
 0.14574594501E+02 0.16126088726E+02 0.17534798946E+02 0.18667430516E+02 0.19403814906E+02
 0.19659449816E+02 0.19403814906E+02 0.18667430516E+02 0.17534798946E+02 0.16126088726E+02
 0.14574594501E+02 0.13007549690E+02 0.11535004234E+02 0.10247331180E+02 0.92188737163E+01
 0.85143395015E+01 0.81951463456E+01 0.83236250774E+01 0.89630020062E+01 0.10170915764E+02
 0.11985166148E+02 0.14403256395E+02 0.17369692712E+02 0.20768643134E+02 0.24396760775E+02
 0.27977928116E+02 0.31199823288E+02 0.33759086308E+02 0.35404772988E+02 0.24032278873E+02
 0.23667855662E+02 0.22615322360E+02 0.20990637895E+02 0.18966927148E+02 0.16747124093E+02
 0.14532267151E+02 0.12493016520E+02 0.10761778667E+02 0.94311012630E+01 0.85512394798E+01
 0.81401318076E+01 0.81951463456E+01 0.87024469298E+01 0.96424431286E+01 0.10991401868E+02
 0.12719289019E+02 0.14783109801E+02 0.17115318597E+02 0.19609526215E+02 0.22109842166E+02
 0.24412731097E+02 0.26288087946E+02 0.27518749460E+02 0.27948048182E+02 0.27518749460E+02
 0.26288087946E+02 0.24412731097E+02 0.22109842166E+02 0.19609526215E+02 0.17115318597E+02
 0.14783109801E+02 0.12719289019E+02 0.10991401868E+02 0.96424431286E+01 0.87024469298E+01
 0.81951463456E+01 0.81401318076E+01 0.85512394798E+01 0.94311012630E+01 0.10761778667E+02
 0.12493016520E+02 0.14532267151E+02 0.16747124093E+02 0.18966927148E+02 0.20990637895E+02
 0.22615322360E+02 0.23667855662E+02 0.15836596796E+02 0.15618836512E+02 0.14992119279E+02
 0.14031297851E+02 0.12846052569E+02 0.11563403769E+02 0.10312498224E+02 0.92093820221E+01
 0.83485131854E+01 0.78016959703E+01 0.76220135902E+01 0.78492524305E+01 0.85143395015E+01
 0.96424431286E+01 0.11255402417E+02 0.13372854156E+02 0.16008649977E+02 0.19157438521E+02
 0.22768593849E+02 0.26712213939E+02 0.30751806289E+02 0.34543640974E+02 0.37677096688E+02
 0.39753536401E+02 0.40481386273E+02 0.39753536401E+02 0.37677096688E+02 0.34543640974E+02
 0.30751806289E+02 0.26712213939E+02 0.22768593849E+02 0.19157438521E+02 0.16008649977E+02
 0.13372854156E+02 0.11255402417E+02 0.96424431286E+01 0.85143395015E+01 0.78492524305E+01
 0.76220135902E+01 0.78016959703E+01 0.83485131854E+01 0.92093820221E+01 0.10312498224E+02
 0.11563403769E+02 0.12846052569E+02 0.14031297851E+02 0.14992119279E+02 0.15618836512E+02
 0.10473935374E+02 0.10351918284E+02 0.10002893022E+02 0.94746904703E+01 0.88375707067E+01
 0.81737009951E+01 0.75673504460E+01 0.70980918735E+01 0.68385315386E+01 0.68560818858E+01
 0.72158963922E+01 0.79822451500E+01 0.92188737163E+01 0.10991401868E+02 0.13372854156E+02
 0.16447881107E+02 0.20306052117E+02 0.25013257954E+02 0.30556028491E+02 0.36769003685E+02
 0.43276378133E+02 0.49488655408E+02 0.54681443434E+02 0.58146003202E+02 0.59364184087E+02
 0.58146003202E+02 0.54681443434E+02 0.49488655408E+02 0.43276378133E+02 0.36769003685E+02
 0.30556028491E+02 0.25013257954E+02 0.20306052117E+02 0.16447881107E+02 0.13372854156E+02
 0.10991401868E+02 0.92188737163E+01 0.79822451500E+01 0.72158963922E+01 0.68560818858E+01
 0.68385315386E+01 0.70980918735E+01 0.75673504460E+01 0.81737009951E+01 0.88375707067E+01
 0.94746904703E+01 0.10002893022E+02 0.10351918284E+02 0.70717752045E+01 0.70105843629E+01
 0.68384448471E+01 0.65868111192E+01 0.63010254992E+01 0.60348494010E+01 0.58469461962E+01
 0.57991348262E+01 0.59572498276E+01 0.63943672793E+01 0.71929933215E+01 0.84440922054E+01
 0.10247331180E+02 0.12719289019E+02 0.16008649977E+02 0.20306052117E+02 0.25829829017E+02
 0.32768892428E+02 0.41173923146E+02 0.50817376560E+02 0.61085290686E+02 0.70992304488E+02
 0.79414361246E+02 0.85147575576E+02 0.87188377824E+02 0.85147575576E+02 0.79414361246E+02
 0.70992304488E+02 0.61085290686E+02 0.50817376560E+02 0.41173923146E+02 0.32768892428E+02
 0.25829829017E+02 0.20306052117E+02 0.16008649977E+02 0.12719289019E+02 0.10247331180E+02
 0.84440922054E+01 0.71929933215E+01 0.63943672793E+01 0.59572498276E+01 0.57991348262E+01
 0.58469461962E+01 0.60348494010E+01 0.63010254992E+01 0.65868111192E+01 0.68384448471E+01
 0.70105843629E+01 0.49721380849E+01 0.49481434650E+01 0.48845857657E+01 0.48036100034E+01
 0.47359485715E+01 0.47195961691E+01 0.48012944177E+01 0.50375721676E+01 0.54967562586E+01
 0.62633815363E+01 0.74407917396E+01 0.91501016343E+01 0.11535004234E+02 0.14783109801E+02
 0.19157438521E+02 0.25013257954E+02 0.32768892428E+02 0.42799508386E+02 0.55238317000E+02
 0.69732201678E+02 0.85560834914E+02 0.10156205580E+03 0.11563785248E+03 0.12536396393E+03
 0.12884345599E+03 0.12536396393E+03 0.11563785248E+03 0.10156205580E+03 0.85560834914E+02
 0.69732201678E+02 0.55238317000E+02 0.42799508386E+02 0.32768892428E+02 0.25013257954E+02
 0.19157438521E+02 0.14783109801E+02 0.11535004234E+02 0.91501016343E+01 0.74407917396E+01
 0.62633815363E+01 0.54967562586E+01 0.50375721676E+01 0.48012944177E+01 0.47195961691E+01
 0.47359485715E+01 0.48036100034E+01 0.48845857657E+01 0.49481434650E+01 0.36946818210E+01
 0.36928805810E+01 0.36947147155E+01 0.37177930894E+01 0.37848812641E+01 0.39262290544E+01
 0.41853179752E+01 0.46209762462E+01 0.53091730023E+01 0.63489745064E+01 0.78672110937E+01
 0.10020069961E+02 0.13007549690E+02 0.17115318597E+02 0.22768593849E+02 0.30556028491E+02
 0.41173923146E+02 0.55238317000E+02 0.72960668366E+02 0.94424250496E+02 0.11909633399E+03
 0.14453217421E+03 0.16691188652E+03 0.18227677241E+03 0.18774539039E+03 0.18227677241E+03
 0.16691188652E+03 0.14453217421E+03 0.11909633399E+03 0.94424250496E+02 0.72960668366E+02
 0.55238317000E+02 0.41173923146E+02 0.30556028491E+02 0.22768593849E+02 0.17115318597E+02
 0.13007549690E+02 0.10020069961E+02 0.78672110937E+01 0.63489745064E+01 0.53091730023E+01
 0.46209762462E+01 0.41853179752E+01 0.39262290544E+01 0.37848812641E+01 0.37177930894E+01
 0.36947147155E+01 0.36928805810E+01 0.29227776269E+01 0.29341509961E+01 0.29754717448E+01
 0.30627092717E+01 0.32145006069E+01 0.34579444240E+01 0.38382315839E+01 0.44206022483E+01
 0.52910248852E+01 0.65643338253E+01 0.83927548794E+01 0.10972900278E+02 0.14574594501E+02
 0.19609526215E+02 0.26712213939E+02 0.36769003685E+02 0.50817376560E+02 0.69732201678E+02
 0.94424250496E+02 0.12583056138E+03 0.16234967852E+03 0.19958293643E+03 0.23170184554E+03
 0.25333975489E+03 0.26095389663E+03 0.25333975489E+03 0.23170184554E+03 0.19958293643E+03
 0.16234967852E+03 0.12583056138E+03 0.94424250496E+02 0.69732201678E+02 0.50817376560E+02
 0.36769003685E+02 0.26712213939E+02 0.19609526215E+02 0.14574594501E+02 0.10972900278E+02
 0.83927548794E+01 0.65643338253E+01 0.52910248852E+01 0.44206022483E+01 0.38382315839E+01
 0.34579444240E+01 0.32145006069E+01 0.30627092717E+01 0.29754717448E+01 0.29341509961E+01
 0.24611251830E+01 0.24803499817E+01 0.25458289365E+01 0.26734741189E+01 0.28798307462E+01
 0.31912196276E+01 0.36569736035E+01 0.43504405064E+01 0.53680503871E+01 0.68402237838E+01
 0.89452471013E+01 0.11923925364E+02 0.16126088726E+02 0.22109842166E+02 0.30751806289E+02
 0.43276378133E+02 0.61085290686E+02 0.85560834914E+02 0.11909633399E+03 0.16234967852E+03
 0.21195634164E+03 0.26117168933E+03 0.30230413703E+03 0.32924584094E+03 0.33856849287E+03
 0.32924584094E+03 0.30230413703E+03 0.26117168933E+03 0.21195634164E+03 0.16234967852E+03
 0.11909633399E+03 0.85560834914E+02 0.61085290686E+02 0.43276378133E+02 0.30751806289E+02
 0.22109842166E+02 0.16126088726E+02 0.11923925364E+02 0.89452471013E+01 0.68402237838E+01
 0.53680503871E+01 0.43504405064E+01 0.36569736035E+01 0.31912196276E+01 0.28798307462E+01
 0.26734741189E+01 0.25458289365E+01 0.24803499817E+01 0.21919479677E+01 0.22158275713E+01
 0.22961358502E+01 0.24494511587E+01 0.26912529431E+01 0.30481438143E+01 0.35743006035E+01
 0.43511461753E+01 0.54846777389E+01 0.71194094301E+01 0.94583126043E+01 0.12786197743E+02
 0.17534798946E+02 0.24412731097E+02 0.34543640974E+02 0.49488655408E+02 0.70992304488E+02
 0.10156205580E+03 0.14453217421E+03 0.19958293643E+03 0.26117168933E+03 0.32017470782E+03
 0.36757830603E+03 0.39751970064E+03 0.40764914061E+03 0.39751970064E+03 0.36757830603E+03
 0.32017470782E+03 0.26117168933E+03 0.19958293643E+03 0.14453217421E+03 0.10156205580E+03
 0.70992304488E+02 0.49488655408E+02 0.34543640974E+02 0.24412731097E+02 0.17534798946E+02
 0.12786197743E+02 0.94583126043E+01 0.71194094301E+01 0.54846777389E+01 0.43511461753E+01
 0.35743006035E+01 0.30481438143E+01 0.26912529431E+01 0.24494511587E+01 0.22961358502E+01
 0.22158275713E+01 0.20431857306E+01 0.20697177088E+01 0.21588232187E+01 0.23279222087E+01
 0.25919553725E+01 0.29781307735E+01 0.35449548457E+01 0.43805945331E+01 0.55986773816E+01
 0.73550165221E+01 0.98732000294E+01 0.13476103300E+02 0.18667430516E+02 0.26288087946E+02
 0.37677096688E+02 0.54681443434E+02 0.79414361246E+02 0.11563785248E+03 0.16691188652E+03
 0.23170184554E+03 0.30230413703E+03 0.36757830603E+03 0.41786118365E+03 0.44833140398E+03
 0.45836167464E+03 0.44833140398E+03 0.41786118365E+03 0.36757830603E+03 0.30230413703E+03
 0.23170184554E+03 0.16691188652E+03 0.11563785248E+03 0.79414361246E+02 0.54681443434E+02
 0.37677096688E+02 0.26288087946E+02 0.18667430516E+02 0.13476103300E+02 0.98732000294E+01
 0.73550165221E+01 0.55986773816E+01 0.43805945331E+01 0.35449548457E+01 0.29781307735E+01
 0.25919553725E+01 0.23279222087E+01 0.21588232187E+01 0.20697177088E+01 0.19704318894E+01
 0.19983000721E+01 0.20920147750E+01 0.22696532516E+01 0.25459108557E+01 0.29485111549E+01
 0.35389163156E+01 0.44097445081E+01 0.56795310808E+01 0.75114207061E+01 0.10142778380E+02
 0.13922481035E+02 0.19403814906E+02 0.27518749460E+02 0.39753536401E+02 0.58146003202E+02
 0.85147575576E+02 0.12536396393E+03 0.18227677241E+03 0.25333975489E+03 0.32924584094E+03
 0.39751970064E+03 0.44833140398E+03 0.47801580543E+03 0.48753908441E+03 0.47801580543E+03
 0.44833140398E+03 0.39751970064E+03 0.32924584094E+03 0.25333975489E+03 0.18227677241E+03
 0.12536396393E+03 0.85147575576E+02 0.58146003202E+02 0.39753536401E+02 0.27518749460E+02
 0.19403814906E+02 0.13922481035E+02 0.10142778380E+02 0.75114207061E+01 0.56795310808E+01
 0.44097445081E+01 0.35389163156E+01 0.29485111549E+01 0.25459108557E+01 0.22696532516E+01
 0.20920147750E+01 0.19983000721E+01 0.19488672387E+01 0.19771381324E+01 0.20722785218E+01
 0.22526119791E+01 0.25327652892E+01 0.29406594151E+01 0.35388032087E+01 0.44213676669E+01
 0.57085798447E+01 0.75661264965E+01 0.10236223247E+02 0.14076999140E+02 0.19659449816E+02
 0.27948048182E+02 0.40481386273E+02 0.59364184087E+02 0.87188377824E+02 0.12884345599E+03
 0.18774539039E+03 0.26095389663E+03 0.33856849287E+03 0.40764914061E+03 0.45836167464E+03
 0.48753908441E+03 0.49679519721E+03 0.48753908441E+03 0.45836167464E+03 0.40764914061E+03
 0.33856849287E+03 0.26095389663E+03 0.18774539039E+03 0.12884345599E+03 0.87188377824E+02
 0.59364184087E+02 0.40481386273E+02 0.27948048182E+02 0.19659449816E+02 0.14076999140E+02
 0.10236223247E+02 0.75661264965E+01 0.57085798447E+01 0.44213676669E+01 0.35388032087E+01
 0.29406594151E+01 0.25327652892E+01 0.22526119791E+01 0.20722785218E+01 0.19771381324E+01
 0.19704318894E+01 0.19983000721E+01 0.20920147750E+01 0.22696532516E+01 0.25459108557E+01
 0.29485111549E+01 0.35389163156E+01 0.44097445081E+01 0.56795310808E+01 0.75114207061E+01
 0.10142778380E+02 0.13922481035E+02 0.19403814906E+02 0.27518749460E+02 0.39753536401E+02
 0.58146003202E+02 0.85147575576E+02 0.12536396393E+03 0.18227677241E+03 0.25333975489E+03
 0.32924584094E+03 0.39751970064E+03 0.44833140398E+03 0.47801580543E+03 0.48753908441E+03
 0.47801580543E+03 0.44833140398E+03 0.39751970064E+03 0.32924584094E+03 0.25333975489E+03
 0.18227677241E+03 0.12536396393E+03 0.85147575576E+02 0.58146003202E+02 0.39753536401E+02
 0.27518749460E+02 0.19403814906E+02 0.13922481035E+02 0.10142778380E+02 0.75114207061E+01
 0.56795310808E+01 0.44097445081E+01 0.35389163156E+01 0.29485111549E+01 0.25459108557E+01
 0.22696532516E+01 0.20920147750E+01 0.19983000721E+01 0.20431857306E+01 0.20697177088E+01
 0.21588232187E+01 0.23279222087E+01 0.25919553725E+01 0.29781307735E+01 0.35449548457E+01
 0.43805945331E+01 0.55986773816E+01 0.73550165221E+01 0.98732000294E+01 0.13476103300E+02
 0.18667430516E+02 0.26288087946E+02 0.37677096688E+02 0.54681443434E+02 0.79414361246E+02
 0.11563785248E+03 0.16691188652E+03 0.23170184554E+03 0.30230413703E+03 0.36757830603E+03
 0.41786118365E+03 0.44833140398E+03 0.45836167464E+03 0.44833140398E+03 0.41786118365E+03
 0.36757830603E+03 0.30230413703E+03 0.23170184554E+03 0.16691188652E+03 0.11563785248E+03
 0.79414361246E+02 0.54681443434E+02 0.37677096688E+02 0.26288087946E+02 0.18667430516E+02
 0.13476103300E+02 0.98732000294E+01 0.73550165221E+01 0.55986773816E+01 0.43805945331E+01
 0.35449548457E+01 0.29781307735E+01 0.25919553725E+01 0.23279222087E+01 0.21588232187E+01
 0.20697177088E+01 0.21919479677E+01 0.22158275713E+01 0.22961358502E+01 0.24494511587E+01
 0.26912529431E+01 0.30481438143E+01 0.35743006035E+01 0.43511461753E+01 0.54846777389E+01
 0.71194094301E+01 0.94583126043E+01 0.12786197743E+02 0.17534798946E+02 0.24412731097E+02
 0.34543640974E+02 0.49488655408E+02 0.70992304488E+02 0.10156205580E+03 0.14453217421E+03
 0.19958293643E+03 0.26117168933E+03 0.32017470782E+03 0.36757830603E+03 0.39751970064E+03
 0.40764914061E+03 0.39751970064E+03 0.36757830603E+03 0.32017470782E+03 0.26117168933E+03
 0.19958293643E+03 0.14453217421E+03 0.10156205580E+03 0.70992304488E+02 0.49488655408E+02
 0.34543640974E+02 0.24412731097E+02 0.17534798946E+02 0.12786197743E+02 0.94583126043E+01
 0.71194094301E+01 0.54846777389E+01 0.43511461753E+01 0.35743006035E+01 0.30481438143E+01
 0.26912529431E+01 0.24494511587E+01 0.22961358502E+01 0.22158275713E+01 0.24611251830E+01
 0.24803499817E+01 0.25458289365E+01 0.26734741189E+01 0.28798307462E+01 0.31912196276E+01
 0.36569736035E+01 0.43504405064E+01 0.53680503871E+01 0.68402237838E+01 0.89452471013E+01
 0.11923925364E+02 0.16126088726E+02 0.22109842166E+02 0.30751806289E+02 0.43276378133E+02
 0.61085290686E+02 0.85560834914E+02 0.11909633399E+03 0.16234967852E+03 0.21195634164E+03
 0.26117168933E+03 0.30230413703E+03 0.32924584094E+03 0.33856849287E+03 0.32924584094E+03
 0.30230413703E+03 0.26117168933E+03 0.21195634164E+03 0.16234967852E+03 0.11909633399E+03
 0.85560834914E+02 0.61085290686E+02 0.43276378133E+02 0.30751806289E+02 0.22109842166E+02
 0.16126088726E+02 0.11923925364E+02 0.89452471013E+01 0.68402237838E+01 0.53680503871E+01
 0.43504405064E+01 0.36569736035E+01 0.31912196276E+01 0.28798307462E+01 0.26734741189E+01
 0.25458289365E+01 0.24803499817E+01 0.29227776269E+01 0.29341509961E+01 0.29754717448E+01
 0.30627092717E+01 0.32145006069E+01 0.34579444240E+01 0.38382315839E+01 0.44206022483E+01
 0.52910248852E+01 0.65643338253E+01 0.83927548794E+01 0.10972900278E+02 0.14574594501E+02
 0.19609526215E+02 0.26712213939E+02 0.36769003685E+02 0.50817376560E+02 0.69732201678E+02
 0.94424250496E+02 0.12583056138E+03 0.16234967852E+03 0.19958293643E+03 0.23170184554E+03
 0.25333975489E+03 0.26095389663E+03 0.25333975489E+03 0.23170184554E+03 0.19958293643E+03
 0.16234967852E+03 0.12583056138E+03 0.94424250496E+02 0.69732201678E+02 0.50817376560E+02
 0.36769003685E+02 0.26712213939E+02 0.19609526215E+02 0.14574594501E+02 0.10972900278E+02
 0.83927548794E+01 0.65643338253E+01 0.52910248852E+01 0.44206022483E+01 0.38382315839E+01
 0.34579444240E+01 0.32145006069E+01 0.30627092717E+01 0.29754717448E+01 0.29341509961E+01
 0.36946818210E+01 0.36928805810E+01 0.36947147155E+01 0.37177930894E+01 0.37848812641E+01
 0.39262290544E+01 0.41853179752E+01 0.46209762462E+01 0.53091730023E+01 0.63489745064E+01
 0.78672110937E+01 0.10020069961E+02 0.13007549690E+02 0.17115318597E+02 0.22768593849E+02
 0.30556028491E+02 0.41173923146E+02 0.55238317000E+02 0.72960668366E+02 0.94424250496E+02
 0.11909633399E+03 0.14453217421E+03 0.16691188652E+03 0.18227677241E+03 0.18774539039E+03
 0.18227677241E+03 0.16691188652E+03 0.14453217421E+03 0.11909633399E+03 0.94424250496E+02
 0.72960668366E+02 0.55238317000E+02 0.41173923146E+02 0.30556028491E+02 0.22768593849E+02
 0.17115318597E+02 0.13007549690E+02 0.10020069961E+02 0.78672110937E+01 0.63489745064E+01
 0.53091730023E+01 0.46209762462E+01 0.41853179752E+01 0.39262290544E+01 0.37848812641E+01
 0.37177930894E+01 0.36947147155E+01 0.36928805810E+01 0.49721380849E+01 0.49481434650E+01
 0.48845857657E+01 0.48036100033E+01 0.47359485715E+01 0.47195961691E+01 0.48012944177E+01
 0.50375721676E+01 0.54967562586E+01 0.62633815363E+01 0.74407917396E+01 0.91501016343E+01
 0.11535004234E+02 0.14783109801E+02 0.19157438521E+02 0.25013257954E+02 0.32768892428E+02
 0.42799508386E+02 0.55238317000E+02 0.69732201678E+02 0.85560834914E+02 0.10156205580E+03
 0.11563785248E+03 0.12536396393E+03 0.12884345599E+03 0.12536396393E+03 0.11563785248E+03
 0.10156205580E+03 0.85560834914E+02 0.69732201678E+02 0.55238317000E+02 0.42799508386E+02
 0.32768892428E+02 0.25013257954E+02 0.19157438521E+02 0.14783109801E+02 0.11535004234E+02
 0.91501016343E+01 0.74407917396E+01 0.62633815363E+01 0.54967562586E+01 0.50375721676E+01
 0.48012944177E+01 0.47195961691E+01 0.47359485715E+01 0.48036100034E+01 0.48845857657E+01
 0.49481434650E+01 0.70717752045E+01 0.70105843629E+01 0.68384448471E+01 0.65868111192E+01
 0.63010254992E+01 0.60348494010E+01 0.58469461962E+01 0.57991348262E+01 0.59572498276E+01
 0.63943672793E+01 0.71929933215E+01 0.84440922054E+01 0.10247331180E+02 0.12719289019E+02
 0.16008649977E+02 0.20306052117E+02 0.25829829017E+02 0.32768892428E+02 0.41173923146E+02
 0.50817376560E+02 0.61085290686E+02 0.70992304488E+02 0.79414361246E+02 0.85147575576E+02
 0.87188377824E+02 0.85147575576E+02 0.79414361246E+02 0.70992304488E+02 0.61085290686E+02
 0.50817376560E+02 0.41173923146E+02 0.32768892428E+02 0.25829829017E+02 0.20306052117E+02
 0.16008649977E+02 0.12719289019E+02 0.10247331180E+02 0.84440922054E+01 0.71929933215E+01
 0.63943672793E+01 0.59572498276E+01 0.57991348262E+01 0.58469461962E+01 0.60348494010E+01
 0.63010254992E+01 0.65868111192E+01 0.68384448471E+01 0.70105843629E+01 0.10473935374E+02
 0.10351918284E+02 0.10002893022E+02 0.94746904703E+01 0.88375707067E+01 0.81737009951E+01
 0.75673504460E+01 0.70980918735E+01 0.68385315386E+01 0.68560818858E+01 0.72158963922E+01
 0.79822451500E+01 0.92188737163E+01 0.10991401868E+02 0.13372854156E+02 0.16447881107E+02
 0.20306052117E+02 0.25013257954E+02 0.30556028491E+02 0.36769003685E+02 0.43276378133E+02
 0.49488655408E+02 0.54681443434E+02 0.58146003202E+02 0.59364184087E+02 0.58146003202E+02
 0.54681443434E+02 0.49488655408E+02 0.43276378133E+02 0.36769003685E+02 0.30556028491E+02
 0.25013257954E+02 0.20306052117E+02 0.16447881107E+02 0.13372854156E+02 0.10991401868E+02
 0.92188737163E+01 0.79822451500E+01 0.72158963922E+01 0.68560818858E+01 0.68385315386E+01