   5   5   1   0
  0.1229648E+02  0.3946846E-09  0.3946846E-09  0.3946846E-09  0.5000000E-15
  1.000000000000000E-004
  CAR 
 unknown system                          
     20.00000000    -17.00000000 2401      2.76416667      1.00000000
    -17.000  0.1297E+03  0.2000E+01
    -16.985  0.0000E+00  0.2000E+01
    -16.969  0.0000E+00  0.2000E+01
    -16.954  0.0000E+00  0.2000E+01
    -16.938  0.0000E+00  0.2000E+01
    -16.923  0.0000E+00  0.2000E+01
    -16.907  0.0000E+00  0.2000E+01
    -16.892  0.0000E+00  0.2000E+01
    -16.877  0.0000E+00  0.2000E+01
    -16.861  0.0000E+00  0.2000E+01
    -16.846  0.0000E+00  0.2000E+01
    -16.830  0.0000E+00  0.2000E+01
    -16.815  0.0000E+00  0.2000E+01
    -16.800  0.0000E+00  0.2000E+01
    -16.784  0.0000E+00  0.2000E+01
    -16.769  0.0000E+00  0.2000E+01
    -16.753  0.0000E+00  0.2000E+01
    -16.738  0.0000E+00  0.2000E+01
    -16.723  0.0000E+00  0.2000E+01
    -16.707  0.0000E+00  0.2000E+01
    -16.692  0.0000E+00  0.2000E+01
    -16.676  0.0000E+00  0.2000E+01
    -16.661  0.0000E+00  0.2000E+01
    -16.645  0.0000E+00  0.2000E+01
    -16.630  0.0000E+00  0.2000E+01
    -16.615  0.0000E+00  0.2000E+01
    -16.599  0.0000E+00  0.2000E+01
    -16.584  0.0000E+00  0.2000E+01
    -16.568  0.0000E+00  0.2000E+01
    -16.553  0.0000E+00  0.2000E+01
    -16.538  0.0000E+00  0.2000E+01
    -16.522  0.0000E+00  0.2000E+01
    -16.507  0.0000E+00  0.2000E+01
    -16.491  0.0000E+00  0.2000E+01
    -16.476  0.0000E+00  0.2000E+01
    -16.460  0.0000E+00  0.2000E+01
    -16.445  0.0000E+00  0.2000E+01
    -16.430  0.0000E+00  0.2000E+01
    -16.414  0.0000E+00  0.2000E+01
    -16.399  0.0000E+00  0.2000E+01
    -16.383  0.0000E+00  0.2000E+01
    -16.368  0.0000E+00  0.2000E+01
    -16.352  0.0000E+00  0.2000E+01
    -16.337  0.0000E+00  0.2000E+01
    -16.322  0.0000E+00  0.2000E+01
    -16.306  0.0000E+00  0.2000E+01
    -16.291  0.0000E+00  0.2000E+01
    -16.275  0.0000E+00  0.2000E+01
    -16.260  0.0000E+00  0.2000E+01
    -16.245  0.0000E+00  0.2000E+01
    -16.229  0.0000E+00  0.2000E+01
    -16.214  0.0000E+00  0.2000E+01
    -16.198  0.0000E+00  0.2000E+01
    -16.183  0.0000E+00  0.2000E+01
    -16.168  0.0000E+00  0.2000E+01
    -16.152  0.0000E+00  0.2000E+01
    -16.137  0.0000E+00  0.2000E+01
    -16.121  0.0000E+00  0.2000E+01
    -16.106  0.0000E+00  0.2000E+01
    -16.090  0.0000E+00  0.2000E+01
    -16.075  0.0000E+00  0.2000E+01
    -16.060  0.0000E+00  0.2000E+01
    -16.044  0.0000E+00  0.2000E+01
    -16.029  0.0000E+00  0.2000E+01
    -16.013  0.0000E+00  0.2000E+01
    -15.998  0.0000E+00  0.2000E+01
    -15.982  0.0000E+00  0.2000E+01
    -15.967  0.0000E+00  0.2000E+01
    -15.952  0.0000E+00  0.2000E+01
    -15.936  0.0000E+00  0.2000E+01
    -15.921  0.0000E+00  0.2000E+01
    -15.905  0.0000E+00  0.2000E+01
    -15.890  0.0000E+00  0.2000E+01
    -15.875  0.0000E+00  0.2000E+01
    -15.859  0.0000E+00  0.2000E+01
    -15.844  0.0000E+00  0.2000E+01
    -15.828  0.0000E+00  0.2000E+01
    -15.813  0.0000E+00  0.2000E+01
    -15.797  0.0000E+00  0.2000E+01
    -15.782  0.0000E+00  0.2000E+01
    -15.767  0.0000E+00  0.2000E+01
    -15.751  0.0000E+00  0.2000E+01
    -15.736  0.0000E+00  0.2000E+01
    -15.720  0.0000E+00  0.2000E+01
    -15.705  0.0000E+00  0.2000E+01
    -15.690  0.1260E-15  0.2000E+01
    -15.674  0.2519E-15  0.2000E+01
    -15.659  0.2142E-14  0.2000E+01
    -15.643  0.1159E-13  0.2000E+01
    -15.628  0.6236E-13  0.2000E+01
    -15.613  0.3168E-12  0.2000E+01
    -15.597  0.1539E-11  0.2000E+01
    -15.582  0.7127E-11  0.2000E+01
    -15.566  0.3148E-10  0.2000E+01
    -15.551  0.1326E-09  0.2000E+01
    -15.535  0.5327E-09  0.2000E+01
    -15.520  0.2042E-08  0.2000E+01
    -15.505  0.7462E-08  0.2000E+01
    -15.489  0.2602E-07  0.2000E+01
    -15.474  0.8651E-07  0.2000E+01
    -15.458  0.2744E-06  0.2000E+01
    -15.443  0.8303E-06  0.2000E+01
    -15.428  0.2397E-05  0.2000E+01
    -15.412  0.6601E-05  0.2000E+01
    -15.397  0.1734E-04  0.2000E+01
    -15.381  0.4349E-04  0.2000E+01
    -15.366  0.1041E-03  0.2000E+01
    -15.350  0.2379E-03  0.2000E+01
    -15.335  0.5191E-03  0.2000E+01
    -15.320  0.1082E-02  0.2000E+01
    -15.304  0.2158E-02  0.2000E+01
    -15.289  0.4115E-02  0.2000E+01
    -15.273  0.7515E-02  0.2000E+01
    -15.258  0.1316E-01  0.2000E+01
    -15.242  0.2213E-01  0.2001E+01
    -15.227  0.3581E-01  0.2001E+01
    -15.212  0.5589E-01  0.2002E+01
    -15.196  0.8435E-01  0.2004E+01
    -15.181  0.1235E+00  0.2005E+01
    -15.165  0.1760E+00  0.2008E+01
    -15.150  0.2448E+00  0.2012E+01
    -15.135  0.3335E+00  0.2017E+01
    -15.119  0.4460E+00  0.2024E+01
    -15.104  0.5863E+00  0.2033E+01
    -15.088  0.7584E+00  0.2045E+01
    -15.073  0.9652E+00  0.2060E+01
    -15.057  0.1208E+01  0.2078E+01
    -15.042  0.1486E+01  0.2101E+01
    -15.027  0.1795E+01  0.2129E+01
    -15.011  0.2127E+01  0.2162E+01
    -14.996  0.2468E+01  0.2200E+01
    -14.980  0.2804E+01  0.2243E+01
    -14.965  0.3115E+01  0.2291E+01
    -14.950  0.3381E+01  0.2343E+01
    -14.934  0.3582E+01  0.2398E+01
    -14.919  0.3705E+01  0.2455E+01
    -14.903  0.3743E+01  0.2513E+01
    -14.888  0.3701E+01  0.2570E+01
    -14.873  0.3594E+01  0.2625E+01
    -14.857  0.3445E+01  0.2679E+01
    -14.842  0.3281E+01  0.2729E+01
    -14.826  0.3129E+01  0.2777E+01
    -14.811  0.3009E+01  0.2824E+01
    -14.795  0.2934E+01  0.2869E+01
    -14.780  0.2903E+01  0.2914E+01
    -14.765  0.2909E+01  0.2959E+01
    -14.749  0.2935E+01  0.3004E+01
    -14.734  0.2960E+01  0.3050E+01
    -14.718  0.2967E+01  0.3095E+01
    -14.703  0.2937E+01  0.3141E+01
    -14.688  0.2861E+01  0.3185E+01
    -14.672  0.2733E+01  0.3227E+01
    -14.657  0.2556E+01  0.3266E+01
    -14.641  0.2340E+01  0.3302E+01
    -14.626  0.2099E+01  0.3335E+01
    -14.610  0.1853E+01  0.3363E+01
    -14.595  0.1622E+01  0.3388E+01
    -14.580  0.1424E+01  0.3410E+01
    -14.564  0.1275E+01  0.3430E+01
    -14.549  0.1185E+01  0.3448E+01
    -14.533  0.1157E+01  0.3466E+01
    -14.518  0.1188E+01  0.3484E+01
    -14.502  0.1268E+01  0.3504E+01
    -14.487  0.1384E+01  0.3525E+01
    -14.472  0.1516E+01  0.3548E+01
    -14.456  0.1643E+01  0.3574E+01
    -14.441  0.1745E+01  0.3601E+01
    -14.425  0.1805E+01  0.3628E+01
    -14.410  0.1811E+01  0.3656E+01
    -14.395  0.1760E+01  0.3684E+01
    -14.379  0.1656E+01  0.3709E+01
    -14.364  0.1510E+01  0.3732E+01
    -14.348  0.1341E+01  0.3753E+01
    -14.333  0.1172E+01  0.3771E+01
    -14.317  0.1026E+01  0.3787E+01
    -14.302  0.9252E+00  0.3801E+01
    -14.287  0.8887E+00  0.3815E+01
    -14.271  0.9301E+00  0.3829E+01
    -14.256  0.1058E+01  0.3846E+01
    -14.240  0.1274E+01  0.3865E+01
    -14.225  0.1575E+01  0.3889E+01
    -14.210  0.1955E+01  0.3920E+01
    -14.194  0.2404E+01  0.3957E+01
    -14.179  0.2912E+01  0.4002E+01
    -14.163  0.3470E+01  0.4055E+01
    -14.148  0.4070E+01  0.4118E+01
    -14.133  0.4707E+01  0.4190E+01
    -14.117  0.5381E+01  0.4273E+01
    -14.102  0.6091E+01  0.4367E+01
    -14.086  0.6839E+01  0.4473E+01
    -14.071  0.7626E+01  0.4590E+01
    -14.055  0.8451E+01  0.4720E+01
    -14.040  0.9309E+01  0.4864E+01
    -14.025  0.1019E+02  0.5021E+01
    -14.009  0.1108E+02  0.5192E+01
    -13.994  0.1194E+02  0.5376E+01
    -13.978  0.1274E+02  0.5572E+01
    -13.963  0.1343E+02  0.5779E+01
    -13.947  0.1396E+02  0.5995E+01
    -13.932  0.1427E+02  0.6215E+01
    -13.917  0.1431E+02  0.6435E+01
    -13.901  0.1406E+02  0.6652E+01
    -13.886  0.1349E+02  0.6860E+01
    -13.870  0.1263E+02  0.7055E+01
    -13.855  0.1152E+02  0.7232E+01
    -13.840  0.1023E+02  0.7390E+01
    -13.824  0.8830E+01  0.7526E+01
    -13.809  0.7409E+01  0.7640E+01
    -13.793  0.6041E+01  0.7734E+01
    -13.778  0.4786E+01  0.7807E+01
    -13.762  0.3684E+01  0.7864E+01
    -13.747  0.2756E+01  0.7907E+01
    -13.732  0.2003E+01  0.7938E+01
    -13.716  0.1414E+01  0.7959E+01
    -13.701  0.9688E+00  0.7974E+01
    -13.685  0.6440E+00  0.7984E+01
    -13.670  0.4149E+00  0.7991E+01
    -13.655  0.2588E+00  0.7995E+01
    -13.639  0.1561E+00  0.7997E+01
    -13.624  0.9086E-01  0.7998E+01
    -13.608  0.5102E-01  0.7999E+01
    -13.593  0.2758E-01  0.8000E+01
    -13.578  0.1434E-01  0.8000E+01
    -13.562  0.7168E-02  0.8000E+01
    -13.547  0.3438E-02  0.8000E+01
    -13.531  0.1581E-02  0.8000E+01
    -13.516  0.6968E-03  0.8000E+01
    -13.500  0.2941E-03  0.8000E+01
    -13.485  0.1188E-03  0.8000E+01
    -13.470  0.4590E-04  0.8000E+01
    -13.454  0.1696E-04  0.8000E+01
    -13.439  0.5989E-05  0.8000E+01
    -13.423  0.2021E-05  0.8000E+01
    -13.408  0.6515E-06  0.8000E+01
    -13.393  0.2006E-06  0.8000E+01
    -13.377  0.5898E-07  0.8000E+01
    -13.362  0.1656E-07  0.8000E+01
    -13.346  0.4437E-08  0.8000E+01
    -13.331  0.1135E-08  0.8000E+01
    -13.315  0.2771E-09  0.8000E+01
    -13.300  0.6457E-10  0.8000E+01
    -13.285  0.1436E-10  0.8000E+01
    -13.269  0.3046E-11  0.8000E+01
    -13.254  0.6168E-12  0.8000E+01
    -13.238  0.1203E-12  0.8000E+01
    -13.223  0.2142E-13  0.8000E+01
    -13.207  0.4283E-14  0.8000E+01
    -13.192  0.4703E-14  0.8000E+01
    -13.177  0.2116E-13  0.8000E+01
    -13.161  0.1164E-12  0.8000E+01
    -13.146  0.5968E-12  0.8000E+01
    -13.130  0.2933E-11  0.8000E+01
    -13.115  0.1373E-10  0.8000E+01
    -13.100  0.6132E-10  0.8000E+01
    -13.084  0.2613E-09  0.8000E+01
    -13.069  0.1062E-08  0.8000E+01
    -13.053  0.4118E-08  0.8000E+01
    -13.038  0.1523E-07  0.8000E+01
    -13.023  0.5376E-07  0.8000E+01
    -13.007  0.1811E-06  0.8000E+01
    -12.992  0.5819E-06  0.8000E+01
    -12.976  0.1785E-05  0.8000E+01
    -12.961  0.5226E-05  0.8000E+01
    -12.945  0.1461E-04  0.8000E+01
    -12.930  0.3898E-04  0.8000E+01
    -12.915  0.9935E-04  0.8000E+01
    -12.899  0.2419E-03  0.8000E+01
    -12.884  0.5629E-03  0.8000E+01
    -12.868  0.1252E-02  0.8000E+01
    -12.853  0.2663E-02  0.8000E+01
    -12.837  0.5421E-02  0.8000E+01
    -12.822  0.1057E-01  0.8000E+01
    -12.807  0.1973E-01  0.8001E+01
    -12.791  0.3531E-01  0.8001E+01
    -12.776  0.6065E-01  0.8002E+01
    -12.760  0.1000E+00  0.8004E+01
    -12.745  0.1587E+00  0.8006E+01
    -12.730  0.2422E+00  0.8010E+01
    -12.714  0.3563E+00  0.8015E+01
    -12.699  0.5059E+00  0.8023E+01
    -12.683  0.6944E+00  0.8034E+01
    -12.668  0.9233E+00  0.8048E+01
    -12.652  0.1192E+01  0.8066E+01
    -12.637  0.1500E+01  0.8090E+01
    -12.622  0.1845E+01  0.8118E+01
    -12.606  0.2231E+01  0.8152E+01
    -12.591  0.2665E+01  0.8193E+01
    -12.575  0.3163E+01  0.8242E+01
    -12.560  0.3747E+01  0.8300E+01
    -12.545  0.4442E+01  0.8368E+01
    -12.529  0.5269E+01  0.8450E+01
    -12.514  0.6237E+01  0.8546E+01
    -12.498  0.7332E+01  0.8659E+01
    -12.483  0.8519E+01  0.8790E+01
    -12.468  0.9731E+01  0.8940E+01
    -12.452  0.1089E+02  0.9108E+01
    -12.437  0.1190E+02  0.9292E+01
    -12.421  0.1268E+02  0.9487E+01
    -12.406  0.1319E+02  0.9690E+01
    -12.390  0.1340E+02  0.9897E+01
    -12.375  0.1331E+02  0.1010E+02
    -12.360  0.1299E+02  0.1030E+02
    -12.344  0.1247E+02  0.1049E+02
    -12.329  0.1186E+02  0.1068E+02
    -12.313  0.1120E+02  0.1085E+02
    -12.298  0.1057E+02  0.1101E+02
    -12.282  0.1003E+02  0.1117E+02
    -12.267  0.9593E+01  0.1132E+02
    -12.252  0.9293E+01  0.1146E+02
    -12.236  0.9129E+01  0.1160E+02
    -12.221  0.9091E+01  0.1174E+02
    -12.205  0.9159E+01  0.1188E+02
    -12.190  0.9300E+01  0.1202E+02
    -12.175  0.9480E+01  0.1217E+02
    -12.159  0.9659E+01  0.1232E+02
    -12.144  0.9798E+01  0.1247E+02
    -12.128  0.9860E+01  0.1262E+02
    -12.113  0.9810E+01  0.1277E+02
    -12.098  0.9620E+01  0.1292E+02
    -12.082  0.9276E+01  0.1307E+02
    -12.067  0.8777E+01  0.1320E+02
    -12.051  0.8139E+01  0.1333E+02
    -12.036  0.7393E+01  0.1344E+02
    -12.020  0.6579E+01  0.1354E+02
    -12.005  0.5741E+01  0.1363E+02
    -11.990  0.4917E+01  0.1371E+02
    -11.974  0.4140E+01  0.1377E+02
    -11.959  0.3429E+01  0.1382E+02
    -11.943  0.2794E+01  0.1387E+02
    -11.928  0.2240E+01  0.1390E+02
    -11.912  0.1765E+01  0.1393E+02
    -11.897  0.1362E+01  0.1395E+02
    -11.882  0.1029E+01  0.1396E+02
    -11.866  0.7574E+00  0.1398E+02
    -11.851  0.5423E+00  0.1398E+02
    -11.835  0.3767E+00  0.1399E+02
    -11.820  0.2533E+00  0.1399E+02
    -11.805  0.1645E+00  0.1400E+02
    -11.789  0.1030E+00  0.1400E+02
    -11.774  0.6217E-01  0.1400E+02
    -11.758  0.3609E-01  0.1400E+02
    -11.743  0.2013E-01  0.1400E+02
    -11.727  0.1079E-01  0.1400E+02
    -11.712  0.5550E-02  0.1400E+02
    -11.697  0.2739E-02  0.1400E+02
    -11.681  0.1296E-02  0.1400E+02
    -11.666  0.5874E-03  0.1400E+02
    -11.650  0.2551E-03  0.1400E+02
    -11.635  0.1061E-03  0.1400E+02
    -11.620  0.4224E-04  0.1400E+02
    -11.604  0.1609E-04  0.1400E+02
    -11.589  0.5866E-05  0.1400E+02
    -11.573  0.2045E-05  0.1400E+02
    -11.558  0.6817E-06  0.1400E+02
    -11.543  0.2172E-06  0.1400E+02
    -11.527  0.6617E-07  0.1400E+02
    -11.512  0.1926E-07  0.1400E+02
    -11.496  0.5355E-08  0.1400E+02
    -11.481  0.1422E-08  0.1400E+02
    -11.465  0.3608E-09  0.1400E+02
    -11.450  0.8740E-10  0.1400E+02
    -11.435  0.2022E-10  0.1400E+02
    -11.419  0.4466E-11  0.1400E+02
    -11.404  0.9395E-12  0.1400E+02
    -11.388  0.1900E-12  0.1400E+02
    -11.373  0.3678E-13  0.1400E+02
    -11.357  0.6047E-14  0.1400E+02
    -11.342  0.1260E-14  0.1400E+02
    -11.327  0.2519E-15  0.1400E+02
    -11.311  0.0000E+00  0.1400E+02
    -11.296  0.0000E+00  0.1400E+02
    -11.280  0.0000E+00  0.1400E+02
    -11.265  0.0000E+00  0.1400E+02
    -11.250  0.0000E+00  0.1400E+02
    -11.234  0.0000E+00  0.1400E+02
    -11.219  0.0000E+00  0.1400E+02
    -11.203  0.0000E+00  0.1400E+02
    -11.188  0.0000E+00  0.1400E+02
    -11.172  0.0000E+00  0.1400E+02
    -11.157  0.0000E+00  0.1400E+02
    -11.142  0.0000E+00  0.1400E+02
    -11.126  0.0000E+00  0.1400E+02
    -11.111  0.0000E+00  0.1400E+02
    -11.095  0.0000E+00  0.1400E+02
    -11.080  0.0000E+00  0.1400E+02
    -11.065  0.0000E+00  0.1400E+02
    -11.049  0.0000E+00  0.1400E+02
    -11.034  0.0000E+00  0.1400E+02
    -11.018  0.0000E+00  0.1400E+02
    -11.003  0.0000E+00  0.1400E+02
    -10.988  0.0000E+00  0.1400E+02
    -10.972  0.0000E+00  0.1400E+02
    -10.957  0.0000E+00  0.1400E+02
    -10.941  0.0000E+00  0.1400E+02
    -10.926  0.0000E+00  0.1400E+02
    -10.910  0.0000E+00  0.1400E+02
    -10.895  0.0000E+00  0.1400E+02
    -10.880  0.0000E+00  0.1400E+02
    -10.864  0.0000E+00  0.1400E+02
    -10.849  0.0000E+00  0.1400E+02
    -10.833  0.0000E+00  0.1400E+02
    -10.818  0.0000E+00  0.1400E+02
    -10.803  0.0000E+00  0.1400E+02
    -10.787  0.0000E+00  0.1400E+02
    -10.772  0.0000E+00  0.1400E+02
    -10.756  0.0000E+00  0.1400E+02
    -10.741  0.0000E+00  0.1400E+02
    -10.725  0.0000E+00  0.1400E+02
    -10.710  0.0000E+00  0.1400E+02
    -10.695  0.0000E+00  0.1400E+02
    -10.679  0.0000E+00  0.1400E+02
    -10.664  0.0000E+00  0.1400E+02
    -10.648  0.0000E+00  0.1400E+02
    -10.633  0.0000E+00  0.1400E+02
    -10.617  0.0000E+00  0.1400E+02
    -10.602  0.0000E+00  0.1400E+02
    -10.587  0.0000E+00  0.1400E+02
    -10.571  0.0000E+00  0.1400E+02
    -10.556  0.0000E+00  0.1400E+02
    -10.540  0.0000E+00  0.1400E+02
    -10.525  0.0000E+00  0.1400E+02
    -10.510  0.0000E+00  0.1400E+02
    -10.494  0.0000E+00  0.1400E+02
    -10.479  0.0000E+00  0.1400E+02
    -10.463  0.0000E+00  0.1400E+02
    -10.448  0.0000E+00  0.1400E+02
    -10.433  0.0000E+00  0.1400E+02
    -10.417  0.0000E+00  0.1400E+02
    -10.402  0.0000E+00  0.1400E+02
    -10.386  0.0000E+00  0.1400E+02
    -10.371  0.0000E+00  0.1400E+02
    -10.355  0.0000E+00  0.1400E+02
    -10.340  0.0000E+00  0.1400E+02
    -10.325  0.0000E+00  0.1400E+02
    -10.309  0.0000E+00  0.1400E+02
    -10.294  0.0000E+00  0.1400E+02
    -10.278  0.0000E+00  0.1400E+02
    -10.263  0.0000E+00  0.1400E+02
    -10.247  0.0000E+00  0.1400E+02
    -10.232  0.0000E+00  0.1400E+02
    -10.217  0.0000E+00  0.1400E+02
    -10.201  0.0000E+00  0.1400E+02
    -10.186  0.0000E+00  0.1400E+02
    -10.170  0.0000E+00  0.1400E+02
    -10.155  0.0000E+00  0.1400E+02
    -10.140  0.0000E+00  0.1400E+02
    -10.124  0.0000E+00  0.1400E+02
    -10.109  0.0000E+00  0.1400E+02
    -10.093  0.0000E+00  0.1400E+02
    -10.078  0.0000E+00  0.1400E+02
    -10.062  0.0000E+00  0.1400E+02
    -10.047  0.0000E+00  0.1400E+02
    -10.032  0.0000E+00  0.1400E+02
    -10.016  0.0000E+00  0.1400E+02
    -10.001  0.0000E+00  0.1400E+02
     -9.985  0.0000E+00  0.1400E+02
     -9.970  0.0000E+00  0.1400E+02
     -9.955  0.0000E+00  0.1400E+02
     -9.939  0.0000E+00  0.1400E+02
     -9.924  0.0000E+00  0.1400E+02
     -9.908  0.0000E+00  0.1400E+02
     -9.893  0.0000E+00  0.1400E+02
     -9.877  0.0000E+00  0.1400E+02
     -9.862  0.0000E+00  0.1400E+02
     -9.847  0.0000E+00  0.1400E+02
     -9.831  0.0000E+00  0.1400E+02
     -9.816  0.0000E+00  0.1400E+02
     -9.800  0.0000E+00  0.1400E+02
     -9.785  0.0000E+00  0.1400E+02
     -9.770  0.0000E+00  0.1400E+02
     -9.754  0.0000E+00  0.1400E+02
     -9.739  0.0000E+00  0.1400E+02
     -9.723  0.0000E+00  0.1400E+02
     -9.708  0.0000E+00  0.1400E+02
     -9.692  0.0000E+00  0.1400E+02
     -9.677  0.0000E+00  0.1400E+02
     -9.662  0.0000E+00  0.1400E+02
     -9.646  0.0000E+00  0.1400E+02
     -9.631  0.0000E+00  0.1400E+02
     -9.615  0.0000E+00  0.1400E+02
     -9.600  0.0000E+00  0.1400E+02
     -9.585  0.0000E+00  0.1400E+02
     -9.569  0.0000E+00  0.1400E+02
     -9.554  0.0000E+00  0.1400E+02
     -9.538  0.0000E+00  0.1400E+02
     -9.523  0.0000E+00  0.1400E+02
     -9.508  0.0000E+00  0.1400E+02
     -9.492  0.0000E+00  0.1400E+02
     -9.477  0.0000E+00  0.1400E+02
     -9.461  0.0000E+00  0.1400E+02
     -9.446  0.0000E+00  0.1400E+02
     -9.430  0.0000E+00  0.1400E+02
     -9.415  0.0000E+00  0.1400E+02
     -9.400  0.0000E+00  0.1400E+02
     -9.384  0.0000E+00  0.1400E+02
     -9.369  0.0000E+00  0.1400E+02
     -9.353  0.0000E+00  0.1400E+02
     -9.338  0.0000E+00  0.1400E+02
     -9.322  0.0000E+00  0.1400E+02
     -9.307  0.0000E+00  0.1400E+02
     -9.292  0.0000E+00  0.1400E+02
     -9.276  0.0000E+00  0.1400E+02
     -9.261  0.0000E+00  0.1400E+02
     -9.245  0.0000E+00  0.1400E+02
     -9.230  0.0000E+00  0.1400E+02
     -9.215  0.0000E+00  0.1400E+02
     -9.199  0.0000E+00  0.1400E+02
     -9.184  0.0000E+00  0.1400E+02
     -9.168  0.0000E+00  0.1400E+02
     -9.153  0.0000E+00  0.1400E+02
     -9.137  0.0000E+00  0.1400E+02
     -9.122  0.0000E+00  0.1400E+02
     -9.107  0.0000E+00  0.1400E+02
     -9.091  0.0000E+00  0.1400E+02
     -9.076  0.0000E+00  0.1400E+02
     -9.060  0.0000E+00  0.1400E+02
     -9.045  0.0000E+00  0.1400E+02
     -9.030  0.0000E+00  0.1400E+02
     -9.014  0.0000E+00  0.1400E+02
     -8.999  0.0000E+00  0.1400E+02
     -8.983  0.0000E+00  0.1400E+02
     -8.968  0.0000E+00  0.1400E+02
     -8.953  0.0000E+00  0.1400E+02
     -8.937  0.0000E+00  0.1400E+02
     -8.922  0.0000E+00  0.1400E+02
     -8.906  0.0000E+00  0.1400E+02
     -8.891  0.0000E+00  0.1400E+02
     -8.875  0.0000E+00  0.1400E+02
     -8.860  0.0000E+00  0.1400E+02
     -8.845  0.0000E+00  0.1400E+02
     -8.829  0.0000E+00  0.1400E+02
     -8.814  0.0000E+00  0.1400E+02
     -8.798  0.0000E+00  0.1400E+02
     -8.783  0.0000E+00  0.1400E+02
     -8.768  0.0000E+00  0.1400E+02
     -8.752  0.0000E+00  0.1400E+02
     -8.737  0.0000E+00  0.1400E+02
     -8.721  0.0000E+00  0.1400E+02
     -8.706  0.0000E+00  0.1400E+02
     -8.690  0.0000E+00  0.1400E+02
     -8.675  0.0000E+00  0.1400E+02
     -8.660  0.0000E+00  0.1400E+02
     -8.644  0.0000E+00  0.1400E+02
     -8.629  0.0000E+00  0.1400E+02
     -8.613  0.0000E+00  0.1400E+02
     -8.598  0.0000E+00  0.1400E+02
     -8.582  0.0000E+00  0.1400E+02
     -8.567  0.0000E+00  0.1400E+02
     -8.552  0.0000E+00  0.1400E+02
     -8.536  0.0000E+00  0.1400E+02
     -8.521  0.0000E+00  0.1400E+02
     -8.505  0.0000E+00  0.1400E+02
     -8.490  0.0000E+00  0.1400E+02
     -8.475  0.0000E+00  0.1400E+02
     -8.459  0.0000E+00  0.1400E+02
     -8.444  0.0000E+00  0.1400E+02
     -8.428  0.0000E+00  0.1400E+02
     -8.413  0.0000E+00  0.1400E+02
     -8.397  0.0000E+00  0.1400E+02
     -8.382  0.0000E+00  0.1400E+02
     -8.367  0.0000E+00  0.1400E+02
     -8.351  0.0000E+00  0.1400E+02
     -8.336  0.0000E+00  0.1400E+02
     -8.320  0.0000E+00  0.1400E+02
     -8.305  0.0000E+00  0.1400E+02
     -8.290  0.0000E+00  0.1400E+02
     -8.274  0.0000E+00  0.1400E+02
     -8.259  0.0000E+00  0.1400E+02
     -8.243  0.0000E+00  0.1400E+02
     -8.228  0.0000E+00  0.1400E+02
     -8.213  0.0000E+00  0.1400E+02
     -8.197  0.0000E+00  0.1400E+02
     -8.182  0.0000E+00  0.1400E+02
     -8.166  0.0000E+00  0.1400E+02
     -8.151  0.0000E+00  0.1400E+02
     -8.135  0.0000E+00  0.1400E+02
     -8.120  0.0000E+00  0.1400E+02
     -8.105  0.0000E+00  0.1400E+02
     -8.089  0.0000E+00  0.1400E+02
     -8.074  0.0000E+00  0.1400E+02
     -8.058  0.0000E+00  0.1400E+02
     -8.043  0.0000E+00  0.1400E+02
     -8.027  0.0000E+00  0.1400E+02
     -8.012  0.0000E+00  0.1400E+02
     -7.997  0.0000E+00  0.1400E+02
     -7.981  0.0000E+00  0.1400E+02
     -7.966  0.0000E+00  0.1400E+02
     -7.950  0.0000E+00  0.1400E+02
     -7.935  0.0000E+00  0.1400E+02
     -7.920  0.0000E+00  0.1400E+02
     -7.904  0.0000E+00  0.1400E+02
     -7.889  0.0000E+00  0.1400E+02
     -7.873  0.0000E+00  0.1400E+02
     -7.858  0.0000E+00  0.1400E+02
     -7.842  0.0000E+00  0.1400E+02
     -7.827  0.0000E+00  0.1400E+02
     -7.812  0.0000E+00  0.1400E+02
     -7.796  0.0000E+00  0.1400E+02
     -7.781  0.0000E+00  0.1400E+02
     -7.765  0.0000E+00  0.1400E+02
     -7.750  0.0000E+00  0.1400E+02
     -7.735  0.0000E+00  0.1400E+02
     -7.719  0.0000E+00  0.1400E+02
     -7.704  0.0000E+00  0.1400E+02
     -7.688  0.0000E+00  0.1400E+02
     -7.673  0.0000E+00  0.1400E+02
     -7.658  0.0000E+00  0.1400E+02
     -7.642  0.0000E+00  0.1400E+02
     -7.627  0.0000E+00  0.1400E+02
     -7.611  0.0000E+00  0.1400E+02
     -7.596  0.0000E+00  0.1400E+02
     -7.580  0.0000E+00  0.1400E+02
     -7.565  0.0000E+00  0.1400E+02
     -7.550  0.0000E+00  0.1400E+02
     -7.534  0.0000E+00  0.1400E+02
     -7.519  0.0000E+00  0.1400E+02
     -7.503  0.0000E+00  0.1400E+02
     -7.488  0.0000E+00  0.1400E+02
     -7.473  0.0000E+00  0.1400E+02
     -7.457  0.0000E+00  0.1400E+02
     -7.442  0.0000E+00  0.1400E+02
     -7.426  0.0000E+00  0.1400E+02
     -7.411  0.0000E+00  0.1400E+02
     -7.395  0.0000E+00  0.1400E+02
     -7.380  0.0000E+00  0.1400E+02
     -7.365  0.0000E+00  0.1400E+02
     -7.349  0.0000E+00  0.1400E+02
     -7.334  0.0000E+00  0.1400E+02
     -7.318  0.0000E+00  0.1400E+02
     -7.303  0.0000E+00  0.1400E+02
     -7.287  0.0000E+00  0.1400E+02
     -7.272  0.0000E+00  0.1400E+02
     -7.257  0.0000E+00  0.1400E+02
     -7.241  0.0000E+00  0.1400E+02
     -7.226  0.0000E+00  0.1400E+02
     -7.210  0.0000E+00  0.1400E+02
     -7.195  0.0000E+00  0.1400E+02
     -7.180  0.0000E+00  0.1400E+02
     -7.164  0.0000E+00  0.1400E+02
     -7.149  0.0000E+00  0.1400E+02
     -7.133  0.0000E+00  0.1400E+02
     -7.118  0.0000E+00  0.1400E+02
     -7.102  0.0000E+00  0.1400E+02
     -7.087  0.0000E+00  0.1400E+02
     -7.072  0.0000E+00  0.1400E+02
     -7.056  0.0000E+00  0.1400E+02
     -7.041  0.0000E+00  0.1400E+02
     -7.025  0.0000E+00  0.1400E+02
     -7.010  0.0000E+00  0.1400E+02
     -6.995  0.0000E+00  0.1400E+02
     -6.979  0.0000E+00  0.1400E+02
     -6.964  0.0000E+00  0.1400E+02
     -6.948  0.0000E+00  0.1400E+02
     -6.933  0.0000E+00  0.1400E+02
     -6.918  0.0000E+00  0.1400E+02
     -6.902  0.0000E+00  0.1400E+02
     -6.887  0.0000E+00  0.1400E+02
     -6.871  0.0000E+00  0.1400E+02
     -6.856  0.0000E+00  0.1400E+02
     -6.840  0.0000E+00  0.1400E+02
     -6.825  0.0000E+00  0.1400E+02
     -6.810  0.0000E+00  0.1400E+02
     -6.794  0.0000E+00  0.1400E+02
     -6.779  0.0000E+00  0.1400E+02
     -6.763  0.0000E+00  0.1400E+02
     -6.748  0.0000E+00  0.1400E+02
     -6.732  0.0000E+00  0.1400E+02
     -6.717  0.0000E+00  0.1400E+02
     -6.702  0.0000E+00  0.1400E+02
     -6.686  0.0000E+00  0.1400E+02
     -6.671  0.0000E+00  0.1400E+02
     -6.655  0.0000E+00  0.1400E+02
     -6.640  0.0000E+00  0.1400E+02
     -6.625  0.0000E+00  0.1400E+02
     -6.609  0.0000E+00  0.1400E+02
     -6.594  0.0000E+00  0.1400E+02
     -6.578  0.0000E+00  0.1400E+02
     -6.563  0.0000E+00  0.1400E+02
     -6.547  0.0000E+00  0.1400E+02
     -6.532  0.0000E+00  0.1400E+02
     -6.517  0.0000E+00  0.1400E+02
     -6.501  0.0000E+00  0.1400E+02
     -6.486  0.0000E+00  0.1400E+02
     -6.470  0.0000E+00  0.1400E+02
     -6.455  0.0000E+00  0.1400E+02
     -6.440  0.0000E+00  0.1400E+02
     -6.424  0.0000E+00  0.1400E+02
     -6.409  0.0000E+00  0.1400E+02
     -6.393  0.0000E+00  0.1400E+02
     -6.378  0.0000E+00  0.1400E+02
     -6.362  0.0000E+00  0.1400E+02
     -6.347  0.0000E+00  0.1400E+02
     -6.332  0.0000E+00  0.1400E+02
     -6.316  0.0000E+00  0.1400E+02
     -6.301  0.0000E+00  0.1400E+02
     -6.285  0.0000E+00  0.1400E+02
     -6.270  0.0000E+00  0.1400E+02
     -6.255  0.0000E+00  0.1400E+02
     -6.239  0.0000E+00  0.1400E+02
     -6.224  0.0000E+00  0.1400E+02
     -6.208  0.0000E+00  0.1400E+02
     -6.193  0.0000E+00  0.1400E+02
     -6.178  0.0000E+00  0.1400E+02
     -6.162  0.0000E+00  0.1400E+02
     -6.147  0.0000E+00  0.1400E+02
     -6.131  0.0000E+00  0.1400E+02
     -6.116  0.0000E+00  0.1400E+02
     -6.100  0.0000E+00  0.1400E+02
     -6.085  0.0000E+00  0.1400E+02
     -6.070  0.0000E+00  0.1400E+02
     -6.054  0.0000E+00  0.1400E+02
     -6.039  0.0000E+00  0.1400E+02
     -6.023  0.0000E+00  0.1400E+02
     -6.008  0.0000E+00  0.1400E+02
     -5.992  0.0000E+00  0.1400E+02
     -5.977  0.0000E+00  0.1400E+02
     -5.962  0.0000E+00  0.1400E+02
     -5.946  0.0000E+00  0.1400E+02
     -5.931  0.0000E+00  0.1400E+02
     -5.915  0.0000E+00  0.1400E+02
     -5.900  0.0000E+00  0.1400E+02
     -5.885  0.0000E+00  0.1400E+02
     -5.869  0.0000E+00  0.1400E+02
     -5.854  0.0000E+00  0.1400E+02
     -5.838  0.0000E+00  0.1400E+02
     -5.823  0.0000E+00  0.1400E+02
     -5.807  0.0000E+00  0.1400E+02
     -5.792  0.0000E+00  0.1400E+02
     -5.777  0.0000E+00  0.1400E+02
     -5.761  0.0000E+00  0.1400E+02
     -5.746  0.0000E+00  0.1400E+02
     -5.730  0.0000E+00  0.1400E+02
     -5.715  0.0000E+00  0.1400E+02
     -5.700  0.0000E+00  0.1400E+02
     -5.684  0.0000E+00  0.1400E+02
     -5.669  0.0000E+00  0.1400E+02
     -5.653  0.0000E+00  0.1400E+02
     -5.638  0.0000E+00  0.1400E+02
     -5.623  0.0000E+00  0.1400E+02
     -5.607  0.0000E+00  0.1400E+02
     -5.592  0.0000E+00  0.1400E+02
     -5.576  0.0000E+00  0.1400E+02
     -5.561  0.0000E+00  0.1400E+02
     -5.545  0.0000E+00  0.1400E+02
     -5.530  0.0000E+00  0.1400E+02
     -5.515  0.0000E+00  0.1400E+02
     -5.499  0.0000E+00  0.1400E+02
     -5.484  0.0000E+00  0.1400E+02
     -5.468  0.0000E+00  0.1400E+02
     -5.453  0.0000E+00  0.1400E+02
     -5.438  0.0000E+00  0.1400E+02
     -5.422  0.0000E+00  0.1400E+02
     -5.407  0.0000E+00  0.1400E+02
     -5.391  0.0000E+00  0.1400E+02
     -5.376  0.0000E+00  0.1400E+02
     -5.360  0.0000E+00  0.1400E+02
     -5.345  0.0000E+00  0.1400E+02
     -5.330  0.0000E+00  0.1400E+02
     -5.314  0.0000E+00  0.1400E+02
     -5.299  0.0000E+00  0.1400E+02
     -5.283  0.0000E+00  0.1400E+02
     -5.268  0.0000E+00  0.1400E+02
     -5.252  0.0000E+00  0.1400E+02
     -5.237  0.0000E+00  0.1400E+02
     -5.222  0.0000E+00  0.1400E+02
     -5.206  0.0000E+00  0.1400E+02
     -5.191  0.0000E+00  0.1400E+02
     -5.175  0.0000E+00  0.1400E+02
     -5.160  0.0000E+00  0.1400E+02
     -5.145  0.0000E+00  0.1400E+02
     -5.129  0.0000E+00  0.1400E+02
     -5.114  0.0000E+00  0.1400E+02
     -5.098  0.0000E+00  0.1400E+02
     -5.083  0.0000E+00  0.1400E+02
     -5.067  0.0000E+00  0.1400E+02
     -5.052  0.0000E+00  0.1400E+02
     -5.037  0.0000E+00  0.1400E+02
     -5.021  0.0000E+00  0.1400E+02
     -5.006  0.0000E+00  0.1400E+02
     -4.990  0.0000E+00  0.1400E+02
     -4.975  0.0000E+00  0.1400E+02
     -4.960  0.0000E+00  0.1400E+02
     -4.944  0.0000E+00  0.1400E+02
     -4.929  0.0000E+00  0.1400E+02
     -4.913  0.0000E+00  0.1400E+02
     -4.898  0.0000E+00  0.1400E+02
     -4.883  0.0000E+00  0.1400E+02
     -4.867  0.0000E+00  0.1400E+02
     -4.852  0.0000E+00  0.1400E+02
     -4.836  0.0000E+00  0.1400E+02
     -4.821  0.0000E+00  0.1400E+02
     -4.805  0.0000E+00  0.1400E+02
     -4.790  0.0000E+00  0.1400E+02
     -4.775  0.0000E+00  0.1400E+02
     -4.759  0.0000E+00  0.1400E+02
     -4.744  0.0000E+00  0.1400E+02
     -4.728  0.0000E+00  0.1400E+02
     -4.713  0.0000E+00  0.1400E+02
     -4.697  0.0000E+00  0.1400E+02
     -4.682  0.0000E+00  0.1400E+02
     -4.667  0.0000E+00  0.1400E+02
     -4.651  0.0000E+00  0.1400E+02
     -4.636  0.0000E+00  0.1400E+02
     -4.620  0.0000E+00  0.1400E+02
     -4.605  0.0000E+00  0.1400E+02
     -4.590  0.0000E+00  0.1400E+02
     -4.574  0.0000E+00  0.1400E+02
     -4.559  0.0000E+00  0.1400E+02
     -4.543  0.0000E+00  0.1400E+02
     -4.528  0.0000E+00  0.1400E+02
     -4.512  0.0000E+00  0.1400E+02
     -4.497  0.0000E+00  0.1400E+02
     -4.482  0.0000E+00  0.1400E+02
     -4.466  0.0000E+00  0.1400E+02
     -4.451  0.0000E+00  0.1400E+02
     -4.435  0.0000E+00  0.1400E+02
     -4.420  0.0000E+00  0.1400E+02
     -4.405  0.0000E+00  0.1400E+02
     -4.389  0.0000E+00  0.1400E+02
     -4.374  0.0000E+00  0.1400E+02
     -4.358  0.0000E+00  0.1400E+02
     -4.343  0.0000E+00  0.1400E+02
     -4.327  0.0000E+00  0.1400E+02
     -4.312  0.0000E+00  0.1400E+02
     -4.297  0.0000E+00  0.1400E+02
     -4.281  0.0000E+00  0.1400E+02