   5   5   1   0
  0.1229648E+02  0.3946846E-09  0.3946846E-09  0.3946846E-09  0.5000000E-15
  1.000000000000000E-004
  CAR 
 unknown system                          
     17.00000000    -17.00000000 2401      2.76250000      1.00000000
    -17.000  0.1412E+03  0.2000E+01
    -16.986  0.0000E+00  0.2000E+01
    -16.972  0.0000E+00  0.2000E+01
    -16.957  0.0000E+00  0.2000E+01
    -16.943  0.0000E+00  0.2000E+01
    -16.929  0.0000E+00  0.2000E+01
    -16.915  0.0000E+00  0.2000E+01
    -16.901  0.0000E+00  0.2000E+01
    -16.887  0.0000E+00  0.2000E+01
    -16.872  0.0000E+00  0.2000E+01
    -16.858  0.0000E+00  0.2000E+01
    -16.844  0.0000E+00  0.2000E+01
    -16.830  0.0000E+00  0.2000E+01
    -16.816  0.0000E+00  0.2000E+01
    -16.802  0.0000E+00  0.2000E+01
    -16.788  0.0000E+00  0.2000E+01
    -16.773  0.0000E+00  0.2000E+01
    -16.759  0.0000E+00  0.2000E+01
    -16.745  0.0000E+00  0.2000E+01
    -16.731  0.0000E+00  0.2000E+01
    -16.717  0.0000E+00  0.2000E+01
    -16.703  0.0000E+00  0.2000E+01
    -16.688  0.0000E+00  0.2000E+01
    -16.674  0.0000E+00  0.2000E+01
    -16.660  0.0000E+00  0.2000E+01
    -16.646  0.0000E+00  0.2000E+01
    -16.632  0.0000E+00  0.2000E+01
    -16.617  0.0000E+00  0.2000E+01
    -16.603  0.0000E+00  0.2000E+01
    -16.589  0.0000E+00  0.2000E+01
    -16.575  0.0000E+00  0.2000E+01
    -16.561  0.0000E+00  0.2000E+01
    -16.547  0.0000E+00  0.2000E+01
    -16.532  0.0000E+00  0.2000E+01
    -16.518  0.0000E+00  0.2000E+01
    -16.504  0.0000E+00  0.2000E+01
    -16.490  0.0000E+00  0.2000E+01
    -16.476  0.0000E+00  0.2000E+01
    -16.462  0.0000E+00  0.2000E+01
    -16.448  0.0000E+00  0.2000E+01
    -16.433  0.0000E+00  0.2000E+01
    -16.419  0.0000E+00  0.2000E+01
    -16.405  0.0000E+00  0.2000E+01
    -16.391  0.0000E+00  0.2000E+01
    -16.377  0.0000E+00  0.2000E+01
    -16.363  0.0000E+00  0.2000E+01
    -16.348  0.0000E+00  0.2000E+01
    -16.334  0.0000E+00  0.2000E+01
    -16.320  0.0000E+00  0.2000E+01
    -16.306  0.0000E+00  0.2000E+01
    -16.292  0.0000E+00  0.2000E+01
    -16.277  0.0000E+00  0.2000E+01
    -16.263  0.0000E+00  0.2000E+01
    -16.249  0.0000E+00  0.2000E+01
    -16.235  0.0000E+00  0.2000E+01
    -16.221  0.0000E+00  0.2000E+01
    -16.207  0.0000E+00  0.2000E+01
    -16.192  0.0000E+00  0.2000E+01
    -16.178  0.0000E+00  0.2000E+01
    -16.164  0.0000E+00  0.2000E+01
    -16.150  0.0000E+00  0.2000E+01
    -16.136  0.0000E+00  0.2000E+01
    -16.122  0.0000E+00  0.2000E+01
    -16.108  0.0000E+00  0.2000E+01
    -16.093  0.0000E+00  0.2000E+01
    -16.079  0.0000E+00  0.2000E+01
    -16.065  0.0000E+00  0.2000E+01
    -16.051  0.0000E+00  0.2000E+01
    -16.037  0.0000E+00  0.2000E+01
    -16.023  0.0000E+00  0.2000E+01
    -16.008  0.0000E+00  0.2000E+01
    -15.994  0.0000E+00  0.2000E+01
    -15.980  0.0000E+00  0.2000E+01
    -15.966  0.0000E+00  0.2000E+01
    -15.952  0.0000E+00  0.2000E+01
    -15.938  0.0000E+00  0.2000E+01
    -15.923  0.0000E+00  0.2000E+01
    -15.909  0.0000E+00  0.2000E+01
    -15.895  0.0000E+00  0.2000E+01
    -15.881  0.0000E+00  0.2000E+01
    -15.867  0.0000E+00  0.2000E+01
    -15.852  0.0000E+00  0.2000E+01
    -15.838  0.0000E+00  0.2000E+01
    -15.824  0.0000E+00  0.2000E+01
    -15.810  0.0000E+00  0.2000E+01
    -15.796  0.0000E+00  0.2000E+01
    -15.782  0.0000E+00  0.2000E+01
    -15.768  0.0000E+00  0.2000E+01
    -15.753  0.0000E+00  0.2000E+01
    -15.739  0.0000E+00  0.2000E+01
    -15.725  0.0000E+00  0.2000E+01
    -15.711  0.0000E+00  0.2000E+01
    -15.697  0.0000E+00  0.2000E+01
    -15.683  0.1371E-15  0.2000E+01
    -15.668  0.8225E-15  0.2000E+01
    -15.654  0.3564E-14  0.2000E+01
    -15.640  0.1782E-13  0.2000E+01
    -15.626  0.8170E-13  0.2000E+01
    -15.612  0.3630E-12  0.2000E+01
    -15.598  0.1548E-11  0.2000E+01
    -15.583  0.6345E-11  0.2000E+01
    -15.569  0.2498E-10  0.2000E+01
    -15.555  0.9450E-10  0.2000E+01
    -15.541  0.3435E-09  0.2000E+01
    -15.527  0.1199E-08  0.2000E+01
    -15.512  0.4024E-08  0.2000E+01
    -15.498  0.1297E-07  0.2000E+01
    -15.484  0.4019E-07  0.2000E+01
    -15.470  0.1196E-06  0.2000E+01
    -15.456  0.3421E-06  0.2000E+01
    -15.442  0.9402E-06  0.2000E+01
    -15.428  0.2483E-05  0.2000E+01
    -15.413  0.6303E-05  0.2000E+01
    -15.399  0.1538E-04  0.2000E+01
    -15.385  0.3606E-04  0.2000E+01
    -15.371  0.8128E-04  0.2000E+01
    -15.357  0.1762E-03  0.2000E+01
    -15.342  0.3673E-03  0.2000E+01
    -15.328  0.7367E-03  0.2000E+01
    -15.314  0.1422E-02  0.2000E+01
    -15.300  0.2643E-02  0.2000E+01
    -15.286  0.4733E-02  0.2000E+01
    -15.272  0.8174E-02  0.2000E+01
    -15.258  0.1363E-01  0.2000E+01
    -15.243  0.2195E-01  0.2001E+01
    -15.229  0.3423E-01  0.2001E+01
    -15.215  0.5176E-01  0.2002E+01
    -15.201  0.7605E-01  0.2003E+01
    -15.187  0.1088E+00  0.2005E+01
    -15.172  0.1521E+00  0.2007E+01
    -15.158  0.2080E+00  0.2010E+01
    -15.144  0.2792E+00  0.2014E+01
    -15.130  0.3685E+00  0.2019E+01
    -15.116  0.4790E+00  0.2026E+01
    -15.102  0.6140E+00  0.2034E+01
    -15.088  0.7762E+00  0.2045E+01
    -15.073  0.9680E+00  0.2059E+01
    -15.059  0.1190E+01  0.2076E+01
    -15.045  0.1443E+01  0.2096E+01
    -15.031  0.1722E+01  0.2121E+01
    -15.017  0.2022E+01  0.2149E+01
    -15.002  0.2334E+01  0.2182E+01
    -14.988  0.2647E+01  0.2220E+01
    -14.974  0.2948E+01  0.2262E+01
    -14.960  0.3219E+01  0.2307E+01
    -14.946  0.3446E+01  0.2356E+01
    -14.932  0.3614E+01  0.2407E+01
    -14.918  0.3714E+01  0.2460E+01
    -14.903  0.3743E+01  0.2513E+01
    -14.889  0.3705E+01  0.2565E+01
    -14.875  0.3610E+01  0.2617E+01
    -14.861  0.3478E+01  0.2666E+01
    -14.847  0.3327E+01  0.2713E+01
    -14.832  0.3181E+01  0.2758E+01
    -14.818  0.3057E+01  0.2801E+01
    -14.804  0.2967E+01  0.2843E+01
    -14.790  0.2917E+01  0.2885E+01
    -14.776  0.2902E+01  0.2926E+01
    -14.762  0.2914E+01  0.2967E+01
    -14.748  0.2939E+01  0.3009E+01
    -14.733  0.2962E+01  0.3051E+01
    -14.719  0.2967E+01  0.3093E+01
    -14.705  0.2942E+01  0.3134E+01
    -14.691  0.2878E+01  0.3175E+01
    -14.677  0.2771E+01  0.3215E+01
    -14.662  0.2621E+01  0.3252E+01
    -14.648  0.2434E+01  0.3286E+01
    -14.634  0.2221E+01  0.3318E+01
    -14.620  0.1995E+01  0.3346E+01
    -14.606  0.1772E+01  0.3371E+01
    -14.592  0.1567E+01  0.3393E+01
    -14.578  0.1394E+01  0.3413E+01
    -14.563  0.1264E+01  0.3431E+01
    -14.549  0.1184E+01  0.3448E+01
    -14.535  0.1156E+01  0.3464E+01
    -14.521  0.1179E+01  0.3481E+01
    -14.507  0.1246E+01  0.3498E+01
    -14.492  0.1345E+01  0.3517E+01
    -14.478  0.1463E+01  0.3538E+01
    -14.464  0.1585E+01  0.3561E+01
    -14.450  0.1693E+01  0.3585E+01
    -14.436  0.1773E+01  0.3610E+01
    -14.422  0.1813E+01  0.3635E+01
    -14.408  0.1806E+01  0.3661E+01
    -14.393  0.1751E+01  0.3686E+01
    -14.379  0.1651E+01  0.3709E+01
    -14.365  0.1517E+01  0.3731E+01
    -14.351  0.1362E+01  0.3750E+01
    -14.337  0.1205E+01  0.3767E+01
    -14.322  0.1063E+01  0.3782E+01
    -14.308  0.9551E+00  0.3796E+01
    -14.294  0.8956E+00  0.3808E+01
    -14.280  0.8974E+00  0.3821E+01
    -14.266  0.9690E+00  0.3835E+01
    -14.252  0.1115E+01  0.3850E+01
    -14.238  0.1335E+01  0.3869E+01
    -14.223  0.1626E+01  0.3892E+01
    -14.209  0.1983E+01  0.3920E+01
    -14.195  0.2397E+01  0.3954E+01
    -14.181  0.2862E+01  0.3995E+01
    -14.167  0.3368E+01  0.4043E+01
    -14.152  0.3912E+01  0.4098E+01
    -14.138  0.4488E+01  0.4162E+01
    -14.124  0.5094E+01  0.4234E+01
    -14.110  0.5731E+01  0.4315E+01
    -14.096  0.6399E+01  0.4406E+01
    -14.082  0.7100E+01  0.4506E+01
    -14.068  0.7834E+01  0.4617E+01
    -14.053  0.8599E+01  0.4739E+01
    -14.039  0.9392E+01  0.4872E+01
    -14.025  0.1020E+02  0.5017E+01
    -14.011  0.1102E+02  0.5173E+01
    -13.997  0.1181E+02  0.5340E+01
    -13.982  0.1256E+02  0.5518E+01
    -13.968  0.1323E+02  0.5706E+01
    -13.954  0.1378E+02  0.5901E+01
    -13.940  0.1415E+02  0.6101E+01
    -13.926  0.1433E+02  0.6304E+01
    -13.912  0.1426E+02  0.6506E+01
    -13.898  0.1393E+02  0.6704E+01
    -13.883  0.1334E+02  0.6893E+01
    -13.869  0.1251E+02  0.7070E+01
    -13.855  0.1148E+02  0.7232E+01
    -13.841  0.1028E+02  0.7378E+01
    -13.827  0.9003E+01  0.7506E+01
    -13.812  0.7694E+01  0.7615E+01
    -13.798  0.6419E+01  0.7706E+01
    -13.784  0.5227E+01  0.7780E+01
    -13.770  0.4154E+01  0.7838E+01
    -13.756  0.3222E+01  0.7884E+01
    -13.742  0.2439E+01  0.7919E+01
    -13.727  0.1802E+01  0.7944E+01
    -13.713  0.1299E+01  0.7963E+01
    -13.699  0.9128E+00  0.7976E+01
    -13.685  0.6252E+00  0.7984E+01
    -13.671  0.4170E+00  0.7990E+01
    -13.657  0.2706E+00  0.7994E+01
    -13.643  0.1707E+00  0.7997E+01
    -13.628  0.1046E+00  0.7998E+01
    -13.614  0.6214E-01  0.7999E+01
    -13.600  0.3577E-01  0.7999E+01
    -13.586  0.1994E-01  0.8000E+01
    -13.572  0.1075E-01  0.8000E+01
    -13.558  0.5600E-02  0.8000E+01
    -13.543  0.2818E-02  0.8000E+01
    -13.529  0.1368E-02  0.8000E+01
    -13.515  0.6407E-03  0.8000E+01
    -13.501  0.2892E-03  0.8000E+01
    -13.487  0.1258E-03  0.8000E+01
    -13.473  0.5272E-04  0.8000E+01
    -13.458  0.2127E-04  0.8000E+01
    -13.444  0.8260E-05  0.8000E+01
    -13.430  0.3087E-05  0.8000E+01
    -13.416  0.1110E-05  0.8000E+01
    -13.402  0.3842E-06  0.8000E+01
    -13.387  0.1278E-06  0.8000E+01
    -13.373  0.4092E-07  0.8000E+01
    -13.359  0.1259E-07  0.8000E+01
    -13.345  0.3727E-08  0.8000E+01
    -13.331  0.1060E-08  0.8000E+01
    -13.317  0.2900E-09  0.8000E+01
    -13.303  0.7626E-10  0.8000E+01
    -13.288  0.1927E-10  0.8000E+01
    -13.274  0.4682E-11  0.8000E+01
    -13.260  0.1093E-11  0.8000E+01
    -13.246  0.2457E-12  0.8000E+01
    -13.232  0.5182E-13  0.8000E+01
    -13.218  0.1142E-13  0.8000E+01
    -13.203  0.4021E-14  0.8000E+01
    -13.189  0.5484E-14  0.8000E+01
    -13.175  0.2705E-13  0.8000E+01
    -13.161  0.1278E-12  0.8000E+01
    -13.147  0.5749E-12  0.8000E+01
    -13.133  0.2490E-11  0.8000E+01
    -13.118  0.1035E-10  0.8000E+01
    -13.104  0.4138E-10  0.8000E+01
    -13.090  0.1589E-09  0.8000E+01
    -13.076  0.5865E-09  0.8000E+01
    -13.062  0.2080E-08  0.8000E+01
    -13.047  0.7088E-08  0.8000E+01
    -13.033  0.2322E-07  0.8000E+01
    -13.019  0.7308E-07  0.8000E+01
    -13.005  0.2211E-06  0.8000E+01
    -12.991  0.6432E-06  0.8000E+01
    -12.977  0.1798E-05  0.8000E+01
    -12.963  0.4834E-05  0.8000E+01
    -12.948  0.1249E-04  0.8000E+01
    -12.934  0.3106E-04  0.8000E+01
    -12.920  0.7426E-04  0.8000E+01
    -12.906  0.1708E-03  0.8000E+01
    -12.892  0.3780E-03  0.8000E+01
    -12.878  0.8053E-03  0.8000E+01
    -12.863  0.1652E-02  0.8000E+01
    -12.849  0.3263E-02  0.8000E+01
    -12.835  0.6211E-02  0.8000E+01
    -12.821  0.1140E-01  0.8000E+01
    -12.807  0.2017E-01  0.8001E+01
    -12.793  0.3445E-01  0.8001E+01
    -12.778  0.5682E-01  0.8002E+01
    -12.764  0.9057E-01  0.8003E+01
    -12.750  0.1396E+00  0.8005E+01
    -12.736  0.2083E+00  0.8008E+01
    -12.722  0.3011E+00  0.8012E+01
    -12.707  0.4222E+00  0.8018E+01
    -12.693  0.5748E+00  0.8027E+01
    -12.679  0.7609E+00  0.8037E+01
    -12.665  0.9813E+00  0.8051E+01
    -12.651  0.1235E+01  0.8069E+01
    -12.637  0.1521E+01  0.8090E+01
    -12.623  0.1840E+01  0.8116E+01
    -12.608  0.2192E+01  0.8147E+01
    -12.594  0.2584E+01  0.8184E+01
    -12.580  0.3027E+01  0.8227E+01
    -12.566  0.3538E+01  0.8277E+01
    -12.552  0.4135E+01  0.8336E+01
    -12.538  0.4837E+01  0.8404E+01
    -12.523  0.5656E+01  0.8484E+01
    -12.509  0.6593E+01  0.8578E+01
    -12.495  0.7630E+01  0.8686E+01
    -12.481  0.8732E+01  0.8809E+01
    -12.467  0.9845E+01  0.8949E+01
    -12.453  0.1090E+02  0.9103E+01
    -12.438  0.1184E+02  0.9271E+01
    -12.424  0.1259E+02  0.9449E+01
    -12.410  0.1310E+02  0.9635E+01
    -12.396  0.1337E+02  0.9824E+01
    -12.382  0.1338E+02  0.1001E+02
    -12.367  0.1317E+02  0.1020E+02
    -12.353  0.1278E+02  0.1038E+02
    -12.339  0.1226E+02  0.1056E+02
    -12.325  0.1167E+02  0.1072E+02
    -12.311  0.1107E+02  0.1088E+02
    -12.297  0.1050E+02  0.1103E+02
    -12.283  0.1001E+02  0.1117E+02
    -12.268  0.9607E+01  0.1130E+02
    -12.254  0.9321E+01  0.1144E+02
    -12.240  0.9150E+01  0.1157E+02
    -12.226  0.9090E+01  0.1169E+02
    -12.212  0.9123E+01  0.1182E+02
    -12.198  0.9230E+01  0.1195E+02
    -12.183  0.9382E+01  0.1209E+02
    -12.169  0.9552E+01  0.1222E+02
    -12.155  0.9709E+01  0.1236E+02
    -12.141  0.9821E+01  0.1250E+02
    -12.127  0.9861E+01  0.1264E+02
    -12.113  0.9802E+01  0.1278E+02
    -12.098  0.9625E+01  0.1291E+02
    -12.084  0.9316E+01  0.1305E+02
    -12.070  0.8876E+01  0.1317E+02
    -12.056  0.8315E+01  0.1329E+02
    -12.042  0.7655E+01  0.1340E+02
    -12.027  0.6926E+01  0.1350E+02
    -12.013  0.6161E+01  0.1358E+02
    -11.999  0.5392E+01  0.1366E+02
    -11.985  0.4648E+01  0.1373E+02
    -11.971  0.3950E+01  0.1378E+02
    -11.957  0.3311E+01  0.1383E+02
    -11.942  0.2738E+01  0.1387E+02
    -11.928  0.2233E+01  0.1390E+02
    -11.914  0.1794E+01  0.1392E+02
    -11.900  0.1417E+01  0.1394E+02
    -11.886  0.1099E+01  0.1396E+02
    -11.872  0.8350E+00  0.1397E+02
    -11.857  0.6200E+00  0.1398E+02
    -11.843  0.4490E+00  0.1399E+02
    -11.829  0.3166E+00  0.1399E+02
    -11.815  0.2170E+00  0.1399E+02
    -11.801  0.1444E+00  0.1400E+02
    -11.787  0.9317E-01  0.1400E+02
    -11.773  0.5822E-01  0.1400E+02
    -11.758  0.3521E-01  0.1400E+02
    -11.744  0.2059E-01  0.1400E+02
    -11.730  0.1164E-01  0.1400E+02
    -11.716  0.6355E-02  0.1400E+02
    -11.702  0.3351E-02  0.1400E+02
    -11.688  0.1705E-02  0.1400E+02
    -11.673  0.8371E-03  0.1400E+02
    -11.659  0.3964E-03  0.1400E+02
    -11.645  0.1810E-03  0.1400E+02
    -11.631  0.7966E-04  0.1400E+02
    -11.617  0.3379E-04  0.1400E+02
    -11.602  0.1381E-04  0.1400E+02
    -11.588  0.5435E-05  0.1400E+02
    -11.574  0.2060E-05  0.1400E+02
    -11.560  0.7521E-06  0.1400E+02
    -11.546  0.2643E-06  0.1400E+02
    -11.532  0.8938E-07  0.1400E+02
    -11.518  0.2909E-07  0.1400E+02
    -11.503  0.9112E-08  0.1400E+02
    -11.489  0.2746E-08  0.1400E+02
    -11.475  0.7959E-09  0.1400E+02
    -11.461  0.2219E-09  0.1400E+02
    -11.447  0.5950E-10  0.1400E+02
    -11.433  0.1534E-10  0.1400E+02
    -11.418  0.3806E-11  0.1400E+02
    -11.404  0.9070E-12  0.1400E+02
    -11.390  0.2084E-12  0.1400E+02
    -11.376  0.4606E-13  0.1400E+02
    -11.362  0.9322E-14  0.1400E+02
    -11.348  0.1645E-14  0.1400E+02
    -11.333  0.5484E-15  0.1400E+02
    -11.319  0.0000E+00  0.1400E+02
    -11.305  0.0000E+00  0.1400E+02
    -11.291  0.0000E+00  0.1400E+02
    -11.277  0.0000E+00  0.1400E+02
    -11.262  0.0000E+00  0.1400E+02
    -11.248  0.0000E+00  0.1400E+02
    -11.234  0.0000E+00  0.1400E+02
    -11.220  0.0000E+00  0.1400E+02
    -11.206  0.0000E+00  0.1400E+02
    -11.192  0.0000E+00  0.1400E+02
    -11.178  0.0000E+00  0.1400E+02
    -11.163  0.0000E+00  0.1400E+02
    -11.149  0.0000E+00  0.1400E+02
    -11.135  0.0000E+00  0.1400E+02
    -11.121  0.0000E+00  0.1400E+02
    -11.107  0.0000E+00  0.1400E+02
    -11.093  0.0000E+00  0.1400E+02
    -11.078  0.0000E+00  0.1400E+02
    -11.064  0.0000E+00  0.1400E+02
    -11.050  0.0000E+00  0.1400E+02
    -11.036  0.0000E+00  0.1400E+02
    -11.022  0.0000E+00  0.1400E+02
    -11.008  0.0000E+00  0.1400E+02
    -10.993  0.0000E+00  0.1400E+02
    -10.979  0.0000E+00  0.1400E+02
    -10.965  0.0000E+00  0.1400E+02
    -10.951  0.0000E+00  0.1400E+02
    -10.937  0.0000E+00  0.1400E+02
    -10.922  0.0000E+00  0.1400E+02
    -10.908  0.0000E+00  0.1400E+02
    -10.894  0.0000E+00  0.1400E+02
    -10.880  0.0000E+00  0.1400E+02
    -10.866  0.0000E+00  0.1400E+02
    -10.852  0.0000E+00  0.1400E+02
    -10.838  0.0000E+00  0.1400E+02
    -10.823  0.0000E+00  0.1400E+02
    -10.809  0.0000E+00  0.1400E+02
    -10.795  0.0000E+00  0.1400E+02
    -10.781  0.0000E+00  0.1400E+02
    -10.767  0.0000E+00  0.1400E+02
    -10.753  0.0000E+00  0.1400E+02
    -10.738  0.0000E+00  0.1400E+02
    -10.724  0.0000E+00  0.1400E+02
    -10.710  0.0000E+00  0.1400E+02
    -10.696  0.0000E+00  0.1400E+02
    -10.682  0.0000E+00  0.1400E+02
    -10.668  0.0000E+00  0.1400E+02
    -10.653  0.0000E+00  0.1400E+02
    -10.639  0.0000E+00  0.1400E+02
    -10.625  0.0000E+00  0.1400E+02
    -10.611  0.0000E+00  0.1400E+02
    -10.597  0.0000E+00  0.1400E+02
    -10.582  0.0000E+00  0.1400E+02
    -10.568  0.0000E+00  0.1400E+02
    -10.554  0.0000E+00  0.1400E+02
    -10.540  0.0000E+00  0.1400E+02
    -10.526  0.0000E+00  0.1400E+02
    -10.512  0.0000E+00  0.1400E+02
    -10.498  0.0000E+00  0.1400E+02
    -10.483  0.0000E+00  0.1400E+02
    -10.469  0.0000E+00  0.1400E+02
    -10.455  0.0000E+00  0.1400E+02
    -10.441  0.0000E+00  0.1400E+02
    -10.427  0.0000E+00  0.1400E+02
    -10.413  0.0000E+00  0.1400E+02
    -10.398  0.0000E+00  0.1400E+02
    -10.384  0.0000E+00  0.1400E+02
    -10.370  0.0000E+00  0.1400E+02
    -10.356  0.0000E+00  0.1400E+02
    -10.342  0.0000E+00  0.1400E+02
    -10.328  0.0000E+00  0.1400E+02
    -10.313  0.0000E+00  0.1400E+02
    -10.299  0.0000E+00  0.1400E+02
    -10.285  0.0000E+00  0.1400E+02
    -10.271  0.0000E+00  0.1400E+02
    -10.257  0.0000E+00  0.1400E+02
    -10.242  0.0000E+00  0.1400E+02
    -10.228  0.0000E+00  0.1400E+02
    -10.214  0.0000E+00  0.1400E+02
    -10.200  0.0000E+00  0.1400E+02
    -10.186  0.0000E+00  0.1400E+02
    -10.172  0.0000E+00  0.1400E+02
    -10.158  0.0000E+00  0.1400E+02
    -10.143  0.0000E+00  0.1400E+02
    -10.129  0.0000E+00  0.1400E+02
    -10.115  0.0000E+00  0.1400E+02
    -10.101  0.0000E+00  0.1400E+02
    -10.087  0.0000E+00  0.1400E+02
    -10.073  0.0000E+00  0.1400E+02
    -10.058  0.0000E+00  0.1400E+02
    -10.044  0.0000E+00  0.1400E+02
    -10.030  0.0000E+00  0.1400E+02
    -10.016  0.0000E+00  0.1400E+02
    -10.002  0.0000E+00  0.1400E+02
     -9.988  0.0000E+00  0.1400E+02
     -9.973  0.0000E+00  0.1400E+02
     -9.959  0.0000E+00  0.1400E+02
     -9.945  0.0000E+00  0.1400E+02
     -9.931  0.0000E+00  0.1400E+02
     -9.917  0.0000E+00  0.1400E+02
     -9.902  0.0000E+00  0.1400E+02
     -9.888  0.0000E+00  0.1400E+02
     -9.874  0.0000E+00  0.1400E+02
     -9.860  0.0000E+00  0.1400E+02
     -9.846  0.0000E+00  0.1400E+02
     -9.832  0.0000E+00  0.1400E+02
     -9.818  0.0000E+00  0.1400E+02
     -9.803  0.0000E+00  0.1400E+02
     -9.789  0.0000E+00  0.1400E+02
     -9.775  0.0000E+00  0.1400E+02
     -9.761  0.0000E+00  0.1400E+02
     -9.747  0.0000E+00  0.1400E+02
     -9.732  0.0000E+00  0.1400E+02
     -9.718  0.0000E+00  0.1400E+02
     -9.704  0.0000E+00  0.1400E+02
     -9.690  0.0000E+00  0.1400E+02
     -9.676  0.0000E+00  0.1400E+02
     -9.662  0.0000E+00  0.1400E+02
     -9.648  0.0000E+00  0.1400E+02
     -9.633  0.0000E+00  0.1400E+02
     -9.619  0.0000E+00  0.1400E+02
     -9.605  0.0000E+00  0.1400E+02
     -9.591  0.0000E+00  0.1400E+02
     -9.577  0.0000E+00  0.1400E+02
     -9.562  0.0000E+00  0.1400E+02
     -9.548  0.0000E+00  0.1400E+02
     -9.534  0.0000E+00  0.1400E+02
     -9.520  0.0000E+00  0.1400E+02
     -9.506  0.0000E+00  0.1400E+02
     -9.492  0.0000E+00  0.1400E+02
     -9.477  0.0000E+00  0.1400E+02
     -9.463  0.0000E+00  0.1400E+02
     -9.449  0.0000E+00  0.1400E+02
     -9.435  0.0000E+00  0.1400E+02
     -9.421  0.0000E+00  0.1400E+02
     -9.407  0.0000E+00  0.1400E+02
     -9.393  0.0000E+00  0.1400E+02
     -9.378  0.0000E+00  0.1400E+02
     -9.364  0.0000E+00  0.1400E+02
     -9.350  0.0000E+00  0.1400E+02
     -9.336  0.0000E+00  0.1400E+02
     -9.322  0.0000E+00  0.1400E+02
     -9.308  0.0000E+00  0.1400E+02
     -9.293  0.0000E+00  0.1400E+02
     -9.279  0.0000E+00  0.1400E+02
     -9.265  0.0000E+00  0.1400E+02
     -9.251  0.0000E+00  0.1400E+02
     -9.237  0.0000E+00  0.1400E+02
     -9.223  0.0000E+00  0.1400E+02
     -9.208  0.0000E+00  0.1400E+02
     -9.194  0.0000E+00  0.1400E+02
     -9.180  0.0000E+00  0.1400E+02
     -9.166  0.0000E+00  0.1400E+02
     -9.152  0.0000E+00  0.1400E+02
     -9.137  0.0000E+00  0.1400E+02
     -9.123  0.0000E+00  0.1400E+02
     -9.109  0.0000E+00  0.1400E+02
     -9.095  0.0000E+00  0.1400E+02
     -9.081  0.0000E+00  0.1400E+02
     -9.067  0.0000E+00  0.1400E+02
     -9.053  0.0000E+00  0.1400E+02
     -9.038  0.0000E+00  0.1400E+02
     -9.024  0.0000E+00  0.1400E+02
     -9.010  0.0000E+00  0.1400E+02
     -8.996  0.0000E+00  0.1400E+02
     -8.982  0.0000E+00  0.1400E+02
     -8.968  0.0000E+00  0.1400E+02
     -8.953  0.0000E+00  0.1400E+02
     -8.939  0.0000E+00  0.1400E+02
     -8.925  0.0000E+00  0.1400E+02
     -8.911  0.0000E+00  0.1400E+02
     -8.897  0.0000E+00  0.1400E+02
     -8.883  0.0000E+00  0.1400E+02
     -8.868  0.0000E+00  0.1400E+02
     -8.854  0.0000E+00  0.1400E+02
     -8.840  0.0000E+00  0.1400E+02
     -8.826  0.0000E+00  0.1400E+02
     -8.812  0.0000E+00  0.1400E+02
     -8.798  0.0000E+00  0.1400E+02
     -8.783  0.0000E+00  0.1400E+02
     -8.769  0.0000E+00  0.1400E+02
     -8.755  0.0000E+00  0.1400E+02
     -8.741  0.0000E+00  0.1400E+02
     -8.727  0.0000E+00  0.1400E+02
     -8.713  0.0000E+00  0.1400E+02
     -8.698  0.0000E+00  0.1400E+02
     -8.684  0.0000E+00  0.1400E+02
     -8.670  0.0000E+00  0.1400E+02
     -8.656  0.0000E+00  0.1400E+02
     -8.642  0.0000E+00  0.1400E+02
     -8.628  0.0000E+00  0.1400E+02
     -8.613  0.0000E+00  0.1400E+02
     -8.599  0.0000E+00  0.1400E+02
     -8.585  0.0000E+00  0.1400E+02
     -8.571  0.0000E+00  0.1400E+02
     -8.557  0.0000E+00  0.1400E+02
     -8.543  0.0000E+00  0.1400E+02
     -8.528  0.0000E+00  0.1400E+02
     -8.514  0.0000E+00  0.1400E+02
     -8.500  0.0000E+00  0.1400E+02
     -8.486  0.0000E+00  0.1400E+02
     -8.472  0.0000E+00  0.1400E+02
     -8.457  0.0000E+00  0.1400E+02
     -8.443  0.0000E+00  0.1400E+02
     -8.429  0.0000E+00  0.1400E+02
     -8.415  0.0000E+00  0.1400E+02
     -8.401  0.0000E+00  0.1400E+02
     -8.387  0.0000E+00  0.1400E+02
     -8.373  0.0000E+00  0.1400E+02
     -8.358  0.0000E+00  0.1400E+02
     -8.344  0.0000E+00  0.1400E+02
     -8.330  0.0000E+00  0.1400E+02
     -8.316  0.0000E+00  0.1400E+02
     -8.302  0.0000E+00  0.1400E+02
     -8.287  0.0000E+00  0.1400E+02
     -8.273  0.0000E+00  0.1400E+02
     -8.259  0.0000E+00  0.1400E+02
     -8.245  0.0000E+00  0.1400E+02
     -8.231  0.0000E+00  0.1400E+02
     -8.217  0.0000E+00  0.1400E+02
     -8.203  0.0000E+00  0.1400E+02
     -8.188  0.0000E+00  0.1400E+02
     -8.174  0.0000E+00  0.1400E+02
     -8.160  0.0000E+00  0.1400E+02
     -8.146  0.0000E+00  0.1400E+02
     -8.132  0.0000E+00  0.1400E+02
     -8.117  0.0000E+00  0.1400E+02
     -8.103  0.0000E+00  0.1400E+02
     -8.089  0.0000E+00  0.1400E+02
     -8.075  0.0000E+00  0.1400E+02
     -8.061  0.0000E+00  0.1400E+02
     -8.047  0.0000E+00  0.1400E+02
     -8.033  0.0000E+00  0.1400E+02
     -8.018  0.0000E+00  0.1400E+02
     -8.004  0.0000E+00  0.1400E+02
     -7.990  0.0000E+00  0.1400E+02
     -7.976  0.0000E+00  0.1400E+02
     -7.962  0.0000E+00  0.1400E+02
     -7.947  0.0000E+00  0.1400E+02
     -7.933  0.0000E+00  0.1400E+02
     -7.919  0.0000E+00  0.1400E+02
     -7.905  0.0000E+00  0.1400E+02
     -7.891  0.0000E+00  0.1400E+02
     -7.877  0.0000E+00  0.1400E+02
     -7.863  0.0000E+00  0.1400E+02
     -7.848  0.0000E+00  0.1400E+02
     -7.834  0.0000E+00  0.1400E+02
     -7.820  0.0000E+00  0.1400E+02
     -7.806  0.0000E+00  0.1400E+02
     -7.792  0.0000E+00  0.1400E+02
     -7.777  0.0000E+00  0.1400E+02
     -7.763  0.0000E+00  0.1400E+02
     -7.749  0.0000E+00  0.1400E+02
     -7.735  0.0000E+00  0.1400E+02
     -7.721  0.0000E+00  0.1400E+02
     -7.707  0.0000E+00  0.1400E+02
     -7.693  0.0000E+00  0.1400E+02
     -7.678  0.0000E+00  0.1400E+02
     -7.664  0.0000E+00  0.1400E+02
     -7.650  0.0000E+00  0.1400E+02
     -7.636  0.0000E+00  0.1400E+02
     -7.622  0.0000E+00  0.1400E+02
     -7.607  0.0000E+00  0.1400E+02
     -7.593  0.0000E+00  0.1400E+02
     -7.579  0.0000E+00  0.1400E+02
     -7.565  0.0000E+00  0.1400E+02
     -7.551  0.0000E+00  0.1400E+02
     -7.537  0.0000E+00  0.1400E+02
     -7.523  0.0000E+00  0.1400E+02
     -7.508  0.0000E+00  0.1400E+02
     -7.494  0.0000E+00  0.1400E+02
     -7.480  0.0000E+00  0.1400E+02
     -7.466  0.0000E+00  0.1400E+02
     -7.452  0.0000E+00  0.1400E+02
     -7.438  0.0000E+00  0.1400E+02
     -7.423  0.0000E+00  0.1400E+02
     -7.409  0.0000E+00  0.1400E+02
     -7.395  0.0000E+00  0.1400E+02
     -7.381  0.0000E+00  0.1400E+02
     -7.367  0.0000E+00  0.1400E+02
     -7.353  0.0000E+00  0.1400E+02
     -7.338  0.0000E+00  0.1400E+02
     -7.324  0.0000E+00  0.1400E+02
     -7.310  0.0000E+00  0.1400E+02
     -7.296  0.0000E+00  0.1400E+02
     -7.282  0.0000E+00  0.1400E+02
     -7.268  0.0000E+00  0.1400E+02
     -7.253  0.0000E+00  0.1400E+02
     -7.239  0.0000E+00  0.1400E+02
     -7.225  0.0000E+00  0.1400E+02
     -7.211  0.0000E+00  0.1400E+02
     -7.197  0.0000E+00  0.1400E+02
     -7.183  0.0000E+00  0.1400E+02
     -7.168  0.0000E+00  0.1400E+02
     -7.154  0.0000E+00  0.1400E+02
     -7.140  0.0000E+00  0.1400E+02
     -7.126  0.0000E+00  0.1400E+02
     -7.112  0.0000E+00  0.1400E+02
     -7.098  0.0000E+00  0.1400E+02
     -7.083  0.0000E+00  0.1400E+02
     -7.069  0.0000E+00  0.1400E+02
     -7.055  0.0000E+00  0.1400E+02
     -7.041  0.0000E+00  0.1400E+02
     -7.027  0.0000E+00  0.1400E+02
     -7.013  0.0000E+00  0.1400E+02
     -6.998  0.0000E+00  0.1400E+02
     -6.984  0.0000E+00  0.1400E+02
     -6.970  0.0000E+00  0.1400E+02
     -6.956  0.0000E+00  0.1400E+02
     -6.942  0.0000E+00  0.1400E+02
     -6.928  0.0000E+00  0.1400E+02
     -6.913  0.0000E+00  0.1400E+02
     -6.899  0.0000E+00  0.1400E+02
     -6.885  0.0000E+00  0.1400E+02
     -6.871  0.0000E+00  0.1400E+02
     -6.857  0.0000E+00  0.1400E+02
     -6.843  0.0000E+00  0.1400E+02
     -6.828  0.0000E+00  0.1400E+02
     -6.814  0.0000E+00  0.1400E+02
     -6.800  0.0000E+00  0.1400E+02
     -6.786  0.0000E+00  0.1400E+02
     -6.772  0.0000E+00  0.1400E+02
     -6.758  0.0000E+00  0.1400E+02
     -6.743  0.0000E+00  0.1400E+02
     -6.729  0.0000E+00  0.1400E+02
     -6.715  0.0000E+00  0.1400E+02
     -6.701  0.0000E+00  0.1400E+02
     -6.687  0.0000E+00  0.1400E+02
     -6.673  0.0000E+00  0.1400E+02
     -6.658  0.0000E+00  0.1400E+02
     -6.644  0.0000E+00  0.1400E+02
     -6.630  0.0000E+00  0.1400E+02
     -6.616  0.0000E+00  0.1400E+02
     -6.602  0.0000E+00  0.1400E+02
     -6.588  0.0000E+00  0.1400E+02
     -6.573  0.0000E+00  0.1400E+02
     -6.559  0.0000E+00  0.1400E+02
     -6.545  0.0000E+00  0.1400E+02
     -6.531  0.0000E+00  0.1400E+02
     -6.517  0.0000E+00  0.1400E+02
     -6.503  0.0000E+00  0.1400E+02
     -6.488  0.0000E+00  0.1400E+02
     -6.474  0.0000E+00  0.1400E+02
     -6.460  0.0000E+00  0.1400E+02
     -6.446  0.0000E+00  0.1400E+02
     -6.432  0.0000E+00  0.1400E+02
     -6.418  0.0000E+00  0.1400E+02
     -6.403  0.0000E+00  0.1400E+02
     -6.389  0.0000E+00  0.1400E+02
     -6.375  0.0000E+00  0.1400E+02
     -6.361  0.0000E+00  0.1400E+02
     -6.347  0.0000E+00  0.1400E+02
     -6.333  0.0000E+00  0.1400E+02
     -6.318  0.0000E+00  0.1400E+02
     -6.304  0.0000E+00  0.1400E+02
     -6.290  0.0000E+00  0.1400E+02
     -6.276  0.0000E+00  0.1400E+02
     -6.262  0.0000E+00  0.1400E+02
     -6.248  0.0000E+00  0.1400E+02
     -6.233  0.0000E+00  0.1400E+02
     -6.219  0.0000E+00  0.1400E+02
     -6.205  0.0000E+00  0.1400E+02
     -6.191  0.0000E+00  0.1400E+02
     -6.177  0.0000E+00  0.1400E+02
     -6.163  0.0000E+00  0.1400E+02
     -6.148  0.0000E+00  0.1400E+02
     -6.134  0.0000E+00  0.1400E+02
     -6.120  0.0000E+00  0.1400E+02
     -6.106  0.0000E+00  0.1400E+02
     -6.092  0.0000E+00  0.1400E+02
     -6.078  0.0000E+00  0.1400E+02
     -6.063  0.0000E+00  0.1400E+02
     -6.049  0.0000E+00  0.1400E+02
     -6.035  0.0000E+00  0.1400E+02
     -6.021  0.0000E+00  0.1400E+02
     -6.007  0.0000E+00  0.1400E+02
     -5.992  0.0000E+00  0.1400E+02
     -5.978  0.0000E+00  0.1400E+02
     -5.964  0.0000E+00  0.1400E+02
     -5.950  0.0000E+00  0.1400E+02
     -5.936  0.0000E+00  0.1400E+02
     -5.922  0.0000E+00  0.1400E+02
     -5.908  0.0000E+00  0.1400E+02
     -5.893  0.0000E+00  0.1400E+02
     -5.879  0.0000E+00  0.1400E+02
     -5.865  0.0000E+00  0.1400E+02
     -5.851  0.0000E+00  0.1400E+02
     -5.837  0.0000E+00  0.1400E+02
     -5.822  0.0000E+00  0.1400E+02
     -5.808  0.0000E+00  0.1400E+02
     -5.794  0.0000E+00  0.1400E+02
     -5.780  0.0000E+00  0.1400E+02
     -5.766  0.0000E+00  0.1400E+02
     -5.752  0.0000E+00  0.1400E+02
     -5.738  0.0000E+00  0.1400E+02
     -5.723  0.0000E+00  0.1400E+02
     -5.709  0.0000E+00  0.1400E+02
     -5.695  0.0000E+00  0.1400E+02
     -5.681  0.0000E+00  0.1400E+02
     -5.667  0.0000E+00  0.1400E+02
     -5.652  0.0000E+00  0.1400E+02
     -5.638  0.0000E+00  0.1400E+02
     -5.624  0.0000E+00  0.1400E+02
     -5.610  0.0000E+00  0.1400E+02
     -5.596  0.0000E+00  0.1400E+02
     -5.582  0.0000E+00  0.1400E+02
     -5.568  0.0000E+00  0.1400E+02
     -5.553  0.0000E+00  0.1400E+02
     -5.539  0.0000E+00  0.1400E+02
     -5.525  0.0000E+00  0.1400E+02
     -5.511  0.0000E+00  0.1400E+02
     -5.497  0.0000E+00  0.1400E+02
     -5.482  0.0000E+00  0.1400E+02
     -5.468  0.0000E+00  0.1400E+02
     -5.454  0.0000E+00  0.1400E+02
     -5.440  0.0000E+00  0.1400E+02
     -5.426  0.0000E+00  0.1400E+02
     -5.412  0.0000E+00  0.1400E+02
     -5.398  0.0000E+00  0.1400E+02
     -5.383  0.0000E+00  0.1400E+02
     -5.369  0.0000E+00  0.1400E+02
     -5.355  0.0000E+00  0.1400E+02
     -5.341  0.0000E+00  0.1400E+02
     -5.327  0.0000E+00  0.1400E+02
     -5.312  0.0000E+00  0.1400E+02