unknown system                          
   1.00000000000000     
     3.946846    0.000000    0.000000
     0.000000    3.946846    0.000000
     0.000000    0.000000    3.946846
   Sr   Ti   O 
     1     1     3
Direct
  0.000000  0.000000  0.000000
  0.500000  0.500000  0.500000
  0.500000  0.500000  0.000000
  0.500000  0.000000  0.500000
  0.000000  0.500000  0.500000
 
   24   24   24
 0.40594     0.47865     0.63995     0.77198     0.83285     0.83180     0.74171     0.44919     0.12109     0.29331E-01
 0.13792E-01 0.12012E-01 0.12404E-01 0.12012E-01 0.13792E-01 0.29331E-01 0.12109     0.44919     0.74171     0.83180    
 0.83285     0.77198     0.63995     0.47865     0.47865     0.54176     0.67713     0.78652     0.83591     0.82745    
 0.72356     0.40878     0.10400     0.27281E-01 0.14566E-01 0.13753E-01 0.14498E-01 0.13753E-01 0.14566E-01 0.27281E-01
 0.10400     0.40878     0.72356     0.82745     0.83591     0.78652     0.67713     0.54176     0.63995     0.67713    
 0.75453     0.81664     0.83945     0.80798     0.65296     0.29106     0.69115E-01 0.24830E-01 0.19144E-01 0.22098E-01
 0.24392E-01 0.22098E-01 0.19144E-01 0.24830E-01 0.69115E-01 0.29106     0.65296     0.80798     0.83945     0.81664    
 0.75453     0.67713     0.77198     0.78652     0.81664     0.83762     0.82819     0.74747     0.48424     0.15058    
 0.44379E-01 0.29095E-01 0.36385E-01 0.51367E-01 0.58718E-01 0.51367E-01 0.36385E-01 0.29095E-01 0.44379E-01 0.15058    
 0.48424     0.74747     0.82819     0.83762     0.81664     0.78652     0.83285     0.83591     0.83945     0.82819    
 0.76978     0.57755     0.23751     0.69222E-01 0.40435E-01 0.54988E-01 0.99917E-01 0.15042     0.17016     0.15042    
 0.99917E-01 0.54988E-01 0.40435E-01 0.69222E-01 0.23751     0.57755     0.76978     0.82819     0.83945     0.83591    
 0.83180     0.82745     0.80798     0.74747     0.57755     0.27364     0.87735E-01 0.49537E-01 0.72597E-01 0.16012    
 0.28785     0.37306     0.39821     0.37306     0.28785     0.16012     0.72597E-01 0.49537E-01 0.87735E-01 0.27364    
 0.57755     0.74747     0.80798     0.82745     0.74171     0.72356     0.65296     0.48424     0.23751     0.87735E-01
 0.53102E-01 0.83453E-01 0.20914     0.40677     0.54519     0.60708     0.62397     0.60708     0.54519     0.40677    
 0.20914     0.83453E-01 0.53102E-01 0.87735E-01 0.23751     0.48424     0.65296     0.72356     0.44919     0.40878    
 0.29106     0.15058     0.69222E-01 0.49537E-01 0.83453E-01 0.22775     0.47096     0.64594     0.72910     0.76289    
 0.77185     0.76289     0.72910     0.64594     0.47096     0.22775     0.83453E-01 0.49537E-01 0.69222E-01 0.15058    
 0.29106     0.40878     0.12109     0.10400     0.69115E-01 0.44379E-01 0.40435E-01 0.72597E-01 0.20914     0.47096    
 0.67790     0.77747     0.81548     0.82703     0.82898     0.82703     0.81548     0.77747     0.67790     0.47096    
 0.20914     0.72597E-01 0.40435E-01 0.44379E-01 0.69115E-01 0.10400     0.29331E-01 0.27281E-01 0.24830E-01 0.29095E-01
 0.54988E-01 0.16012     0.40677     0.64594     0.77747     0.82678     0.83381     0.82074     0.81154     0.82074    
 0.83381     0.82678     0.77747     0.64594     0.40677     0.16012     0.54988E-01 0.29095E-01 0.24830E-01 0.27281E-01
 0.13792E-01 0.14566E-01 0.19144E-01 0.36385E-01 0.99917E-01 0.28785     0.54519     0.72910     0.81548     0.83381    
 0.80086     0.73007     0.68725     0.73007     0.80086     0.83381     0.81548     0.72910     0.54519     0.28785    
 0.99917E-01 0.36385E-01 0.19144E-01 0.14566E-01 0.12012E-01 0.13753E-01 0.22098E-01 0.51367E-01 0.15042     0.37306    
 0.60708     0.76289     0.82703     0.82074     0.73007     0.54869     0.44119     0.54869     0.73007     0.82074    
 0.82703     0.76289     0.60708     0.37306     0.15042     0.51367E-01 0.22098E-01 0.13753E-01 0.12404E-01 0.14498E-01
 0.24392E-01 0.58718E-01 0.17016     0.39821     0.62397     0.77185     0.82898     0.81154     0.68725     0.44119    
 0.30785     0.44119     0.68725     0.81154     0.82898     0.77185     0.62397     0.39821     0.17016     0.58718E-01
 0.24392E-01 0.14498E-01 0.12012E-01 0.13753E-01 0.22098E-01 0.51367E-01 0.15042     0.37306     0.60708     0.76289    
 0.82703     0.82074     0.73007     0.54869     0.44119     0.54869     0.73007     0.82074     0.82703     0.76289    
 0.60708     0.37306     0.15042     0.51367E-01 0.22098E-01 0.13753E-01 0.13792E-01 0.14566E-01 0.19144E-01 0.36385E-01
 0.99917E-01 0.28785     0.54519     0.72910     0.81548     0.83381     0.80086     0.73007     0.68725     0.73007    
 0.80086     0.83381     0.81548     0.72910     0.54519     0.28785     0.99917E-01 0.36385E-01 0.19144E-01 0.14566E-01
 0.29331E-01 0.27281E-01 0.24830E-01 0.29095E-01 0.54988E-01 0.16012     0.40677     0.64594     0.77747     0.82678    
 0.83381     0.82074     0.81154     0.82074     0.83381     0.82678     0.77747     0.64594     0.40677     0.16012    
 0.54988E-01 0.29095E-01 0.24830E-01 0.27281E-01 0.12109     0.10400     0.69115E-01 0.44379E-01 0.40435E-01 0.72597E-01
 0.20914     0.47096     0.67790     0.77747     0.81548     0.82703     0.82898     0.82703     0.81548     0.77747    
 0.67790     0.47096     0.20914     0.72597E-01 0.40435E-01 0.44379E-01 0.69115E-01 0.10400     0.44919     0.40878    
 0.29106     0.15058     0.69222E-01 0.49537E-01 0.83453E-01 0.22775     0.47096     0.64594     0.72910     0.76289    
 0.77185     0.76289     0.72910     0.64594     0.47096     0.22775     0.83453E-01 0.49537E-01 0.69222E-01 0.15058    
 0.29106     0.40878     0.74171     0.72356     0.65296     0.48424     0.23751     0.87735E-01 0.53102E-01 0.83453E-01
 0.20914     0.40677     0.54519     0.60708     0.62397     0.60708     0.54519     0.40677     0.20914     0.83453E-01
 0.53102E-01 0.87735E-01 0.23751     0.48424     0.65296     0.72356     0.83180     0.82745     0.80798     0.74747    
 0.57755     0.27364     0.87735E-01 0.49537E-01 0.72597E-01 0.16012     0.28785     0.37306     0.39821     0.37306    
 0.28785     0.16012     0.72597E-01 0.49537E-01 0.87735E-01 0.27364     0.57755     0.74747     0.80798     0.82745    
 0.83285     0.83591     0.83945     0.82819     0.76978     0.57755     0.23751     0.69222E-01 0.40435E-01 0.54988E-01
 0.99917E-01 0.15042     0.17016     0.15042     0.99917E-01 0.54988E-01 0.40435E-01 0.69222E-01 0.23751     0.57755    
 0.76978     0.82819     0.83945     0.83591     0.77198     0.78652     0.81664     0.83762     0.82819     0.74747    
 0.48424     0.15058     0.44379E-01 0.29095E-01 0.36385E-01 0.51367E-01 0.58718E-01 0.51367E-01 0.36385E-01 0.29095E-01
 0.44379E-01 0.15058     0.48424     0.74747     0.82819     0.83762     0.81664     0.78652     0.63995     0.67713    
 0.75453     0.81664     0.83945     0.80798     0.65296     0.29106     0.69115E-01 0.24830E-01 0.19144E-01 0.22098E-01
 0.24392E-01 0.22098E-01 0.19144E-01 0.24830E-01 0.69115E-01 0.29106     0.65296     0.80798     0.83945     0.81664    
 0.75453     0.67713     0.47865     0.54176     0.67713     0.78652     0.83591     0.82745     0.72356     0.40878    
 0.10400     0.27281E-01 0.14566E-01 0.13753E-01 0.14498E-01 0.13753E-01 0.14566E-01 0.27281E-01 0.10400     0.40878    
 0.72356     0.82745     0.83591     0.78652     0.67713     0.54176     0.47865     0.54176     0.67713     0.78652    
 0.83591     0.82745     0.72358     0.40875     0.10401     0.27276E-01 0.14568E-01 0.13752E-01 0.14498E-01 0.13754E-01
 0.14564E-01 0.27286E-01 0.10398     0.40882     0.72355     0.82745     0.83591     0.78652     0.67713     0.54176    
 0.54176     0.59527     0.70793     0.79855     0.83801     0.82225     0.70375     0.37032     0.90418E-01 0.25696E-01
 0.15239E-01 0.15195E-01 0.16181E-01 0.15197E-01 0.15236E-01 0.25704E-01 0.90389E-01 0.37038     0.70372     0.82225    
 0.83800     0.79855     0.70793     0.59527     0.67713     0.70793     0.77204     0.82322     0.83898     0.79986    
 0.62796     0.26155     0.62218E-01 0.23976E-01 0.19423E-01 0.22474E-01 0.24609E-01 0.22475E-01 0.19421E-01 0.23980E-01
 0.62205E-01 0.26159     0.62793     0.79986     0.83898     0.82322     0.77204     0.70793     0.78652     0.79855    
 0.82322     0.83873     0.82368     0.73271     0.45451     0.13643     0.41838E-01 0.28425E-01 0.35010E-01 0.47339E-01
 0.53015E-01 0.47339E-01 0.35009E-01 0.28427E-01 0.41834E-01 0.13644     0.45449     0.73272     0.82368     0.83873    
 0.82322     0.79855     0.83591     0.83801     0.83898     0.82368     0.75763     0.55186     0.21821     0.65048E-01
 0.39377E-01 0.52980E-01 0.91978E-01 0.13321     0.14885     0.13321     0.91979E-01 0.52980E-01 0.39376E-01 0.65050E-01
 0.21821     0.55187     0.75763     0.82368     0.83898     0.83801     0.82745     0.82225     0.79986     0.73271    
 0.55186     0.25271     0.82334E-01 0.48213E-01 0.70539E-01 0.15093     0.26520     0.34149     0.36427     0.34149    
 0.26520     0.15093     0.70539E-01 0.48213E-01 0.82334E-01 0.25271     0.55186     0.73271     0.79986     0.82225    
 0.72358     0.70375     0.62796     0.45451     0.21821     0.82334E-01 0.51627E-01 0.81346E-01 0.20052     0.38818    
 0.52240     0.58392     0.60101     0.58392     0.52240     0.38818     0.20052     0.81346E-01 0.51627E-01 0.82334E-01
 0.21821     0.45451     0.62796     0.70375     0.40875     0.37032     0.26155     0.13643     0.65048E-01 0.48213E-01
 0.81346E-01 0.21922     0.45428     0.62798     0.71342     0.74945     0.75926     0.74945     0.71341     0.62798    
 0.45427     0.21923     0.81345E-01 0.48213E-01 0.65049E-01 0.13643     0.26155     0.37031     0.10401     0.90418E-01
 0.62218E-01 0.41838E-01 0.39377E-01 0.70539E-01 0.20052     0.45428     0.66173     0.76624     0.80848     0.82259    
 0.82548     0.82259     0.80847     0.76626     0.66169     0.45435     0.20047     0.70551E-01 0.39374E-01 0.41837E-01
 0.62223E-01 0.90414E-01 0.27276E-01 0.25696E-01 0.23976E-01 0.28425E-01 0.52980E-01 0.15093     0.38818     0.62798    
 0.76624     0.82162     0.83384     0.82604     0.81948     0.82605     0.83383     0.82165     0.76615     0.62819    
 0.38787     0.15110     0.52931E-01 0.28440E-01 0.23972E-01 0.25696E-01 0.14568E-01 0.15239E-01 0.19423E-01 0.35010E-01
 0.91978E-01 0.26520     0.52240     0.71342     0.80848     0.83384     0.81215     0.75959     0.72794     0.75960    
 0.81214     0.83387     0.80837     0.71375     0.52168     0.26595     0.91666E-01 0.35103E-01 0.19392E-01 0.15250E-01
 0.13752E-01 0.15195E-01 0.22474E-01 0.47339E-01 0.13321     0.34149     0.58392     0.74945     0.82259     0.82604    
 0.75959     0.62591     0.54452     0.62591     0.75958     0.82608     0.82248     0.74985     0.58292     0.34294    
 0.13237     0.47622E-01 0.22380E-01 0.15227E-01 0.14498E-01 0.16181E-01 0.24609E-01 0.53015E-01 0.14885     0.36427    
 0.60101     0.75926     0.82548     0.81948     0.72794     0.54452     0.43608     0.54452     0.72793     0.81951    
 0.82536     0.75968     0.59991     0.36600     0.14771     0.53418E-01 0.24473E-01 0.16228E-01 0.13754E-01 0.15197E-01
 0.22475E-01 0.47339E-01 0.13321     0.34149     0.58392     0.74945     0.82259     0.82605     0.75960     0.62591    
 0.54452     0.62591     0.75959     0.82608     0.82248     0.74985     0.58292     0.34294     0.13237     0.47622E-01
 0.22381E-01 0.15229E-01 0.14564E-01 0.15236E-01 0.19421E-01 0.35009E-01 0.91979E-01 0.26520     0.52240     0.71341    
 0.80847     0.83383     0.81214     0.75958     0.72793     0.75959     0.81213     0.83386     0.80836     0.71375    
 0.52168     0.26595     0.91666E-01 0.35102E-01 0.19390E-01 0.15246E-01 0.27286E-01 0.25704E-01 0.23980E-01 0.28427E-01
 0.52980E-01 0.15093     0.38818     0.62798     0.76626     0.82165     0.83387     0.82608     0.81951     0.82608    
 0.83386     0.82168     0.76617     0.62820     0.38787     0.15110     0.52931E-01 0.28441E-01 0.23976E-01 0.25704E-01
 0.10398     0.90389E-01 0.62205E-01 0.41834E-01 0.39376E-01 0.70539E-01 0.20052     0.45427     0.66169     0.76615    
 0.80837     0.82248     0.82536     0.82248     0.80836     0.76617     0.66164     0.45435     0.20047     0.70552E-01
 0.39374E-01 0.41833E-01 0.62209E-01 0.90384E-01 0.40882     0.37038     0.26159     0.13644     0.65050E-01 0.48213E-01
 0.81346E-01 0.21923     0.45435     0.62819     0.71375     0.74985     0.75968     0.74985     0.71375     0.62820    
 0.45435     0.21923     0.81345E-01 0.48213E-01 0.65050E-01 0.13644     0.26159     0.37038     0.72355     0.70372    
 0.62793     0.45449     0.21821     0.82334E-01 0.51627E-01 0.81345E-01 0.20047     0.38787     0.52168     0.58292    
 0.59991     0.58292     0.52168     0.38787     0.20047     0.81345E-01 0.51627E-01 0.82334E-01 0.21821     0.45449    
 0.62793     0.70372     0.82745     0.82225     0.79986     0.73272     0.55187     0.25271     0.82334E-01 0.48213E-01
 0.70551E-01 0.15110     0.26595     0.34294     0.36600     0.34294     0.26595     0.15110     0.70552E-01 0.48213E-01
 0.82334E-01 0.25271     0.55187     0.73272     0.79986     0.82225     0.83591     0.83800     0.83898     0.82368    
 0.75763     0.55186     0.21821     0.65049E-01 0.39374E-01 0.52931E-01 0.91666E-01 0.13237     0.14771     0.13237    
 0.91666E-01 0.52931E-01 0.39374E-01 0.65050E-01 0.21821     0.55187     0.75763     0.82368     0.83898     0.83800    
 0.78652     0.79855     0.82322     0.83873     0.82368     0.73271     0.45451     0.13643     0.41837E-01 0.28440E-01
 0.35103E-01 0.47622E-01 0.53418E-01 0.47622E-01 0.35102E-01 0.28441E-01 0.41833E-01 0.13644     0.45449     0.73272    
 0.82368     0.83873     0.82322     0.79855     0.67713     0.70793     0.77204     0.82322     0.83898     0.79986    
 0.62796     0.26155     0.62223E-01 0.23972E-01 0.19392E-01 0.22380E-01 0.24473E-01 0.22381E-01 0.19390E-01 0.23976E-01
 0.62209E-01 0.26159     0.62793     0.79986     0.83898     0.82322     0.77204     0.70793     0.54176     0.59527    
 0.70793     0.79855     0.83801     0.82225     0.70375     0.37031     0.90414E-01 0.25696E-01 0.15250E-01 0.15227E-01
 0.16228E-01 0.15229E-01 0.15246E-01 0.25704E-01 0.90384E-01 0.37038     0.70372     0.82225     0.83800     0.79855    
 0.70793     0.59527     0.63995     0.67713     0.75453     0.81664     0.83945     0.80796     0.65301     0.29099    
 0.69140E-01 0.24822E-01 0.19148E-01 0.22096E-01 0.24392E-01 0.22100E-01 0.19140E-01 0.24839E-01 0.69089E-01 0.29113    
 0.65292     0.80799     0.83945     0.81664     0.75453     0.67713     0.67713     0.70793     0.77204     0.82322    
 0.83899     0.79985     0.62799     0.26151     0.62236E-01 0.23969E-01 0.19404E-01 0.22405E-01 0.24510E-01 0.22408E-01
 0.19397E-01 0.23983E-01 0.62195E-01 0.26163     0.62790     0.79987     0.83898     0.82322     0.77204     0.70793    
 0.75453     0.77204     0.80847     0.83554     0.83277     0.76734     0.53843     0.18378     0.47210E-01 0.23302E-01
 0.22188E-01 0.26323E-01 0.28486E-01 0.26325E-01 0.22184E-01 0.23309E-01 0.47190E-01 0.18385     0.53835     0.76736    
 0.83276     0.83554     0.80847     0.77204     0.81664     0.82322     0.83554     0.83722     0.80472     0.67801    
 0.36203     0.10082     0.35884E-01 0.27597E-01 0.33519E-01 0.41763E-01 0.44995E-01 0.41763E-01 0.33518E-01 0.27599E-01
 0.35878E-01 0.10084     0.36199     0.67803     0.80472     0.83722     0.83554     0.82322     0.83945     0.83899    
 0.83277     0.80472     0.71285     0.46864     0.16682     0.54218E-01 0.36555E-01 0.47812E-01 0.73444E-01 0.96057E-01
 0.10386     0.96056E-01 0.73444E-01 0.47813E-01 0.36554E-01 0.54220E-01 0.16682     0.46865     0.71285     0.80473    
 0.83276     0.83899     0.80796     0.79985     0.76734     0.67801     0.46864     0.19652     0.68429E-01 0.44543E-01
 0.64365E-01 0.12492     0.20331     0.25502     0.27091     0.25502     0.20331     0.12492     0.64365E-01 0.44543E-01
 0.68429E-01 0.19652     0.46864     0.67801     0.76734     0.79985     0.65301     0.62799     0.53843     0.36203    
 0.16682     0.68429E-01 0.47691E-01 0.75256E-01 0.17469     0.32984     0.44739     0.50522     0.52202     0.50522    
 0.44739     0.32984     0.17469     0.75255E-01 0.47691E-01 0.68429E-01 0.16682     0.36203     0.53843     0.62799    
 0.29099     0.26151     0.18378     0.10082     0.54218E-01 0.44543E-01 0.75256E-01 0.19438     0.40362     0.57069    
 0.66072     0.70246     0.71453     0.70246     0.66071     0.57070     0.40361     0.19438     0.75254E-01 0.44543E-01
 0.54218E-01 0.10082     0.18378     0.26151     0.69140E-01 0.62236E-01 0.47210E-01 0.35884E-01 0.36555E-01 0.64365E-01
 0.17469     0.40362     0.61045     0.72758     0.78237     0.80409     0.80959     0.80410     0.78235     0.72761    
 0.61038     0.40371     0.17463     0.64381E-01 0.36552E-01 0.35882E-01 0.47213E-01 0.62232E-01 0.24822E-01 0.23969E-01
 0.23302E-01 0.27597E-01 0.47812E-01 0.12492     0.32984     0.57069     0.72758     0.80149     0.82763     0.83166    
 0.83051     0.83166     0.82760     0.80156     0.72741     0.57104     0.32942     0.12512     0.47755E-01 0.27613E-01
 0.23298E-01 0.23969E-01 0.19148E-01 0.19404E-01 0.22188E-01 0.33519E-01 0.73444E-01 0.20331     0.44739     0.66072    
 0.78237     0.82763     0.82982     0.80997     0.79708     0.80998     0.82979     0.82770     0.78214     0.66132    
 0.44633     0.20415     0.73133E-01 0.33619E-01 0.22151E-01 0.19416E-01 0.22096E-01 0.22405E-01 0.26323E-01 0.41763E-01
 0.96057E-01 0.25502     0.50522     0.70246     0.80409     0.83166     0.80997     0.75620     0.72372     0.75621    
 0.80995     0.83173     0.80384     0.70322     0.50365     0.25665     0.95316E-01 0.42029E-01 0.26216E-01 0.22448E-01
 0.24392E-01 0.24510E-01 0.28486E-01 0.44995E-01 0.10386     0.27091     0.52202     0.71453     0.80959     0.83051    
 0.79708     0.72372     0.67919     0.72372     0.79706     0.83059     0.80933     0.71534     0.52027     0.27286    
 0.10291     0.45351E-01 0.28335E-01 0.24573E-01 0.22100E-01 0.22408E-01 0.26325E-01 0.41763E-01 0.96056E-01 0.25502    
 0.50522     0.70246     0.80410     0.83166     0.80998     0.75621     0.72372     0.75622     0.80995     0.83174    
 0.80385     0.70322     0.50365     0.25665     0.95315E-01 0.42029E-01 0.26217E-01 0.22450E-01 0.19140E-01 0.19397E-01
 0.22184E-01 0.33518E-01 0.73444E-01 0.20331     0.44739     0.66071     0.78235     0.82760     0.82979     0.80995    
 0.79706     0.80995     0.82977     0.82768     0.78213     0.66132     0.44633     0.20415     0.73134E-01 0.33618E-01
 0.22148E-01 0.19410E-01 0.24839E-01 0.23983E-01 0.23309E-01 0.27599E-01 0.47813E-01 0.12492     0.32984     0.57070    
 0.72761     0.80156     0.82770     0.83173     0.83059     0.83174     0.82768     0.80162     0.72744     0.57105    
 0.32941     0.12512     0.47756E-01 0.27616E-01 0.23305E-01 0.23982E-01 0.69089E-01 0.62195E-01 0.47190E-01 0.35878E-01
 0.36554E-01 0.64365E-01 0.17469     0.40361     0.61038     0.72741     0.78214     0.80384     0.80933     0.80385    
 0.78213     0.72744     0.61031     0.40371     0.17463     0.64381E-01 0.36551E-01 0.35877E-01 0.47194E-01 0.62191E-01
 0.29113     0.26163     0.18385     0.10084     0.54220E-01 0.44543E-01 0.75255E-01 0.19438     0.40371     0.57104    
 0.66132     0.70322     0.71534     0.70322     0.66132     0.57105     0.40371     0.19439     0.75254E-01 0.44543E-01
 0.54221E-01 0.10083     0.18385     0.26163     0.65292     0.62790     0.53835     0.36199     0.16682     0.68429E-01
 0.47691E-01 0.75254E-01 0.17463     0.32942     0.44633     0.50365     0.52027     0.50365     0.44633     0.32941    
 0.17463     0.75254E-01 0.47691E-01 0.68429E-01 0.16682     0.36199     0.53835     0.62790     0.80799     0.79987    
 0.76736     0.67803     0.46865     0.19652     0.68429E-01 0.44543E-01 0.64381E-01 0.12512     0.20415     0.25665    
 0.27286     0.25665     0.20415     0.12512     0.64381E-01 0.44543E-01 0.68429E-01 0.19652     0.46865     0.67803    
 0.76736     0.79987     0.83945     0.83898     0.83276     0.80472     0.71285     0.46864     0.16682     0.54218E-01
 0.36552E-01 0.47755E-01 0.73133E-01 0.95316E-01 0.10291     0.95315E-01 0.73134E-01 0.47756E-01 0.36551E-01 0.54221E-01
 0.16682     0.46865     0.71284     0.80472     0.83276     0.83898     0.81664     0.82322     0.83554     0.83722    
 0.80473     0.67801     0.36203     0.10082     0.35882E-01 0.27613E-01 0.33619E-01 0.42029E-01 0.45351E-01 0.42029E-01
 0.33618E-01 0.27616E-01 0.35877E-01 0.10083     0.36199     0.67803     0.80472     0.83722     0.83554     0.82322    
 0.75453     0.77204     0.80847     0.83554     0.83276     0.76734     0.53843     0.18378     0.47213E-01 0.23298E-01
 0.22151E-01 0.26216E-01 0.28335E-01 0.26217E-01 0.22148E-01 0.23305E-01 0.47194E-01 0.18385     0.53835     0.76736    
 0.83276     0.83554     0.80847     0.77204     0.67713     0.70793     0.77204     0.82322     0.83899     0.79985    
 0.62799     0.26151     0.62232E-01 0.23969E-01 0.19416E-01 0.22448E-01 0.24573E-01 0.22450E-01 0.19410E-01 0.23982E-01
 0.62191E-01 0.26163     0.62790     0.79987     0.83898     0.82322     0.77204     0.70793     0.77198     0.78652    
 0.81664     0.83761     0.82821     0.74743     0.48434     0.15052     0.44398E-01 0.29086E-01 0.36389E-01 0.51367E-01
 0.58719E-01 0.51368E-01 0.36380E-01 0.29103E-01 0.44359E-01 0.15064     0.48415     0.74750     0.82818     0.83762    
 0.81664     0.78652     0.78652     0.79855     0.82322     0.83873     0.82369     0.73267     0.45459     0.13638    
 0.41852E-01 0.28427E-01 0.35057E-01 0.47470E-01 0.53200E-01 0.47471E-01 0.35051E-01 0.28441E-01 0.41821E-01 0.13649    
 0.45441     0.73275     0.82367     0.83874     0.82322     0.79855     0.81664     0.82322     0.83554     0.83722    
 0.80473     0.67798     0.36207     0.10080     0.35887E-01 0.27603E-01 0.33580E-01 0.41926E-01 0.45214E-01 0.41925E-01
 0.33577E-01 0.27610E-01 0.35871E-01 0.10085     0.36195     0.67805     0.80471     0.83723     0.83554     0.82322    
 0.83761     0.83873     0.83722     0.81874     0.75026     0.54890     0.22243     0.63483E-01 0.31301E-01 0.30234E-01
 0.37748E-01 0.44388E-01 0.46491E-01 0.44387E-01 0.37748E-01 0.30236E-01 0.31296E-01 0.63497E-01 0.22238     0.54894    
 0.75024     0.81875     0.83722     0.83873     0.82821     0.82369     0.80473     0.75026     0.60523     0.32341    
 0.10463     0.41829E-01 0.33996E-01 0.43704E-01 0.58499E-01 0.68324E-01 0.71208E-01 0.68323E-01 0.58500E-01 0.43704E-01
 0.33996E-01 0.41831E-01 0.10463     0.32342     0.60522     0.75026     0.80473     0.82369     0.74743     0.73267    
 0.67798     0.54890     0.32341     0.12576     0.51572E-01 0.39701E-01 0.55811E-01 0.92548E-01 0.13192     0.15611    
 0.16357     0.15611     0.13192     0.92548E-01 0.55811E-01 0.39701E-01 0.51572E-01 0.12576     0.32341     0.54890    
 0.67798     0.73267     0.48434     0.45459     0.36207     0.22243     0.10463     0.51572E-01 0.42383E-01 0.66001E-01
 0.13564     0.23781     0.32044     0.36550     0.37940     0.36550     0.32044     0.23781     0.13564     0.66001E-01
 0.42383E-01 0.51572E-01 0.10463     0.22243     0.36207     0.45459     0.15052     0.13638     0.10080     0.63483E-01
 0.41829E-01 0.39701E-01 0.66001E-01 0.15583     0.31835     0.46519     0.55462     0.60070     0.61493     0.60070    
 0.55462     0.46519     0.31835     0.15583     0.66001E-01 0.39701E-01 0.41830E-01 0.63483E-01 0.10080     0.13638    
 0.44398E-01 0.41852E-01 0.35887E-01 0.31301E-01 0.33996E-01 0.55811E-01 0.13564     0.31835     0.51675     0.64695    
 0.71918     0.75315     0.76282     0.75316     0.71916     0.64698     0.51669     0.31842     0.13561     0.55821E-01
 0.33995E-01 0.31300E-01 0.35889E-01 0.41851E-01 0.29086E-01 0.28427E-01 0.27603E-01 0.30234E-01 0.43704E-01 0.92548E-01
 0.23781     0.46519     0.64695     0.75049     0.79852     0.81660     0.82086     0.81662     0.79848     0.75058    
 0.64675     0.46551     0.23753     0.92659E-01 0.43670E-01 0.30243E-01 0.27602E-01 0.28425E-01 0.36389E-01 0.35057E-01
 0.33580E-01 0.37748E-01 0.58499E-01 0.13192     0.32044     0.55462     0.71918     0.79852     0.82682     0.83150    
 0.83052     0.83152     0.82677     0.79864     0.71886     0.55528     0.31965     0.13235     0.58347E-01 0.37805E-01
 0.33560E-01 0.35061E-01 0.51367E-01 0.47470E-01 0.41926E-01 0.44388E-01 0.68324E-01 0.15611     0.36550     0.60070    
 0.75315     0.81660     0.83150     0.82408     0.81746     0.82409     0.83146     0.81674     0.75276     0.60161    
 0.36424     0.15690     0.68009E-01 0.44522E-01 0.41865E-01 0.47490E-01 0.58719E-01 0.53200E-01 0.45214E-01 0.46491E-01
 0.71208E-01 0.16357     0.37940     0.61493     0.76282     0.82086     0.83052     0.81746     0.80797     0.81747    
 0.83048     0.82099     0.76242     0.61593     0.37795     0.16452     0.70820E-01 0.46662E-01 0.45131E-01 0.53232E-01
 0.51368E-01 0.47471E-01 0.41925E-01 0.44387E-01 0.68323E-01 0.15611     0.36550     0.60070     0.75316     0.81662    
 0.83152     0.82409     0.81747     0.82411     0.83147     0.81675     0.75277     0.60161     0.36424     0.15690    
 0.68008E-01 0.44521E-01 0.41865E-01 0.47491E-01 0.36380E-01 0.35051E-01 0.33577E-01 0.37748E-01 0.58500E-01 0.13192    
 0.32044     0.55462     0.71916     0.79848     0.82677     0.83146     0.83048     0.83147     0.82673     0.79860    
 0.71884     0.55528     0.31965     0.13235     0.58347E-01 0.37805E-01 0.33557E-01 0.35054E-01 0.29103E-01 0.28441E-01
 0.27610E-01 0.30236E-01 0.43704E-01 0.92548E-01 0.23781     0.46519     0.64698     0.75058     0.79864     0.81674    
 0.82099     0.81675     0.79860     0.75067     0.64679     0.46551     0.23753     0.92659E-01 0.43670E-01 0.30245E-01
 0.27609E-01 0.28440E-01 0.44359E-01 0.41821E-01 0.35871E-01 0.31296E-01 0.33996E-01 0.55811E-01 0.13564     0.31835    
 0.51669     0.64675     0.71886     0.75276     0.76242     0.75277     0.71884     0.64679     0.51662     0.31842    
 0.13561     0.55821E-01 0.33994E-01 0.31295E-01 0.35873E-01 0.41819E-01 0.15064     0.13649     0.10085     0.63497E-01
 0.41831E-01 0.39701E-01 0.66001E-01 0.15583     0.31842     0.46551     0.55528     0.60161     0.61593     0.60161    
 0.55528     0.46551     0.31842     0.15584     0.66001E-01 0.39701E-01 0.41831E-01 0.63497E-01 0.10085     0.13649    
 0.48415     0.45441     0.36195     0.22238     0.10463     0.51572E-01 0.42383E-01 0.66001E-01 0.13561     0.23753    
 0.31965     0.36424     0.37795     0.36424     0.31965     0.23753     0.13561     0.66001E-01 0.42383E-01 0.51572E-01
 0.10463     0.22238     0.36195     0.45441     0.74750     0.73275     0.67805     0.54894     0.32342     0.12576    
 0.51572E-01 0.39701E-01 0.55821E-01 0.92659E-01 0.13235     0.15690     0.16452     0.15690     0.13235     0.92659E-01
 0.55821E-01 0.39701E-01 0.51572E-01 0.12576     0.32342     0.54894     0.67805     0.73275     0.82818     0.82367    
 0.80471     0.75024     0.60522     0.32341     0.10463     0.41830E-01 0.33995E-01 0.43670E-01 0.58347E-01 0.68009E-01
 0.70820E-01 0.68008E-01 0.58347E-01 0.43670E-01 0.33994E-01 0.41831E-01 0.10463     0.32342     0.60521     0.75024    
 0.80471     0.82367     0.83762     0.83874     0.83723     0.81875     0.75026     0.54890     0.22243     0.63483E-01
 0.31300E-01 0.30243E-01 0.37805E-01 0.44522E-01 0.46662E-01 0.44521E-01 0.37805E-01 0.30245E-01 0.31295E-01 0.63497E-01
 0.22238     0.54894     0.75024     0.81875     0.83722     0.83874     0.81664     0.82322     0.83554     0.83722    
 0.80473     0.67798     0.36207     0.10080     0.35889E-01 0.27602E-01 0.33560E-01 0.41865E-01 0.45131E-01 0.41865E-01
 0.33557E-01 0.27609E-01 0.35873E-01 0.10085     0.36195     0.67805     0.80471     0.83722     0.83554     0.82322    
 0.78652     0.79855     0.82322     0.83873     0.82369     0.73267     0.45459     0.13638     0.41851E-01 0.28425E-01
 0.35061E-01 0.47490E-01 0.53232E-01 0.47491E-01 0.35054E-01 0.28440E-01 0.41819E-01 0.13649     0.45441     0.73275    
 0.82367     0.83874     0.82322     0.79855     0.83285     0.83591     0.83945     0.82818     0.76982     0.57745    
 0.23760     0.69192E-01 0.40446E-01 0.54985E-01 0.99908E-01 0.15043     0.17016     0.15041     0.99927E-01 0.54992E-01
 0.40424E-01 0.69252E-01 0.23742     0.57764     0.76975     0.82821     0.83945     0.83591     0.83591     0.83800    
 0.83898     0.82367     0.75766     0.55178     0.21829     0.65024E-01 0.39385E-01 0.52955E-01 0.91825E-01 0.13283    
 0.14831     0.13280     0.91840E-01 0.52960E-01 0.39366E-01 0.65074E-01 0.21813     0.55195     0.75760     0.82369    
 0.83898     0.83800     0.83945     0.83898     0.83277     0.80471     0.71288     0.46858     0.16686     0.54206E-01
 0.36557E-01 0.47781E-01 0.73276E-01 0.95672E-01 0.10336     0.95663E-01 0.73284E-01 0.47782E-01 0.36547E-01 0.54233E-01
 0.16678     0.46871     0.71282     0.80474     0.83276     0.83899     0.82818     0.82367     0.80471     0.75023    
 0.60524     0.32338     0.10464     0.41826E-01 0.33997E-01 0.43687E-01 0.58418E-01 0.68158E-01 0.71002E-01 0.68155E-01
 0.58421E-01 0.43687E-01 0.33994E-01 0.41835E-01 0.10462     0.32344     0.60520     0.75025     0.80471     0.82367    
 0.76982     0.75766     0.71288     0.60524     0.39462     0.16334     0.58574E-01 0.34241E-01 0.35955E-01 0.47220E-01
 0.57859E-01 0.62971E-01 0.64201E-01 0.62971E-01 0.57860E-01 0.47219E-01 0.35955E-01 0.34242E-01 0.58570E-01 0.16335    
 0.39461     0.60525     0.71288     0.75767     0.57745     0.55178     0.46858     0.32338     0.16334     0.68829E-01
 0.37963E-01 0.36314E-01 0.50056E-01 0.70486E-01 0.86500E-01 0.94579E-01 0.96870E-01 0.94579E-01 0.86500E-01 0.70487E-01