       N       E                     dE             d eps       ncg     rms          rms(c)
DAV:   1     0.298523616472E+03    0.29852E+03   -0.15471E+04   800   0.157E+03
DAV:   2    -0.170069960494E+02   -0.31553E+03   -0.30353E+03  1076   0.350E+02
DAV:   3    -0.491940267424E+02   -0.32187E+02   -0.31821E+02   952   0.126E+02
DAV:   4    -0.503896236888E+02   -0.11956E+01   -0.11933E+01  1344   0.238E+01
DAV:   5    -0.504197074998E+02   -0.30084E-01   -0.30068E-01  1036   0.303E+00    0.182E+01
RMM:   6    -0.405136139736E+02    0.99061E+01   -0.60719E+01   864   0.444E+01    0.652E+00
RMM:   7    -0.398363953811E+02    0.67722E+00   -0.16535E+00   947   0.104E+01    0.324E+00
RMM:   8    -0.397468186584E+02    0.89577E-01   -0.94187E-01   944   0.774E+00    0.611E-01
RMM:   9    -0.397395128543E+02    0.73058E-02   -0.55968E-02  1091   0.185E+00    0.657E-01
RMM:  10    -0.397357489661E+02    0.37639E-02   -0.17330E-01   967   0.229E+00    0.517E-01
RMM:  11    -0.397320053497E+02    0.37436E-02   -0.44645E-02   980   0.133E+00    0.196E-01
RMM:  12    -0.397309784503E+02    0.10269E-02   -0.45463E-03  1052   0.408E-01    0.127E-01
RMM:  13    -0.397313921405E+02   -0.41369E-03   -0.25589E-03  1072   0.272E-01    0.175E-01
RMM:  14    -0.397308035417E+02    0.58860E-03   -0.37013E-03  1031   0.340E-01    0.102E-02
RMM:  15    -0.397308485537E+02   -0.45012E-04   -0.40906E-04  1131   0.971E-02    0.178E-02
RMM:  16    -0.397308536591E+02   -0.51054E-05   -0.11755E-04  1218   0.488E-02    0.117E-02
RMM:  17    -0.397308524863E+02    0.11728E-05   -0.39687E-05  1053   0.277E-02    0.671E-03
RMM:  18    -0.397308536850E+02   -0.11986E-05   -0.27938E-05  1078   0.271E-02    0.579E-03
RMM:  19    -0.397308532148E+02    0.47022E-06   -0.80414E-06   843   0.153E-02
   1 F= -.39730853E+02 E0= -.39730853E+02  d E =-.359106E-10
