PROCAR lm decomposed
# of k-points:   20         # of bands:   20         # of ions:    5

 k-point     1 :    0.00000000 0.00000000 0.00000000     weight = 0.00291545

band     1 # energy  -30.39612474 # occ.  2.00000000
 
ion      s     py     pz     px    dxy    dyz    dz2    dxz  x2-y2    tot
    1  0.974  0.000  0.000  0.000  0.000  0.000  0.000  0.000  0.000  0.974
    2  0.000  0.000  0.000  0.000  0.000  0.000  0.000  0.000  0.000  0.000
    3  0.000  0.000  0.000  0.000  0.000  0.000  0.000  0.000  0.000  0.000
    4  0.000  0.000  0.000  0.000  0.000  0.000  0.000  0.000  0.000  0.000
    5  0.000  0.000  0.000  0.000  0.000  0.000  0.000  0.000  0.000  0.000
tot    0.975  0.000  0.000  0.000  0.000  0.000  0.000  0.000  0.000  0.975
 
band     2 # energy  -14.91784753 # occ.  2.00000000
 
ion      s     py     pz     px    dxy    dyz    dz2    dxz  x2-y2    tot
    1  0.008  0.000  0.000  0.000  0.000  0.000  0.000  0.000  0.000  0.008
    2  0.138  0.000  0.000  0.000  0.000  0.000  0.000  0.000  0.000  0.138
    3  0.239  0.000  0.000  0.000  0.000  0.000  0.000  0.000  0.000  0.239
    4  0.239  0.000  0.000  0.000  0.000  0.000  0.000  0.000  0.000  0.239
    5  0.239  0.000  0.000  0.000  0.000  0.000  0.000  0.000  0.000  0.239
tot    0.861  0.000  0.000  0.000  0.000  0.000  0.000  0.000  0.000  0.861
 
band     3 # energy  -13.94090297 # occ.  2.00000000
 
ion      s     py     pz     px    dxy    dyz    dz2    dxz  x2-y2    tot
    1  0.000  0.000  0.000  0.000  0.000  0.000  0.001  0.000  0.001  0.002
    2  0.000  0.000  0.000  0.000  0.000  0.000  0.090  0.000  0.050  0.140
    3  0.335  0.000  0.000  0.000  0.000  0.000  0.000  0.000  0.000  0.335
    4  0.300  0.000  0.000  0.000  0.000  0.000  0.000  0.000  0.000  0.300
    5  0.147  0.000  0.000  0.000  0.000  0.000  0.000  0.000  0.000  0.147
tot    0.782  0.000  0.000  0.000  0.000  0.000  0.091  0.000  0.051  0.924
 
band     4 # energy  -13.94090295 # occ.  2.00000000
 
ion      s     py     pz     px    dxy    dyz    dz2    dxz  x2-y2    tot
    1  0.000  0.000  0.000  0.000  0.000  0.000  0.001  0.000  0.001  0.002
    2  0.000  0.000  0.000  0.000  0.000  0.000  0.050  0.000  0.090  0.140
    3  0.186  0.000  0.000  0.000  0.000  0.000  0.000  0.000  0.000  0.186
    4  0.221  0.000  0.000  0.000  0.000  0.000  0.000  0.000  0.000  0.221
    5  0.374  0.000  0.000  0.000  0.000  0.000  0.000  0.000  0.000  0.374
tot    0.782  0.000  0.000  0.000  0.000  0.000  0.051  0.000  0.091  0.924
 
band     5 # energy  -12.44921942 # occ.  2.00000000
 
ion      s     py     pz     px    dxy    dyz    dz2    dxz  x2-y2    tot
    1  0.000  0.325  0.483  0.134  0.000  0.000  0.000  0.000  0.000  0.942
    2  0.000  0.000  0.001  0.000  0.000  0.000  0.000  0.000  0.000  0.001
    3  0.000  0.001  0.000  0.000  0.000  0.000  0.000  0.000  0.000  0.001
    4  0.000  0.000  0.001  0.000  0.000  0.000  0.000  0.000  0.000  0.001
    5  0.000  0.001  0.001  0.000  0.000  0.000  0.000  0.000  0.000  0.002
tot    0.000  0.327  0.485  0.134  0.000  0.000  0.000  0.000  0.000  0.947
 
band     6 # energy  -12.44921942 # occ.  2.00000000
 
ion      s     py     pz     px    dxy    dyz    dz2    dxz  x2-y2    tot
    1  0.000  0.526  0.408  0.008  0.000  0.000  0.000  0.000  0.000  0.942
    2  0.000  0.001  0.000  0.000  0.000  0.000  0.000  0.000  0.000  0.001
    3  0.000  0.001  0.000  0.000  0.000  0.000  0.000  0.000  0.000  0.001
    4  0.000  0.000  0.001  0.000  0.000  0.000  0.000  0.000  0.000  0.001
    5  0.000  0.001  0.001  0.000  0.000  0.000  0.000  0.000  0.000  0.002
tot    0.000  0.529  0.410  0.008  0.000  0.000  0.000  0.000  0.000  0.947
 
band     7 # energy  -12.44921942 # occ.  2.00000000
 
ion      s     py     pz     px    dxy    dyz    dz2    dxz  x2-y2    tot
    1  0.000  0.091  0.051  0.800  0.000  0.000  0.000  0.000  0.000  0.942
    2  0.000  0.000  0.000  0.001  0.000  0.000  0.000  0.000  0.000  0.001
    3  0.000  0.000  0.000  0.002  0.000  0.000  0.000  0.000  0.000  0.002
    4  0.000  0.000  0.000  0.002  0.000  0.000  0.000  0.000  0.000  0.002
    5  0.000  0.000  0.000  0.000  0.000  0.000  0.000  0.000  0.000  0.000
tot    0.000  0.091  0.051  0.805  0.000  0.000  0.000  0.000  0.000  0.947
 
band     8 # energy   -0.39921409 # occ.  2.00000000
 
ion      s     py     pz     px    dxy    dyz    dz2    dxz  x2-y2    tot
    1  0.000  0.013  0.008  0.003  0.000  0.000  0.000  0.000  0.000  0.024
    2  0.000  0.132  0.078  0.032  0.000  0.000  0.000  0.000  0.000  0.242
    3  0.000  0.076  0.097  0.018  0.000  0.000  0.000  0.000  0.000  0.191
    4  0.000  0.165  0.045  0.018  0.000  0.000  0.000  0.000  0.000  0.228
    5  0.000  0.076  0.045  0.040  0.000  0.000  0.000  0.000  0.000  0.161
tot    0.000  0.464  0.271  0.112  0.000  0.000  0.000  0.000  0.000  0.847
 
band     9 # energy   -0.39921409 # occ.  2.00000000
 
ion      s     py     pz     px    dxy    dyz    dz2    dxz  x2-y2    tot
    1  0.000  0.006  0.003  0.015  0.000  0.000  0.000  0.000  0.000  0.024
    2  0.000  0.062  0.034  0.146  0.000  0.000  0.000  0.000  0.000  0.242
    3  0.000  0.036  0.042  0.084  0.000  0.000  0.000  0.000  0.000  0.162
    4  0.000  0.077  0.020  0.084  0.000  0.000  0.000  0.000  0.000  0.181
    5  0.000  0.036  0.020  0.182  0.000  0.000  0.000  0.000  0.000  0.238
tot    0.000  0.217  0.119  0.511  0.000  0.000  0.000  0.000  0.000  0.847
 
band    10 # energy   -0.39921409 # occ.  2.00000000
 
ion      s     py     pz     px    dxy    dyz    dz2    dxz  x2-y2    tot
    1  0.000  0.005  0.013  0.006  0.000  0.000  0.000  0.000  0.000  0.024
    2  0.000  0.048  0.130  0.064  0.000  0.000  0.000  0.000  0.000  0.242
    3  0.000  0.027  0.163  0.037  0.000  0.000  0.000  0.000  0.000  0.227
    4  0.000  0.059  0.075  0.037  0.000  0.000  0.000  0.000  0.000  0.171
    5  0.000  0.027  0.075  0.080  0.000  0.000  0.000  0.000  0.000  0.182
tot    0.000  0.167  0.456  0.224  0.000  0.000  0.000  0.000  0.000  0.847
 
band    11 # energy    1.31037913 # occ.  2.00000000
 
ion      s     py     pz     px    dxy    dyz    dz2    dxz  x2-y2    tot
    1  0.000  0.000  0.000  0.000  0.000  0.000  0.000  0.000  0.000  0.000
    2  0.000  0.000  0.000  0.000  0.000  0.000  0.000  0.000  0.000  0.000
    3  0.000  0.158  0.000  0.039  0.000  0.000  0.000  0.000  0.000  0.197
    4  0.000  0.000  0.151  0.039  0.000  0.000  0.000  0.000  0.000  0.190
    5  0.000  0.158  0.151  0.000  0.000  0.000  0.000  0.000  0.000  0.309
tot    0.000  0.316  0.303  0.077  0.000  0.000  0.000  0.000  0.000  0.696
 
band    12 # energy    1.31037913 # occ.  2.00000000
 
ion      s     py     pz     px    dxy    dyz    dz2    dxz  x2-y2    tot
    1  0.000  0.000  0.000  0.000  0.000  0.000  0.000  0.000  0.000  0.000
    2  0.000  0.000  0.000  0.000  0.000  0.000  0.000  0.000  0.000  0.000
    3  0.000  0.132  0.000  0.027  0.000  0.000  0.000  0.000  0.000  0.159
    4  0.000  0.000  0.189  0.027  0.000  0.000  0.000  0.000  0.000  0.216
    5  0.000  0.132  0.189  0.000  0.000  0.000  0.000  0.000  0.000  0.321
tot    0.000  0.264  0.378  0.054  0.000  0.000  0.000  0.000  0.000  0.696
 
band    13 # energy    1.31037921 # occ.  2.00000000
 
ion      s     py     pz     px    dxy    dyz    dz2    dxz  x2-y2    tot
    1  0.000  0.000  0.000  0.000  0.000  0.000  0.000  0.000  0.000  0.000
    2  0.000  0.000  0.000  0.000  0.000  0.000  0.000  0.000  0.000  0.000
    3  0.000  0.058  0.000  0.282  0.000  0.000  0.000  0.000  0.000  0.340
    4  0.000  0.000  0.008  0.282  0.000  0.000  0.000  0.000  0.000  0.290
    5  0.000  0.058  0.008  0.000  0.000  0.000  0.000  0.000  0.000  0.066
tot    0.000  0.116  0.015  0.565  0.000  0.000  0.000  0.000  0.000  0.696
 
band    14 # energy    2.07983275 # occ.  2.00000000
 
ion      s     py     pz     px    dxy    dyz    dz2    dxz  x2-y2    tot
    1  0.000  0.001  0.002  0.007  0.000  0.000  0.000  0.000  0.000  0.009
    2  0.000  0.006  0.012  0.050  0.000  0.000  0.000  0.000  0.000  0.068
    3  0.000  0.016  0.071  0.135  0.000  0.000  0.000  0.000  0.000  0.221
    4  0.000  0.035  0.033  0.135  0.000  0.000  0.000  0.000  0.000  0.202
    5  0.000  0.016  0.033  0.292  0.000  0.000  0.000  0.000  0.000  0.341
tot    0.000  0.074  0.150  0.618  0.000  0.000  0.000  0.000  0.000  0.841
 
band    15 # energy    2.07983275 # occ.  2.00000000
 
ion      s     py     pz     px    dxy    dyz    dz2    dxz  x2-y2    tot
    1  0.000  0.001  0.006  0.002  0.000  0.000  0.000  0.000  0.000  0.009
    2  0.000  0.006  0.047  0.015  0.000  0.000  0.000  0.000  0.000  0.068
    3  0.000  0.016  0.275  0.041  0.000  0.000  0.000  0.000  0.000  0.332
    4  0.000  0.035  0.127  0.041  0.000  0.000  0.000  0.000  0.000  0.202
    5  0.000  0.016  0.127  0.088  0.000  0.000  0.000  0.000  0.000  0.231
tot    0.000  0.074  0.581  0.186  0.000  0.000  0.000  0.000  0.000  0.841
 
band    16 # energy    2.07983362 # occ.  2.00000000
 
ion      s     py     pz     px    dxy    dyz    dz2    dxz  x2-y2    tot
    1  0.000  0.007  0.001  0.000  0.000  0.000  0.000  0.000  0.000  0.009
    2  0.000  0.056  0.009  0.003  0.000  0.000  0.000  0.000  0.000  0.068
    3  0.000  0.151  0.052  0.008  0.000  0.000  0.000  0.000  0.000  0.211
    4  0.000  0.328  0.024  0.008  0.000  0.000  0.000  0.000  0.000  0.360
    5  0.000  0.151  0.024  0.018  0.000  0.000  0.000  0.000  0.000  0.193
tot    0.000  0.694  0.110  0.037  0.000  0.000  0.000  0.000  0.000  0.841
 
band    17 # energy    4.06023075 # occ.  0.00000000
 
ion      s     py     pz     px    dxy    dyz    dz2    dxz  x2-y2    tot
    1  0.000  0.000  0.000  0.000  0.002  0.003  0.000  0.014  0.000  0.018
    2  0.000  0.000  0.000  0.000  0.095  0.127  0.000  0.664  0.000  0.885
    3  0.000  0.000  0.000  0.000  0.000  0.000  0.000  0.000  0.000  0.000
    4  0.000  0.000  0.000  0.000  0.000  0.000  0.000  0.000  0.000  0.000
    5  0.000  0.000  0.000  0.000  0.000  0.000  0.000  0.000  0.000  0.000
tot    0.000  0.000  0.000  0.000  0.097  0.129  0.000  0.677  0.000  0.903
 
band    18 # energy    4.06023075 # occ.  0.00000000
 
ion      s     py     pz     px    dxy    dyz    dz2    dxz  x2-y2    tot
    1  0.000  0.000  0.000  0.000  0.005  0.009  0.000  0.004  0.000  0.018
    2  0.000  0.000  0.000  0.000  0.224  0.442  0.000  0.219  0.000  0.885
    3  0.000  0.000  0.000  0.000  0.000  0.000  0.000  0.000  0.000  0.000
    4  0.000  0.000  0.000  0.000  0.000  0.000  0.000  0.000  0.000  0.000
    5  0.000  0.000  0.000  0.000  0.000  0.000  0.000  0.000  0.000  0.000
tot    0.000  0.000  0.000  0.000  0.228  0.451  0.000  0.224  0.000  0.903
 
band    19 # energy    4.06024445 # occ.  0.00000000
 
ion      s     py     pz     px    dxy    dyz    dz2    dxz  x2-y2    tot
    1  0.000  0.000  0.000  0.000  0.012  0.006  0.000  0.000  0.000  0.018
    2  0.000  0.000  0.000  0.000  0.567  0.316  0.000  0.002  0.000  0.885
    3  0.000  0.000  0.000  0.000  0.000  0.000  0.000  0.000  0.000  0.000
    4  0.000  0.000  0.000  0.000  0.000  0.000  0.000  0.000  0.000  0.000
    5  0.000  0.000  0.000  0.000  0.000  0.000  0.000  0.000  0.000  0.000
tot    0.000  0.000  0.000  0.000  0.578  0.323  0.000  0.002  0.000  0.903
 
band    20 # energy    7.83832461 # occ.  0.00000000
 
ion      s     py     pz     px    dxy    dyz    dz2    dxz  x2-y2    tot
    1  0.022  0.000  0.000  0.000  0.000  0.000  0.140  0.000  0.256  0.418
    2  0.002  0.000  0.000  0.000  0.000  0.000  0.001  0.000  0.001  0.004
    3  0.019  0.000  0.000  0.000  0.000  0.000  0.000  0.000  0.000  0.019
    4  0.022  0.000  0.000  0.000  0.000  0.000  0.000  0.000  0.000  0.022
    5  0.002  0.000  0.000  0.000  0.000  0.000  0.000  0.000  0.000  0.002
tot    0.067  0.000  0.000  0.000  0.000  0.000  0.141  0.000  0.257  0.465
 

 k-point     2 :    0.14285714 0.00000000 0.00000000     weight = 0.01749271

band     1 # energy  -30.39239580 # occ.  2.00000000
 
ion      s     py     pz     px    dxy    dyz    dz2    dxz  x2-y2    tot
    1  0.975  0.000  0.000  0.000  0.000  0.000  0.000  0.000  0.000  0.975
    2  0.000  0.000  0.000  0.000  0.000  0.000  0.000  0.000  0.000  0.000
    3  0.000  0.000  0.000  0.000  0.000  0.000  0.000  0.000  0.000  0.000
    4  0.000  0.000  0.000  0.000  0.000  0.000  0.000  0.000  0.000  0.000
    5  0.000  0.000  0.000  0.000  0.000  0.000  0.000  0.000  0.000  0.000
tot    0.976  0.000  0.000  0.000  0.000  0.000  0.000  0.000  0.000  0.976
 
band     2 # energy  -14.92881058 # occ.  2.00000000
 
ion      s     py     pz     px    dxy    dyz    dz2    dxz  x2-y2    tot
    1  0.006  0.000  0.000  0.029  0.000  0.000  0.000  0.000  0.000  0.035
    2  0.127  0.000  0.000  0.002  0.000  0.000  0.001  0.000  0.002  0.131
    3  0.265  0.000  0.000  0.000  0.000  0.000  0.000  0.000  0.000  0.265
    4  0.265  0.000  0.000  0.000  0.000  0.000  0.000  0.000  0.000  0.265
    5  0.163  0.000  0.000  0.000  0.000  0.000  0.000  0.000  0.000  0.163
tot    0.826  0.000  0.000  0.031  0.000  0.000  0.001  0.000  0.002  0.859
 
band     3 # energy  -13.96687997 # occ.  2.00000000
 
ion      s     py     pz     px    dxy    dyz    dz2    dxz  x2-y2    tot
    1  0.000  0.000  0.000  0.026  0.000  0.000  0.000  0.000  0.001  0.027
    2  0.001  0.000  0.000  0.010  0.000  0.000  0.029  0.000  0.087  0.126
    3  0.080  0.000  0.000  0.000  0.000  0.000  0.000  0.000  0.000  0.080
    4  0.080  0.000  0.000  0.000  0.000  0.000  0.000  0.000  0.000  0.080
    5  0.596  0.000  0.000  0.000  0.000  0.000  0.000  0.000  0.000  0.596
tot    0.757  0.000  0.000  0.036  0.000  0.000  0.029  0.000  0.088  0.910
 
band     4 # energy  -13.93408144 # occ.  2.00000000
 
ion      s     py     pz     px    dxy    dyz    dz2    dxz  x2-y2    tot
    1  0.000  0.000  0.000  0.000  0.000  0.000  0.001  0.000  0.000  0.001
    2  0.000  0.000  0.000  0.000  0.000  0.000  0.105  0.000  0.035  0.141
    3  0.391  0.000  0.000  0.000  0.000  0.000  0.000  0.000  0.000  0.391
    4  0.391  0.000  0.000  0.000  0.000  0.000  0.000  0.000  0.000  0.391
    5  0.000  0.000  0.000  0.000  0.000  0.000  0.000  0.000  0.000  0.000
tot    0.783  0.000  0.000  0.000  0.000  0.000  0.106  0.000  0.035  0.924
 
band     5 # energy  -12.44125101 # occ.  2.00000000
 
ion      s     py     pz     px    dxy    dyz    dz2    dxz  x2-y2    tot
    1  0.000  0.480  0.463  0.000  0.000  0.000  0.000  0.000  0.000  0.943
    2  0.000  0.000  0.000  0.000  0.000  0.000  0.000  0.000  0.000  0.001
    3  0.000  0.001  0.000  0.000  0.000  0.000  0.000  0.000  0.000  0.001
    4  0.000  0.000  0.001  0.000  0.000  0.000  0.000  0.000  0.000  0.001
    5  0.000  0.001  0.001  0.000  0.000  0.000  0.000  0.000  0.000  0.002
tot    0.000  0.482  0.465  0.000  0.000  0.000  0.000  0.000  0.000  0.948
 
band     6 # energy  -12.44125101 # occ.  2.00000000
 
ion      s     py     pz     px    dxy    dyz    dz2    dxz  x2-y2    tot
    1  0.000  0.463  0.480  0.000  0.000  0.000  0.000  0.000  0.000  0.943
    2  0.000  0.000  0.000  0.000  0.000  0.000  0.000  0.000  0.000  0.001
    3  0.000  0.001  0.000  0.000  0.000  0.000  0.000  0.000  0.000  0.001
    4  0.000  0.000  0.001  0.000  0.000  0.000  0.000  0.000  0.000  0.001
    5  0.000  0.001  0.001  0.000  0.000  0.000  0.000  0.000  0.000  0.002
tot    0.000  0.465  0.482  0.000  0.000  0.000  0.000  0.000  0.000  0.948
 
band     7 # energy  -12.32146790 # occ.  2.00000000
 
ion      s     py     pz     px    dxy    dyz    dz2    dxz  x2-y2    tot
    1  0.000  0.000  0.000  0.888  0.000  0.000  0.000  0.000  0.000  0.888
    2  0.003  0.000  0.000  0.000  0.000  0.000  0.002  0.000  0.005  0.010
    3  0.025  0.000  0.000  0.001  0.000  0.000  0.000  0.000  0.000  0.026
    4  0.025  0.000  0.000  0.001  0.000  0.000  0.000  0.000  0.000  0.026
    5  0.004  0.000  0.000  0.000  0.000  0.000  0.000  0.000  0.000  0.004
tot    0.057  0.000  0.000  0.892  0.000  0.000  0.002  0.000  0.005  0.955
 
band     8 # energy   -0.65290502 # occ.  2.00000000
 
ion      s     py     pz     px    dxy    dyz    dz2    dxz  x2-y2    tot
    1  0.002  0.000  0.000  0.018  0.000  0.000  0.000  0.000  0.000  0.020
    2  0.017  0.000  0.000  0.211  0.000  0.000  0.016  0.000  0.047  0.290
    3  0.000  0.000  0.000  0.107  0.000  0.000  0.000  0.000  0.000  0.107
    4  0.000  0.000  0.000  0.107  0.000  0.000  0.000  0.000  0.000  0.107
    5  0.000  0.000  0.000  0.349  0.000  0.000  0.000  0.000  0.000  0.349
tot    0.019  0.000  0.000  0.791  0.000  0.000  0.016  0.000  0.047  0.872
 
band     9 # energy   -0.40731364 # occ.  2.00000000
 
ion      s     py     pz     px    dxy    dyz    dz2    dxz  x2-y2    tot
    1  0.000  0.016  0.006  0.000  0.002  0.000  0.000  0.001  0.000  0.025
    2  0.000  0.171  0.062  0.000  0.005  0.000  0.000  0.002  0.000  0.240
    3  0.000  0.112  0.078  0.000  0.000  0.000  0.000  0.000  0.000  0.189
    4  0.000  0.214  0.041  0.000  0.000  0.000  0.000  0.000  0.000  0.254
    5  0.000  0.097  0.035  0.000  0.000  0.000  0.000  0.000  0.000  0.132
tot    0.000  0.610  0.221  0.000  0.007  0.000  0.000  0.003  0.000  0.841
 
band    10 # energy   -0.40731364 # occ.  2.00000000
 
ion      s     py     pz     px    dxy    dyz    dz2    dxz  x2-y2    tot
    1  0.000  0.006  0.016  0.000  0.001  0.000  0.000  0.002  0.000  0.025
    2  0.000  0.062  0.171  0.000  0.002  0.000  0.000  0.005  0.000  0.240
    3  0.000  0.041  0.214  0.000  0.000  0.000  0.000  0.000  0.000  0.254
    4  0.000  0.078  0.112  0.000  0.000  0.000  0.000  0.000  0.000  0.189
    5  0.000  0.035  0.097  0.000  0.000  0.000  0.000  0.000  0.000  0.132
tot    0.000  0.221  0.610  0.000  0.003  0.000  0.000  0.007  0.000  0.841
 
band    11 # energy    1.05122721 # occ.  2.00000000
 
ion      s     py     pz     px    dxy    dyz    dz2    dxz  x2-y2    tot
    1  0.000  0.000  0.001  0.000  0.000  0.000  0.000  0.006  0.000  0.007
    2  0.000  0.000  0.002  0.000  0.002  0.000  0.000  0.064  0.000  0.068
    3  0.000  0.007  0.006  0.000  0.000  0.000  0.000  0.000  0.000  0.012
    4  0.000  0.000  0.237  0.000  0.000  0.000  0.000  0.000  0.000  0.237
    5  0.000  0.010  0.373  0.000  0.000  0.000  0.000  0.000  0.000  0.383
tot    0.000  0.017  0.618  0.000  0.002  0.000  0.000  0.070  0.000  0.708
 
band    12 # energy    1.05122721 # occ.  2.00000000
 
ion      s     py     pz     px    dxy    dyz    dz2    dxz  x2-y2    tot
    1  0.000  0.001  0.000  0.000  0.006  0.000  0.000  0.000  0.000  0.007
    2  0.000  0.002  0.000  0.000  0.064  0.000  0.000  0.002  0.000  0.068
    3  0.000  0.237  0.000  0.000  0.000  0.000  0.000  0.000  0.000  0.237
    4  0.000  0.006  0.007  0.000  0.000  0.000  0.000  0.000  0.000  0.012
    5  0.000  0.373  0.010  0.000  0.000  0.000  0.000  0.000  0.000  0.383
tot    0.000  0.618  0.017  0.000  0.070  0.000  0.000  0.002  0.000  0.708
 
band    13 # energy    1.14415697 # occ.  2.00000000
 
ion      s     py     pz     px    dxy    dyz    dz2    dxz  x2-y2    tot
    1  0.000  0.000  0.000  0.000  0.000  0.000  0.009  0.000  0.003  0.013
    2  0.000  0.000  0.000  0.000  0.000  0.000  0.000  0.000  0.000  0.000
    3  0.000  0.000  0.000  0.333  0.000  0.000  0.000  0.000  0.000  0.333
    4  0.000  0.000  0.000  0.333  0.000  0.000  0.000  0.000  0.000  0.333
    5  0.000  0.000  0.000  0.000  0.000  0.000  0.000  0.000  0.000  0.000
tot    0.000  0.000  0.000  0.666  0.000  0.000  0.010  0.000  0.003  0.679
 
band    14 # energy    1.49833476 # occ.  2.00000000
 
ion      s     py     pz     px    dxy    dyz    dz2    dxz  x2-y2    tot
    1  0.006  0.000  0.000  0.008  0.000  0.000  0.000  0.000  0.000  0.014
    2  0.011  0.000  0.000  0.022  0.000  0.000  0.016  0.000  0.048  0.097
    3  0.000  0.000  0.000  0.200  0.000  0.000  0.000  0.000  0.000  0.201
    4  0.000  0.000  0.000  0.200  0.000  0.000  0.000  0.000  0.000  0.201
    5  0.012  0.000  0.000  0.275  0.000  0.000  0.000  0.000  0.000  0.287
tot    0.029  0.000  0.000  0.706  0.000  0.000  0.016  0.000  0.048  0.799
 
band    15 # energy    1.95834864 # occ.  2.00000000
 
ion      s     py     pz     px    dxy    dyz    dz2    dxz  x2-y2    tot
    1  0.000  0.000  0.007  0.000  0.000  0.000  0.000  0.001  0.000  0.008
    2  0.000  0.002  0.073  0.000  0.000  0.000  0.000  0.021  0.000  0.096
    3  0.000  0.005  0.385  0.000  0.000  0.000  0.000  0.000  0.000  0.390
    4  0.000  0.008  0.256  0.000  0.000  0.000  0.000  0.000  0.000  0.264
    5  0.000  0.002  0.085  0.000  0.000  0.000  0.000  0.000  0.000  0.087
tot    0.000  0.017  0.807  0.000  0.000  0.000  0.000  0.022  0.000  0.846
 
band    16 # energy    1.95834865 # occ.  2.00000000
 
ion      s     py     pz     px    dxy    dyz    dz2    dxz  x2-y2    tot
    1  0.000  0.007  0.000  0.000  0.001  0.000  0.000  0.000  0.000  0.008
    2  0.000  0.073  0.002  0.000  0.021  0.000  0.000  0.000  0.000  0.096
    3  0.000  0.256  0.008  0.000  0.000  0.000  0.000  0.000  0.000  0.264
    4  0.000  0.385  0.005  0.000  0.000  0.000  0.000  0.000  0.000  0.390
    5  0.000  0.085  0.002  0.000  0.000  0.000  0.000  0.000  0.000  0.087
tot    0.000  0.807  0.017  0.000  0.022  0.000  0.000  0.000  0.000  0.846
 
band    17 # energy    4.08657213 # occ.  0.00000000
 
ion      s     py     pz     px    dxy    dyz    dz2    dxz  x2-y2    tot
    1  0.000  0.000  0.000  0.000  0.000  0.015  0.000  0.000  0.000  0.015
    2  0.000  0.000  0.000  0.000  0.000  0.891  0.000  0.000  0.000  0.891
    3  0.000  0.000  0.000  0.000  0.000  0.000  0.000  0.000  0.000  0.000
    4  0.000  0.000  0.000  0.000  0.000  0.000  0.000  0.000  0.000  0.000
    5  0.000  0.000  0.000  0.000  0.000  0.000  0.000  0.000  0.000  0.000
tot    0.000  0.000  0.000  0.000  0.000  0.906  0.000  0.000  0.000  0.906
 
band    18 # energy    4.48688959 # occ.  0.00000000
 
ion      s     py     pz     px    dxy    dyz    dz2    dxz  x2-y2    tot
    1  0.000  0.000  0.000  0.000  0.001  0.000  0.000  0.012  0.000  0.013
    2  0.000  0.000  0.000  0.000  0.073  0.000  0.000  0.733  0.000  0.806
    3  0.000  0.000  0.007  0.000  0.000  0.000  0.000  0.000  0.000  0.007
    4  0.000  0.001  0.002  0.000  0.000  0.000  0.000  0.000  0.000  0.003
    5  0.000  0.006  0.065  0.000  0.000  0.000  0.000  0.000  0.000  0.072
tot    0.000  0.007  0.074  0.000  0.074  0.000  0.000  0.744  0.000  0.900
 
band    19 # energy    4.48688972 # occ.  0.00000000
 
ion      s     py     pz     px    dxy    dyz    dz2    dxz  x2-y2    tot
    1  0.000  0.000  0.000  0.000  0.012  0.000  0.000  0.001  0.000  0.013
    2  0.000  0.000  0.000  0.000  0.733  0.000  0.000  0.073  0.000  0.806
    3  0.000  0.002  0.001  0.000  0.000  0.000  0.000  0.000  0.000  0.003
    4  0.000  0.007  0.000  0.000  0.000  0.000  0.000  0.000  0.000  0.007
    5  0.000  0.065  0.006  0.000  0.000  0.000  0.000  0.000  0.000  0.072
tot    0.000  0.074  0.007  0.000  0.744  0.000  0.000  0.074  0.000  0.900
 
band    20 # energy    8.12592768 # occ.  0.00000000
 
ion      s     py     pz     px    dxy    dyz    dz2    dxz  x2-y2    tot
    1  0.005  0.000  0.000  0.000  0.000  0.000  0.377  0.000  0.049  0.431
    2  0.000  0.000  0.000  0.000  0.000  0.000  0.001  0.000  0.000  0.001
    3  0.013  0.000  0.000  0.014  0.000  0.000  0.000  0.000  0.000  0.027
    4  0.008  0.000  0.000  0.022  0.000  0.000  0.000  0.000  0.000  0.031
    5  0.007  0.000  0.000  0.000  0.000  0.000  0.000  0.000  0.000  0.007
tot    0.034  0.000  0.000  0.037  0.000  0.000  0.378  0.000  0.049  0.498
 

 k-point     3 :    0.28571429 0.00000000 0.00000000     weight = 0.01749271

band     1 # energy  -30.38399527 # occ.  2.00000000
 
ion      s     py     pz     px    dxy    dyz    dz2    dxz  x2-y2    tot
    1  0.976  0.000  0.000  0.000  0.000  0.000  0.000  0.000  0.000  0.976
    2  0.000  0.000  0.000  0.000  0.000  0.000  0.000  0.000  0.000  0.000
    3  0.000  0.000  0.000  0.000  0.000  0.000  0.000  0.000  0.000  0.000
    4  0.000  0.000  0.000  0.000  0.000  0.000  0.000  0.000  0.000  0.000
    5  0.000  0.000  0.000  0.000  0.000  0.000  0.000  0.000  0.000  0.000
tot    0.976  0.000  0.000  0.000  0.000  0.000  0.000  0.000  0.000  0.976
 
band     2 # energy  -15.00565920 # occ.  2.00000000
 
ion      s     py     pz     px    dxy    dyz    dz2    dxz  x2-y2    tot
    1  0.003  0.000  0.000  0.101  0.000  0.000  0.000  0.000  0.000  0.104
    2  0.102  0.000  0.000  0.002  0.000  0.000  0.004  0.000  0.013  0.121
    3  0.294  0.000  0.000  0.000  0.000  0.000  0.000  0.000  0.000  0.294
    4  0.294  0.000  0.000  0.000  0.000  0.000  0.000  0.000  0.000  0.294
    5  0.047  0.000  0.000  0.000  0.000  0.000  0.000  0.000  0.000  0.047
tot    0.738  0.000  0.000  0.103  0.000  0.000  0.004  0.000  0.013  0.859
 
band     3 # energy  -13.91862890 # occ.  2.00000000
 
ion      s     py     pz     px    dxy    dyz    dz2    dxz  x2-y2    tot
    1  0.000  0.000  0.000  0.000  0.000  0.000  0.000  0.000  0.000  0.001
    2  0.000  0.000  0.000  0.000  0.000  0.000  0.106  0.000  0.035  0.141
    3  0.392  0.000  0.000  0.000  0.000  0.000  0.000  0.000  0.000  0.392
    4  0.392  0.000  0.000  0.000  0.000  0.000  0.000  0.000  0.000  0.392
    5  0.000  0.000  0.000  0.000  0.000  0.000  0.000  0.000  0.000  0.000
tot    0.784  0.000  0.000  0.000  0.000  0.000  0.106  0.000  0.035  0.926
 
band     4 # energy  -13.91573357 # occ.  2.00000000
 
ion      s     py     pz     px    dxy    dyz    dz2    dxz  x2-y2    tot
    1  0.002  0.000  0.000  0.022  0.000  0.000  0.000  0.000  0.001  0.025
    2  0.004  0.000  0.000  0.037  0.000  0.000  0.014  0.000  0.041  0.097
    3  0.019  0.000  0.000  0.000  0.000  0.000  0.000  0.000  0.000  0.019
    4  0.019  0.000  0.000  0.000  0.000  0.000  0.000  0.000  0.000  0.019
    5  0.719  0.000  0.000  0.000  0.000  0.000  0.000  0.000  0.000  0.720
tot    0.763  0.000  0.000  0.060  0.000  0.000  0.014  0.000  0.042  0.879
 
band     5 # energy  -12.42322669 # occ.  2.00000000
 
ion      s     py     pz     px    dxy    dyz    dz2    dxz  x2-y2    tot
    1  0.000  0.918  0.027  0.000  0.000  0.000  0.000  0.000  0.000  0.945
    2  0.000  0.000  0.000  0.000  0.001  0.000  0.000  0.000  0.000  0.001
    3  0.000  0.001  0.000  0.000  0.000  0.000  0.000  0.000  0.000  0.001
    4  0.000  0.000  0.000  0.000  0.000  0.000  0.000  0.000  0.000  0.000
    5  0.000  0.002  0.000  0.000  0.000  0.000  0.000  0.000  0.000  0.002
tot    0.000  0.921  0.027  0.000  0.001  0.000  0.000  0.000  0.000  0.949
 
band     6 # energy  -12.42322669 # occ.  2.00000000
 
ion      s     py     pz     px    dxy    dyz    dz2    dxz  x2-y2    tot
    1  0.000  0.027  0.918  0.000  0.000  0.000  0.000  0.000  0.000  0.945
    2  0.000  0.000  0.000  0.000  0.000  0.000  0.000  0.001  0.000  0.001
    3  0.000  0.000  0.000  0.000  0.000  0.000  0.000  0.000  0.000  0.000
    4  0.000  0.000  0.001  0.000  0.000  0.000  0.000  0.000  0.000  0.001
    5  0.000  0.000  0.002  0.000  0.000  0.000  0.000  0.000  0.000  0.002
tot    0.000  0.027  0.921  0.000  0.000  0.000  0.000  0.001  0.000  0.949
 
band     7 # energy  -12.08281271 # occ.  2.00000000
 
ion      s     py     pz     px    dxy    dyz    dz2    dxz  x2-y2    tot
    1  0.000  0.000  0.000  0.822  0.000  0.000  0.000  0.000  0.000  0.822
    2  0.009  0.000  0.000  0.000  0.000  0.000  0.003  0.000  0.008  0.020
    3  0.060  0.000  0.000  0.001  0.000  0.000  0.000  0.000  0.000  0.061
    4  0.060  0.000  0.000  0.001  0.000  0.000  0.000  0.000  0.000  0.061
    5  0.005  0.000  0.000  0.000  0.000  0.000  0.000  0.000  0.000  0.005
tot    0.134  0.000  0.000  0.823  0.000  0.000  0.003  0.000  0.008  0.968
 
band     8 # energy   -1.24816609 # occ.  2.00000000
 
ion      s     py     pz     px    dxy    dyz    dz2    dxz  x2-y2    tot
    1  0.002  0.000  0.000  0.007  0.000  0.000  0.000  0.000  0.000  0.010
    2  0.065  0.000  0.000  0.112  0.000  0.000  0.057  0.000  0.172  0.407
    3  0.000  0.000  0.000  0.041  0.000  0.000  0.000  0.000  0.000  0.041
    4  0.000  0.000  0.000  0.041  0.000  0.000  0.000  0.000  0.000  0.041
    5  0.000  0.000  0.000  0.448  0.000  0.000  0.000  0.000  0.000  0.448
tot    0.068  0.000  0.000  0.650  0.000  0.000  0.057  0.000  0.172  0.948
 
band     9 # energy   -0.41331824 # occ.  2.00000000
 
ion      s     py     pz     px    dxy    dyz    dz2    dxz  x2-y2    tot
    1  0.000  0.009  0.005  0.000  0.008  0.000  0.000  0.004  0.000  0.027
    2  0.000  0.138  0.076  0.000  0.011  0.000  0.000  0.006  0.000  0.231
    3  0.000  0.126  0.096  0.000  0.000  0.000  0.000  0.000  0.000  0.222
    4  0.000  0.175  0.069  0.000  0.000  0.000  0.000  0.000  0.000  0.244
    5  0.000  0.065  0.036  0.000  0.000  0.000  0.000  0.000  0.000  0.101
tot    0.000  0.514  0.281  0.000  0.019  0.000  0.000  0.011  0.000  0.825
 
band    10 # energy   -0.41331824 # occ.  2.00000000
 
ion      s     py     pz     px    dxy    dyz    dz2    dxz  x2-y2    tot
    1  0.000  0.005  0.009  0.000  0.004  0.000  0.000  0.008  0.000  0.027
    2  0.000  0.076  0.138  0.000  0.006  0.000  0.000  0.011  0.000  0.231
    3  0.000  0.069  0.175  0.000  0.000  0.000  0.000  0.000  0.000  0.244
    4  0.000  0.096  0.126  0.000  0.000  0.000  0.000  0.000  0.000  0.222
    5  0.000  0.036  0.065  0.000  0.000  0.000  0.000  0.000  0.000  0.101
tot    0.000  0.281  0.514  0.000  0.011  0.000  0.000  0.019  0.000  0.825
 
band    11 # energy    0.54602310 # occ.  2.00000000
 
ion      s     py     pz     px    dxy    dyz    dz2    dxz  x2-y2    tot
    1  0.000  0.003  0.003  0.000  0.005  0.000  0.000  0.005  0.000  0.015
    2  0.000  0.004  0.004  0.000  0.074  0.000  0.000  0.079  0.000  0.161