<?xml version="1.0" encoding="ISO-8859-1"?>
<modeling>
 <generator>
  <i name="program" type="string">vasp </i>
  <i name="version" type="string">5.4.4.18Apr17-6-g9f103f2a35  </i>
  <i name="subversion" type="string">(build Jun 30 2017 11:15:00) complex            parallel </i>
  <i name="platform" type="string">STALLO_VASP_5.4.4 </i>
  <i name="date" type="string">2019 11 08 </i>
  <i name="time" type="string">15:20:32 </i>
 </generator>
 <incar>
  <i type="string" name="PREC">normal    ! low/normal/accurate</i>
  <i type="string" name="ALGO"> Fast      ! Algorithm for electronic re</i>
  <i type="int" name="ISPIN">     1</i>
  <i type="int" name="NELMIN">     4</i>
  <i name="EDIFF">      0.00000100</i>
  <i type="int" name="NSW">     0</i>
  <i name="ENCUT">    500.00000000</i>
  <i type="int" name="NEDOS">  2401</i>
  <i type="string" name="LREAL"> Auto      ! Projection in reciprocal sp</i>
  <i name="EMIN">    -17.00000000</i>
  <i name="EMAX">     17.00000000</i>
  <i type="int" name="ISMEAR">     0</i>
  <i name="SIGMA">      0.10000000</i>
  <i type="logical" name="LWAVE"> F  </i>
  <i type="int" name="LORBIT">    11</i>
  <i type="logical" name="LELF"> T  </i>
  <v type="int" name="KPOINT_BSE">    -1     0     0     0</v>
 </incar>
 <structure name="primitive_cell" >
  <crystal>
   <varray name="basis" >
    <v>       3.94684634       0.00000000       0.00000000 </v>
    <v>       0.00000000       3.94684634       0.00000000 </v>
    <v>       0.00000000       0.00000000       3.94684634 </v>
   </varray>
   <i name="volume">     61.48237796 </i>
   <varray name="rec_basis" >
    <v>       0.25336684       0.00000000       0.00000000 </v>
    <v>       0.00000000       0.25336684       0.00000000 </v>
    <v>       0.00000000       0.00000000       0.25336684 </v>
   </varray>
  </crystal>
  <varray name="positions" >
   <v>       0.00000000       0.00000000       0.00000000 </v>
   <v>      -0.50000000      -0.50000000       0.00000000 </v>
   <v>      -0.50000000       0.00000000      -0.50000000 </v>
   <v>       0.00000000      -0.50000000      -0.50000000 </v>
   <v>      -0.50000000      -0.50000000      -0.50000000 </v>
  </varray>
 </structure>
 <varray name="primitive_index" >
  <v type="int" >        1 </v>
  <v type="int" >        3 </v>
  <v type="int" >        4 </v>
  <v type="int" >        5 </v>
  <v type="int" >        2 </v>
 </varray>
 <kpoints>
  <generation param="Gamma">
   <v type="int" name="divisions">       7        7        7 </v>
   <v name="usershift">      0.00000000       0.00000000       0.00000000 </v>
   <v name="genvec1">      0.14285714       0.00000000       0.00000000 </v>
   <v name="genvec2">      0.00000000       0.14285714       0.00000000 </v>
   <v name="genvec3">      0.00000000       0.00000000       0.14285714 </v>
   <v name="shift">      0.00000000       0.00000000       0.00000000 </v>
  </generation>
  <varray name="kpointlist" >
   <v>       0.00000000       0.00000000       0.00000000 </v>
   <v>       0.14285714       0.00000000       0.00000000 </v>
   <v>       0.28571429       0.00000000       0.00000000 </v>
   <v>       0.42857143       0.00000000       0.00000000 </v>
   <v>       0.14285714       0.14285714       0.00000000 </v>
   <v>       0.28571429       0.14285714       0.00000000 </v>
   <v>       0.42857143       0.14285714       0.00000000 </v>
   <v>       0.28571429       0.28571429       0.00000000 </v>
   <v>       0.42857143       0.28571429       0.00000000 </v>
   <v>       0.42857143       0.42857143       0.00000000 </v>
   <v>       0.14285714       0.14285714       0.14285714 </v>
   <v>       0.28571429       0.14285714       0.14285714 </v>
   <v>       0.42857143       0.14285714       0.14285714 </v>
   <v>       0.28571429       0.28571429       0.14285714 </v>
   <v>       0.42857143       0.28571429       0.14285714 </v>
   <v>       0.42857143       0.42857143       0.14285714 </v>
   <v>       0.28571429       0.28571429       0.28571429 </v>
   <v>       0.42857143       0.28571429       0.28571429 </v>
   <v>       0.42857143       0.42857143       0.28571429 </v>
   <v>       0.42857143       0.42857143       0.42857143 </v>
  </varray>
  <varray name="weights" >
   <v>       0.00291545 </v>
   <v>       0.01749271 </v>
   <v>       0.01749271 </v>
   <v>       0.01749271 </v>
   <v>       0.03498542 </v>
   <v>       0.06997085 </v>
   <v>       0.06997085 </v>
   <v>       0.03498542 </v>
   <v>       0.06997085 </v>
   <v>       0.03498542 </v>
   <v>       0.02332362 </v>
   <v>       0.06997085 </v>
   <v>       0.06997085 </v>
   <v>       0.06997085 </v>
   <v>       0.13994169 </v>
   <v>       0.06997085 </v>
   <v>       0.02332362 </v>
   <v>       0.06997085 </v>
   <v>       0.06997085 </v>
   <v>       0.02332362 </v>
  </varray>
 </kpoints>
 <parameters>
  <separator name="general" >
   <i type="string" name="SYSTEM">unknown system</i>
   <i type="logical" name="LCOMPAT"> F  </i>
  </separator>
  <separator name="electronic" >
   <i type="string" name="PREC">normal</i>
   <i name="ENMAX">    500.00000000</i>
   <i name="ENAUG">    605.39200000</i>
   <i name="EDIFF">      0.00000100</i>
   <i type="int" name="IALGO">    68</i>
   <i type="int" name="IWAVPR">    10</i>
   <i type="int" name="NBANDS">    20</i>
   <i name="NELECT">     32.00000000</i>
   <i type="int" name="TURBO">     0</i>
   <i type="int" name="IRESTART">     0</i>
   <i type="int" name="NREBOOT">     0</i>
   <i type="int" name="NMIN">     0</i>
   <i name="EREF">      0.00000000</i>
   <separator name="electronic smearing" >
    <i type="int" name="ISMEAR">     0</i>
    <i name="SIGMA">      0.10000000</i>
    <i name="KSPACING">      0.50000000</i>
    <i type="logical" name="KGAMMA"> T  </i>
   </separator>
   <separator name="electronic projectors" >
    <i type="logical" name="LREAL"> T  </i>
    <v name="ROPT">     -0.00050000     -0.00050000     -0.00050000</v>
    <i type="int" name="LMAXPAW">  -100</i>
    <i type="int" name="LMAXMIX">     2</i>
    <i type="logical" name="NLSPLINE"> F  </i>
   </separator>
   <separator name="electronic startup" >
    <i type="int" name="ISTART">     0</i>
    <i type="int" name="ICHARG">     2</i>
    <i type="int" name="INIWAV">     1</i>
   </separator>
   <separator name="electronic spin" >
    <i type="int" name="ISPIN">     1</i>
    <i type="logical" name="LNONCOLLINEAR"> F  </i>
    <v name="MAGMOM">      1.00000000      1.00000000      1.00000000      1.00000000      1.00000000</v>
    <i name="NUPDOWN">     -1.00000000</i>
    <i type="logical" name="LSORBIT"> F  </i>
    <v name="SAXIS">      0.00000000      0.00000000      1.00000000</v>
    <i type="logical" name="LSPIRAL"> F  </i>
    <v name="QSPIRAL">      0.00000000      0.00000000      0.00000000</v>
    <i type="logical" name="LZEROZ"> F  </i>
   </separator>
   <separator name="electronic exchange-correlation" >
    <i type="logical" name="LASPH"> F  </i>
    <i type="logical" name="LMETAGGA"> F  </i>
   </separator>
   <separator name="electronic convergence" >
    <i type="int" name="NELM">    60</i>
    <i type="int" name="NELMDL">     0</i>
    <i type="int" name="NELMIN">     4</i>
    <i name="ENINI">    500.00000000</i>
    <separator name="electronic convergence detail" >
     <i type="logical" name="LDIAG"> T  </i>
     <i type="logical" name="LSUBROT"> F  </i>
     <i name="WEIMIN">      0.00000000</i>
     <i name="EBREAK">      0.00000001</i>
     <i name="DEPER">      0.30000000</i>
     <i type="int" name="NRMM">     4</i>
     <i name="TIME">      0.40000000</i>
    </separator>
   </separator>
   <separator name="electronic mixer" >
    <i name="AMIX">      0.40000000</i>
    <i name="BMIX">      1.00000000</i>
    <i name="AMIN">      0.10000000</i>
    <i name="AMIX_MAG">      1.60000000</i>
    <i name="BMIX_MAG">      1.00000000</i>
    <separator name="electronic mixer details" >
     <i type="int" name="IMIX">     4</i>
     <i type="logical" name="MIXFIRST"> F  </i>
     <i type="int" name="MAXMIX">   -45</i>
     <i name="WC">    100.00000000</i>
     <i type="int" name="INIMIX">     1</i>
     <i type="int" name="MIXPRE">     1</i>
     <i type="int" name="MREMOVE">     5</i>
    </separator>
   </separator>
   <separator name="electronic dipolcorrection" >
    <i type="logical" name="LDIPOL"> F  </i>
    <i type="logical" name="LMONO"> F  </i>
    <i type="int" name="IDIPOL">     0</i>
    <i name="EPSILON">      1.00000000</i>
    <v name="DIPOL">   -100.00000000   -100.00000000   -100.00000000</v>
    <i name="EFIELD">      0.00000000</i>
   </separator>
  </separator>
  <separator name="grids" >
   <i type="int" name="NGX">    24</i>
   <i type="int" name="NGY">    24</i>
   <i type="int" name="NGZ">    24</i>
   <i type="int" name="NGXF">    48</i>
   <i type="int" name="NGYF">    48</i>
   <i type="int" name="NGZF">    48</i>
   <i type="logical" name="ADDGRID"> F  </i>
  </separator>
  <separator name="ionic" >
   <i type="int" name="NSW">     0</i>
   <i type="int" name="IBRION">    -1</i>
   <i type="int" name="MDALGO">     0</i>
   <i type="int" name="ISIF">     2</i>
   <i name="PSTRESS">      0.00000000</i>
   <i name="EDIFFG">      0.00001000</i>
   <i type="int" name="NFREE">     0</i>
   <i name="POTIM">      0.50000000</i>
   <i name="SMASS">     -3.00000000</i>
   <i name="SCALEE">      1.00000000</i>
  </separator>
  <separator name="ionic md" >
   <i name="TEBEG">      0.00010000</i>
   <i name="TEEND">      0.00010000</i>
   <i type="int" name="NBLOCK">     1</i>
   <i type="int" name="KBLOCK">     1</i>
   <i type="int" name="NPACO">   256</i>
   <i name="APACO">     16.00000000</i>
  </separator>
  <separator name="symmetry" >
   <i type="int" name="ISYM">     2</i>
   <i name="SYMPREC">      0.00001000</i>
  </separator>
  <separator name="dos" >
   <i type="int" name="LORBIT">    11</i>
   <v name="RWIGS">     -1.00000000     -1.00000000     -1.00000000</v>
   <i type="int" name="NEDOS">  2401</i>
   <i name="EMIN">    -17.00000000</i>
   <i name="EMAX">     17.00000000</i>
   <i name="EFERMI">      0.00000000</i>
  </separator>
  <separator name="writing" >
   <i type="int" name="NWRITE">     2</i>
   <i type="logical" name="LWAVE"> F  </i>
   <i type="logical" name="LDOWNSAMPLE"> F  </i>
   <i type="logical" name="LCHARG"> T  </i>
   <i type="logical" name="LPARD"> F  </i>
   <i type="logical" name="LVTOT"> F  </i>
   <i type="logical" name="LVHAR"> F  </i>
   <i type="logical" name="LELF"> T  </i>
   <i type="logical" name="LOPTICS"> F  </i>
   <v name="STM">      0.00000000      0.00000000      0.00000000      0.00000000      0.00000000      0.00000000      0.00000000</v>
  </separator>
  <separator name="performance" >
   <i type="int" name="NPAR">     4</i>
   <i type="int" name="NSIM">     4</i>
   <i type="int" name="NBLK">    -1</i>
   <i type="logical" name="LPLANE"> T  </i>
   <i type="logical" name="LSCALAPACK"> T  </i>
   <i type="logical" name="LSCAAWARE"> F  </i>
   <i type="logical" name="LSCALU"> F  </i>
   <i type="logical" name="LASYNC"> F  </i>
   <i type="logical" name="LORBITALREAL"> F  </i>
  </separator>
  <separator name="miscellaneous" >
   <i type="int" name="IDIOT">     3</i>
   <i type="int" name="ISPECIAL">     0</i>
   <i type="logical" name="LMUSIC"> F  </i>
   <v name="POMASS">     87.62000000     47.88000000     16.00000000</v>
   <v name="DARWINR">      0.00000000      0.00000000      0.00000000</v>
   <v name="DARWINV">      1.00000000      1.00000000      1.00000000</v>
   <i type="logical" name="LCORR"> T  </i>
  </separator>
  <i type="logical" name="GGA_COMPAT"> T  </i>
  <i type="logical" name="LBERRY"> F  </i>
  <i type="int" name="ICORELEVEL">     0</i>
  <i type="logical" name="LDAU"> F  </i>
  <i type="int" name="I_CONSTRAINED_M">     0</i>
  <separator name="electronic exchange-correlation" >
   <i type="string" name="GGA">--</i>
   <i type="int" name="VOSKOWN">     0</i>
   <i type="logical" name="LHFCALC"> F  </i>
   <i type="string" name="PRECFOCK"></i>
   <i type="logical" name="LSYMGRAD"> F  </i>
   <i type="logical" name="LHFONE"> F  </i>
   <i type="logical" name="LRHFCALC"> F  </i>
   <i type="logical" name="LTHOMAS"> F  </i>
   <i type="logical" name="LMODELHF"> F  </i>
   <i name="ENCUT4O">     -1.00000000</i>
   <i type="int" name="EXXOEP">     0</i>
   <i type="int" name="FOURORBIT">     0</i>
   <i name="AEXX">      0.00000000</i>
   <i name="HFALPHA">      0.00000000</i>
   <i name="MCALPHA">      0.00000000</i>
   <i name="ALDAX">      1.00000000</i>
   <i name="AGGAX">      1.00000000</i>
   <i name="ALDAC">      1.00000000</i>
   <i name="AGGAC">      1.00000000</i>
   <i type="int" name="NKREDX">     1</i>
   <i type="int" name="NKREDY">     1</i>
   <i type="int" name="NKREDZ">     1</i>
   <i type="logical" name="SHIFTRED"> F  </i>
   <i type="logical" name="ODDONLY"> F  </i>
   <i type="logical" name="EVENONLY"> F  </i>
   <i type="int" name="LMAXFOCK">     0</i>
   <i type="int" name="NMAXFOCKAE">     0</i>
   <i type="logical" name="LFOCKAEDFT"> F  </i>
   <i name="HFSCREEN">      0.00000000</i>
   <i name="HFSCREENC">      0.00000000</i>
   <i type="int" name="NBANDSGWLOW">     0</i>
  </separator>
  <separator name="vdW DFT" >
   <i type="logical" name="LUSE_VDW"> F  </i>
   <i name="Zab_VDW">     -0.84910000</i>
   <i name="PARAM1">      0.12340000</i>
   <i name="PARAM2">      1.00000000</i>
   <i name="PARAM3">      0.00000000</i>
  </separator>
  <separator name="model GW" >
   <i type="int" name="MODEL_GW">     0</i>
   <i name="MODEL_EPS0">      7.37788536</i>
   <i name="MODEL_ALPHA">      1.00000000</i>
  </separator>
  <separator name="linear response parameters" >
   <i type="logical" name="LEPSILON"> F  </i>
   <i type="logical" name="LRPA"> F  </i>
   <i type="logical" name="LNABLA"> F  </i>
   <i type="logical" name="LVEL"> F  </i>
   <i type="int" name="KINTER">     0</i>
   <i name="CSHIFT">      0.10000000</i>
   <i name="OMEGAMAX">     -1.00000000</i>
   <i name="DEG_THRESHOLD">      0.00200000</i>
   <i name="RTIME">     -0.10000000</i>
   <i name="WPLASMAI">      0.00000000</i>
   <v name="DFIELD">      0.00000000      0.00000000      0.00000000</v>
   <v name="WPLASMA">      0.00000000      0.00000000      0.00000000      0.00000000      0.00000000      0.00000000      0.00000000      0.00000000      0.00000000</v>
  </separator>
  <separator name="orbital magnetization" >
   <i type="logical" name="NUCIND"> F  </i>
   <v name="MAGPOS">      0.00000000      0.00000000      0.00000000</v>
   <i type="logical" name="LNICSALL"> T  </i>
   <i type="logical" name="ORBITALMAG"> F  </i>
   <i type="logical" name="LMAGBLOCH"> F  </i>
   <i type="logical" name="LCHIMAG"> F  </i>
   <i type="logical" name="LGAUGE"> T  </i>
   <i type="int" name="MAGATOM">     0</i>
   <v name="MAGDIPOL">      0.00000000      0.00000000      0.00000000</v>
   <v name="AVECCONST">      0.00000000      0.00000000      0.00000000</v>
  </separator>
  <separator name="response functions" >
   <i type="logical" name="LADDER"> F  </i>
   <i type="logical" name="LRPAFORCE"> F  </i>
   <i type="logical" name="LFXC"> F  </i>
   <i type="logical" name="LHARTREE"> T  </i>
   <i type="int" name="IBSE">     0</i>
   <v type="int" name="KPOINT">    -1     0     0     0</v>
   <i type="logical" name="LTCTE"> F  </i>
   <i type="logical" name="LTETE"> F  </i>
   <i type="logical" name="LTRIPLET"> F  </i>
   <i type="logical" name="LFXCEPS"> F  </i>
   <i type="logical" name="LFXHEG"> F  </i>
   <i type="int" name="NATURALO">     2</i>
   <i type="logical" name="L2ORDER"> F  </i>
   <i type="logical" name="LMP2LT"> F  </i>
   <i type="logical" name="LUSEW"> F  </i>
   <i name="ENCUTGW">     -2.00000000</i>
   <i name="ENCUTGWSOFT">     -2.00000000</i>
   <i name="ENCUTLF">     -1.00000000</i>
   <i type="int" name="LMAXMP2">    -1</i>
   <i name="SCISSOR">      0.00000000</i>
   <i type="int" name="NOMEGA">     0</i>
   <i type="int" name="NOMEGAR">     0</i>
   <i type="int" name="NBANDSGW">    -1</i>
   <i type="int" name="NBANDSO">    -1</i>
   <i type="int" name="NBANDSV">    -1</i>
   <i type="int" name="NELM">     1</i>
   <i type="int" name="NELMHF">     1</i>
   <i type="int" name="DIM">     3</i>
   <i type="int" name="ANTIRES">     0</i>
   <i name="OMEGAMAX">    -30.00000000</i>
   <i name="OMEGAMIN">    -30.00000000</i>
   <i name="OMEGATL">   -200.00000000</i>
   <i type="int" name="OMEGAGRID">   140</i>
   <i name="CSHIFT">     -0.10000000</i>
   <i type="logical" name="SELFENERGY"> F  </i>
   <i type="logical" name="LSPECTRAL"> F  </i>
   <i type="logical" name="LSPECTRALGW"> F  </i>
   <i type="logical" name="LSINGLES"> F  </i>
   <i type="logical" name="LFERMIGW"> F  </i>
   <i type="logical" name="ODDONLYGW"> F  </i>
   <i type="logical" name="EVENONLYGW"> F  </i>
   <i type="int" name="NKREDLFX">     1</i>
   <i type="int" name="NKREDLFY">     1</i>
   <i type="int" name="NKREDLFZ">     1</i>
   <i type="int" name="MAXMEM">  2800</i>
   <i type="int" name="TELESCOPE">     0</i>
   <i type="int" name="TAUPAR">     1</i>
   <i type="int" name="OMEGAPAR">    -1</i>
   <i name="LAMBDA">      1.00000000</i>
  </separator>
  <separator name="External order field" >
   <i name="OFIELD_KAPPA">      0.00000000</i>
   <v name="OFIELD_K">      0.00000000      0.00000000      0.00000000</v>
   <i name="OFIELD_Q6_NEAR">      0.00000000</i>
   <i name="OFIELD_Q6_FAR">      0.00000000</i>
   <i name="OFIELD_A">      0.00000000</i>
  </separator>
 </parameters>
 <atominfo>
  <atoms>       5 </atoms>
  <types>       3 </types>
  <array name="atoms" >
   <dimension dim="1">ion</dimension>
   <field type="string">element</field>
   <field type="int">atomtype</field>
   <set>
    <rc><c>Sr</c><c>   1</c></rc>
    <rc><c>Ti</c><c>   2</c></rc>
    <rc><c>O </c><c>   3</c></rc>
    <rc><c>O </c><c>   3</c></rc>
    <rc><c>O </c><c>   3</c></rc>
   </set>
  </array>
  <array name="atomtypes" >
   <dimension dim="1">type</dimension>
   <field type="int">atomspertype</field>
   <field type="string">element</field>
   <field>mass</field>
   <field>valence</field>
   <field type="string">pseudopotential</field>
   <set>
    <rc><c>   1</c><c>Sr</c><c>     87.62000000</c><c>     10.00000000</c><c> PAW_PBE Sr_sv 07Sep2000                </c></rc>
    <rc><c>   1</c><c>Ti</c><c>     47.88000000</c><c>      4.00000000</c><c> PAW_PBE Ti 08Apr2002                   </c></rc>
    <rc><c>   3</c><c>O </c><c>     16.00000000</c><c>      6.00000000</c><c> PAW_PBE O 08Apr2002                    </c></rc>
   </set>
  </array>
 </atominfo>
 <structure name="initialpos" >
  <crystal>
   <varray name="basis" >
    <v>       3.94684634       0.00000000       0.00000000 </v>
    <v>       0.00000000       3.94684634       0.00000000 </v>
    <v>       0.00000000       0.00000000       3.94684634 </v>
   </varray>
   <i name="volume">     61.48237796 </i>
   <varray name="rec_basis" >
    <v>       0.25336684       0.00000000       0.00000000 </v>
    <v>       0.00000000       0.25336684       0.00000000 </v>
    <v>       0.00000000       0.00000000       0.25336684 </v>
   </varray>
  </crystal>
  <varray name="positions" >
   <v>       0.00000000       0.00000000       0.00000000 </v>
   <v>       0.50000000       0.50000000       0.50000000 </v>
   <v>       0.50000000       0.50000000       0.00000000 </v>
   <v>       0.50000000       0.00000000       0.50000000 </v>
   <v>       0.00000000       0.50000000       0.50000000 </v>
  </varray>
 </structure>
 <calculation>
  <scstep>
   <time name="dav">    0.17    0.18</time>
   <time name="total">    0.19    0.23</time>
   <energy>
    <i name="alphaZ">    179.60204115 </i>
    <i name="ewald">  -1913.70330965 </i>
    <i name="hartreedc">   -411.87486700 </i>
    <i name="XCdc">     82.00663498 </i>
    <i name="pawpsdc">   1333.61297253 </i>
    <i name="pawaedc">  -1284.78446064 </i>
    <i name="eentropy">     -0.00746395 </i>
    <i name="bandstr">     79.35500651 </i>
    <i name="atom">   2234.31706254 </i>
    <i name="e_fr_energy">    298.52361647 </i>
    <i name="e_wo_entrp">    298.53108043 </i>
    <i name="e_0_energy">    298.52734845 </i>
   </energy>
  </scstep>
  <scstep>
   <time name="dav">    0.19    0.19</time>
   <time name="total">    0.19    0.19</time>
   <energy>
    <i name="e_fr_energy">    -17.00699605 </i>
    <i name="e_wo_entrp">    -17.00582097 </i>
    <i name="e_0_energy">    -17.00640851 </i>
   </energy>
  </scstep>
  <scstep>
   <time name="dav">    0.17    0.18</time>
   <time name="total">    0.17    0.18</time>
   <energy>
    <i name="e_fr_energy">    -49.19402674 </i>
    <i name="e_wo_entrp">    -49.19402674 </i>
    <i name="e_0_energy">    -49.19402674 </i>
   </energy>
  </scstep>
  <scstep>
   <time name="dav">    0.22    0.23</time>
   <time name="total">    0.22    0.23</time>
   <energy>
    <i name="e_fr_energy">    -50.38962369 </i>
    <i name="e_wo_entrp">    -50.38962369 </i>
    <i name="e_0_energy">    -50.38962369 </i>
   </energy>
  </scstep>
  <scstep>
   <time name="dav">    0.18    0.18</time>
   <time name="total">    0.19    0.19</time>
   <energy>
    <i name="e_fr_energy">    -50.41970750 </i>
    <i name="e_wo_entrp">    -50.41970750 </i>
    <i name="e_0_energy">    -50.41970750 </i>
   </energy>
  </scstep>
  <scstep>
   <time name="diag">    0.04    0.04</time>
   <time name="diis">    0.07    0.07</time>
   <time name="orth">    0.00    0.00</time>
   <time name="total">    0.12    0.13</time>
   <energy>
    <i name="e_fr_energy">    -40.51361397 </i>
    <i name="e_wo_entrp">    -40.51361397 </i>
    <i name="e_0_energy">    -40.51361397 </i>
   </energy>
  </scstep>
  <scstep>
   <time name="diag">    0.04    0.04</time>
   <time name="diis">    0.07    0.07</time>
   <time name="orth">    0.00    0.00</time>
   <time name="total">    0.12    0.12</time>
   <energy>
    <i name="e_fr_energy">    -39.83639538 </i>
    <i name="e_wo_entrp">    -39.83639538 </i>
    <i name="e_0_energy">    -39.83639538 </i>
   </energy>
  </scstep>
  <scstep>
   <time name="diag">    0.03    0.04</time>
   <time name="diis">    0.07    0.07</time>
   <time name="orth">    0.00    0.00</time>
   <time name="total">    0.12    0.12</time>
   <energy>
    <i name="e_fr_energy">    -39.74681866 </i>
    <i name="e_wo_entrp">    -39.74681866 </i>
    <i name="e_0_energy">    -39.74681866 </i>
   </energy>
  </scstep>
  <scstep>
   <time name="diag">    0.03    0.04</time>
   <time name="diis">    0.08    0.08</time>
   <time name="orth">    0.00    0.00</time>
   <time name="total">    0.13    0.14</time>
   <energy>
    <i name="e_fr_energy">    -39.73951285 </i>
    <i name="e_wo_entrp">    -39.73951285 </i>
    <i name="e_0_energy">    -39.73951285 </i>
   </energy>
  </scstep>
  <scstep>
   <time name="diag">    0.04    0.04</time>
   <time name="diis">    0.07    0.07</time>
   <time name="orth">    0.00    0.00</time>
   <time name="total">    0.13    0.13</time>
   <energy>
    <i name="e_fr_energy">    -39.73574897 </i>
    <i name="e_wo_entrp">    -39.73574897 </i>
    <i name="e_0_energy">    -39.73574897 </i>
   </energy>
  </scstep>
  <scstep>
   <time name="diag">    0.04    0.04</time>
   <time name="diis">    0.07    0.07</time>
   <time name="orth">    0.00    0.00</time>
   <time name="total">    0.13    0.13</time>
   <energy>
    <i name="e_fr_energy">    -39.73200535 </i>
    <i name="e_wo_entrp">    -39.73200535 </i>
    <i name="e_0_energy">    -39.73200535 </i>
   </energy>
  </scstep>
  <scstep>
   <time name="diag">    0.04    0.04</time>
   <time name="diis">    0.07    0.07</time>
   <time name="orth">    0.00    0.00</time>
   <time name="total">    0.13    0.13</time>
   <energy>
    <i name="e_fr_energy">    -39.73097845 </i>
    <i name="e_wo_entrp">    -39.73097845 </i>
    <i name="e_0_energy">    -39.73097845 </i>
   </energy>
  </scstep>
  <scstep>
   <time name="diag">    0.03    0.04</time>
   <time name="diis">    0.08    0.08</time>
   <time name="orth">    0.00    0.00</time>
   <time name="total">    0.13    0.13</time>
   <energy>
    <i name="e_fr_energy">    -39.73139214 </i>
    <i name="e_wo_entrp">    -39.73139214 </i>
    <i name="e_0_energy">    -39.73139214 </i>
   </energy>
  </scstep>
  <scstep>
   <time name="diag">    0.03    0.04</time>
   <time name="diis">    0.07    0.07</time>
   <time name="orth">    0.00    0.00</time>
   <time name="total">    0.13    0.13</time>
   <energy>
    <i name="e_fr_energy">    -39.73080354 </i>
    <i name="e_wo_entrp">    -39.73080354 </i>
    <i name="e_0_energy">    -39.73080354 </i>
   </energy>
  </scstep>
  <scstep>
   <time name="diag">    0.03    0.04</time>
   <time name="diis">    0.08    0.08</time>
   <time name="orth">    0.00    0.00</time>
   <time name="total">    0.14    0.14</time>
   <energy>
    <i name="e_fr_energy">    -39.73084855 </i>
    <i name="e_wo_entrp">    -39.73084855 </i>
    <i name="e_0_energy">    -39.73084855 </i>
   </energy>
  </scstep>
  <scstep>
   <time name="diag">    0.03    0.04</time>
   <time name="diis">    0.09    0.09</time>
   <time name="orth">    0.00    0.00</time>
   <time name="total">    0.14    0.15</time>
   <energy>
    <i name="e_fr_energy">    -39.73085366 </i>
    <i name="e_wo_entrp">    -39.73085366 </i>
    <i name="e_0_energy">    -39.73085366 </i>
   </energy>
  </scstep>
  <scstep>
   <time name="diag">    0.03    0.04</time>
   <time name="diis">    0.08    0.08</time>
   <time name="orth">    0.00    0.00</time>
   <time name="total">    0.13    0.14</time>
   <energy>
    <i name="e_fr_energy">    -39.73085249 </i>
    <i name="e_wo_entrp">    -39.73085249 </i>
    <i name="e_0_energy">    -39.73085249 </i>
   </energy>
  </scstep>
  <scstep>
   <time name="diag">    0.03    0.04</time>
   <time name="diis">    0.08    0.08</time>
   <time name="orth">    0.00    0.00</time>
   <time name="total">    0.13    0.14</time>
   <energy>
    <i name="e_fr_energy">    -39.73085368 </i>
    <i name="e_wo_entrp">    -39.73085368 </i>
    <i name="e_0_energy">    -39.73085368 </i>
   </energy>
  </scstep>
  <scstep>
   <time name="diag">    0.04    0.04</time>
   <time name="diis">    0.06    0.06</time>
   <time name="orth">    0.00    0.00</time>
   <time name="total">    0.11    0.11</time>
   <energy>
    <i name="alphaZ">    179.60204115 </i>
    <i name="ewald">  -1913.70330965 </i>
    <i name="hartreedc">   -449.55412376 </i>
    <i name="XCdc">     85.82383457 </i>
    <i name="pawpsdc">   1546.11763518 </i>
    <i name="pawaedc">  -1503.68417976 </i>
    <i name="eentropy">     -0.00000000 </i>
    <i name="bandstr">   -218.64981349 </i>
    <i name="atom">   2234.31706254 </i>
    <i name="e_fr_energy">    -39.73085321 </i>
    <i name="e_wo_entrp">    -39.73085321 </i>
    <i name="e_0_energy">    -39.73085321 </i>
   </energy>
  </scstep>
  <structure>
   <crystal>
    <varray name="basis" >
     <v>       3.94684634       0.00000000       0.00000000 </v>
     <v>       0.00000000       3.94684634       0.00000000 </v>
     <v>       0.00000000       0.00000000       3.94684634 </v>
    </varray>
    <i name="volume">     61.48237796 </i>
    <varray name="rec_basis" >
     <v>       0.25336684       0.00000000       0.00000000 </v>
     <v>       0.00000000       0.25336684       0.00000000 </v>
     <v>       0.00000000       0.00000000       0.25336684 </v>
    </varray>
   </crystal>
   <varray name="positions" >
    <v>       0.00000000       0.00000000       0.00000000 </v>
    <v>       0.50000000       0.50000000       0.50000000 </v>
    <v>       0.50000000       0.50000000       0.00000000 </v>
    <v>       0.50000000       0.00000000       0.50000000 </v>
    <v>       0.00000000       0.50000000       0.50000000 </v>
   </varray>
  </structure>
  <varray name="forces" >
   <v>       0.00000000       0.00000000       0.00000000 </v>
   <v>       0.00000000       0.00000000       0.00000000 </v>
   <v>       0.00000000       0.00000000       0.00000000 </v>
   <v>       0.00000000       0.00000000       0.00000000 </v>
   <v>       0.00000000       0.00000000       0.00000000 </v>
  </varray>
  <varray name="stress" >
   <v>       1.42148554       0.00000000       0.00000000 </v>
   <v>       0.00000000       1.42148554       0.00000000 </v>
   <v>      -0.00000000       0.00000000       1.42148554 </v>
  </varray>
  <energy>
   <i name="e_fr_energy">    -39.73085321 </i>
   <i name="e_wo_entrp">    -39.73085321 </i>
   <i name="e_0_energy">     -0.00000000 </i>
  </energy>
  <time name="totalsc">    3.05    3.20</time>
  <eigenvalues>
   <array>
    <dimension dim="1">band</dimension>
    <dimension dim="2">kpoint</dimension>
    <dimension dim="3">spin</dimension>
    <field>eigene</field>
    <field>occ</field>
    <set>
     <set comment="spin 1">
      <set comment="kpoint 1">
       <r>  -30.3961    1.0000 </r>
       <r>  -14.9178    1.0000 </r>
       <r>  -13.9409    1.0000 </r>
       <r>  -13.9409    1.0000 </r>
       <r>  -12.4492    1.0000 </r>
       <r>  -12.4492    1.0000 </r>
       <r>  -12.4492    1.0000 </r>
       <r>   -0.3992    1.0000 </r>
       <r>   -0.3992    1.0000 </r>
       <r>   -0.3992    1.0000 </r>
       <r>    1.3104    1.0000 </r>
       <r>    1.3104    1.0000 </r>
       <r>    1.3104    1.0000 </r>
       <r>    2.0798    1.0000 </r>
       <r>    2.0798    1.0000 </r>
       <r>    2.0798    1.0000 </r>
       <r>    4.0602    0.0000 </r>
       <r>    4.0602    0.0000 </r>
       <r>    4.0602    0.0000 </r>
       <r>    7.8383    0.0000 </r>
      </set>
      <set comment="kpoint 2">
       <r>  -30.3924    1.0000 </r>
       <r>  -14.9288    1.0000 </r>
       <r>  -13.9669    1.0000 </r>
       <r>  -13.9341    1.0000 </r>
       <r>  -12.4413    1.0000 </r>
       <r>  -12.4413    1.0000 </r>
       <r>  -12.3215    1.0000 </r>
       <r>   -0.6529    1.0000 </r>
       <r>   -0.4073    1.0000 </r>
       <r>   -0.4073    1.0000 </r>
       <r>    1.0512    1.0000 </r>
       <r>    1.0512    1.0000 </r>
       <r>    1.1442    1.0000 </r>
       <r>    1.4983    1.0000 </r>
       <r>    1.9583    1.0000 </r>
       <r>    1.9583    1.0000 </r>
       <r>    4.0866    0.0000 </r>
       <r>    4.4869    0.0000 </r>
       <r>    4.4869    0.0000 </r>
       <r>    8.1259    0.0000 </r>
      </set>
      <set comment="kpoint 3">
       <r>  -30.3840    1.0000 </r>
       <r>  -15.0057    1.0000 </r>
       <r>  -13.9186    1.0000 </r>
       <r>  -13.9157    1.0000 </r>
       <r>  -12.4232    1.0000 </r>
       <r>  -12.4232    1.0000 </r>
       <r>  -12.0828    1.0000 </r>
       <r>   -1.2482    1.0000 </r>
       <r>   -0.4133    1.0000 </r>
       <r>   -0.4133    1.0000 </r>
       <r>    0.5460    1.0000 </r>
       <r>    0.5460    1.0000 </r>
       <r>    0.5922    1.0000 </r>
       <r>    0.8101    1.0000 </r>
       <r>    1.8069    1.0000 </r>
       <r>    1.8069    1.0000 </r>
       <r>    4.1472    0.0000 </r>
       <r>    5.2538    0.0000 </r>
       <r>    5.2538    0.0000 </r>
       <r>    8.9092    0.0000 </r>
      </set>
      <set comment="kpoint 4">
       <r>  -30.3772    1.0000 </r>
       <r>  -15.0981    1.0000 </r>
       <r>  -13.9064    1.0000 </r>
       <r>  -13.8024    1.0000 </r>
       <r>  -12.4087    1.0000 </r>
       <r>  -12.4087    1.0000 </r>
       <r>  -11.9236    1.0000 </r>
       <r>   -1.7511    1.0000 </r>
       <r>   -0.3884    1.0000 </r>
       <r>   -0.3884    1.0000 </r>
       <r>    0.0780    1.0000 </r>
       <r>    0.1776    1.0000 </r>
       <r>    0.1776    1.0000 </r>
       <r>    0.5722    1.0000 </r>
       <r>    1.7211    1.0000 </r>
       <r>    1.7211    1.0000 </r>
       <r>    4.1974    0.0000 </r>
       <r>    5.7869    0.0000 </r>
       <r>    5.7869    0.0000 </r>
       <r>    9.5051    0.0000 </r>
      </set>
      <set comment="kpoint 5">
       <r>  -30.3888    1.0000 </r>
       <r>  -14.9156    1.0000 </r>
       <r>  -14.0015    1.0000 </r>
       <r>  -13.9308    1.0000 </r>
       <r>  -12.4331    1.0000 </r>
       <r>  -12.3685    1.0000 </r>
       <r>  -12.2815    1.0000 </r>
       <r>   -0.8008    1.0000 </r>
       <r>   -0.5247    1.0000 </r>
       <r>   -0.4137    1.0000 </r>
       <r>    0.5290    1.0000 </r>
       <r>    0.8578    1.0000 </r>
       <r>    1.3118    1.0000 </r>
       <r>    1.3288    1.0000 </r>
       <r>    1.6628    1.0000 </r>
       <r>    1.7815    1.0000 </r>
       <r>    4.4547    0.0000 </r>
       <r>    4.5520    0.0000 </r>
       <r>    4.7258    0.0000 </r>
       <r>    8.4213    0.0000 </r>
      </set>
      <set comment="kpoint 6">
       <r>  -30.3806    1.0000 </r>
       <r>  -14.9404    1.0000 </r>
       <r>  -14.0007    1.0000 </r>
       <r>  -13.8975    1.0000 </r>
       <r>  -12.4146    1.0000 </r>
       <r>  -12.3393    1.0000 </r>
       <r>  -12.0982    1.0000 </r>
       <r>   -1.2964    1.0000 </r>
       <r>   -0.6668    1.0000 </r>
       <r>   -0.4160    1.0000 </r>
       <r>   -0.1377    1.0000 </r>
       <r>    0.4288    1.0000 </r>
       <r>    0.7320    1.0000 </r>
       <r>    1.2854    1.0000 </r>
       <r>    1.4935    1.0000 </r>
       <r>    1.5646    1.0000 </r>
       <r>    4.5397    0.0000 </r>
       <r>    5.2630    0.0000 </r>
       <r>    5.3185    0.0000 </r>
       <r>    9.1364    0.0000 </r>
      </set>
      <set comment="kpoint 7">
       <r>  -30.3740    1.0000 </r>
       <r>  -15.0041    1.0000 </r>
       <r>  -13.9169    1.0000 </r>
       <r>  -13.8747    1.0000 </r>
       <r>  -12.3996    1.0000 </r>
       <r>  -12.3304    1.0000 </r>
       <r>  -11.9632    1.0000 </r>
       <r>   -1.7649    1.0000 </r>
       <r>   -0.8098    1.0000 </r>
       <r>   -0.5129    1.0000 </r>
       <r>   -0.3847    1.0000 </r>
       <r>    0.0852    1.0000 </r>
       <r>    0.4453    1.0000 </r>
       <r>    1.2274    1.0000 </r>
       <r>    1.3460    1.0000 </r>
       <r>    1.4548    1.0000 </r>
       <r>    4.5777    0.0000 </r>
       <r>    5.7875    0.0000 </r>
       <r>    5.8098    0.0000 </r>
       <r>    9.8196    0.0000 </r>
      </set>
      <set comment="kpoint 8">
       <r>  -30.3730    1.0000 </r>
       <r>  -14.8117    1.0000 </r>
       <r>  -14.1172    1.0000 </r>
       <r>  -13.8711    1.0000 </r>
       <r>  -12.3949    1.0000 </r>
       <r>  -12.2038    1.0000 </r>
       <r>  -12.1055    1.0000 </r>
       <r>   -1.5092    1.0000 </r>
       <r>   -1.0670    1.0000 </r>
       <r>   -0.9025    1.0000 </r>
       <r>   -0.4129    1.0000 </r>
       <r>    0.1478    1.0000 </r>
       <r>    0.7041    1.0000 </r>
       <r>    1.0331    1.0000 </r>
       <r>    1.2075    1.0000 </r>
       <r>    1.8130    1.0000 </r>
       <r>    5.2162    0.0000 </r>
       <r>    5.3319    0.0000 </r>
       <r>    5.6170    0.0000 </r>
       <r>    9.5531    0.0000 </r>
      </set>
      <set comment="kpoint 9">
       <r>  -30.3668    1.0000 </r>
       <r>  -14.7563    1.0000 </r>
       <r>  -14.0862    1.0000 </r>
       <r>  -13.9046    1.0000 </r>
       <r>  -12.3790    1.0000 </r>
       <r>  -12.1810    1.0000 </r>
       <r>  -12.0366    1.0000 </r>
       <r>   -1.8172    1.0000 </r>
       <r>   -1.5271    1.0000 </r>
       <r>   -1.1372    1.0000 </r>
       <r>   -0.3749    1.0000 </r>
       <r>   -0.1164    1.0000 </r>
       <r>    0.6642    1.0000 </r>
       <r>    0.9627    1.0000 </r>
       <r>    1.0158    1.0000 </r>
       <r>    1.9314    1.0000 </r>
       <r>    5.2869    0.0000 </r>
       <r>    5.7903    0.0000 </r>
       <r>    5.9697    0.0000 </r>
       <r>   10.0916    0.0000 </r>
      </set>
      <set comment="kpoint 10">
       <r>  -30.3610    1.0000 </r>
       <r>  -14.4711    1.0000 </r>
       <r>  -14.1958    1.0000 </r>
       <r>  -14.0338    1.0000 </r>
       <r>  -12.3624    1.0000 </r>
       <r>  -12.0818    1.0000 </r>
       <r>  -12.0692    1.0000 </r>
       <r>   -1.9909    1.0000 </r>
       <r>   -1.9094    1.0000 </r>
       <r>   -1.6022    1.0000 </r>
       <r>   -0.3558    1.0000 </r>
       <r>   -0.2827    1.0000 </r>
       <r>    0.7448    1.0000 </r>
       <r>    0.8294    1.0000 </r>
       <r>    0.9029    1.0000 </r>
       <r>    2.2439    1.0000 </r>
       <r>    5.7820    0.0000 </r>
       <r>    5.8021    0.0000 </r>
       <r>    6.2054    0.0000 </r>
       <r>   10.2220    0.0000 </r>
      </set>
      <set comment="kpoint 11">
       <r>  -30.3852    1.0000 </r>
       <r>  -14.8875    1.0000 </r>
       <r>  -13.9795    1.0000 </r>
       <r>  -13.9795    1.0000 </r>
       <r>  -12.3841    1.0000 </r>
       <r>  -12.3841    1.0000 </r>
       <r>  -12.2248    1.0000 </r>
       <r>   -0.9524    1.0000 </r>
       <r>   -0.5267    1.0000 </r>
       <r>   -0.5267    1.0000 </r>
       <r>    0.4315    1.0000 </r>
       <r>    0.4315    1.0000 </r>
       <r>    0.9511    1.0000 </r>
       <r>    1.4991    1.0000 </r>
       <r>    1.6123    1.0000 </r>
       <r>    1.6123    1.0000 </r>
       <r>    4.6891    0.0000 </r>
       <r>    4.7803    0.0000 </r>
       <r>    4.7803    0.0000 </r>
       <r>    8.6783    0.0000 </r>
      </set>
      <set comment="kpoint 12">
       <r>  -30.3773    1.0000 </r>
       <r>  -14.8735    1.0000 </r>
       <r>  -14.0007    1.0000 </r>
       <r>  -13.9279    1.0000 </r>
       <r>  -12.4214    1.0000 </r>
       <r>  -12.3042    1.0000 </r>
       <r>  -12.0976    1.0000 </r>
       <r>   -1.3549    1.0000 </r>
       <r>   -0.7724    1.0000 </r>
       <r>   -0.5287    1.0000 </r>
       <r>   -0.1546    1.0000 </r>
       <r>   -0.0852    1.0000 </r>
       <r>    0.7010    1.0000 </r>
       <r>    1.3652    1.0000 </r>
       <r>    1.4802    1.0000 </r>
       <r>    1.4939    1.0000 </r>
       <r>    4.7974    0.0000 </r>
       <r>    5.3376    0.0000 </r>
       <r>    5.3486    0.0000 </r>
       <r>    9.3761    0.0000 </r>
      </set>
      <set comment="kpoint 13">
       <r>  -30.3709    1.0000 </r>
       <r>  -14.9108    1.0000 </r>
       <r>  -13.9394    1.0000 </r>
       <r>  -13.8840    1.0000 </r>
       <r>  -12.4540    1.0000 </r>
       <r>  -12.2486    1.0000 </r>
       <r>  -12.0082    1.0000 </r>
       <r>   -1.7762    1.0000 </r>
       <r>   -0.9564    1.0000 </r>
       <r>   -0.5956    1.0000 </r>
       <r>   -0.5223    1.0000 </r>
       <r>   -0.3832    1.0000 </r>
       <r>    0.7831    1.0000 </r>
       <r>    1.1211    1.0000 </r>
       <r>    1.3508    1.0000 </r>
       <r>    1.4122    1.0000 </r>
       <r>    4.8419    0.0000 </r>
       <r>    5.8164    0.0000 </r>
       <r>    5.8351    0.0000 </r>
       <r>    9.9364    0.0000 </r>
      </set>
      <set comment="kpoint 14">
       <r>  -30.3698    1.0000 </r>
       <r>  -14.7369    1.0000 </r>
       <r>  -14.0695    1.0000 </r>
       <r>  -13.8925    1.0000 </r>
       <r>  -12.4258    1.0000 </r>
       <r>  -12.2640    1.0000 </r>
       <r>  -12.0816    1.0000 </r>
       <r>   -1.5466    1.0000 </r>
       <r>   -1.0618    1.0000 </r>
       <r>   -0.8473    1.0000 </r>
       <r>   -0.6294    1.0000 </r>
       <r>   -0.2215    1.0000 </r>
       <r>    0.2604    1.0000 </r>
       <r>    1.3137    1.0000 </r>
       <r>    1.3717    1.0000 </r>
       <r>    1.8248    1.0000 </r>
       <r>    5.3409    0.0000 </r>
       <r>    5.4337    0.0000 </r>
       <r>    5.6515    0.0000 </r>
       <r>   10.0244    0.0000 </r>
      </set>
      <set comment="kpoint 15">
       <r>  -30.3637    1.0000 </r>
       <r>  -14.6658    1.0000 </r>
       <r>  -14.0534    1.0000 </r>
       <r>  -13.8777    1.0000 </r>
       <r>  -12.4605    1.0000 </r>
       <r>  -12.1896    1.0000 </r>
       <r>  -12.0887    1.0000 </r>
       <r>   -1.8164    1.0000 </r>
       <r>   -1.4631    1.0000 </r>
       <r>   -1.1264    1.0000 </r>
       <r>   -0.6324    1.0000 </r>
       <r>   -0.4857    1.0000 </r>
       <r>    0.2775    1.0000 </r>
       <r>    1.2144    1.0000 </r>
       <r>    1.3096    1.0000 </r>
       <r>    1.9419    1.0000 </r>
       <r>    5.4220    0.0000 </r>
       <r>    5.8591    0.0000 </r>
       <r>    6.0018    0.0000 </r>
       <r>   10.2574    0.0000 </r>
      </set>
      <set comment="kpoint 16">
       <r>  -30.3580    1.0000 </r>
       <r>  -14.3842    1.0000 </r>
       <r>  -14.1326    1.0000 </r>
       <r>  -13.9759    1.0000 </r>
       <r>  -12.4344    1.0000 </r>
       <r>  -12.1727    1.0000 </r>
       <r>  -12.1359    1.0000 </r>
       <r>   -1.9427    1.0000 </r>
       <r>   -1.8114    1.0000 </r>
       <r>   -1.5986    1.0000 </r>
       <r>   -0.6374    1.0000 </r>
       <r>   -0.5750    1.0000 </r>
       <r>    0.1272    1.0000 </r>
       <r>    1.2517    1.0000 </r>
       <r>    1.2919    1.0000 </r>
       <r>    2.2576    1.0000 </r>
       <r>    5.8737    0.0000 </r>
       <r>    5.8929    0.0000 </r>
       <r>    6.2405    0.0000 </r>
       <r>   10.0851    0.0000 </r>
      </set>
      <set comment="kpoint 17">
       <r>  -30.3626    1.0000 </r>
       <r>  -14.5660    1.0000 </r>
       <r>  -13.9484    1.0000 </r>
       <r>  -13.9484    1.0000 </r>
       <r>  -12.4130    1.0000 </r>
       <r>  -12.4130    1.0000 </r>
       <r>  -12.0958    1.0000 </r>
       <r>   -1.6339    1.0000 </r>
       <r>   -1.0485    1.0000 </r>
       <r>   -1.0485    1.0000 </r>
       <r>   -0.7072    1.0000 </r>
       <r>   -0.6846    1.0000 </r>
       <r>   -0.6846    1.0000 </r>
       <r>    1.6162    1.0000 </r>
       <r>    1.6162    1.0000 </r>
       <r>    1.9504    1.0000 </r>
       <r>    5.6896    0.0000 </r>
       <r>    5.7441    0.0000 </r>
       <r>    5.7441    0.0000 </r>
       <r>   10.0179    0.0000 </r>
      </set>
      <set comment="kpoint 18">
       <r>  -30.3568    1.0000 </r>
       <r>  -14.4318    1.0000 </r>
       <r>  -13.9914    1.0000 </r>
       <r>  -13.8315    1.0000 </r>
       <r>  -12.5527    1.0000 </r>
       <r>  -12.3131    1.0000 </r>
       <r>  -12.1854    1.0000 </r>
       <r>   -1.8238    1.0000 </r>
       <r>   -1.4037    1.0000 </r>
       <r>   -1.1414    1.0000 </r>
       <r>   -1.0280    1.0000 </r>
       <r>   -0.9488    1.0000 </r>
       <r>   -0.5763    1.0000 </r>
       <r>    1.6501    1.0000 </r>
       <r>    1.7734    1.0000 </r>
       <r>    2.0491    1.0000 </r>
       <r>    5.7839    0.0000 </r>
       <r>    6.0589    0.0000 </r>
       <r>    6.0870    0.0000 </r>
       <r>   10.1196    0.0000 </r>
      </set>
      <set comment="kpoint 19">
       <r>  -30.3513    1.0000 </r>
       <r>  -14.1658    1.0000 </r>
       <r>  -13.9653    1.0000 </r>
       <r>  -13.8477    1.0000 </r>
       <r>  -12.5719    1.0000 </r>
       <r>  -12.4014    1.0000 </r>
       <r>  -12.3165    1.0000 </r>
       <r>   -1.9301    1.0000 </r>
       <r>   -1.5900    1.0000 </r>
       <r>   -1.5105    1.0000 </r>
       <r>   -1.0696    1.0000 </r>
       <r>   -0.9685    1.0000 </r>
       <r>   -0.8886    1.0000 </r>
       <r>    1.8638    1.0000 </r>
       <r>    1.8974    1.0000 </r>
       <r>    2.2926    1.0000 </r>
       <r>    6.1236    0.0000 </r>
       <r>    6.1358    0.0000 </r>
       <r>    6.3211    0.0000 </r>
       <r>    9.7841    0.0000 </r>
      </set>
      <set comment="kpoint 20">
       <r>  -30.3458    1.0000 </r>
       <r>  -13.9249    1.0000 </r>
       <r>  -13.7874    1.0000 </r>
       <r>  -13.7874    1.0000 </r>
       <r>  -12.6281    1.0000 </r>
       <r>  -12.6281    1.0000 </r>
       <r>  -12.5226    1.0000 </r>
       <r>   -2.0311    1.0000 </r>
       <r>   -1.5822    1.0000 </r>
       <r>   -1.5822    1.0000 </r>
       <r>   -1.2901    1.0000 </r>
       <r>   -1.1891    1.0000 </r>
       <r>   -1.1891    1.0000 </r>
       <r>    2.2606    1.0000 </r>
       <r>    2.2606    1.0000 </r>
       <r>    2.3448    1.0000 </r>
       <r>    6.3846    0.0000 </r>
       <r>    6.3913    0.0000 </r>
       <r>    9.4252    0.0000 </r>
       <r>    9.4750    0.0000 </r>
      </set>
     </set>
    </set>
   </array>
  </eigenvalues>
  <separator name="orbital magnetization" >
   <v name="MAGDIPOLOUT">      0.00000000      0.00000000      0.00000000</v>
  </separator>
  <dos>
   <i name="efermi">      2.76250000 </i>
   <total>
    <array>
     <dimension dim="1">gridpoints</dimension>
     <dimension dim="2">spin</dimension>
     <field>energy</field>
     <field>total</field>
     <field>integrated</field>
     <set>
      <set comment="spin 1">
       <r>   -17.0000   141.1765     2.0000 </r>
       <r>   -16.9858     0.0000     2.0000 </r>
       <r>   -16.9717     0.0000     2.0000 </r>
       <r>   -16.9575     0.0000     2.0000 </r>
       <r>   -16.9433     0.0000     2.0000 </r>
       <r>   -16.9292     0.0000     2.0000 </r>
       <r>   -16.9150     0.0000     2.0000 </r>
       <r>   -16.9008     0.0000     2.0000 </r>
       <r>   -16.8867     0.0000     2.0000 </r>
       <r>   -16.8725     0.0000     2.0000 </r>
       <r>   -16.8583     0.0000     2.0000 </r>
       <r>   -16.8442     0.0000     2.0000 </r>
       <r>   -16.8300     0.0000     2.0000 </r>
       <r>   -16.8158     0.0000     2.0000 </r>
       <r>   -16.8017     0.0000     2.0000 </r>
       <r>   -16.7875     0.0000     2.0000 </r>
       <r>   -16.7733     0.0000     2.0000 </r>
       <r>   -16.7592     0.0000     2.0000 </r>
       <r>   -16.7450     0.0000     2.0000 </r>
       <r>   -16.7308     0.0000     2.0000 </r>
       <r>   -16.7167     0.0000     2.0000 </r>
       <r>   -16.7025     0.0000     2.0000 </r>
       <r>   -16.6883     0.0000     2.0000 </r>
       <r>   -16.6742     0.0000     2.0000 </r>
       <r>   -16.6600     0.0000     2.0000 </r>
       <r>   -16.6458     0.0000     2.0000 </r>
       <r>   -16.6317     0.0000     2.0000 </r>
       <r>   -16.6175     0.0000     2.0000 </r>
       <r>   -16.6033     0.0000     2.0000 </r>
       <r>   -16.5892     0.0000     2.0000 </r>
       <r>   -16.5750     0.0000     2.0000 </r>
       <r>   -16.5608     0.0000     2.0000 </r>
       <r>   -16.5467     0.0000     2.0000 </r>
       <r>   -16.5325     0.0000     2.0000 </r>
       <r>   -16.5183     0.0000     2.0000 </r>
       <r>   -16.5042     0.0000     2.0000 </r>
       <r>   -16.4900     0.0000     2.0000 </r>
       <r>   -16.4758     0.0000     2.0000 </r>
       <r>   -16.4617     0.0000     2.0000 </r>
       <r>   -16.4475     0.0000     2.0000 </r>
       <r>   -16.4333     0.0000     2.0000 </r>
       <r>   -16.4192     0.0000     2.0000 </r>
       <r>   -16.4050     0.0000     2.0000 </r>
       <r>   -16.3908     0.0000     2.0000 </r>
       <r>   -16.3767     0.0000     2.0000 </r>
       <r>   -16.3625     0.0000     2.0000 </r>
       <r>   -16.3483     0.0000     2.0000 </r>
       <r>   -16.3342     0.0000     2.0000 </r>
       <r>   -16.3200     0.0000     2.0000 </r>
       <r>   -16.3058     0.0000     2.0000 </r>
       <r>   -16.2917     0.0000     2.0000 </r>
       <r>   -16.2775     0.0000     2.0000 </r>
       <r>   -16.2633     0.0000     2.0000 </r>
       <r>   -16.2492     0.0000     2.0000 </r>
       <r>   -16.2350     0.0000     2.0000 </r>
       <r>   -16.2208     0.0000     2.0000 </r>
       <r>   -16.2067     0.0000     2.0000 </r>
       <r>   -16.1925     0.0000     2.0000 </r>
       <r>   -16.1783     0.0000     2.0000 </r>
       <r>   -16.1642     0.0000     2.0000 </r>
       <r>   -16.1500     0.0000     2.0000 </r>
       <r>   -16.1358     0.0000     2.0000 </r>
       <r>   -16.1217     0.0000     2.0000 </r>
       <r>   -16.1075     0.0000     2.0000 </r>
       <r>   -16.0933     0.0000     2.0000 </r>
       <r>   -16.0792     0.0000     2.0000 </r>
       <r>   -16.0650     0.0000     2.0000 </r>
       <r>   -16.0508     0.0000     2.0000 </r>
       <r>   -16.0367     0.0000     2.0000 </r>
       <r>   -16.0225     0.0000     2.0000 </r>
       <r>   -16.0083     0.0000     2.0000 </r>
       <r>   -15.9942     0.0000     2.0000 </r>
       <r>   -15.9800     0.0000     2.0000 </r>
       <r>   -15.9658     0.0000     2.0000 </r>
       <r>   -15.9517     0.0000     2.0000 </r>
       <r>   -15.9375     0.0000     2.0000 </r>
       <r>   -15.9233     0.0000     2.0000 </r>
       <r>   -15.9092     0.0000     2.0000 </r>
       <r>   -15.8950     0.0000     2.0000 </r>
       <r>   -15.8808     0.0000     2.0000 </r>
       <r>   -15.8667     0.0000     2.0000 </r>
       <r>   -15.8525     0.0000     2.0000 </r>
       <r>   -15.8383     0.0000     2.0000 </r>
       <r>   -15.8242     0.0000     2.0000 </r>
       <r>   -15.8100     0.0000     2.0000 </r>
       <r>   -15.7958     0.0000     2.0000 </r>
       <r>   -15.7817     0.0000     2.0000 </r>
       <r>   -15.7675     0.0000     2.0000 </r>
       <r>   -15.7533     0.0000     2.0000 </r>
       <r>   -15.7392     0.0000     2.0000 </r>
       <r>   -15.7250     0.0000     2.0000 </r>
       <r>   -15.7108     0.0000     2.0000 </r>
       <r>   -15.6967     0.0000     2.0000 </r>
       <r>   -15.6825     0.0000     2.0000 </r>
       <r>   -15.6683     0.0000     2.0000 </r>
       <r>   -15.6542     0.0000     2.0000 </r>
       <r>   -15.6400     0.0000     2.0000 </r>
       <r>   -15.6258     0.0000     2.0000 </r>
       <r>   -15.6117     0.0000     2.0000 </r>
       <r>   -15.5975     0.0000     2.0000 </r>
       <r>   -15.5833     0.0000     2.0000 </r>
       <r>   -15.5692     0.0000     2.0000 </r>
       <r>   -15.5550     0.0000     2.0000 </r>
       <r>   -15.5408     0.0000     2.0000 </r>
       <r>   -15.5267     0.0000     2.0000 </r>
       <r>   -15.5125     0.0000     2.0000 </r>
       <r>   -15.4983     0.0000     2.0000 </r>
       <r>   -15.4842     0.0000     2.0000 </r>
       <r>   -15.4700     0.0000     2.0000 </r>
       <r>   -15.4558     0.0000     2.0000 </r>
       <r>   -15.4417     0.0000     2.0000 </r>
       <r>   -15.4275     0.0000     2.0000 </r>
       <r>   -15.4133     0.0000     2.0000 </r>
       <r>   -15.3992     0.0000     2.0000 </r>
       <r>   -15.3850     0.0000     2.0000 </r>
       <r>   -15.3708     0.0001     2.0000 </r>
       <r>   -15.3567     0.0002     2.0000 </r>
       <r>   -15.3425     0.0004     2.0000 </r>
       <r>   -15.3283     0.0007     2.0000 </r>
       <r>   -15.3142     0.0014     2.0000 </r>
       <r>   -15.3000     0.0026     2.0001 </r>
       <r>   -15.2858     0.0047     2.0001 </r>
       <r>   -15.2717     0.0082     2.0003 </r>
       <r>   -15.2575     0.0136     2.0005 </r>
       <r>   -15.2433     0.0220     2.0008 </r>
       <r>   -15.2292     0.0342     2.0012 </r>
       <r>   -15.2150     0.0518     2.0020 </r>
       <r>   -15.2008     0.0761     2.0031 </r>
       <r>   -15.1867     0.1088     2.0046 </r>
       <r>   -15.1725     0.1521     2.0068 </r>
       <r>   -15.1583     0.2080     2.0097 </r>
       <r>   -15.1442     0.2792     2.0137 </r>
       <r>   -15.1300     0.3685     2.0189 </r>
       <r>   -15.1158     0.4790     2.0257 </r>
       <r>   -15.1017     0.6140     2.0344 </r>
       <r>   -15.0875     0.7762     2.0454 </r>
       <r>   -15.0733     0.9680     2.0591 </r>
       <r>   -15.0592     1.1904     2.0759 </r>
       <r>   -15.0450     1.4426     2.0964 </r>
       <r>   -15.0308     1.7216     2.1208 </r>
       <r>   -15.0167     2.0217     2.1494 </r>
       <r>   -15.0025     2.3342     2.1825 </r>
       <r>   -14.9883     2.6475     2.2200 </r>
       <r>   -14.9742     2.9476     2.2617 </r>
       <r>   -14.9600     3.2188     2.3073 </r>
       <r>   -14.9458     3.4455     2.3561 </r>
       <r>   -14.9317     3.6139     2.4073 </r>
       <r>   -14.9175     3.7143     2.4600 </r>
       <r>   -14.9033     3.7433     2.5130 </r>
       <r>   -14.8892     3.7049     2.5655 </r>
       <r>   -14.8750     3.6105     2.6166 </r>
       <r>   -14.8608     3.4776     2.6659 </r>
       <r>   -14.8467     3.3275     2.7130 </r>
       <r>   -14.8325     3.1813     2.7581 </r>
       <r>   -14.8183     3.0573     2.8014 </r>
       <r>   -14.8042     2.9675     2.8435 </r>
       <r>   -14.7900     2.9166     2.8848 </r>
       <r>   -14.7758     2.9018     2.9259 </r>
       <r>   -14.7617     2.9138     2.9672 </r>
       <r>   -14.7475     2.9390     3.0088 </r>
       <r>   -14.7333     2.9618     3.0508 </r>
       <r>   -14.7192     2.9671     3.0928 </r>
       <r>   -14.7050     2.9423     3.1345 </r>
       <r>   -14.6908     2.8783     3.1752 </r>
       <r>   -14.6767     2.7709     3.2145 </r>
       <r>   -14.6625     2.6210     3.2516 </r>
       <r>   -14.6483     2.4343     3.2861 </r>
       <r>   -14.6342     2.2213     3.3176 </r>
       <r>   -14.6200     1.9954     3.3459 </r>
       <r>   -14.6058     1.7720     3.3710 </r>
       <r>   -14.5917     1.5668     3.3932 </r>
       <r>   -14.5775     1.3936     3.4129 </r>
       <r>   -14.5633     1.2636     3.4308 </r>
       <r>   -14.5492     1.1837     3.4476 </r>
       <r>   -14.5350     1.1563     3.4639 </r>
       <r>   -14.5208     1.1794     3.4807 </r>
       <r>   -14.5067     1.2459     3.4983 </r>
       <r>   -14.4925     1.3452     3.5174 </r>
       <r>   -14.4783     1.4634     3.5381 </r>
       <r>   -14.4642     1.5846     3.5605 </r>
       <r>   -14.4500     1.6926     3.5845 </r>
       <r>   -14.4358     1.7726     3.6096 </r>
       <r>   -14.4217     1.8128     3.6353 </r>
       <r>   -14.4075     1.8060     3.6609 </r>
       <r>   -14.3933     1.7506     3.6857 </r>
       <r>   -14.3792     1.6508     3.7091 </r>
       <r>   -14.3650     1.5166     3.7306 </r>
       <r>   -14.3508     1.3623     3.7499 </r>
       <r>   -14.3367     1.2051     3.7669 </r>
       <r>   -14.3225     1.0635     3.7820 </r>
       <r>   -14.3083     0.9551     3.7955 </r>
       <r>   -14.2942     0.8956     3.8082 </r>
       <r>   -14.2800     0.8974     3.8209 </r>
       <r>   -14.2658     0.9690     3.8347 </r>
       <r>   -14.2517     1.1147     3.8505 </r>
       <r>   -14.2375     1.3348     3.8694 </r>
       <r>   -14.2233     1.6261     3.8924 </r>
       <r>   -14.2092     1.9827     3.9205 </r>
       <r>   -14.1950     2.3972     3.9545 </r>
       <r>   -14.1808     2.8615     3.9950 </r>
       <r>   -14.1667     3.3683     4.0427 </r>
       <r>   -14.1525     3.9117     4.0981 </r>
       <r>   -14.1383     4.4876     4.1617 </r>
       <r>   -14.1242     5.0941     4.2339 </r>
       <r>   -14.1100     5.7310     4.3151 </r>
       <r>   -14.0958     6.3992     4.4057 </r>
       <r>   -14.0817     7.1000     4.5063 </r>
       <r>   -14.0675     7.8338     4.6173 </r>
       <r>   -14.0533     8.5992     4.7391 </r>
       <r>   -14.0392     9.3919     4.8721 </r>
       <r>   -14.0250    10.2029     5.0167 </r>
       <r>   -14.0108    11.0176     5.1728 </r>
       <r>   -13.9967    11.8144     5.3401 </r>
       <r>   -13.9825    12.5645     5.5181 </r>
       <r>   -13.9683    13.2323     5.7056 </r>
       <r>   -13.9542    13.7766     5.9008 </r>
       <r>   -13.9400    14.1547     6.1013 </r>
       <r>   -13.9258    14.3259     6.3042 </r>
       <r>   -13.9117    14.2576     6.5062 </r>
       <r>   -13.8975    13.9305     6.7036 </r>
       <r>   -13.8833    13.3426     6.8926 </r>
       <r>   -13.8692    12.5118     7.0698 </r>
       <r>   -13.8550    11.4751     7.2324 </r>
       <r>   -13.8408    10.2848     7.3781 </r>
       <r>   -13.8267     9.0030     7.5056 </r>
       <r>   -13.8125     7.6944     7.6147 </r>
       <r>   -13.7983     6.4189     7.7056 </r>
       <r>   -13.7842     5.2265     7.7796 </r>
       <r>   -13.7700     4.1536     7.8385 </r>
       <r>   -13.7558     3.2218     7.8841 </r>
       <r>   -13.7417     2.4391     7.9187 </r>
       <r>   -13.7275     1.8019     7.9442 </r>
       <r>   -13.7133     1.2987     7.9626 </r>
       <r>   -13.6992     0.9128     7.9755 </r>
       <r>   -13.6850     0.6252     7.9844 </r>
       <r>   -13.6708     0.4170     7.9903 </r>
       <r>   -13.6567     0.2706     7.9941 </r>
       <r>   -13.6425     0.1707     7.9965 </r>
       <r>   -13.6283     0.1046     7.9980 </r>
       <r>   -13.6142     0.0621     7.9989 </r>
       <r>   -13.6000     0.0358     7.9994 </r>
       <r>   -13.5858     0.0199     7.9997 </r>
       <r>   -13.5717     0.0107     7.9998 </r>
       <r>   -13.5575     0.0056     7.9999 </r>
       <r>   -13.5433     0.0028     8.0000 </r>
       <r>   -13.5292     0.0014     8.0000 </r>
       <r>   -13.5150     0.0006     8.0000 </r>
       <r>   -13.5008     0.0003     8.0000 </r>
       <r>   -13.4867     0.0001     8.0000 </r>
       <r>   -13.4725     0.0001     8.0000 </r>
       <r>   -13.4583     0.0000     8.0000 </r>
       <r>   -13.4442     0.0000     8.0000 </r>
       <r>   -13.4300     0.0000     8.0000 </r>
       <r>   -13.4158     0.0000     8.0000 </r>
       <r>   -13.4017     0.0000     8.0000 </r>
       <r>   -13.3875     0.0000     8.0000 </r>
       <r>   -13.3733     0.0000     8.0000 </r>
       <r>   -13.3592     0.0000     8.0000 </r>
       <r>   -13.3450     0.0000     8.0000 </r>
       <r>   -13.3308     0.0000     8.0000 </r>
       <r>   -13.3167     0.0000     8.0000 </r>
       <r>   -13.3025     0.0000     8.0000 </r>
       <r>   -13.2883     0.0000     8.0000 </r>
       <r>   -13.2742     0.0000     8.0000 </r>
       <r>   -13.2600     0.0000     8.0000 </r>
       <r>   -13.2458     0.0000     8.0000 </r>
       <r>   -13.2317     0.0000     8.0000 </r>
       <r>   -13.2175     0.0000     8.0000 </r>
       <r>   -13.2033     0.0000     8.0000 </r>
       <r>   -13.1892     0.0000     8.0000 </r>
       <r>   -13.1750     0.0000     8.0000 </r>
       <r>   -13.1608     0.0000     8.0000 </r>
       <r>   -13.1467     0.0000     8.0000 </r>
       <r>   -13.1325     0.0000     8.0000 </r>
       <r>   -13.1183     0.0000     8.0000 </r>
       <r>   -13.1042     0.0000     8.0000 </r>
       <r>   -13.0900     0.0000     8.0000 </r>
       <r>   -13.0758     0.0000     8.0000 </r>
       <r>   -13.0617     0.0000     8.0000 </r>
       <r>   -13.0475     0.0000     8.0000 </r>
       <r>   -13.0333     0.0000     8.0000 </r>
       <r>   -13.0192     0.0000     8.0000 </r>
       <r>   -13.0050     0.0000     8.0000 </r>
       <r>   -12.9908     0.0000     8.0000 </r>
       <r>   -12.9767     0.0000     8.0000 </r>
       <r>   -12.9625     0.0000     8.0000 </r>
       <r>   -12.9483     0.0000     8.0000 </r>
       <r>   -12.9342     0.0000     8.0000 </r>
       <r>   -12.9200     0.0001     8.0000 </r>
       <r>   -12.9058     0.0002     8.0000 </r>
       <r>   -12.8917     0.0004     8.0000 </r>
       <r>   -12.8775     0.0008     8.0000 </r>
       <r>   -12.8633     0.0017     8.0000 </r>
       <r>   -12.8492     0.0033     8.0001 </r>
       <r>   -12.8350     0.0062     8.0002 </r>
       <r>   -12.8208     0.0114     8.0003 </r>
       <r>   -12.8067     0.0202     8.0006 </r>
       <r>   -12.7925     0.0345     8.0011 </r>
       <r>   -12.7783     0.0568     8.0019 </r>
       <r>   -12.7642     0.0906     8.0032 </r>
       <r>   -12.7500     0.1396     8.0052 </r>
       <r>   -12.7358     0.2083     8.0081 </r>
       <r>   -12.7217     0.3011     8.0124 </r>
       <r>   -12.7075     0.4222     8.0184 </r>
       <r>   -12.6933     0.5748     8.0265 </r>
       <r>   -12.6792     0.7609     8.0373 </r>
       <r>   -12.6650     0.9813     8.0512 </r>
       <r>   -12.6508     1.2351     8.0687 </r>
       <r>   -12.6367     1.5214     8.0903 </r>
       <r>   -12.6225     1.8396     8.1163 </r>
       <r>   -12.6083     2.1918     8.1474 </r>
       <r>   -12.5942     2.5841     8.1840 </r>
       <r>   -12.5800     3.0275     8.2269 </r>
       <r>   -12.5658     3.5381     8.2770 </r>
       <r>   -12.5517     4.1353     8.3356 </r>
       <r>   -12.5375     4.8373     8.4041 </r>
       <r>   -12.5233     5.6565     8.4842 </r>
       <r>   -12.5092     6.5929     8.5776 </r>
       <r>   -12.4950     7.6300     8.6857 </r>
       <r>   -12.4808     8.7318     8.8094 </r>
       <r>   -12.4667     9.8446     8.9489 </r>
       <r>   -12.4525    10.9028     9.1033 </r>
       <r>   -12.4383    11.8373     9.2710 </r>
       <r>   -12.4242    12.5861     9.4493 </r>
       <r>   -12.4100    13.1037     9.6350 </r>
       <r>   -12.3958    13.3676     9.8244 </r>
       <r>   -12.3817    13.3807    10.0139 </r>
       <r>   -12.3675    13.1690    10.2005 </r>
       <r>   -12.3533    12.7766    10.3815 </r>
       <r>   -12.3392    12.2580    10.5551 </r>
       <r>   -12.3250    11.6707    10.7205 </r>
       <r>   -12.3108    11.0697    10.8773 </r>
       <r>   -12.2967    10.5023    11.0261 </r>
       <r>   -12.2825    10.0060    11.1678 </r>
       <r>   -12.2683     9.6073    11.3039 </r>
       <r>   -12.2542     9.3208    11.4360 </r>
       <r>   -12.2400     9.1504    11.5656 </r>
       <r>   -12.2258     9.0896    11.6944 </r>
       <r>   -12.2117     9.1232    11.8236 </r>
       <r>   -12.1975     9.2296    11.9544 </r>
       <r>   -12.1833     9.3823    12.0873 </r>
       <r>   -12.1692     9.5521    12.2226 </r>
       <r>   -12.1550     9.7087    12.3601 </r>
       <r>   -12.1408     9.8215    12.4993 </r>
       <r>   -12.1267     9.8613    12.6390 </r>
       <r>   -12.1125     9.8024    12.7779 </r>
       <r>   -12.0983     9.6246    12.9142 </r>
       <r>   -12.0842     9.3161    13.0462 </r>
       <r>   -12.0700     8.8760    13.1719 </r>
       <r>   -12.0558     8.3152    13.2897 </r>
       <r>   -12.0417     7.6553    13.3982 </r>
       <r>   -12.0275     6.9259    13.4963 </r>
       <r>   -12.0133     6.1606    13.5836 </r>
       <r>   -11.9992     5.3919    13.6599 </r>
       <r>   -11.9850     4.6479    13.7258 </r>
       <r>   -11.9708     3.9497    13.7817 </r>
       <r>   -11.9567     3.3109    13.8286 </r>
       <r>   -11.9425     2.7381    13.8674 </r>
       <r>   -11.9283     2.2330    13.8991 </r>
       <r>   -11.9142     1.7939    13.9245 </r>
       <r>   -11.9000     1.4173    13.9446 </r>
       <r>   -11.8858     1.0992    13.9601 </r>
       <r>   -11.8717     0.8350    13.9720 </r>
       <r>   -11.8575     0.6200    13.9807 </r>
       <r>   -11.8433     0.4490    13.9871 </r>
       <r>   -11.8292     0.3166    13.9916 </r>
       <r>   -11.8150     0.2170    13.9947 </r>
       <r>   -11.8008     0.1444    13.9967 </r>
       <r>   -11.7867     0.0932    13.9980 </r>
       <r>   -11.7725     0.0582    13.9989 </r>
       <r>   -11.7583     0.0352    13.9994 </r>
       <r>   -11.7442     0.0206    13.9997 </r>
       <r>   -11.7300     0.0116    13.9998 </r>
       <r>   -11.7158     0.0064    13.9999 </r>
       <r>   -11.7017     0.0034    14.0000 </r>
       <r>   -11.6875     0.0017    14.0000 </r>
       <r>   -11.6733     0.0008    14.0000 </r>
       <r>   -11.6592     0.0004    14.0000 </r>
       <r>   -11.6450     0.0002    14.0000 </r>
       <r>   -11.6308     0.0001    14.0000 </r>
       <r>   -11.6167     0.0000    14.0000 </r>
       <r>   -11.6025     0.0000    14.0000 </r>
       <r>   -11.5883     0.0000    14.0000 </r>
       <r>   -11.5742     0.0000    14.0000 </r>
       <r>   -11.5600     0.0000    14.0000 </r>
       <r>   -11.5458     0.0000    14.0000 </r>
       <r>   -11.5317     0.0000    14.0000 </r>
       <r>   -11.5175     0.0000    14.0000 </r>
       <r>   -11.5033     0.0000    14.0000 </r>
       <r>   -11.4892     0.0000    14.0000 </r>
       <r>   -11.4750     0.0000    14.0000 </r>
       <r>   -11.4608     0.0000    14.0000 </r>
       <r>   -11.4467     0.0000    14.0000 </r>
       <r>   -11.4325     0.0000    14.0000 </r>
       <r>   -11.4183     0.0000    14.0000 </r>
       <r>   -11.4042     0.0000    14.0000 </r>
       <r>   -11.3900     0.0000    14.0000 </r>
       <r>   -11.3758     0.0000    14.0000 </r>
       <r>   -11.3617     0.0000    14.0000 </r>
       <r>   -11.3475     0.0000    14.0000 </r>
       <r>   -11.3333     0.0000    14.0000 </r>
       <r>   -11.3192     0.0000    14.0000 </r>
       <r>   -11.3050     0.0000    14.0000 </r>
       <r>   -11.2908     0.0000    14.0000 </r>
       <r>   -11.2767     0.0000    14.0000 </r>
       <r>   -11.2625     0.0000    14.0000 </r>
       <r>   -11.2483     0.0000    14.0000 </r>
       <r>   -11.2342     0.0000    14.0000 </r>
       <r>   -11.2200     0.0000    14.0000 </r>
       <r>   -11.2058     0.0000    14.0000 </r>
       <r>   -11.1917     0.0000    14.0000 </r>
       <r>   -11.1775     0.0000    14.0000 </r>
       <r>   -11.1633     0.0000    14.0000 </r>
       <r>   -11.1492     0.0000    14.0000 </r>
       <r>   -11.1350     0.0000    14.0000 </r>
       <r>   -11.1208     0.0000    14.0000 </r>
       <r>   -11.1067     0.0000    14.0000 </r>
       <r>   -11.0925     0.0000    14.0000 </r>
       <r>   -11.0783     0.0000    14.0000 </r>
       <r>   -11.0642     0.0000    14.0000 </r>
       <r>   -11.0500     0.0000    14.0000 </r>
       <r>   -11.0358     0.0000    14.0000 </r>
       <r>   -11.0217     0.0000    14.0000 </r>
       <r>   -11.0075     0.0000    14.0000 </r>
       <r>   -10.9933     0.0000    14.0000 </r>
       <r>   -10.9792     0.0000    14.0000 </r>
       <r>   -10.9650     0.0000    14.0000 </r>
       <r>   -10.9508     0.0000    14.0000 </r>
       <r>   -10.9367     0.0000    14.0000 </r>
       <r>   -10.9225     0.0000    14.0000 </r>
       <r>   -10.9083     0.0000    14.0000 </r>
       <r>   -10.8942     0.0000    14.0000 </r>
       <r>   -10.8800     0.0000    14.0000 </r>
       <r>   -10.8658     0.0000    14.0000 </r>
       <r>   -10.8517     0.0000    14.0000 </r>
       <r>   -10.8375     0.0000    14.0000 </r>
       <r>   -10.8233     0.0000    14.0000 </r>
       <r>   -10.8092     0.0000    14.0000 </r>
       <r>   -10.7950     0.0000    14.0000 </r>
       <r>   -10.7808     0.0000    14.0000 </r>
       <r>   -10.7667     0.0000    14.0000 </r>
       <r>   -10.7525     0.0000    14.0000 </r>
       <r>   -10.7383     0.0000    14.0000 </r>
       <r>   -10.7242     0.0000    14.0000 </r>
       <r>   -10.7100     0.0000    14.0000 </r>
       <r>   -10.6958     0.0000    14.0000 </r>
       <r>   -10.6817     0.0000    14.0000 </r>
       <r>   -10.6675     0.0000    14.0000 </r>
       <r>   -10.6533     0.0000    14.0000 </r>
       <r>   -10.6392     0.0000    14.0000 </r>
       <r>   -10.6250     0.0000    14.0000 </r>
       <r>   -10.6108     0.0000    14.0000 </r>
       <r>   -10.5967     0.0000    14.0000 </r>
       <r>   -10.5825     0.0000    14.0000 </r>
       <r>   -10.5683     0.0000    14.0000 </r>
       <r>   -10.5542     0.0000    14.0000 </r>
       <r>   -10.5400     0.0000    14.0000 </r>
       <r>   -10.5258     0.0000    14.0000 </r>
       <r>   -10.5117     0.0000    14.0000 </r>
       <r>   -10.4975     0.0000    14.0000 </r>
       <r>   -10.4833     0.0000    14.0000 </r>
       <r>   -10.4692     0.0000    14.0000 </r>
       <r>   -10.4550     0.0000    14.0000 </r>
       <r>   -10.4408     0.0000    14.0000 </r>
       <r>   -10.4267     0.0000    14.0000 </r>
       <r>   -10.4125     0.0000    14.0000 </r>
       <r>   -10.3983     0.0000    14.0000 </r>
       <r>   -10.3842     0.0000    14.0000 </r>
       <r>   -10.3700     0.0000    14.0000 </r>
       <r>   -10.3558     0.0000    14.0000 </r>
       <r>   -10.3417     0.0000    14.0000 </r>
       <r>   -10.3275     0.0000    14.0000 </r>
       <r>   -10.3133     0.0000    14.0000 </r>
       <r>   -10.2992     0.0000    14.0000 </r>
       <r>   -10.2850     0.0000    14.0000 </r>
       <r>   -10.2708     0.0000    14.0000 </r>
       <r>   -10.2567     0.0000    14.0000 </r>
       <r>   -10.2425     0.0000    14.0000 </r>
       <r>   -10.2283     0.0000    14.0000 </r>
       <r>   -10.2142     0.0000    14.0000 </r>
       <r>   -10.2000     0.0000    14.0000 </r>
       <r>   -10.1858     0.0000    14.0000 </r>
       <r>   -10.1717     0.0000    14.0000 </r>
       <r>   -10.1575     0.0000    14.0000 </r>
       <r>   -10.1433     0.0000    14.0000 </r>
       <r>   -10.1292     0.0000    14.0000 </r>
       <r>   -10.1150     0.0000    14.0000 </r>
       <r>   -10.1008     0.0000    14.0000 </r>
       <r>   -10.0867     0.0000    14.0000 </r>
       <r>   -10.0725     0.0000    14.0000 </r>
       <r>   -10.0583     0.0000    14.0000 </r>
       <r>   -10.0442     0.0000    14.0000 </r>
       <r>   -10.0300     0.0000    14.0000 </r>
       <r>   -10.0158     0.0000    14.0000 </r>
       <r>   -10.0017     0.0000    14.0000 </r>
       <r>    -9.9875     0.0000    14.0000 </r>
       <r>    -9.9733     0.0000    14.0000 </r>
       <r>    -9.9592     0.0000    14.0000 </r>
       <r>    -9.9450     0.0000    14.0000 </r>
       <r>    -9.9308     0.0000    14.0000 </r>
       <r>    -9.9167     0.0000    14.0000 </r>
       <r>    -9.9025     0.0000    14.0000 </r>
       <r>    -9.8883     0.0000    14.0000 </r>
       <r>    -9.8742     0.0000    14.0000 </r>
       <r>    -9.8600     0.0000    14.0000 </r>
       <r>    -9.8458     0.0000    14.0000 </r>
       <r>    -9.8317     0.0000    14.0000 </r>
       <r>    -9.8175     0.0000    14.0000 </r>
       <r>    -9.8033     0.0000    14.0000 </r>
       <r>    -9.7892     0.0000    14.0000 </r>
       <r>    -9.7750     0.0000    14.0000 </r>
       <r>    -9.7608     0.0000    14.0000 </r>
       <r>    -9.7467     0.0000    14.0000 </r>
       <r>    -9.7325     0.0000    14.0000 </r>
       <r>    -9.7183     0.0000    14.0000 </r>
       <r>    -9.7042     0.0000    14.0000 </r>
       <r>    -9.6900     0.0000    14.0000 </r>
       <r>    -9.6758     0.0000    14.0000 </r>
       <r>    -9.6617     0.0000    14.0000 </r>
       <r>    -9.6475     0.0000    14.0000 </r>
       <r>    -9.6333     0.0000    14.0000 </r>
       <r>    -9.6192     0.0000    14.0000 </r>
       <r>    -9.6050     0.0000    14.0000 </r>
       <r>    -9.5908     0.0000    14.0000 </r>
       <r>    -9.5767     0.0000    14.0000 </r>
       <r>    -9.5625     0.0000    14.0000 </r>
       <r>    -9.5483     0.0000    14.0000 </r>
       <r>    -9.5342     0.0000    14.0000 </r>
       <r>    -9.5200     0.0000    14.0000 </r>
       <r>    -9.5058     0.0000    14.0000 </r>
       <r>    -9.4917     0.0000    14.0000 </r>
       <r>    -9.4775     0.0000    14.0000 </r>
       <r>    -9.4633     0.0000    14.0000 </r>
       <r>    -9.4492     0.0000    14.0000 </r>
       <r>    -9.4350     0.0000    14.0000 </r>
       <r>    -9.4208     0.0000    14.0000 </r>
       <r>    -9.4067     0.0000    14.0000 </r>
       <r>    -9.3925     0.0000    14.0000 </r>
       <r>    -9.3783     0.0000    14.0000 </r>
       <r>    -9.3642     0.0000    14.0000 </r>
       <r>    -9.3500     0.0000    14.0000 </r>
       <r>    -9.3358     0.0000    14.0000 </r>
       <r>    -9.3217     0.0000    14.0000 </r>
       <r>    -9.3075     0.0000    14.0000 </r>
       <r>    -9.2933     0.0000    14.0000 </r>
       <r>    -9.2792     0.0000    14.0000 </r>
       <r>    -9.2650     0.0000    14.0000 </r>
       <r>    -9.2508     0.0000    14.0000 </r>
       <r>    -9.2367     0.0000    14.0000 </r>
       <r>    -9.2225     0.0000    14.0000 </r>
       <r>    -9.2083     0.0000    14.0000 </r>
       <r>    -9.1942     0.0000    14.0000 </r>
       <r>    -9.1800     0.0000    14.0000 </r>
       <r>    -9.1658     0.0000    14.0000 </r>
       <r>    -9.1517     0.0000    14.0000 </r>
       <r>    -9.1375     0.0000    14.0000 </r>
       <r>    -9.1233     0.0000    14.0000 </r>
       <r>    -9.1092     0.0000    14.0000 </r>
       <r>    -9.0950     0.0000    14.0000 </r>
       <r>    -9.0808     0.0000    14.0000 </r>
       <r>    -9.0667     0.0000    14.0000 </r>
       <r>    -9.0525     0.0000    14.0000 </r>
       <r>    -9.0383     0.0000    14.0000 </r>
       <r>    -9.0242     0.0000    14.0000 </r>
       <r>    -9.0100     0.0000    14.0000 </r>
       <r>    -8.9958     0.0000    14.0000 </r>
       <r>    -8.9817     0.0000    14.0000 </r>
       <r>    -8.9675     0.0000    14.0000 </r>
       <r>    -8.9533     0.0000    14.0000 </r>
       <r>    -8.9392     0.0000    14.0000 </r>
       <r>    -8.9250     0.0000    14.0000 </r>
       <r>    -8.9108     0.0000    14.0000 </r>
       <r>    -8.8967     0.0000    14.0000 </r>
       <r>    -8.8825     0.0000    14.0000 </r>
       <r>    -8.8683     0.0000    14.0000 </r>
       <r>    -8.8542     0.0000    14.0000 </r>
       <r>    -8.8400     0.0000    14.0000 </r>
       <r>    -8.8258     0.0000    14.0000 </r>
       <r>    -8.8117     0.0000    14.0000 </r>
       <r>    -8.7975     0.0000    14.0000 </r>
       <r>    -8.7833     0.0000    14.0000 </r>
       <r>    -8.7692     0.0000    14.0000 </r>
       <r>    -8.7550     0.0000    14.0000 </r>
       <r>    -8.7408     0.0000    14.0000 </r>
       <r>    -8.7267     0.0000    14.0000 </r>
       <r>    -8.7125     0.0000    14.0000 </r>
       <r>    -8.6983     0.0000    14.0000 </r>
       <r>    -8.6842     0.0000    14.0000 </r>
       <r>    -8.6700     0.0000    14.0000 </r>
       <r>    -8.6558     0.0000    14.0000 </r>
       <r>    -8.6417     0.0000    14.0000 </r>
       <r>    -8.6275     0.0000    14.0000 </r>
       <r>    -8.6133     0.0000    14.0000 </r>
       <r>    -8.5992     0.0000    14.0000 </r>
       <r>    -8.5850     0.0000    14.0000 </r>
       <r>    -8.5708     0.0000    14.0000 </r>
       <r>    -8.5567     0.0000    14.0000 </r>
       <r>    -8.5425     0.0000    14.0000 </r>
       <r>    -8.5283     0.0000    14.0000 </r>
       <r>    -8.5142     0.0000    14.0000 </r>
       <r>    -8.5000     0.0000    14.0000 </r>
       <r>    -8.4858     0.0000    14.0000 </r>
       <r>    -8.4717     0.0000    14.0000 </r>
       <r>    -8.4575     0.0000    14.0000 </r>
       <r>    -8.4433     0.0000    14.0000 </r>
       <r>    -8.4292     0.0000    14.0000 </r>
       <r>    -8.4150     0.0000    14.0000 </r>
       <r>    -8.4008     0.0000    14.0000 </r>
       <r>    -8.3867     0.0000    14.0000 </r>
       <r>    -8.3725     0.0000    14.0000 </r>
       <r>    -8.3583     0.0000    14.0000 </r>
       <r>    -8.3442     0.0000    14.0000 </r>
       <r>    -8.3300     0.0000    14.0000 </r>
       <r>    -8.3158     0.0000    14.0000 </r>
       <r>    -8.3017     0.0000    14.0000 </r>
       <r>    -8.2875     0.0000    14.0000 </r>
       <r>    -8.2733     0.0000    14.0000 </r>
       <r>    -8.2592     0.0000    14.0000 </r>
       <r>    -8.2450     0.0000    14.0000 </r>
       <r>    -8.2308     0.0000    14.0000 </r>
       <r>    -8.2167     0.0000    14.0000 </r>
       <r>    -8.2025     0.0000    14.0000 </r>
       <r>    -8.1883     0.0000    14.0000 </r>
       <r>    -8.1742     0.0000    14.0000 </r>
       <r>    -8.1600     0.0000    14.0000 </r>
       <r>    -8.1458     0.0000    14.0000 </r>
       <r>    -8.1317     0.0000    14.0000 </r>
       <r>    -8.1175     0.0000    14.0000 </r>
       <r>    -8.1033     0.0000    14.0000 </r>
       <r>    -8.0892     0.0000    14.0000 </r>
       <r>    -8.0750     0.0000    14.0000 </r>
       <r>    -8.0608     0.0000    14.0000 </r>
       <r>    -8.0467     0.0000    14.0000 </r>
       <r>    -8.0325     0.0000    14.0000 </r>
       <r>    -8.0183     0.0000    14.0000 </r>
       <r>    -8.0042     0.0000    14.0000 </r>
       <r>    -7.9900     0.0000    14.0000 </r>
       <r>    -7.9758     0.0000    14.0000 </r>
       <r>    -7.9617     0.0000    14.0000 </r>
       <r>    -7.9475     0.0000    14.0000 </r>
       <r>    -7.9333     0.0000    14.0000 </r>
       <r>    -7.9192     0.0000    14.0000 </r>
       <r>    -7.9050     0.0000    14.0000 </r>
       <r>    -7.8908     0.0000    14.0000 </r>
       <r>    -7.8767     0.0000    14.0000 </r>
       <r>    -7.8625     0.0000    14.0000 </r>
       <r>    -7.8483     0.0000    14.0000 </r>
       <r>    -7.8342     0.0000    14.0000 </r>
       <r>    -7.8200     0.0000    14.0000 </r>
       <r>    -7.8058     0.0000    14.0000 </r>
       <r>    -7.7917     0.0000    14.0000 </r>
       <r>    -7.7775     0.0000    14.0000 </r>
       <r>    -7.7633     0.0000    14.0000 </r>
       <r>    -7.7492     0.0000    14.0000 </r>
       <r>    -7.7350     0.0000    14.0000 </r>
       <r>    -7.7208     0.0000    14.0000 </r>
       <r>    -7.7067     0.0000    14.0000 </r>
       <r>    -7.6925     0.0000    14.0000 </r>
       <r>    -7.6783     0.0000    14.0000 </r>
       <r>    -7.6642     0.0000    14.0000 </r>
       <r>    -7.6500     0.0000    14.0000 </r>
       <r>    -7.6358     0.0000    14.0000 </r>
       <r>    -7.6217     0.0000    14.0000 </r>
       <r>    -7.6075     0.0000    14.0000 </r>
       <r>    -7.5933     0.0000    14.0000 </r>
       <r>    -7.5792     0.0000    14.0000 </r>
       <r>    -7.5650     0.0000    14.0000 </r>
       <r>    -7.5508     0.0000    14.0000 </r>
       <r>    -7.5367     0.0000    14.0000 </r>
       <r>    -7.5225     0.0000    14.0000 </r>
       <r>    -7.5083     0.0000    14.0000 </r>
       <r>    -7.4942     0.0000    14.0000 </r>
       <r>    -7.4800     0.0000    14.0000 </r>
       <r>    -7.4658     0.0000    14.0000 </r>
       <r>    -7.4517     0.0000    14.0000 </r>
       <r>    -7.4375     0.0000    14.0000 </r>
       <r>    -7.4233     0.0000    14.0000 </r>
       <r>    -7.4092     0.0000    14.0000 </r>
       <r>    -7.3950     0.0000    14.0000 </r>
       <r>    -7.3808     0.0000    14.0000 </r>
       <r>    -7.3667     0.0000    14.0000 </r>
       <r>    -7.3525     0.0000    14.0000 </r>
       <r>    -7.3383     0.0000    14.0000 </r>
       <r>    -7.3242     0.0000    14.0000 </r>
       <r>    -7.3100     0.0000    14.0000 </r>
       <r>    -7.2958     0.0000    14.0000 </r>
       <r>    -7.2817     0.0000    14.0000 </r>
       <r>    -7.2675     0.0000    14.0000 </r>
       <r>    -7.2533     0.0000    14.0000 </r>
       <r>    -7.2392     0.0000    14.0000 </r>
       <r>    -7.2250     0.0000    14.0000 </r>
       <r>    -7.2108     0.0000    14.0000 </r>
       <r>    -7.1967     0.0000    14.0000 </r>
       <r>    -7.1825     0.0000    14.0000 </r>
       <r>    -7.1683     0.0000    14.0000 </r>
       <r>    -7.1542     0.0000    14.0000 </r>
       <r>    -7.1400     0.0000    14.0000 </r>
       <r>    -7.1258     0.0000    14.0000 </r>
       <r>    -7.1117     0.0000    14.0000 </r>
       <r>    -7.0975     0.0000    14.0000 </r>
       <r>    -7.0833     0.0000    14.0000 </r>
       <r>    -7.0692     0.0000    14.0000 </r>
       <r>    -7.0550     0.0000    14.0000 </r>
       <r>    -7.0408     0.0000    14.0000 </r>
       <r>    -7.0267     0.0000    14.0000 </r>
       <r>    -7.0125     0.0000    14.0000 </r>
       <r>    -6.9983     0.0000    14.0000 </r>
       <r>    -6.9842     0.0000    14.0000 </r>
       <r>    -6.9700     0.0000    14.0000 </r>
       <r>    -6.9558     0.0000    14.0000 </r>
       <r>    -6.9417     0.0000    14.0000 </r>
       <r>    -6.9275     0.0000    14.0000 </r>
       <r>    -6.9133     0.0000    14.0000 </r>
       <r>    -6.8992     0.0000    14.0000 </r>
       <r>    -6.8850     0.0000    14.0000 </r>
       <r>    -6.8708     0.0000    14.0000 </r>
       <r>    -6.8567     0.0000    14.0000 </r>
       <r>    -6.8425     0.0000    14.0000 </r>
       <r>    -6.8283     0.0000    14.0000 </r>
[...]
        <r>  0.3410  0.0003  0.0002  0.0003  0.0000  0.0000  0.0000  0.0000  0.0000 </r>
        <r>  0.1624  0.0001  0.0001  0.0000  0.0000  0.0000  0.0000  0.0000  0.0000 </r>
        <r>  0.1624  0.0000  0.0001  0.0001  0.0000  0.0000  0.0000  0.0000  0.0000 </r>
       </set>
       <set comment="band 3">
        <r>  0.0000  0.0630  0.0000  0.0630  0.0000  0.0008  0.0000  0.0008  0.0000 </r>
        <r>  0.0000  0.0273  0.0000  0.0273  0.0000  0.0001  0.0000  0.0001  0.0062 </r>
        <r>  0.0000  0.0004  0.0000  0.0004  0.0000  0.0000  0.0000  0.0000  0.0000 </r>
        <r>  0.3319  0.0000  0.0001  0.0000  0.0000  0.0000  0.0000  0.0000  0.0000 </r>
        <r>  0.3319  0.0000  0.0001  0.0000  0.0000  0.0000  0.0000  0.0000  0.0000 </r>
       </set>
       <set comment="band 4">
        <r>  0.0000  0.0076  0.0113  0.0076  0.0015  0.0004  0.0000  0.0004  0.0000 </r>
        <r>  0.0035  0.0140  0.0202  0.0140  0.0000  0.0000  0.0304  0.0000  0.0000 </r>
        <r>  0.4153  0.0001  0.0002  0.0001  0.0000  0.0000  0.0000  0.0000  0.0000 </r>
        <r>  0.1716  0.0000  0.0000  0.0000  0.0000  0.0000  0.0000  0.0000  0.0000 </r>
        <r>  0.1716  0.0000  0.0000  0.0000  0.0000  0.0000  0.0000  0.0000  0.0000 </r>
       </set>
       <set comment="band 5">
        <r>  0.0000  0.0893  0.7414  0.0893  0.0000  0.0000  0.0001  0.0000  0.0000 </r>
        <r>  0.0002  0.0000  0.0002  0.0000  0.0017  0.0003  0.0003  0.0003  0.0000 </r>
        <r>  0.0062  0.0003  0.0000  0.0003  0.0000  0.0000  0.0000  0.0000  0.0000 </r>
        <r>  0.0003  0.0000  0.0004  0.0019  0.0000  0.0000  0.0000  0.0000  0.0000 </r>
        <r>  0.0003  0.0019  0.0004  0.0000  0.0000  0.0000  0.0000  0.0000  0.0000 </r>
       </set>
       <set comment="band 6">
        <r>  0.0000  0.3991  0.0000  0.3991  0.0000  0.0002  0.0000  0.0002  0.0000 </r>
        <r>  0.0000  0.0037  0.0000  0.0037  0.0000  0.0008  0.0000  0.0008  0.0013 </r>
        <r>  0.0000  0.0012  0.0000  0.0012  0.0000  0.0000  0.0000  0.0000  0.0000 </r>
        <r>  0.0623  0.0000  0.0010  0.0000  0.0000  0.0000  0.0000  0.0000  0.0000 </r>
        <r>  0.0623  0.0000  0.0010  0.0000  0.0000  0.0000  0.0000  0.0000  0.0000 </r>
       </set>
       <set comment="band 7">
        <r>  0.0000  0.3140  0.1718  0.3140  0.0001  0.0002  0.0000  0.0002  0.0000 </r>
        <r>  0.0021  0.0035  0.0004  0.0035  0.0002  0.0005  0.0000  0.0005  0.0000 </r>
        <r>  0.0124  0.0008  0.0000  0.0008  0.0000  0.0000  0.0000  0.0000  0.0000 </r>
        <r>  0.0584  0.0000  0.0006  0.0002  0.0000  0.0000  0.0000  0.0000  0.0000 </r>
        <r>  0.0584  0.0002  0.0006  0.0000  0.0000  0.0000  0.0000  0.0000  0.0000 </r>
       </set>
       <set comment="band 8">
        <r>  0.0002  0.0002  0.0003  0.0002  0.0022  0.0002  0.0000  0.0002  0.0000 </r>
        <r>  0.2839  0.0067  0.0039  0.0067  0.0023  0.0015  0.1172  0.0015  0.0000 </r>
        <r>  0.0023  0.0026  0.0150  0.0026  0.0000  0.0000  0.0000  0.0000  0.0000 </r>
        <r>  0.0006  0.2496  0.0017  0.0027  0.0000  0.0000  0.0000  0.0000  0.0000 </r>
        <r>  0.0006  0.0027  0.0017  0.2496  0.0000  0.0000  0.0000  0.0000  0.0000 </r>
       </set>
       <set comment="band 9">
        <r>  0.0000  0.0002  0.0000  0.0002  0.0000  0.0000  0.0000  0.0000  0.0000 </r>
        <r>  0.0000  0.0055  0.0000  0.0055  0.0000  0.0002  0.0000  0.0002  0.5316 </r>
        <r>  0.0000  0.0008  0.0000  0.0008  0.0000  0.0000  0.0000  0.0000  0.0000 </r>
        <r>  0.0001  0.2506  0.0001  0.0000  0.0000  0.0000  0.0000  0.0000  0.0000 </r>
        <r>  0.0001  0.0000  0.0001  0.2506  0.0000  0.0000  0.0000  0.0000  0.0000 </r>
       </set>
       <set comment="band 10">
        <r>  0.0090  0.0003  0.0306  0.0003  0.0000  0.0010  0.0048  0.0010  0.0000 </r>
        <r>  0.0041  0.0000  0.0001  0.0000  0.1899  0.0046  0.0061  0.0046  0.0000 </r>
        <r>  0.0000  0.0039  0.0004  0.0039  0.0000  0.0000  0.0000  0.0000  0.0000 </r>
        <r>  0.0003  0.0057  0.0065  0.2029  0.0000  0.0000  0.0000  0.0000  0.0000 </r>
        <r>  0.0003  0.2029  0.0065  0.0057  0.0000  0.0000  0.0000  0.0000  0.0000 </r>
       </set>
       <set comment="band 11">
        <r>  0.0001  0.0105  0.0030  0.0105  0.0001  0.0019  0.0008  0.0019  0.0000 </r>
        <r>  0.0123  0.0000  0.0472  0.0000  0.0088  0.0479  0.1715  0.0479  0.0000 </r>
        <r>  0.0011  0.0431  0.2368  0.0431  0.0000  0.0000  0.0000  0.0000  0.0000 </r>
        <r>  0.0000  0.0073  0.0680  0.0095  0.0000  0.0000  0.0000  0.0000  0.0000 </r>
        <r>  0.0000  0.0095  0.0680  0.0073  0.0000  0.0000  0.0000  0.0000  0.0000 </r>
       </set>
       <set comment="band 12">
        <r>  0.0000  0.0217  0.0000  0.0217  0.0000  0.0035  0.0000  0.0035  0.0010 </r>
        <r>  0.0000  0.0004  0.0000  0.0004  0.0000  0.1020  0.0000  0.1020  0.0018 </r>
        <r>  0.0000  0.0976  0.0000  0.0976  0.0000  0.0000  0.0000  0.0000  0.0000 </r>
        <r>  0.0001  0.0008  0.1309  0.0001  0.0000  0.0000  0.0000  0.0000  0.0000 </r>
        <r>  0.0001  0.0001  0.1309  0.0008  0.0000  0.0000  0.0000  0.0000  0.0000 </r>
       </set>
       <set comment="band 13">
        <r>  0.0003  0.0094  0.0012  0.0094  0.0010  0.0006  0.0006  0.0006  0.0000 </r>
        <r>  0.0423  0.0003  0.0443  0.0003  0.0033  0.0473  0.1493  0.0473  0.0000 </r>
        <r>  0.0027  0.0523  0.2941  0.0523  0.0000  0.0000  0.0000  0.0000  0.0000 </r>
        <r>  0.0002  0.0000  0.0514  0.0035  0.0000  0.0000  0.0000  0.0000  0.0000 </r>
        <r>  0.0002  0.0035  0.0514  0.0000  0.0000  0.0000  0.0000  0.0000  0.0000 </r>
       </set>
       <set comment="band 14">
        <r>  0.0001  0.0007  0.0004  0.0007  0.0031  0.0052  0.0009  0.0052  0.0000 </r>
        <r>  0.0000  0.0029  0.0004  0.0029  0.0000  0.0015  0.0024  0.0015  0.0000 </r>
        <r>  0.0007  0.2014  0.0017  0.2014  0.0000  0.0000  0.0000  0.0000  0.0000 </r>
        <r>  0.0018  0.0004  0.1495  0.0000  0.0000  0.0000  0.0000  0.0000  0.0000 </r>
        <r>  0.0018  0.0000  0.1495  0.0004  0.0000  0.0000  0.0000  0.0000  0.0000 </r>
       </set>
       <set comment="band 15">
        <r>  0.0000  0.0015  0.0000  0.0015  0.0000  0.0059  0.0000  0.0059  0.0003 </r>
        <r>  0.0000  0.0034  0.0000  0.0034  0.0000  0.0011  0.0000  0.0011  0.0009 </r>
        <r>  0.0000  0.2012  0.0000  0.2012  0.0000  0.0000  0.0000  0.0000  0.0000 </r>
        <r>  0.0021  0.0003  0.1378  0.0153  0.0000  0.0000  0.0000  0.0000  0.0000 </r>
        <r>  0.0021  0.0153  0.1378  0.0003  0.0000  0.0000  0.0000  0.0000  0.0000 </r>
       </set>
       <set comment="band 16">
        <r>  0.0000  0.0001  0.0000  0.0001  0.0000  0.0002  0.0000  0.0002  0.0044 </r>
        <r>  0.0000  0.0002  0.0000  0.0002  0.0000  0.0002  0.0000  0.0002  0.0000 </r>
        <r>  0.0000  0.0088  0.0000  0.0088  0.0000  0.0000  0.0000  0.0000  0.0000 </r>
        <r>  0.0001  0.0000  0.0086  0.3611  0.0000  0.0000  0.0000  0.0000  0.0000 </r>
        <r>  0.0001  0.3611  0.0086  0.0000  0.0000  0.0000  0.0000  0.0000  0.0000 </r>
       </set>
       <set comment="band 17">
        <r>  0.0004  0.0023  0.0000  0.0023  0.0004  0.0000  0.0002  0.0000  0.0000 </r>
        <r>  0.0001  0.0012  0.0013  0.0012  0.0023  0.3910  0.0002  0.3910  0.0000 </r>
        <r>  0.0006  0.0181  0.0001  0.0181  0.0000  0.0000  0.0000  0.0000  0.0000 </r>
        <r>  0.0005  0.0000  0.0511  0.0001  0.0000  0.0000  0.0000  0.0000  0.0000 </r>
        <r>  0.0005  0.0001  0.0511  0.0000  0.0000  0.0000  0.0000  0.0000  0.0000 </r>
       </set>
       <set comment="band 18">
        <r>  0.0000  0.0022  0.0000  0.0022  0.0000  0.0001  0.0000  0.0001  0.0015 </r>
        <r>  0.0000  0.0012  0.0000  0.0012  0.0000  0.3916  0.0000  0.3916  0.0001 </r>
        <r>  0.0000  0.0174  0.0000  0.0174  0.0000  0.0000  0.0000  0.0000  0.0000 </r>
        <r>  0.0005  0.0000  0.0537  0.0000  0.0000  0.0000  0.0000  0.0000  0.0000 </r>
        <r>  0.0005  0.0000  0.0537  0.0000  0.0000  0.0000  0.0000  0.0000  0.0000 </r>
       </set>
       <set comment="band 19">
        <r>  0.0011  0.0000  0.0027  0.0000  0.0001  0.0002  0.0100  0.0002  0.0000 </r>
        <r>  0.0000  0.0005  0.0000  0.0005  0.8009  0.0011  0.0000  0.0011  0.0000 </r>
        <r>  0.0000  0.0002  0.0000  0.0002  0.0000  0.0000  0.0000  0.0000  0.0000 </r>
        <r>  0.0003  0.0000  0.0001  0.0575  0.0000  0.0000  0.0000  0.0000  0.0000 </r>
        <r>  0.0003  0.0575  0.0001  0.0000  0.0000  0.0000  0.0000  0.0000  0.0000 </r>
       </set>
       <set comment="band 20">
        <r>  0.0001  0.0011  0.0000  0.0003  0.4716  0.0002  0.0033  0.0198  0.0003 </r>
        <r>  0.0003  0.0010  0.0270  0.0000  0.0007  0.0005  0.0079  0.0023  0.0001 </r>
        <r>  0.0487  0.0055  0.0068  0.0024  0.0000  0.0000  0.0000  0.0000  0.0000 </r>
        <r>  0.0011  0.0159  0.0061  0.0000  0.0000  0.0000  0.0000  0.0000  0.0000 </r>
        <r>  0.0001  0.0003  0.0024  0.0123  0.0000  0.0000  0.0000  0.0000  0.0000 </r>
       </set>
      </set>
      <set comment="kpoint 20">
       <set comment="band 1">
        <r>  0.9794  0.0000  0.0000  0.0000  0.0000  0.0000  0.0000  0.0000  0.0000 </r>
        <r>  0.0000  0.0000  0.0000  0.0000  0.0000  0.0000  0.0000  0.0000  0.0000 </r>
        <r>  0.0000  0.0000  0.0000  0.0000  0.0000  0.0000  0.0000  0.0000  0.0000 </r>
        <r>  0.0000  0.0000  0.0000  0.0000  0.0000  0.0000  0.0000  0.0000  0.0000 </r>
        <r>  0.0000  0.0000  0.0000  0.0000  0.0000  0.0000  0.0000  0.0000  0.0000 </r>
       </set>
       <set comment="band 2">
        <r>  0.0000  0.0246  0.0246  0.0246  0.0009  0.0009  0.0000  0.0009  0.0000 </r>
        <r>  0.0087  0.0189  0.0189  0.0189  0.0001  0.0001  0.0000  0.0001  0.0000 </r>
        <r>  0.2369  0.0001  0.0001  0.0001  0.0000  0.0000  0.0000  0.0000  0.0000 </r>
        <r>  0.2369  0.0001  0.0001  0.0001  0.0000  0.0000  0.0000  0.0000  0.0000 </r>
        <r>  0.2369  0.0001  0.0001  0.0001  0.0000  0.0000  0.0000  0.0000  0.0000 </r>
       </set>
       <set comment="band 3">
        <r>  0.0000  0.0111  0.0107  0.0039  0.0012  0.0004  0.0000  0.0012  0.0000 </r>
        <r>  0.0000  0.0261  0.0254  0.0091  0.0000  0.0000  0.0045  0.0000  0.0027 </r>
        <r>  0.3185  0.0000  0.0000  0.0000  0.0000  0.0000  0.0000  0.0000  0.0000 </r>
        <r>  0.3282  0.0000  0.0000  0.0000  0.0000  0.0000  0.0000  0.0000  0.0000 </r>
        <r>  0.1148  0.0001  0.0001  0.0000  0.0000  0.0000  0.0000  0.0000  0.0000 </r>
       </set>
       <set comment="band 4">
        <r>  0.0000  0.0061  0.0064  0.0133  0.0007  0.0014  0.0000  0.0007  0.0000 </r>
        <r>  0.0000  0.0143  0.0151  0.0313  0.0000  0.0000  0.0027  0.0000  0.0045 </r>
        <r>  0.1892  0.0001  0.0000  0.0000  0.0000  0.0000  0.0000  0.0000  0.0000 </r>
        <r>  0.1795  0.0000  0.0001  0.0001  0.0000  0.0000  0.0000  0.0000  0.0000 </r>
        <r>  0.3929  0.0000  0.0000  0.0000  0.0000  0.0000  0.0000  0.0000  0.0000 </r>
       </set>
       <set comment="band 5">
        <r>  0.0000  0.5149  0.2638  0.1140  0.0000  0.0000  0.0000  0.0001  0.0000 </r>
        <r>  0.0000  0.0009  0.0005  0.0002  0.0008  0.0004  0.0001  0.0017  0.0001 </r>
        <r>  0.0074  0.0004  0.0000  0.0018  0.0000  0.0000  0.0000  0.0000  0.0000 </r>
        <r>  0.0144  0.0000  0.0004  0.0009  0.0000  0.0000  0.0000  0.0000  0.0000 </r>
        <r>  0.0032  0.0010  0.0019  0.0000  0.0000  0.0000  0.0000  0.0000  0.0000 </r>
       </set>
       <set comment="band 6">
        <r>  0.0000  0.0802  0.3313  0.4811  0.0000  0.0001  0.0000  0.0000  0.0000 </r>
        <r>  0.0000  0.0001  0.0006  0.0008  0.0011  0.0015  0.0001  0.0003  0.0001 </r>
        <r>  0.0092  0.0017  0.0000  0.0003  0.0000  0.0000  0.0000  0.0000  0.0000 </r>
        <r>  0.0022  0.0000  0.0017  0.0012  0.0000  0.0000  0.0000  0.0000  0.0000 </r>
        <r>  0.0134  0.0012  0.0003  0.0000  0.0000  0.0000  0.0000  0.0000  0.0000 </r>
       </set>
       <set comment="band 7">
        <r>  0.0000  0.2825  0.2825  0.2825  0.0001  0.0001  0.0000  0.0001  0.0000 </r>
        <r>  0.0008  0.0015  0.0015  0.0015  0.0008  0.0008  0.0000  0.0008  0.0000 </r>
        <r>  0.0241  0.0009  0.0000  0.0009  0.0000  0.0000  0.0000  0.0000  0.0000 </r>
        <r>  0.0241  0.0000  0.0009  0.0009  0.0000  0.0000  0.0000  0.0000  0.0000 </r>
        <r>  0.0241  0.0009  0.0009  0.0000  0.0000  0.0000  0.0000  0.0000  0.0000 </r>
       </set>
       <set comment="band 8">
        <r>  0.0000  0.0001  0.0001  0.0001  0.0002  0.0002  0.0000  0.0002  0.0000 </r>
        <r>  0.3859  0.0045  0.0045  0.0045  0.0004  0.0004  0.0000  0.0004  0.0000 </r>
        <r>  0.0008  0.0005  0.1791  0.0005  0.0000  0.0000  0.0000  0.0000  0.0000 </r>
        <r>  0.0008  0.1791  0.0005  0.0005  0.0000  0.0000  0.0000  0.0000  0.0000 </r>
        <r>  0.0008  0.0005  0.0005  0.1791  0.0000  0.0000  0.0000  0.0000  0.0000 </r>
       </set>
       <set comment="band 9">
        <r>  0.0000  0.0000  0.0000  0.0000  0.0000  0.0001  0.0000  0.0001  0.0000 </r>
        <r>  0.0000  0.0045  0.0022  0.0039  0.0000  0.0001  0.1663  0.0001  0.3671 </r>
        <r>  0.0001  0.0001  0.1046  0.0001  0.0000  0.0000  0.0000  0.0000  0.0000 </r>
        <r>  0.0001  0.2132  0.0001  0.0001  0.0000  0.0000  0.0000  0.0000  0.0000 </r>
        <r>  0.0001  0.0001  0.0001  0.1854  0.0000  0.0000  0.0000  0.0000  0.0000 </r>
       </set>
       <set comment="band 10">
        <r>  0.0000  0.0000  0.0000  0.0000  0.0001  0.0001  0.0000  0.0000  0.0000 </r>
        <r>  0.0000  0.0026  0.0048  0.0031  0.0001  0.0000  0.3671  0.0000  0.1663 </r>
        <r>  0.0001  0.0001  0.2308  0.0001  0.0000  0.0000  0.0000  0.0000  0.0000 </r>
        <r>  0.0001  0.1223  0.0001  0.0001  0.0000  0.0000  0.0000  0.0000  0.0000 </r>
        <r>  0.0001  0.0001  0.0001  0.1500  0.0000  0.0000  0.0000  0.0000  0.0000 </r>
       </set>
       <set comment="band 11">
        <r>  0.0032  0.0161  0.0161  0.0161  0.0009  0.0009  0.0000  0.0009  0.0000 </r>
        <r>  0.0028  0.0001  0.0001  0.0001  0.0703  0.0703  0.0000  0.0703  0.0000 </r>
        <r>  0.0001  0.0737  0.0014  0.0737  0.0000  0.0000  0.0000  0.0000  0.0000 </r>
        <r>  0.0001  0.0014  0.0737  0.0737  0.0000  0.0000  0.0000  0.0000  0.0000 </r>
        <r>  0.0001  0.0737  0.0737  0.0014  0.0000  0.0000  0.0000  0.0000  0.0000 </r>
       </set>
       <set comment="band 12">
        <r>  0.0000  0.0339  0.0099  0.0115  0.0001  0.0002  0.0003  0.0005  0.0008 </r>
        <r>  0.0000  0.0001  0.0000  0.0000  0.0385  0.0445  0.0001  0.1311  0.0004 </r>
        <r>  0.0000  0.0457  0.0001  0.1375  0.0000  0.0000  0.0000  0.0000  0.0000 </r>
        <r>  0.0000  0.0003  0.0476  0.0413  0.0000  0.0000  0.0000  0.0000  0.0000 </r>
        <r>  0.0000  0.0395  0.1376  0.0001  0.0000  0.0000  0.0000  0.0000  0.0000 </r>
       </set>
       <set comment="band 13">
        <r>  0.0000  0.0030  0.0269  0.0254  0.0004  0.0004  0.0008  0.0000  0.0003 </r>
        <r>  0.0000  0.0000  0.0000  0.0000  0.1042  0.0982  0.0004  0.0116  0.0001 </r>
        <r>  0.0000  0.1040  0.0002  0.0123  0.0000  0.0000  0.0000  0.0000  0.0000 </r>
        <r>  0.0000  0.0000  0.1021  0.1084  0.0000  0.0000  0.0000  0.0000  0.0000 </r>
        <r>  0.0000  0.1102  0.0121  0.0002  0.0000  0.0000  0.0000  0.0000  0.0000 </r>
       </set>
       <set comment="band 14">
        <r>  0.0000  0.0001  0.0000  0.0000  0.0022  0.0001  0.0005  0.0031  0.0003 </r>
        <r>  0.0000  0.0014  0.0010  0.0000  0.0000  0.0000  0.0002  0.0000  0.0001 </r>
        <r>  0.0006  0.2448  0.0001  0.0326  0.0000  0.0000  0.0000  0.0000  0.0000 </r>
        <r>  0.0009  0.0001  0.2435  0.0943  0.0000  0.0000  0.0000  0.0000  0.0000 </r>
        <r>  0.0000  0.0988  0.0358  0.0000  0.0000  0.0000  0.0000  0.0000  0.0000 </r>
       </set>
       <set comment="band 15">
        <r>  0.0000  0.0000  0.0000  0.0001  0.0014  0.0035  0.0003  0.0005  0.0005 </r>
        <r>  0.0000  0.0002  0.0006  0.0015  0.0000  0.0000  0.0001  0.0000  0.0002 </r>
        <r>  0.0004  0.0051  0.0001  0.2173  0.0000  0.0000  0.0000  0.0000  0.0000 </r>
        <r>  0.0001  0.0000  0.0065  0.1556  0.0000  0.0000  0.0000  0.0000  0.0000 </r>
        <r>  0.0010  0.1511  0.2142  0.0001  0.0000  0.0000  0.0000  0.0000  0.0000 </r>
       </set>
       <set comment="band 16">
        <r>  0.0000  0.0000  0.0000  0.0000  0.0000  0.0000  0.0000  0.0000  0.0000 </r>
        <r>  0.0000  0.0000  0.0000  0.0000  0.0000  0.0000  0.0000  0.0000  0.0000 </r>
        <r>  0.0000  0.1276  0.0000  0.1276  0.0000  0.0000  0.0000  0.0000  0.0000 </r>
        <r>  0.0000  0.0000  0.1276  0.1276  0.0000  0.0000  0.0000  0.0000  0.0000 </r>
        <r>  0.0000  0.1276  0.1276  0.0000  0.0000  0.0000  0.0000  0.0000  0.0000 </r>
       </set>
       <set comment="band 17">
        <r>  0.0002  0.0014  0.0033  0.0002  0.0001  0.0005  0.0007  0.0001  0.0003 </r>
        <r>  0.0000  0.0003  0.0002  0.0011  0.5366  0.0320  0.0000  0.2280  0.0000 </r>
        <r>  0.0001  0.0029  0.0000  0.0190  0.0000  0.0000  0.0000  0.0000  0.0000 </r>
        <r>  0.0001  0.0000  0.0026  0.0451  0.0000  0.0000  0.0000  0.0000  0.0000 </r>
        <r>  0.0005  0.0461  0.0197  0.0000  0.0000  0.0000  0.0000  0.0000  0.0000 </r>
       </set>
       <set comment="band 18">
        <r>  0.0000  0.0027  0.0009  0.0010  0.0001  0.0001  0.0006  0.0002  0.0013 </r>
        <r>  0.0000  0.0004  0.0001  0.0001  0.1568  0.1732  0.0000  0.4681  0.0000 </r>
        <r>  0.0001  0.0143  0.0000  0.0399  0.0000  0.0000  0.0000  0.0000  0.0000 </r>
        <r>  0.0002  0.0000  0.0152  0.0138  0.0000  0.0000  0.0000  0.0000  0.0000 </r>
        <r>  0.0001  0.0130  0.0399  0.0000  0.0000  0.0000  0.0000  0.0000  0.0000 </r>
       </set>
       <set comment="band 19">
        <r>  0.0001  0.0002  0.0005  0.0002  0.1065  0.0532  0.0008  0.3129  0.0006 </r>
        <r>  0.0000  0.0395  0.0138  0.0068  0.0025  0.0009  0.0056  0.0010  0.0053 </r>
        <r>  0.0141  0.0049  0.0000  0.0014  0.0000  0.0000  0.0000  0.0000  0.0000 </r>
        <r>  0.0417  0.0004  0.0048  0.0028  0.0000  0.0000  0.0000  0.0000  0.0000 </r>
        <r>  0.0071  0.0029  0.0014  0.0001  0.0000  0.0000  0.0000  0.0000  0.0000 </r>
       </set>
       <set comment="band 20">
        <r>  0.0015  0.0005  0.0004  0.0014  0.3051  0.0268  0.0002  0.1517  0.0000 </r>
        <r>  0.0002  0.0176  0.0348  0.0030  0.0012  0.0042  0.0002  0.0015  0.0000 </r>
        <r>  0.0394  0.0010  0.0006  0.0031  0.0000  0.0000  0.0000  0.0000  0.0000 </r>
        <r>  0.0200  0.0004  0.0004  0.0013  0.0000  0.0000  0.0000  0.0000  0.0000 </r>
        <r>  0.0034  0.0006  0.0019  0.0024  0.0000  0.0000  0.0000  0.0000  0.0000 </r>
       </set>
      </set>
     </set>
    </set>
   </array>
  </projected>
 </calculation>
 <structure name="finalpos" >
  <crystal>
   <varray name="basis" >
    <v>       3.94684634       0.00000000       0.00000000 </v>
    <v>       0.00000000       3.94684634       0.00000000 </v>
    <v>       0.00000000       0.00000000       3.94684634 </v>
   </varray>
   <i name="volume">     61.48237796 </i>
   <varray name="rec_basis" >
    <v>       0.25336684       0.00000000       0.00000000 </v>
    <v>       0.00000000       0.25336684       0.00000000 </v>
    <v>       0.00000000       0.00000000       0.25336684 </v>
   </varray>
  </crystal>
  <varray name="positions" >
   <v>       0.00000000       0.00000000       0.00000000 </v>
   <v>       0.50000000       0.50000000       0.50000000 </v>
   <v>       0.50000000       0.50000000       0.00000000 </v>
   <v>       0.50000000       0.00000000       0.50000000 </v>
   <v>       0.00000000       0.50000000       0.50000000 </v>
  </varray>
 </structure>
</modeling>
