<?xml version="1.0" encoding="ISO-8859-1"?>
<modeling>
 <generator>
  <i name="program" type="string">vasp </i>
  <i name="version" type="string">5.4.4.18Apr17-6-g9f103f2a35  </i>
  <i name="subversion" type="string">(build Jun 30 2017 11:15:00) complex            parallel </i>
  <i name="platform" type="string">STALLO_VASP_5.4.4 </i>
  <i name="date" type="string">2019 11 17 </i>
  <i name="time" type="string">11:10:22 </i>
 </generator>
 <incar>
  <i type="string" name="PREC">normal    ! low/normal/accurate</i>
  <i type="string" name="ALGO"> Fast      ! Algorithm for electronic re</i>
  <i type="int" name="ISPIN">     1</i>
  <i type="int" name="NELMIN">     4</i>
  <i name="EDIFF">      0.00000100</i>
  <i type="int" name="NSW">     0</i>
  <i name="ENCUT">    500.00000000</i>
  <i type="int" name="NEDOS">  2401</i>
  <i type="string" name="LREAL"> Auto      ! Projection in reciprocal sp</i>
  <i name="EMIN">    -17.00000000</i>
  <i name="EMAX">     20.00000000</i>
  <i type="int" name="ISMEAR">     0</i>
  <i name="SIGMA">      0.10000000</i>
  <i type="logical" name="LWAVE"> F  </i>
  <i type="int" name="LORBIT">    11</i>
  <i type="logical" name="LELF"> T  </i>
  <v type="int" name="KPOINT_BSE">    -1     0     0     0</v>
 </incar>
 <structure name="primitive_cell" >
  <crystal>
   <varray name="basis" >
    <v>       3.94684634       0.00000000       0.00000000 </v>
    <v>       0.00000000       3.94684634       0.00000000 </v>
    <v>       0.00000000       0.00000000       3.94684634 </v>
   </varray>
   <i name="volume">     61.48237796 </i>
   <varray name="rec_basis" >
    <v>       0.25336684       0.00000000       0.00000000 </v>
    <v>       0.00000000       0.25336684       0.00000000 </v>
    <v>       0.00000000       0.00000000       0.25336684 </v>
   </varray>
  </crystal>
  <varray name="positions" >
   <v>       0.00000000       0.00000000       0.00000000 </v>
   <v>      -0.50000000      -0.50000000       0.00000000 </v>
   <v>      -0.50000000       0.00000000      -0.50000000 </v>
   <v>       0.00000000      -0.50000000      -0.50000000 </v>
   <v>      -0.50000000      -0.50000000      -0.50000000 </v>
  </varray>
 </structure>
 <varray name="primitive_index" >
  <v type="int" >        1 </v>
  <v type="int" >        3 </v>
  <v type="int" >        4 </v>
  <v type="int" >        5 </v>
  <v type="int" >        2 </v>
 </varray>
 <kpoints>
  <generation param="Gamma">
   <v type="int" name="divisions">       7        7        7 </v>
   <v name="usershift">      0.00000000       0.00000000       0.00000000 </v>
   <v name="genvec1">      0.14285714       0.00000000       0.00000000 </v>
   <v name="genvec2">      0.00000000       0.14285714       0.00000000 </v>
   <v name="genvec3">      0.00000000       0.00000000       0.14285714 </v>
   <v name="shift">      0.00000000       0.00000000       0.00000000 </v>
  </generation>
  <varray name="kpointlist" >
   <v>       0.00000000       0.00000000       0.00000000 </v>
   <v>       0.14285714       0.00000000       0.00000000 </v>
   <v>       0.28571429       0.00000000       0.00000000 </v>
   <v>       0.42857143       0.00000000       0.00000000 </v>
   <v>       0.14285714       0.14285714       0.00000000 </v>
   <v>       0.28571429       0.14285714       0.00000000 </v>
   <v>       0.42857143       0.14285714       0.00000000 </v>
   <v>       0.28571429       0.28571429       0.00000000 </v>
   <v>       0.42857143       0.28571429       0.00000000 </v>
   <v>       0.42857143       0.42857143       0.00000000 </v>
   <v>       0.14285714       0.14285714       0.14285714 </v>
   <v>       0.28571429       0.14285714       0.14285714 </v>
   <v>       0.42857143       0.14285714       0.14285714 </v>
   <v>       0.28571429       0.28571429       0.14285714 </v>
   <v>       0.42857143       0.28571429       0.14285714 </v>
   <v>       0.42857143       0.42857143       0.14285714 </v>
   <v>       0.28571429       0.28571429       0.28571429 </v>
   <v>       0.42857143       0.28571429       0.28571429 </v>
   <v>       0.42857143       0.42857143       0.28571429 </v>
   <v>       0.42857143       0.42857143       0.42857143 </v>
  </varray>
  <varray name="weights" >
   <v>       0.00291545 </v>
   <v>       0.01749271 </v>
   <v>       0.01749271 </v>
   <v>       0.01749271 </v>
   <v>       0.03498542 </v>
   <v>       0.06997085 </v>
   <v>       0.06997085 </v>
   <v>       0.03498542 </v>
   <v>       0.06997085 </v>
   <v>       0.03498542 </v>
   <v>       0.02332362 </v>
   <v>       0.06997085 </v>
   <v>       0.06997085 </v>
   <v>       0.06997085 </v>
   <v>       0.13994169 </v>
   <v>       0.06997085 </v>
   <v>       0.02332362 </v>
   <v>       0.06997085 </v>
   <v>       0.06997085 </v>
   <v>       0.02332362 </v>
  </varray>
 </kpoints>
 <parameters>
  <separator name="general" >
   <i type="string" name="SYSTEM">unknown system</i>
   <i type="logical" name="LCOMPAT"> F  </i>
  </separator>
  <separator name="electronic" >
   <i type="string" name="PREC">normal</i>
   <i name="ENMAX">    500.00000000</i>
   <i name="ENAUG">    605.39200000</i>
   <i name="EDIFF">      0.00000100</i>
   <i type="int" name="IALGO">    68</i>
   <i type="int" name="IWAVPR">    10</i>
   <i type="int" name="NBANDS">    20</i>
   <i name="NELECT">     32.00000000</i>
   <i type="int" name="TURBO">     0</i>
   <i type="int" name="IRESTART">     0</i>
   <i type="int" name="NREBOOT">     0</i>
   <i type="int" name="NMIN">     0</i>
   <i name="EREF">      0.00000000</i>
   <separator name="electronic smearing" >
    <i type="int" name="ISMEAR">     0</i>
    <i name="SIGMA">      0.10000000</i>
    <i name="KSPACING">      0.50000000</i>
    <i type="logical" name="KGAMMA"> T  </i>
   </separator>
   <separator name="electronic projectors" >
    <i type="logical" name="LREAL"> T  </i>
    <v name="ROPT">     -0.00050000     -0.00050000     -0.00050000</v>
    <i type="int" name="LMAXPAW">  -100</i>
    <i type="int" name="LMAXMIX">     2</i>
    <i type="logical" name="NLSPLINE"> F  </i>
   </separator>
   <separator name="electronic startup" >
    <i type="int" name="ISTART">     0</i>
    <i type="int" name="ICHARG">     2</i>
    <i type="int" name="INIWAV">     1</i>
   </separator>
   <separator name="electronic spin" >
    <i type="int" name="ISPIN">     1</i>
    <i type="logical" name="LNONCOLLINEAR"> F  </i>
    <v name="MAGMOM">      1.00000000      1.00000000      1.00000000      1.00000000      1.00000000</v>
    <i name="NUPDOWN">     -1.00000000</i>
    <i type="logical" name="LSORBIT"> F  </i>
    <v name="SAXIS">      0.00000000      0.00000000      1.00000000</v>
    <i type="logical" name="LSPIRAL"> F  </i>
    <v name="QSPIRAL">      0.00000000      0.00000000      0.00000000</v>
    <i type="logical" name="LZEROZ"> F  </i>
   </separator>
   <separator name="electronic exchange-correlation" >
    <i type="logical" name="LASPH"> F  </i>
    <i type="logical" name="LMETAGGA"> F  </i>
   </separator>
   <separator name="electronic convergence" >
    <i type="int" name="NELM">    60</i>
    <i type="int" name="NELMDL">     0</i>
    <i type="int" name="NELMIN">     4</i>
    <i name="ENINI">    500.00000000</i>
    <separator name="electronic convergence detail" >
     <i type="logical" name="LDIAG"> T  </i>
     <i type="logical" name="LSUBROT"> F  </i>
     <i name="WEIMIN">      0.00000000</i>
     <i name="EBREAK">      0.00000001</i>
     <i name="DEPER">      0.30000000</i>
     <i type="int" name="NRMM">     4</i>
     <i name="TIME">      0.40000000</i>
    </separator>
   </separator>
   <separator name="electronic mixer" >
    <i name="AMIX">      0.40000000</i>
    <i name="BMIX">      1.00000000</i>
    <i name="AMIN">      0.10000000</i>
    <i name="AMIX_MAG">      1.60000000</i>
    <i name="BMIX_MAG">      1.00000000</i>
    <separator name="electronic mixer details" >
     <i type="int" name="IMIX">     4</i>
     <i type="logical" name="MIXFIRST"> F  </i>
     <i type="int" name="MAXMIX">   -45</i>
     <i name="WC">    100.00000000</i>
     <i type="int" name="INIMIX">     1</i>
     <i type="int" name="MIXPRE">     1</i>
     <i type="int" name="MREMOVE">     5</i>
    </separator>
   </separator>
   <separator name="electronic dipolcorrection" >
    <i type="logical" name="LDIPOL"> F  </i>
    <i type="logical" name="LMONO"> F  </i>
    <i type="int" name="IDIPOL">     0</i>
    <i name="EPSILON">      1.00000000</i>
    <v name="DIPOL">   -100.00000000   -100.00000000   -100.00000000</v>
    <i name="EFIELD">      0.00000000</i>
   </separator>
  </separator>
  <separator name="grids" >
   <i type="int" name="NGX">    24</i>
   <i type="int" name="NGY">    24</i>
   <i type="int" name="NGZ">    24</i>
   <i type="int" name="NGXF">    48</i>
   <i type="int" name="NGYF">    48</i>
   <i type="int" name="NGZF">    48</i>
   <i type="logical" name="ADDGRID"> F  </i>
  </separator>
  <separator name="ionic" >
   <i type="int" name="NSW">     0</i>
   <i type="int" name="IBRION">    -1</i>
   <i type="int" name="MDALGO">     0</i>
   <i type="int" name="ISIF">     2</i>
   <i name="PSTRESS">      0.00000000</i>
   <i name="EDIFFG">      0.00001000</i>
   <i type="int" name="NFREE">     0</i>
   <i name="POTIM">      0.50000000</i>
   <i name="SMASS">     -3.00000000</i>
   <i name="SCALEE">      1.00000000</i>
  </separator>
  <separator name="ionic md" >
   <i name="TEBEG">      0.00010000</i>
   <i name="TEEND">      0.00010000</i>
   <i type="int" name="NBLOCK">     1</i>
   <i type="int" name="KBLOCK">     1</i>
   <i type="int" name="NPACO">   256</i>
   <i name="APACO">     16.00000000</i>
  </separator>
  <separator name="symmetry" >
   <i type="int" name="ISYM">     2</i>
   <i name="SYMPREC">      0.00001000</i>
  </separator>
  <separator name="dos" >
   <i type="int" name="LORBIT">    11</i>
   <v name="RWIGS">     -1.00000000     -1.00000000     -1.00000000</v>
   <i type="int" name="NEDOS">  2401</i>
   <i name="EMIN">    -17.00000000</i>
   <i name="EMAX">     20.00000000</i>
   <i name="EFERMI">      0.00000000</i>
  </separator>
  <separator name="writing" >
   <i type="int" name="NWRITE">     2</i>
   <i type="logical" name="LWAVE"> F  </i>
   <i type="logical" name="LDOWNSAMPLE"> F  </i>
   <i type="logical" name="LCHARG"> T  </i>
   <i type="logical" name="LPARD"> F  </i>
   <i type="logical" name="LVTOT"> F  </i>
   <i type="logical" name="LVHAR"> F  </i>
   <i type="logical" name="LELF"> T  </i>
   <i type="logical" name="LOPTICS"> F  </i>
   <v name="STM">      0.00000000      0.00000000      0.00000000      0.00000000      0.00000000      0.00000000      0.00000000</v>
  </separator>
  <separator name="performance" >
   <i type="int" name="NPAR">     4</i>
   <i type="int" name="NSIM">     4</i>
   <i type="int" name="NBLK">    -1</i>
   <i type="logical" name="LPLANE"> T  </i>
   <i type="logical" name="LSCALAPACK"> T  </i>
   <i type="logical" name="LSCAAWARE"> F  </i>
   <i type="logical" name="LSCALU"> F  </i>
   <i type="logical" name="LASYNC"> F  </i>
   <i type="logical" name="LORBITALREAL"> F  </i>
  </separator>
  <separator name="miscellaneous" >
   <i type="int" name="IDIOT">     3</i>
   <i type="int" name="ISPECIAL">     0</i>
   <i type="logical" name="LMUSIC"> F  </i>
   <v name="POMASS">     87.62000000     47.88000000     16.00000000</v>
   <v name="DARWINR">      0.00000000      0.00000000      0.00000000</v>
   <v name="DARWINV">      1.00000000      1.00000000      1.00000000</v>
   <i type="logical" name="LCORR"> T  </i>
  </separator>
  <i type="logical" name="GGA_COMPAT"> T  </i>
  <i type="logical" name="LBERRY"> F  </i>
  <i type="int" name="ICORELEVEL">     0</i>
  <i type="logical" name="LDAU"> F  </i>
  <i type="int" name="I_CONSTRAINED_M">     0</i>
  <separator name="electronic exchange-correlation" >
   <i type="string" name="GGA">--</i>
   <i type="int" name="VOSKOWN">     0</i>
   <i type="logical" name="LHFCALC"> F  </i>
   <i type="string" name="PRECFOCK"></i>
   <i type="logical" name="LSYMGRAD"> F  </i>
   <i type="logical" name="LHFONE"> F  </i>
   <i type="logical" name="LRHFCALC"> F  </i>
   <i type="logical" name="LTHOMAS"> F  </i>
   <i type="logical" name="LMODELHF"> F  </i>
   <i name="ENCUT4O">     -1.00000000</i>
   <i type="int" name="EXXOEP">     0</i>
   <i type="int" name="FOURORBIT">     0</i>
   <i name="AEXX">      0.00000000</i>
   <i name="HFALPHA">      0.00000000</i>
   <i name="MCALPHA">      0.00000000</i>
   <i name="ALDAX">      1.00000000</i>
   <i name="AGGAX">      1.00000000</i>
   <i name="ALDAC">      1.00000000</i>
   <i name="AGGAC">      1.00000000</i>
   <i type="int" name="NKREDX">     1</i>
   <i type="int" name="NKREDY">     1</i>
   <i type="int" name="NKREDZ">     1</i>
   <i type="logical" name="SHIFTRED"> F  </i>
   <i type="logical" name="ODDONLY"> F  </i>
   <i type="logical" name="EVENONLY"> F  </i>
   <i type="int" name="LMAXFOCK">     0</i>
   <i type="int" name="NMAXFOCKAE">     0</i>
   <i type="logical" name="LFOCKAEDFT"> F  </i>
   <i name="HFSCREEN">      0.00000000</i>
   <i name="HFSCREENC">      0.00000000</i>
   <i type="int" name="NBANDSGWLOW">     0</i>
  </separator>
  <separator name="vdW DFT" >
   <i type="logical" name="LUSE_VDW"> F  </i>
   <i name="Zab_VDW">     -0.84910000</i>
   <i name="PARAM1">      0.12340000</i>
   <i name="PARAM2">      1.00000000</i>
   <i name="PARAM3">      0.00000000</i>
  </separator>
  <separator name="model GW" >
   <i type="int" name="MODEL_GW">     0</i>
   <i name="MODEL_EPS0">      7.37788536</i>
   <i name="MODEL_ALPHA">      1.00000000</i>
  </separator>
  <separator name="linear response parameters" >
   <i type="logical" name="LEPSILON"> F  </i>
   <i type="logical" name="LRPA"> F  </i>
   <i type="logical" name="LNABLA"> F  </i>
   <i type="logical" name="LVEL"> F  </i>
   <i type="int" name="KINTER">     0</i>
   <i name="CSHIFT">      0.10000000</i>
   <i name="OMEGAMAX">     -1.00000000</i>
   <i name="DEG_THRESHOLD">      0.00200000</i>
   <i name="RTIME">     -0.10000000</i>
   <i name="WPLASMAI">      0.00000000</i>
   <v name="DFIELD">      0.00000000      0.00000000      0.00000000</v>
   <v name="WPLASMA">      0.00000000      0.00000000      0.00000000      0.00000000      0.00000000      0.00000000      0.00000000      0.00000000      0.00000000</v>
  </separator>
  <separator name="orbital magnetization" >
   <i type="logical" name="NUCIND"> F  </i>
   <v name="MAGPOS">      0.00000000      0.00000000      0.00000000</v>
   <i type="logical" name="LNICSALL"> T  </i>
   <i type="logical" name="ORBITALMAG"> F  </i>
   <i type="logical" name="LMAGBLOCH"> F  </i>
   <i type="logical" name="LCHIMAG"> F  </i>
   <i type="logical" name="LGAUGE"> T  </i>
   <i type="int" name="MAGATOM">     0</i>
   <v name="MAGDIPOL">      0.00000000      0.00000000      0.00000000</v>
   <v name="AVECCONST">      0.00000000      0.00000000      0.00000000</v>
  </separator>
  <separator name="response functions" >
   <i type="logical" name="LADDER"> F  </i>
   <i type="logical" name="LRPAFORCE"> F  </i>
   <i type="logical" name="LFXC"> F  </i>
   <i type="logical" name="LHARTREE"> T  </i>
   <i type="int" name="IBSE">     0</i>
   <v type="int" name="KPOINT">    -1     0     0     0</v>
   <i type="logical" name="LTCTE"> F  </i>
   <i type="logical" name="LTETE"> F  </i>
   <i type="logical" name="LTRIPLET"> F  </i>
   <i type="logical" name="LFXCEPS"> F  </i>
   <i type="logical" name="LFXHEG"> F  </i>
   <i type="int" name="NATURALO">     2</i>
   <i type="logical" name="L2ORDER"> F  </i>
   <i type="logical" name="LMP2LT"> F  </i>
   <i type="logical" name="LUSEW"> F  </i>
   <i name="ENCUTGW">     -2.00000000</i>
   <i name="ENCUTGWSOFT">     -2.00000000</i>
   <i name="ENCUTLF">     -1.00000000</i>
   <i type="int" name="LMAXMP2">    -1</i>
   <i name="SCISSOR">      0.00000000</i>
   <i type="int" name="NOMEGA">     0</i>
   <i type="int" name="NOMEGAR">     0</i>
   <i type="int" name="NBANDSGW">    -1</i>
   <i type="int" name="NBANDSO">    -1</i>
   <i type="int" name="NBANDSV">    -1</i>
   <i type="int" name="NELM">     1</i>
   <i type="int" name="NELMHF">     1</i>
   <i type="int" name="DIM">     3</i>
   <i type="int" name="ANTIRES">     0</i>
   <i name="OMEGAMAX">    -30.00000000</i>
   <i name="OMEGAMIN">    -30.00000000</i>
   <i name="OMEGATL">   -200.00000000</i>
   <i type="int" name="OMEGAGRID">   140</i>
   <i name="CSHIFT">     -0.10000000</i>
   <i type="logical" name="SELFENERGY"> F  </i>
   <i type="logical" name="LSPECTRAL"> F  </i>
   <i type="logical" name="LSPECTRALGW"> F  </i>
   <i type="logical" name="LSINGLES"> F  </i>
   <i type="logical" name="LFERMIGW"> F  </i>
   <i type="logical" name="ODDONLYGW"> F  </i>
   <i type="logical" name="EVENONLYGW"> F  </i>
   <i type="int" name="NKREDLFX">     1</i>
   <i type="int" name="NKREDLFY">     1</i>
   <i type="int" name="NKREDLFZ">     1</i>
   <i type="int" name="MAXMEM">  2800</i>
   <i type="int" name="TELESCOPE">     0</i>
   <i type="int" name="TAUPAR">     1</i>
   <i type="int" name="OMEGAPAR">    -1</i>
   <i name="LAMBDA">      1.00000000</i>
  </separator>
  <separator name="External order field" >
   <i name="OFIELD_KAPPA">      0.00000000</i>
   <v name="OFIELD_K">      0.00000000      0.00000000      0.00000000</v>
   <i name="OFIELD_Q6_NEAR">      0.00000000</i>
   <i name="OFIELD_Q6_FAR">      0.00000000</i>
   <i name="OFIELD_A">      0.00000000</i>
  </separator>
 </parameters>
 <atominfo>
  <atoms>       5 </atoms>
  <types>       3 </types>
  <array name="atoms" >
   <dimension dim="1">ion</dimension>
   <field type="string">element</field>
   <field type="int">atomtype</field>
   <set>
    <rc><c>Sr</c><c>   1</c></rc>
    <rc><c>Ti</c><c>   2</c></rc>
    <rc><c>O </c><c>   3</c></rc>
    <rc><c>O </c><c>   3</c></rc>
    <rc><c>O </c><c>   3</c></rc>
   </set>
  </array>
  <array name="atomtypes" >
   <dimension dim="1">type</dimension>
   <field type="int">atomspertype</field>
   <field type="string">element</field>
   <field>mass</field>
   <field>valence</field>
   <field type="string">pseudopotential</field>
   <set>
    <rc><c>   1</c><c>Sr</c><c>     87.62000000</c><c>     10.00000000</c><c> PAW_PBE Sr_sv 07Sep2000                </c></rc>
    <rc><c>   1</c><c>Ti</c><c>     47.88000000</c><c>      4.00000000</c><c> PAW_PBE Ti 08Apr2002                   </c></rc>
    <rc><c>   3</c><c>O </c><c>     16.00000000</c><c>      6.00000000</c><c> PAW_PBE O 08Apr2002                    </c></rc>
   </set>
  </array>
 </atominfo>
 <structure name="initialpos" >
  <crystal>
   <varray name="basis" >
    <v>       3.94684634       0.00000000       0.00000000 </v>
    <v>       0.00000000       3.94684634       0.00000000 </v>
    <v>       0.00000000       0.00000000       3.94684634 </v>
   </varray>
   <i name="volume">     61.48237796 </i>
   <varray name="rec_basis" >
    <v>       0.25336684       0.00000000       0.00000000 </v>
    <v>       0.00000000       0.25336684       0.00000000 </v>
    <v>       0.00000000       0.00000000       0.25336684 </v>
   </varray>
  </crystal>
  <varray name="positions" >
   <v>       0.00000000       0.00000000       0.00000000 </v>
   <v>       0.50000000       0.50000000       0.50000000 </v>
   <v>       0.50000000       0.50000000       0.00000000 </v>
   <v>       0.50000000       0.00000000       0.50000000 </v>
   <v>       0.00000000       0.50000000       0.50000000 </v>
  </varray>
 </structure>
 <calculation>
  <scstep>
   <time name="dav">    0.12    0.30</time>
   <time name="total">    0.14    0.56</time>
   <energy>
    <i name="alphaZ">    179.60204115 </i>
    <i name="ewald">  -1913.70330965 </i>
    <i name="hartreedc">   -411.87486700 </i>
    <i name="XCdc">     82.00663498 </i>
    <i name="pawpsdc">   1333.61297253 </i>
    <i name="pawaedc">  -1284.78446064 </i>
    <i name="eentropy">     -0.00746395 </i>
    <i name="bandstr">     79.35500651 </i>
    <i name="atom">   2234.31706254 </i>
    <i name="e_fr_energy">    298.52361647 </i>
    <i name="e_wo_entrp">    298.53108043 </i>
    <i name="e_0_energy">    298.52734845 </i>
   </energy>
  </scstep>
  <scstep>
   <time name="dav">    0.17    0.24</time>
   <time name="total">    0.17    0.24</time>
   <energy>
    <i name="e_fr_energy">    -17.00699605 </i>
    <i name="e_wo_entrp">    -17.00582097 </i>
    <i name="e_0_energy">    -17.00640851 </i>
   </energy>
  </scstep>
  <scstep>
   <time name="dav">    0.13    0.15</time>
   <time name="total">    0.13    0.15</time>
   <energy>
    <i name="e_fr_energy">    -49.19402674 </i>
    <i name="e_wo_entrp">    -49.19402674 </i>
    <i name="e_0_energy">    -49.19402674 </i>
   </energy>
  </scstep>
  <scstep>
   <time name="dav">    0.18    0.21</time>
   <time name="total">    0.18    0.21</time>
   <energy>
    <i name="e_fr_energy">    -50.38962369 </i>
    <i name="e_wo_entrp">    -50.38962369 </i>
    <i name="e_0_energy">    -50.38962369 </i>
   </energy>
  </scstep>
  <scstep>
   <time name="dav">    0.14    0.16</time>
   <time name="total">    0.15    0.17</time>
   <energy>
    <i name="e_fr_energy">    -50.41970750 </i>
    <i name="e_wo_entrp">    -50.41970750 </i>
    <i name="e_0_energy">    -50.41970750 </i>
   </energy>
  </scstep>
  <scstep>
   <time name="diag">    0.03    0.03</time>
   <time name="diis">    0.05    0.05</time>
   <time name="orth">    0.00    0.00</time>
   <time name="total">    0.10    0.12</time>
   <energy>
    <i name="e_fr_energy">    -40.51361397 </i>
    <i name="e_wo_entrp">    -40.51361397 </i>
    <i name="e_0_energy">    -40.51361397 </i>
   </energy>
  </scstep>
  <scstep>
   <time name="diag">    0.03    0.03</time>
   <time name="diis">    0.05    0.05</time>
   <time name="orth">    0.00    0.00</time>
   <time name="total">    0.10    0.12</time>
   <energy>
    <i name="e_fr_energy">    -39.83639538 </i>
    <i name="e_wo_entrp">    -39.83639538 </i>
    <i name="e_0_energy">    -39.83639538 </i>
   </energy>
  </scstep>
  <scstep>
   <time name="diag">    0.03    0.03</time>
   <time name="diis">    0.05    0.05</time>
   <time name="orth">    0.00    0.00</time>
   <time name="total">    0.11    0.16</time>
   <energy>
    <i name="e_fr_energy">    -39.74681866 </i>
    <i name="e_wo_entrp">    -39.74681866 </i>
    <i name="e_0_energy">    -39.74681866 </i>
   </energy>
  </scstep>
  <scstep>
   <time name="diag">    0.03    0.03</time>
   <time name="diis">    0.06    0.06</time>
   <time name="orth">    0.00    0.00</time>
   <time name="total">    0.13    0.19</time>
   <energy>
    <i name="e_fr_energy">    -39.73951285 </i>
    <i name="e_wo_entrp">    -39.73951285 </i>
    <i name="e_0_energy">    -39.73951285 </i>
   </energy>
  </scstep>
  <scstep>
   <time name="diag">    0.03    0.03</time>
   <time name="diis">    0.05    0.05</time>
   <time name="orth">    0.00    0.00</time>
   <time name="total">    0.10    0.13</time>
   <energy>
    <i name="e_fr_energy">    -39.73574897 </i>
    <i name="e_wo_entrp">    -39.73574897 </i>
    <i name="e_0_energy">    -39.73574897 </i>
   </energy>
  </scstep>
  <scstep>
   <time name="diag">    0.03    0.03</time>
   <time name="diis">    0.06    0.06</time>
   <time name="orth">    0.00    0.00</time>
   <time name="total">    0.10    0.12</time>
   <energy>
    <i name="e_fr_energy">    -39.73200535 </i>
    <i name="e_wo_entrp">    -39.73200535 </i>
    <i name="e_0_energy">    -39.73200535 </i>
   </energy>
  </scstep>
  <scstep>
   <time name="diag">    0.03    0.03</time>
   <time name="diis">    0.06    0.06</time>
   <time name="orth">    0.00    0.00</time>
   <time name="total">    0.10    0.12</time>
   <energy>
    <i name="e_fr_energy">    -39.73097845 </i>
    <i name="e_wo_entrp">    -39.73097845 </i>
    <i name="e_0_energy">    -39.73097845 </i>
   </energy>
  </scstep>
  <scstep>
   <time name="diag">    0.03    0.03</time>
   <time name="diis">    0.06    0.06</time>
   <time name="orth">    0.00    0.00</time>
   <time name="total">    0.10    0.18</time>
   <energy>
    <i name="e_fr_energy">    -39.73139214 </i>
    <i name="e_wo_entrp">    -39.73139214 </i>
    <i name="e_0_energy">    -39.73139214 </i>
   </energy>
  </scstep>
  <scstep>
   <time name="diag">    0.03    0.03</time>
   <time name="diis">    0.06    0.06</time>
   <time name="orth">    0.00    0.00</time>
   <time name="total">    0.10    0.12</time>
   <energy>
    <i name="e_fr_energy">    -39.73080354 </i>
    <i name="e_wo_entrp">    -39.73080354 </i>
    <i name="e_0_energy">    -39.73080354 </i>
   </energy>
  </scstep>
  <scstep>
   <time name="diag">    0.03    0.03</time>
   <time name="diis">    0.06    0.06</time>
   <time name="orth">    0.00    0.00</time>
   <time name="total">    0.13    0.14</time>
   <energy>
    <i name="e_fr_energy">    -39.73084855 </i>
    <i name="e_wo_entrp">    -39.73084855 </i>
    <i name="e_0_energy">    -39.73084855 </i>
   </energy>
  </scstep>
  <scstep>
   <time name="diag">    0.03    0.03</time>
   <time name="diis">    0.07    0.07</time>
   <time name="orth">    0.00    0.00</time>
   <time name="total">    0.11    0.14</time>
   <energy>
    <i name="e_fr_energy">    -39.73085366 </i>
    <i name="e_wo_entrp">    -39.73085366 </i>
    <i name="e_0_energy">    -39.73085366 </i>
   </energy>
  </scstep>
  <scstep>
   <time name="diag">    0.03    0.03</time>
   <time name="diis">    0.06    0.06</time>
   <time name="orth">    0.00    0.00</time>
   <time name="total">    0.12    0.28</time>
   <energy>
    <i name="e_fr_energy">    -39.73085249 </i>
    <i name="e_wo_entrp">    -39.73085249 </i>
    <i name="e_0_energy">    -39.73085249 </i>
   </energy>
  </scstep>
  <scstep>
   <time name="diag">    0.03    0.03</time>
   <time name="diis">    0.06    0.06</time>
   <time name="orth">    0.00    0.00</time>
   <time name="total">    0.15    0.16</time>
   <energy>
    <i name="e_fr_energy">    -39.73085368 </i>
    <i name="e_wo_entrp">    -39.73085368 </i>
    <i name="e_0_energy">    -39.73085368 </i>
   </energy>
  </scstep>
  <scstep>
   <time name="diag">    0.03    0.03</time>
   <time name="diis">    0.05    0.05</time>
   <time name="orth">    0.00    0.00</time>
   <time name="total">    0.09    0.14</time>
   <energy>
    <i name="alphaZ">    179.60204115 </i>
    <i name="ewald">  -1913.70330965 </i>
    <i name="hartreedc">   -449.55412375 </i>
    <i name="XCdc">     85.82383457 </i>
    <i name="pawpsdc">   1546.11763517 </i>
    <i name="pawaedc">  -1503.68417976 </i>
    <i name="eentropy">     -0.00000000 </i>
    <i name="bandstr">   -218.64981349 </i>
    <i name="atom">   2234.31706254 </i>
    <i name="e_fr_energy">    -39.73085321 </i>
    <i name="e_wo_entrp">    -39.73085321 </i>
    <i name="e_0_energy">    -39.73085321 </i>
   </energy>
  </scstep>
  <structure>
   <crystal>
    <varray name="basis" >
     <v>       3.94684634       0.00000000       0.00000000 </v>
     <v>       0.00000000       3.94684634       0.00000000 </v>
     <v>       0.00000000       0.00000000       3.94684634 </v>
    </varray>
    <i name="volume">     61.48237796 </i>
    <varray name="rec_basis" >
     <v>       0.25336684       0.00000000       0.00000000 </v>
     <v>       0.00000000       0.25336684       0.00000000 </v>
     <v>       0.00000000       0.00000000       0.25336684 </v>
    </varray>
   </crystal>
   <varray name="positions" >
    <v>       0.00000000       0.00000000       0.00000000 </v>
    <v>       0.50000000       0.50000000       0.50000000 </v>
    <v>       0.50000000       0.50000000       0.00000000 </v>
    <v>       0.50000000       0.00000000       0.50000000 </v>
    <v>       0.00000000       0.50000000       0.50000000 </v>
   </varray>
  </structure>
  <varray name="forces" >
   <v>       0.00000000       0.00000000       0.00000000 </v>
   <v>       0.00000000       0.00000000       0.00000000 </v>
   <v>       0.00000000       0.00000000       0.00000000 </v>
   <v>       0.00000000       0.00000000       0.00000000 </v>
   <v>       0.00000000       0.00000000       0.00000000 </v>
  </varray>
  <varray name="stress" >
   <v>       1.42148586       0.00000000      -0.00000000 </v>
   <v>      -0.00000000       1.42148586      -0.00000000 </v>
   <v>       0.00000000      -0.00000000       1.42148586 </v>
  </varray>
  <energy>
   <i name="e_fr_energy">    -39.73085321 </i>
   <i name="e_wo_entrp">    -39.73085321 </i>
   <i name="e_0_energy">     -0.00000000 </i>
  </energy>
  <time name="totalsc">    2.54    3.88</time>
  <eigenvalues>
   <array>
    <dimension dim="1">band</dimension>
    <dimension dim="2">kpoint</dimension>
    <dimension dim="3">spin</dimension>
    <field>eigene</field>
    <field>occ</field>
    <set>
     <set comment="spin 1">
      <set comment="kpoint 1">
       <r>  -30.3961    1.0000 </r>
       <r>  -14.9178    1.0000 </r>
       <r>  -13.9409    1.0000 </r>
       <r>  -13.9409    1.0000 </r>
       <r>  -12.4492    1.0000 </r>
       <r>  -12.4492    1.0000 </r>
       <r>  -12.4492    1.0000 </r>
       <r>   -0.3992    1.0000 </r>
       <r>   -0.3992    1.0000 </r>
       <r>   -0.3992    1.0000 </r>
       <r>    1.3104    1.0000 </r>
       <r>    1.3104    1.0000 </r>
       <r>    1.3104    1.0000 </r>
       <r>    2.0798    1.0000 </r>
       <r>    2.0798    1.0000 </r>
       <r>    2.0798    1.0000 </r>
       <r>    4.0602    0.0000 </r>
       <r>    4.0602    0.0000 </r>
       <r>    4.0602    0.0000 </r>
       <r>    7.8383    0.0000 </r>
      </set>
      <set comment="kpoint 2">
       <r>  -30.3924    1.0000 </r>
       <r>  -14.9288    1.0000 </r>
       <r>  -13.9669    1.0000 </r>
       <r>  -13.9341    1.0000 </r>
       <r>  -12.4413    1.0000 </r>
       <r>  -12.4413    1.0000 </r>
       <r>  -12.3215    1.0000 </r>
       <r>   -0.6529    1.0000 </r>
       <r>   -0.4073    1.0000 </r>
       <r>   -0.4073    1.0000 </r>
       <r>    1.0512    1.0000 </r>
       <r>    1.0512    1.0000 </r>
       <r>    1.1442    1.0000 </r>
       <r>    1.4983    1.0000 </r>
       <r>    1.9583    1.0000 </r>
       <r>    1.9583    1.0000 </r>
       <r>    4.0866    0.0000 </r>
       <r>    4.4869    0.0000 </r>
       <r>    4.4869    0.0000 </r>
       <r>    8.1259    0.0000 </r>
      </set>
      <set comment="kpoint 3">
       <r>  -30.3840    1.0000 </r>
       <r>  -15.0057    1.0000 </r>
       <r>  -13.9186    1.0000 </r>
       <r>  -13.9157    1.0000 </r>
       <r>  -12.4232    1.0000 </r>
       <r>  -12.4232    1.0000 </r>
       <r>  -12.0828    1.0000 </r>
       <r>   -1.2482    1.0000 </r>
       <r>   -0.4133    1.0000 </r>
       <r>   -0.4133    1.0000 </r>
       <r>    0.5460    1.0000 </r>
       <r>    0.5460    1.0000 </r>
       <r>    0.5922    1.0000 </r>
       <r>    0.8101    1.0000 </r>
       <r>    1.8069    1.0000 </r>
       <r>    1.8069    1.0000 </r>
       <r>    4.1472    0.0000 </r>
       <r>    5.2538    0.0000 </r>
       <r>    5.2538    0.0000 </r>
       <r>    8.9092    0.0000 </r>
      </set>
      <set comment="kpoint 4">
       <r>  -30.3772    1.0000 </r>
       <r>  -15.0981    1.0000 </r>
       <r>  -13.9064    1.0000 </r>
       <r>  -13.8024    1.0000 </r>
       <r>  -12.4087    1.0000 </r>
       <r>  -12.4087    1.0000 </r>
       <r>  -11.9236    1.0000 </r>
       <r>   -1.7511    1.0000 </r>
       <r>   -0.3884    1.0000 </r>
       <r>   -0.3884    1.0000 </r>
       <r>    0.0780    1.0000 </r>
       <r>    0.1776    1.0000 </r>
       <r>    0.1776    1.0000 </r>
       <r>    0.5722    1.0000 </r>
       <r>    1.7211    1.0000 </r>
       <r>    1.7211    1.0000 </r>
       <r>    4.1974    0.0000 </r>
       <r>    5.7869    0.0000 </r>
       <r>    5.7869    0.0000 </r>
       <r>    9.5051    0.0000 </r>
      </set>
      <set comment="kpoint 5">
       <r>  -30.3888    1.0000 </r>
       <r>  -14.9156    1.0000 </r>
       <r>  -14.0015    1.0000 </r>
       <r>  -13.9308    1.0000 </r>
       <r>  -12.4331    1.0000 </r>
       <r>  -12.3685    1.0000 </r>
       <r>  -12.2815    1.0000 </r>
       <r>   -0.8008    1.0000 </r>
       <r>   -0.5247    1.0000 </r>
       <r>   -0.4137    1.0000 </r>
       <r>    0.5290    1.0000 </r>
       <r>    0.8578    1.0000 </r>
       <r>    1.3118    1.0000 </r>
       <r>    1.3288    1.0000 </r>
       <r>    1.6628    1.0000 </r>
       <r>    1.7815    1.0000 </r>
       <r>    4.4547    0.0000 </r>
       <r>    4.5520    0.0000 </r>
       <r>    4.7258    0.0000 </r>
       <r>    8.4213    0.0000 </r>
      </set>
      <set comment="kpoint 6">
       <r>  -30.3806    1.0000 </r>
       <r>  -14.9404    1.0000 </r>
       <r>  -14.0007    1.0000 </r>
       <r>  -13.8975    1.0000 </r>
       <r>  -12.4146    1.0000 </r>
       <r>  -12.3393    1.0000 </r>
       <r>  -12.0982    1.0000 </r>
       <r>   -1.2964    1.0000 </r>
       <r>   -0.6668    1.0000 </r>
       <r>   -0.4160    1.0000 </r>
       <r>   -0.1377    1.0000 </r>
       <r>    0.4288    1.0000 </r>
       <r>    0.7320    1.0000 </r>
       <r>    1.2854    1.0000 </r>
       <r>    1.4935    1.0000 </r>
       <r>    1.5646    1.0000 </r>
       <r>    4.5397    0.0000 </r>
       <r>    5.2630    0.0000 </r>
       <r>    5.3185    0.0000 </r>
       <r>    9.1364    0.0000 </r>
      </set>
      <set comment="kpoint 7">
       <r>  -30.3740    1.0000 </r>
       <r>  -15.0041    1.0000 </r>
       <r>  -13.9169    1.0000 </r>
       <r>  -13.8747    1.0000 </r>
       <r>  -12.3996    1.0000 </r>
       <r>  -12.3304    1.0000 </r>
       <r>  -11.9632    1.0000 </r>
       <r>   -1.7649    1.0000 </r>
       <r>   -0.8098    1.0000 </r>
       <r>   -0.5129    1.0000 </r>
       <r>   -0.3847    1.0000 </r>
       <r>    0.0852    1.0000 </r>
       <r>    0.4453    1.0000 </r>
       <r>    1.2274    1.0000 </r>
       <r>    1.3460    1.0000 </r>
       <r>    1.4548    1.0000 </r>
       <r>    4.5777    0.0000 </r>
       <r>    5.7875    0.0000 </r>
       <r>    5.8098    0.0000 </r>
       <r>    9.8196    0.0000 </r>
      </set>
      <set comment="kpoint 8">
       <r>  -30.3730    1.0000 </r>
       <r>  -14.8117    1.0000 </r>
       <r>  -14.1172    1.0000 </r>
       <r>  -13.8711    1.0000 </r>
       <r>  -12.3949    1.0000 </r>
       <r>  -12.2038    1.0000 </r>
       <r>  -12.1055    1.0000 </r>
       <r>   -1.5092    1.0000 </r>
       <r>   -1.0670    1.0000 </r>
       <r>   -0.9025    1.0000 </r>
       <r>   -0.4129    1.0000 </r>
       <r>    0.1478    1.0000 </r>
       <r>    0.7041    1.0000 </r>
       <r>    1.0331    1.0000 </r>
       <r>    1.2075    1.0000 </r>
       <r>    1.8130    1.0000 </r>
       <r>    5.2162    0.0000 </r>
       <r>    5.3319    0.0000 </r>
       <r>    5.6170    0.0000 </r>
       <r>    9.5531    0.0000 </r>
      </set>
      <set comment="kpoint 9">
       <r>  -30.3668    1.0000 </r>
       <r>  -14.7563    1.0000 </r>
       <r>  -14.0862    1.0000 </r>
       <r>  -13.9046    1.0000 </r>
       <r>  -12.3790    1.0000 </r>
       <r>  -12.1810    1.0000 </r>
       <r>  -12.0366    1.0000 </r>
       <r>   -1.8172    1.0000 </r>
       <r>   -1.5271    1.0000 </r>
       <r>   -1.1372    1.0000 </r>
       <r>   -0.3749    1.0000 </r>
       <r>   -0.1164    1.0000 </r>
       <r>    0.6642    1.0000 </r>
       <r>    0.9627    1.0000 </r>
       <r>    1.0158    1.0000 </r>
       <r>    1.9314    1.0000 </r>
       <r>    5.2869    0.0000 </r>
       <r>    5.7903    0.0000 </r>
       <r>    5.9697    0.0000 </r>
       <r>   10.0916    0.0000 </r>
      </set>
      <set comment="kpoint 10">
       <r>  -30.3610    1.0000 </r>
       <r>  -14.4711    1.0000 </r>
       <r>  -14.1958    1.0000 </r>
       <r>  -14.0338    1.0000 </r>
       <r>  -12.3624    1.0000 </r>
       <r>  -12.0818    1.0000 </r>
       <r>  -12.0692    1.0000 </r>
       <r>   -1.9909    1.0000 </r>
       <r>   -1.9094    1.0000 </r>
       <r>   -1.6022    1.0000 </r>
       <r>   -0.3558    1.0000 </r>
       <r>   -0.2827    1.0000 </r>
       <r>    0.7448    1.0000 </r>
       <r>    0.8294    1.0000 </r>
       <r>    0.9029    1.0000 </r>
       <r>    2.2439    1.0000 </r>
       <r>    5.7820    0.0000 </r>
       <r>    5.8021    0.0000 </r>
       <r>    6.2054    0.0000 </r>
       <r>   10.2220    0.0000 </r>
      </set>
      <set comment="kpoint 11">
       <r>  -30.3852    1.0000 </r>
       <r>  -14.8875    1.0000 </r>
       <r>  -13.9795    1.0000 </r>
       <r>  -13.9795    1.0000 </r>
       <r>  -12.3841    1.0000 </r>
       <r>  -12.3841    1.0000 </r>
       <r>  -12.2248    1.0000 </r>
       <r>   -0.9524    1.0000 </r>
       <r>   -0.5267    1.0000 </r>
       <r>   -0.5267    1.0000 </r>
       <r>    0.4315    1.0000 </r>
       <r>    0.4315    1.0000 </r>
       <r>    0.9511    1.0000 </r>
       <r>    1.4991    1.0000 </r>
       <r>    1.6123    1.0000 </r>
       <r>    1.6123    1.0000 </r>
       <r>    4.6891    0.0000 </r>
       <r>    4.7803    0.0000 </r>
       <r>    4.7803    0.0000 </r>
       <r>    8.6783    0.0000 </r>
      </set>
      <set comment="kpoint 12">
       <r>  -30.3773    1.0000 </r>
       <r>  -14.8735    1.0000 </r>
       <r>  -14.0007    1.0000 </r>
       <r>  -13.9279    1.0000 </r>
       <r>  -12.4214    1.0000 </r>
       <r>  -12.3042    1.0000 </r>
       <r>  -12.0976    1.0000 </r>
       <r>   -1.3549    1.0000 </r>
       <r>   -0.7724    1.0000 </r>
       <r>   -0.5287    1.0000 </r>
       <r>   -0.1546    1.0000 </r>
       <r>   -0.0852    1.0000 </r>
       <r>    0.7010    1.0000 </r>
       <r>    1.3652    1.0000 </r>
       <r>    1.4802    1.0000 </r>
       <r>    1.4939    1.0000 </r>
       <r>    4.7974    0.0000 </r>
       <r>    5.3376    0.0000 </r>
       <r>    5.3486    0.0000 </r>
       <r>    9.3761    0.0000 </r>
      </set>
      <set comment="kpoint 13">
       <r>  -30.3709    1.0000 </r>
       <r>  -14.9108    1.0000 </r>
       <r>  -13.9394    1.0000 </r>
       <r>  -13.8840    1.0000 </r>
       <r>  -12.4540    1.0000 </r>
       <r>  -12.2486    1.0000 </r>
       <r>  -12.0082    1.0000 </r>
       <r>   -1.7762    1.0000 </r>
       <r>   -0.9564    1.0000 </r>
       <r>   -0.5956    1.0000 </r>
       <r>   -0.5223    1.0000 </r>
       <r>   -0.3832    1.0000 </r>
       <r>    0.7831    1.0000 </r>
       <r>    1.1211    1.0000 </r>
       <r>    1.3508    1.0000 </r>
       <r>    1.4122    1.0000 </r>
       <r>    4.8419    0.0000 </r>
       <r>    5.8164    0.0000 </r>
       <r>    5.8351    0.0000 </r>
       <r>    9.9364    0.0000 </r>
      </set>
      <set comment="kpoint 14">
       <r>  -30.3698    1.0000 </r>
       <r>  -14.7369    1.0000 </r>
       <r>  -14.0695    1.0000 </r>
       <r>  -13.8925    1.0000 </r>
       <r>  -12.4258    1.0000 </r>
       <r>  -12.2640    1.0000 </r>
       <r>  -12.0816    1.0000 </r>
       <r>   -1.5466    1.0000 </r>
       <r>   -1.0618    1.0000 </r>
       <r>   -0.8473    1.0000 </r>
       <r>   -0.6294    1.0000 </r>
       <r>   -0.2215    1.0000 </r>
       <r>    0.2604    1.0000 </r>
       <r>    1.3137    1.0000 </r>
       <r>    1.3717    1.0000 </r>
       <r>    1.8248    1.0000 </r>
       <r>    5.3409    0.0000 </r>
       <r>    5.4337    0.0000 </r>
       <r>    5.6515    0.0000 </r>
       <r>   10.0244    0.0000 </r>
      </set>
      <set comment="kpoint 15">
       <r>  -30.3637    1.0000 </r>
       <r>  -14.6658    1.0000 </r>
       <r>  -14.0534    1.0000 </r>
       <r>  -13.8777    1.0000 </r>
       <r>  -12.4605    1.0000 </r>
       <r>  -12.1896    1.0000 </r>
       <r>  -12.0887    1.0000 </r>
       <r>   -1.8164    1.0000 </r>
       <r>   -1.4631    1.0000 </r>
       <r>   -1.1264    1.0000 </r>
       <r>   -0.6324    1.0000 </r>
       <r>   -0.4857    1.0000 </r>
       <r>    0.2775    1.0000 </r>
       <r>    1.2144    1.0000 </r>
       <r>    1.3096    1.0000 </r>
       <r>    1.9419    1.0000 </r>
       <r>    5.4220    0.0000 </r>
       <r>    5.8591    0.0000 </r>
       <r>    6.0018    0.0000 </r>
       <r>   10.2574    0.0000 </r>
      </set>
      <set comment="kpoint 16">
       <r>  -30.3580    1.0000 </r>
       <r>  -14.3842    1.0000 </r>
       <r>  -14.1326    1.0000 </r>
       <r>  -13.9759    1.0000 </r>
       <r>  -12.4344    1.0000 </r>
       <r>  -12.1727    1.0000 </r>
       <r>  -12.1359    1.0000 </r>
       <r>   -1.9427    1.0000 </r>
       <r>   -1.8114    1.0000 </r>
       <r>   -1.5986    1.0000 </r>
       <r>   -0.6374    1.0000 </r>
       <r>   -0.5750    1.0000 </r>
       <r>    0.1272    1.0000 </r>
       <r>    1.2517    1.0000 </r>
       <r>    1.2919    1.0000 </r>
       <r>    2.2576    1.0000 </r>
       <r>    5.8737    0.0000 </r>
       <r>    5.8929    0.0000 </r>
       <r>    6.2405    0.0000 </r>
       <r>   10.0851    0.0000 </r>
      </set>
      <set comment="kpoint 17">
       <r>  -30.3626    1.0000 </r>
       <r>  -14.5660    1.0000 </r>
       <r>  -13.9484    1.0000 </r>
       <r>  -13.9484    1.0000 </r>
       <r>  -12.4130    1.0000 </r>
       <r>  -12.4130    1.0000 </r>
       <r>  -12.0958    1.0000 </r>
       <r>   -1.6339    1.0000 </r>
       <r>   -1.0485    1.0000 </r>
       <r>   -1.0485    1.0000 </r>
       <r>   -0.7072    1.0000 </r>
       <r>   -0.6846    1.0000 </r>
       <r>   -0.6846    1.0000 </r>
       <r>    1.6162    1.0000 </r>
       <r>    1.6162    1.0000 </r>
       <r>    1.9504    1.0000 </r>
       <r>    5.6896    0.0000 </r>
       <r>    5.7441    0.0000 </r>
       <r>    5.7441    0.0000 </r>
       <r>   10.0179    0.0000 </r>
      </set>
      <set comment="kpoint 18">
       <r>  -30.3568    1.0000 </r>
       <r>  -14.4318    1.0000 </r>
       <r>  -13.9914    1.0000 </r>
       <r>  -13.8315    1.0000 </r>
       <r>  -12.5527    1.0000 </r>
       <r>  -12.3131    1.0000 </r>
       <r>  -12.1854    1.0000 </r>
       <r>   -1.8238    1.0000 </r>
       <r>   -1.4037    1.0000 </r>
       <r>   -1.1414    1.0000 </r>
       <r>   -1.0280    1.0000 </r>
       <r>   -0.9488    1.0000 </r>
       <r>   -0.5763    1.0000 </r>
       <r>    1.6501    1.0000 </r>
       <r>    1.7734    1.0000 </r>
       <r>    2.0491    1.0000 </r>
       <r>    5.7839    0.0000 </r>
       <r>    6.0589    0.0000 </r>
       <r>    6.0870    0.0000 </r>
       <r>   10.1196    0.0000 </r>
      </set>
      <set comment="kpoint 19">
       <r>  -30.3513    1.0000 </r>
       <r>  -14.1658    1.0000 </r>
       <r>  -13.9653    1.0000 </r>
       <r>  -13.8477    1.0000 </r>
       <r>  -12.5719    1.0000 </r>
       <r>  -12.4014    1.0000 </r>
       <r>  -12.3165    1.0000 </r>
       <r>   -1.9301    1.0000 </r>
       <r>   -1.5900    1.0000 </r>
       <r>   -1.5105    1.0000 </r>
       <r>   -1.0696    1.0000 </r>
       <r>   -0.9685    1.0000 </r>
       <r>   -0.8886    1.0000 </r>
       <r>    1.8638    1.0000 </r>
       <r>    1.8974    1.0000 </r>
       <r>    2.2926    1.0000 </r>
       <r>    6.1236    0.0000 </r>
       <r>    6.1358    0.0000 </r>
       <r>    6.3211    0.0000 </r>
       <r>    9.7841    0.0000 </r>
      </set>
      <set comment="kpoint 20">
       <r>  -30.3458    1.0000 </r>
       <r>  -13.9249    1.0000 </r>
       <r>  -13.7874    1.0000 </r>
       <r>  -13.7874    1.0000 </r>
       <r>  -12.6281    1.0000 </r>
       <r>  -12.6281    1.0000 </r>
       <r>  -12.5226    1.0000 </r>
       <r>   -2.0311    1.0000 </r>
       <r>   -1.5822    1.0000 </r>
       <r>   -1.5822    1.0000 </r>
       <r>   -1.2901    1.0000 </r>
       <r>   -1.1891    1.0000 </r>
       <r>   -1.1891    1.0000 </r>
       <r>    2.2606    1.0000 </r>
       <r>    2.2606    1.0000 </r>
       <r>    2.3448    1.0000 </r>
       <r>    6.3846    0.0000 </r>
       <r>    6.3913    0.0000 </r>
       <r>    9.4252    0.0000 </r>
       <r>    9.4750    0.0000 </r>
      </set>
     </set>
    </set>
   </array>
  </eigenvalues>
  <separator name="orbital magnetization" >
   <v name="MAGDIPOLOUT">      0.00000000      0.00000000      0.00000000</v>
  </separator>
  <dos>
   <i name="efermi">      2.76416667 </i>
   <total>
    <array>
     <dimension dim="1">gridpoints</dimension>
     <dimension dim="2">spin</dimension>
     <field>energy</field>
     <field>total</field>
     <field>integrated</field>
     <set>
      <set comment="spin 1">
       <r>   -17.0000   129.7297     2.0000 </r>
       <r>   -16.9846     0.0000     2.0000 </r>
       <r>   -16.9692     0.0000     2.0000 </r>
       <r>   -16.9537     0.0000     2.0000 </r>
       <r>   -16.9383     0.0000     2.0000 </r>
       <r>   -16.9229     0.0000     2.0000 </r>
       <r>   -16.9075     0.0000     2.0000 </r>
       <r>   -16.8921     0.0000     2.0000 </r>
       <r>   -16.8767     0.0000     2.0000 </r>
       <r>   -16.8612     0.0000     2.0000 </r>
       <r>   -16.8458     0.0000     2.0000 </r>
       <r>   -16.8304     0.0000     2.0000 </r>
       <r>   -16.8150     0.0000     2.0000 </r>
       <r>   -16.7996     0.0000     2.0000 </r>
       <r>   -16.7842     0.0000     2.0000 </r>
       <r>   -16.7688     0.0000     2.0000 </r>
       <r>   -16.7533     0.0000     2.0000 </r>
       <r>   -16.7379     0.0000     2.0000 </r>
       <r>   -16.7225     0.0000     2.0000 </r>
       <r>   -16.7071     0.0000     2.0000 </r>
       <r>   -16.6917     0.0000     2.0000 </r>
       <r>   -16.6762     0.0000     2.0000 </r>
       <r>   -16.6608     0.0000     2.0000 </r>
       <r>   -16.6454     0.0000     2.0000 </r>
       <r>   -16.6300     0.0000     2.0000 </r>
       <r>   -16.6146     0.0000     2.0000 </r>
       <r>   -16.5992     0.0000     2.0000 </r>
       <r>   -16.5837     0.0000     2.0000 </r>
       <r>   -16.5683     0.0000     2.0000 </r>
       <r>   -16.5529     0.0000     2.0000 </r>
       <r>   -16.5375     0.0000     2.0000 </r>
       <r>   -16.5221     0.0000     2.0000 </r>
       <r>   -16.5067     0.0000     2.0000 </r>
       <r>   -16.4913     0.0000     2.0000 </r>
       <r>   -16.4758     0.0000     2.0000 </r>
       <r>   -16.4604     0.0000     2.0000 </r>
       <r>   -16.4450     0.0000     2.0000 </r>
       <r>   -16.4296     0.0000     2.0000 </r>
       <r>   -16.4142     0.0000     2.0000 </r>
       <r>   -16.3987     0.0000     2.0000 </r>
       <r>   -16.3833     0.0000     2.0000 </r>
       <r>   -16.3679     0.0000     2.0000 </r>
       <r>   -16.3525     0.0000     2.0000 </r>
       <r>   -16.3371     0.0000     2.0000 </r>
       <r>   -16.3217     0.0000     2.0000 </r>
       <r>   -16.3062     0.0000     2.0000 </r>
       <r>   -16.2908     0.0000     2.0000 </r>
       <r>   -16.2754     0.0000     2.0000 </r>
       <r>   -16.2600     0.0000     2.0000 </r>
       <r>   -16.2446     0.0000     2.0000 </r>
       <r>   -16.2292     0.0000     2.0000 </r>
       <r>   -16.2138     0.0000     2.0000 </r>
       <r>   -16.1983     0.0000     2.0000 </r>
       <r>   -16.1829     0.0000     2.0000 </r>
       <r>   -16.1675     0.0000     2.0000 </r>
       <r>   -16.1521     0.0000     2.0000 </r>
       <r>   -16.1367     0.0000     2.0000 </r>
       <r>   -16.1212     0.0000     2.0000 </r>
       <r>   -16.1058     0.0000     2.0000 </r>
       <r>   -16.0904     0.0000     2.0000 </r>
       <r>   -16.0750     0.0000     2.0000 </r>
       <r>   -16.0596     0.0000     2.0000 </r>
       <r>   -16.0442     0.0000     2.0000 </r>
       <r>   -16.0287     0.0000     2.0000 </r>
       <r>   -16.0133     0.0000     2.0000 </r>
       <r>   -15.9979     0.0000     2.0000 </r>
       <r>   -15.9825     0.0000     2.0000 </r>
       <r>   -15.9671     0.0000     2.0000 </r>
       <r>   -15.9517     0.0000     2.0000 </r>
       <r>   -15.9362     0.0000     2.0000 </r>
       <r>   -15.9208     0.0000     2.0000 </r>
       <r>   -15.9054     0.0000     2.0000 </r>
       <r>   -15.8900     0.0000     2.0000 </r>
       <r>   -15.8746     0.0000     2.0000 </r>
       <r>   -15.8592     0.0000     2.0000 </r>
       <r>   -15.8438     0.0000     2.0000 </r>
       <r>   -15.8283     0.0000     2.0000 </r>
       <r>   -15.8129     0.0000     2.0000 </r>
       <r>   -15.7975     0.0000     2.0000 </r>
       <r>   -15.7821     0.0000     2.0000 </r>
       <r>   -15.7667     0.0000     2.0000 </r>
       <r>   -15.7513     0.0000     2.0000 </r>
       <r>   -15.7358     0.0000     2.0000 </r>
       <r>   -15.7204     0.0000     2.0000 </r>
       <r>   -15.7050     0.0000     2.0000 </r>
       <r>   -15.6896     0.0000     2.0000 </r>
       <r>   -15.6742     0.0000     2.0000 </r>
       <r>   -15.6587     0.0000     2.0000 </r>
       <r>   -15.6433     0.0000     2.0000 </r>
       <r>   -15.6279     0.0000     2.0000 </r>
       <r>   -15.6125     0.0000     2.0000 </r>
       <r>   -15.5971     0.0000     2.0000 </r>
       <r>   -15.5817     0.0000     2.0000 </r>
       <r>   -15.5663     0.0000     2.0000 </r>
       <r>   -15.5508     0.0000     2.0000 </r>
       <r>   -15.5354     0.0000     2.0000 </r>
       <r>   -15.5200     0.0000     2.0000 </r>
       <r>   -15.5046     0.0000     2.0000 </r>
       <r>   -15.4892     0.0000     2.0000 </r>
       <r>   -15.4737     0.0000     2.0000 </r>
       <r>   -15.4583     0.0000     2.0000 </r>
       <r>   -15.4429     0.0000     2.0000 </r>
       <r>   -15.4275     0.0000     2.0000 </r>
       <r>   -15.4121     0.0000     2.0000 </r>
       <r>   -15.3967     0.0000     2.0000 </r>
       <r>   -15.3812     0.0000     2.0000 </r>
       <r>   -15.3658     0.0001     2.0000 </r>
       <r>   -15.3504     0.0002     2.0000 </r>
       <r>   -15.3350     0.0005     2.0000 </r>
       <r>   -15.3196     0.0011     2.0000 </r>
       <r>   -15.3042     0.0022     2.0001 </r>
       <r>   -15.2888     0.0041     2.0001 </r>
       <r>   -15.2733     0.0075     2.0002 </r>
       <r>   -15.2579     0.0132     2.0004 </r>
       <r>   -15.2425     0.0221     2.0008 </r>
       <r>   -15.2271     0.0358     2.0013 </r>
       <r>   -15.2117     0.0559     2.0022 </r>
       <r>   -15.1962     0.0843     2.0035 </r>
       <r>   -15.1808     0.1235     2.0054 </r>
       <r>   -15.1654     0.1760     2.0081 </r>
       <r>   -15.1500     0.2448     2.0119 </r>
       <r>   -15.1346     0.3335     2.0170 </r>
       <r>   -15.1192     0.4460     2.0239 </r>
       <r>   -15.1037     0.5863     2.0330 </r>
       <r>   -15.0883     0.7584     2.0446 </r>
       <r>   -15.0729     0.9652     2.0595 </r>
       <r>   -15.0575     1.2082     2.0781 </r>
       <r>   -15.0421     1.4862     2.1011 </r>
       <r>   -15.0267     1.7951     2.1287 </r>
       <r>   -15.0113     2.1266     2.1615 </r>
       <r>   -14.9958     2.4684     2.1996 </r>
       <r>   -14.9804     2.8044     2.2428 </r>
       <r>   -14.9650     3.1153     2.2908 </r>
       <r>   -14.9496     3.3808     2.3430 </r>
       <r>   -14.9342     3.5818     2.3982 </r>
       <r>   -14.9187     3.7046     2.4553 </r>
       <r>   -14.9033     3.7430     2.5130 </r>
       <r>   -14.8879     3.7014     2.5701 </r>
       <r>   -14.8725     3.5944     2.6255 </r>
       <r>   -14.8571     3.4451     2.6786 </r>
       <r>   -14.8417     3.2811     2.7292 </r>
       <r>   -14.8262     3.1288     2.7774 </r>
       <r>   -14.8108     3.0093     2.8238 </r>
       <r>   -14.7954     2.9339     2.8690 </r>
       <r>   -14.7800     2.9035     2.9138 </r>
       <r>   -14.7646     2.9091     2.9586 </r>
       <r>   -14.7492     2.9346     3.0039 </r>
       <r>   -14.7338     2.9604     3.0495 </r>
       <r>   -14.7183     2.9668     3.0953 </r>
       <r>   -14.7029     2.9373     3.1405 </r>
       <r>   -14.6875     2.8608     3.1846 </r>
       <r>   -14.6721     2.7328     3.2268 </r>
       <r>   -14.6567     2.5559     3.2662 </r>
       <r>   -14.6412     2.3396     3.3022 </r>
       <r>   -14.6258     2.0989     3.3346 </r>
       <r>   -14.6104     1.8529     3.3632 </r>
       <r>   -14.5950     1.6217     3.3882 </r>
       <r>   -14.5796     1.4240     3.4101 </r>
       <r>   -14.5642     1.2751     3.4298 </r>
       <r>   -14.5488     1.1849     3.4481 </r>
       <r>   -14.5333     1.1568     3.4659 </r>
       <r>   -14.5179     1.1877     3.4842 </r>
       <r>   -14.5025     1.2684     3.5037 </r>
       <r>   -14.4871     1.3839     3.5251 </r>
       <r>   -14.4717     1.5156     3.5485 </r>
       <r>   -14.4563     1.6426     3.5738 </r>
       <r>   -14.4408     1.7448     3.6007 </r>
       <r>   -14.4254     1.8048     3.6285 </r>
       <r>   -14.4100     1.8113     3.6564 </r>
       <r>   -14.3946     1.7602     3.6836 </r>
       <r>   -14.3792     1.6557     3.7091 </r>
       <r>   -14.3637     1.5100     3.7324 </r>
       <r>   -14.3483     1.3413     3.7530 </r>
       <r>   -14.3329     1.1721     3.7711 </r>
       <r>   -14.3175     1.0260     3.7869 </r>
       <r>   -14.3021     0.9252     3.8012 </r>
       <r>   -14.2867     0.8887     3.8149 </r>
       <r>   -14.2713     0.9301     3.8292 </r>
       <r>   -14.2558     1.0576     3.8455 </r>
       <r>   -14.2404     1.2735     3.8652 </r>
       <r>   -14.2250     1.5749     3.8895 </r>
       <r>   -14.2096     1.9549     3.9196 </r>
       <r>   -14.1942     2.4040     3.9567 </r>
       <r>   -14.1788     2.9121     4.0015 </r>
       <r>   -14.1633     3.4698     4.0550 </r>
       <r>   -14.1479     4.0697     4.1178 </r>
       <r>   -14.1325     4.7073     4.1903 </r>
       <r>   -14.1171     5.3809     4.2733 </r>
       <r>   -14.1017     6.0909     4.3672 </r>
       <r>   -14.0862     6.8388     4.4726 </r>
       <r>   -14.0708     7.6257     4.5902 </r>
       <r>   -14.0554     8.4508     4.7205 </r>
       <r>   -14.0400     9.3094     4.8640 </r>
       <r>   -14.0246    10.1910     5.0211 </r>
       <r>   -14.0092    11.0769     5.1919 </r>
       <r>   -13.9938    11.9394     5.3759 </r>
       <r>   -13.9783    12.7400     5.5724 </r>
       <r>   -13.9629    13.4313     5.7794 </r>
       <r>   -13.9475    13.9592     5.9946 </r>
       <r>   -13.9321    14.2692     6.2146 </r>
       <r>   -13.9167    14.3130     6.4353 </r>
       <r>   -13.9013    14.0576     6.6520 </r>
       <r>   -13.8858    13.4922     6.8600 </r>
       <r>   -13.8704    12.6329     7.0548 </r>
       <r>   -13.8550    11.5233     7.2324 </r>
       <r>   -13.8396    10.2290     7.3901 </r>
       <r>   -13.8242     8.8299     7.5262 </r>
       <r>   -13.8087     7.4086     7.6404 </r>
       <r>   -13.7933     6.0405     7.7336 </r>
       <r>   -13.7779     4.7857     7.8073 </r>
       <r>   -13.7625     3.6841     7.8641 </r>
       <r>   -13.7471     2.7558     7.9066 </r>
       <r>   -13.7317     2.0028     7.9375 </r>
       <r>   -13.7163     1.4137     7.9593 </r>
       <r>   -13.7008     0.9688     7.9742 </r>
       <r>   -13.6854     0.6440     7.9842 </r>
       <r>   -13.6700     0.4149     7.9906 </r>
       <r>   -13.6546     0.2588     7.9946 </r>
       <r>   -13.6392     0.1561     7.9970 </r>
       <r>   -13.6237     0.0909     7.9984 </r>
       <r>   -13.6083     0.0510     7.9991 </r>
       <r>   -13.5929     0.0276     7.9996 </r>
       <r>   -13.5775     0.0143     7.9998 </r>
       <r>   -13.5621     0.0072     7.9999 </r>
       <r>   -13.5467     0.0034     8.0000 </r>
       <r>   -13.5312     0.0016     8.0000 </r>
       <r>   -13.5158     0.0007     8.0000 </r>
       <r>   -13.5004     0.0003     8.0000 </r>
       <r>   -13.4850     0.0001     8.0000 </r>
       <r>   -13.4696     0.0000     8.0000 </r>
       <r>   -13.4542     0.0000     8.0000 </r>
       <r>   -13.4387     0.0000     8.0000 </r>
       <r>   -13.4233     0.0000     8.0000 </r>
       <r>   -13.4079     0.0000     8.0000 </r>
       <r>   -13.3925     0.0000     8.0000 </r>
       <r>   -13.3771     0.0000     8.0000 </r>
       <r>   -13.3617     0.0000     8.0000 </r>
       <r>   -13.3462     0.0000     8.0000 </r>
       <r>   -13.3308     0.0000     8.0000 </r>
       <r>   -13.3154     0.0000     8.0000 </r>
       <r>   -13.3000     0.0000     8.0000 </r>
       <r>   -13.2846     0.0000     8.0000 </r>
       <r>   -13.2692     0.0000     8.0000 </r>
       <r>   -13.2538     0.0000     8.0000 </r>
       <r>   -13.2383     0.0000     8.0000 </r>
       <r>   -13.2229     0.0000     8.0000 </r>
       <r>   -13.2075     0.0000     8.0000 </r>
       <r>   -13.1921     0.0000     8.0000 </r>
       <r>   -13.1767     0.0000     8.0000 </r>
       <r>   -13.1612     0.0000     8.0000 </r>
       <r>   -13.1458     0.0000     8.0000 </r>
       <r>   -13.1304     0.0000     8.0000 </r>
       <r>   -13.1150     0.0000     8.0000 </r>
       <r>   -13.0996     0.0000     8.0000 </r>
       <r>   -13.0842     0.0000     8.0000 </r>
       <r>   -13.0687     0.0000     8.0000 </r>
       <r>   -13.0533     0.0000     8.0000 </r>
       <r>   -13.0379     0.0000     8.0000 </r>
       <r>   -13.0225     0.0000     8.0000 </r>
       <r>   -13.0071     0.0000     8.0000 </r>
       <r>   -12.9917     0.0000     8.0000 </r>
       <r>   -12.9763     0.0000     8.0000 </r>
       <r>   -12.9608     0.0000     8.0000 </r>
       <r>   -12.9454     0.0000     8.0000 </r>
       <r>   -12.9300     0.0000     8.0000 </r>
       <r>   -12.9146     0.0001     8.0000 </r>
       <r>   -12.8992     0.0002     8.0000 </r>
       <r>   -12.8837     0.0006     8.0000 </r>
       <r>   -12.8683     0.0013     8.0000 </r>
       <r>   -12.8529     0.0027     8.0001 </r>
       <r>   -12.8375     0.0054     8.0002 </r>
       <r>   -12.8221     0.0106     8.0003 </r>
       <r>   -12.8067     0.0197     8.0006 </r>
       <r>   -12.7912     0.0353     8.0012 </r>
       <r>   -12.7758     0.0606     8.0021 </r>
       <r>   -12.7604     0.1000     8.0036 </r>
       <r>   -12.7450     0.1587     8.0061 </r>
       <r>   -12.7296     0.2422     8.0098 </r>
       <r>   -12.7142     0.3563     8.0153 </r>
       <r>   -12.6988     0.5059     8.0231 </r>
       <r>   -12.6833     0.6944     8.0338 </r>
       <r>   -12.6679     0.9233     8.0481 </r>
       <r>   -12.6525     1.1921     8.0664 </r>
       <r>   -12.6371     1.4995     8.0896 </r>
       <r>   -12.6217     1.8448     8.1180 </r>
       <r>   -12.6062     2.2305     8.1524 </r>
       <r>   -12.5908     2.6648     8.1935 </r>
       <r>   -12.5754     3.1631     8.2422 </r>
       <r>   -12.5600     3.7473     8.3000 </r>
       <r>   -12.5446     4.4422     8.3685 </r>
       <r>   -12.5292     5.2691     8.4497 </r>
       <r>   -12.5137     6.2365     8.5459 </r>
       <r>   -12.4983     7.3324     8.6589 </r>
       <r>   -12.4829     8.5186     8.7902 </r>
       <r>   -12.4675     9.7311     8.9403 </r>
       <r>   -12.4521    10.8870     9.1081 </r>
       <r>   -12.4367    11.8979     9.2915 </r>
       <r>   -12.4213    12.6846     9.4871 </r>
       <r>   -12.4058    13.1918     9.6905 </r>
       <r>   -12.3904    13.3974     9.8970 </r>
       <r>   -12.3750    13.3141    10.1023 </r>
       <r>   -12.3596    12.9852    10.3024 </r>
       <r>   -12.3442    12.4746    10.4948 </r>
       <r>   -12.3287    11.8558    10.6775 </r>
       <r>   -12.3133    11.2011    10.8502 </r>
       <r>   -12.2979    10.5745    11.0132 </r>
       <r>   -12.2825    10.0268    11.1678 </r>
       <r>   -12.2671     9.5931    11.3157 </r>
       <r>   -12.2517     9.2925    11.4590 </r>
       <r>   -12.2363     9.1288    11.5997 </r>
       <r>   -12.2208     9.0914    11.7399 </r>
       <r>   -12.2054     9.1586    11.8811 </r>
       <r>   -12.1900     9.2999    12.0244 </r>
       <r>   -12.1746     9.4795    12.1706 </r>
       <r>   -12.1592     9.6589    12.3195 </r>
       <r>   -12.1438     9.7985    12.4705 </r>
       <r>   -12.1283     9.8602    12.6226 </r>
       <r>   -12.1129     9.8097    12.7738 </r>
       <r>   -12.0975     9.6200    12.9221 </r>
       <r>   -12.0821     9.2757    13.0651 </r>
       <r>   -12.0667     8.7767    13.2004 </r>
       <r>   -12.0512     8.1389    13.3259 </r>
       <r>   -12.0358     7.3930    13.4399 </r>
       <r>   -12.0204     6.5793    13.5413 </r>
       <r>   -12.0050     5.7409    13.6298 </r>
       <r>   -11.9896     4.9173    13.7056 </r>
       <r>   -11.9742     4.1397    13.7694 </r>
       <r>   -11.9588     3.4286    13.8223 </r>
       <r>   -11.9433     2.7945    13.8654 </r>
       <r>   -11.9279     2.2405    13.8999 </r>
       <r>   -11.9125     1.7646    13.9271 </r>
       <r>   -11.8971     1.3625    13.9481 </r>
       <r>   -11.8817     1.0287    13.9640 </r>
       <r>   -11.8663     0.7574    13.9756 </r>
       <r>   -11.8508     0.5423    13.9840 </r>
       <r>   -11.8354     0.3767    13.9898 </r>
       <r>   -11.8200     0.2533    13.9937 </r>
       <r>   -11.8046     0.1645    13.9963 </r>
       <r>   -11.7892     0.1030    13.9978 </r>
       <r>   -11.7737     0.0622    13.9988 </r>
       <r>   -11.7583     0.0361    13.9994 </r>
       <r>   -11.7429     0.0201    13.9997 </r>
       <r>   -11.7275     0.0108    13.9998 </r>
       <r>   -11.7121     0.0056    13.9999 </r>
       <r>   -11.6967     0.0027    14.0000 </r>
       <r>   -11.6812     0.0013    14.0000 </r>
       <r>   -11.6658     0.0006    14.0000 </r>
       <r>   -11.6504     0.0003    14.0000 </r>
       <r>   -11.6350     0.0001    14.0000 </r>
       <r>   -11.6196     0.0000    14.0000 </r>
       <r>   -11.6042     0.0000    14.0000 </r>
       <r>   -11.5888     0.0000    14.0000 </r>
       <r>   -11.5733     0.0000    14.0000 </r>
       <r>   -11.5579     0.0000    14.0000 </r>
       <r>   -11.5425     0.0000    14.0000 </r>
       <r>   -11.5271     0.0000    14.0000 </r>
       <r>   -11.5117     0.0000    14.0000 </r>
       <r>   -11.4962     0.0000    14.0000 </r>
       <r>   -11.4808     0.0000    14.0000 </r>
       <r>   -11.4654     0.0000    14.0000 </r>
       <r>   -11.4500     0.0000    14.0000 </r>
       <r>   -11.4346     0.0000    14.0000 </r>
       <r>   -11.4192     0.0000    14.0000 </r>
       <r>   -11.4037     0.0000    14.0000 </r>
       <r>   -11.3883     0.0000    14.0000 </r>
       <r>   -11.3729     0.0000    14.0000 </r>
       <r>   -11.3575     0.0000    14.0000 </r>
       <r>   -11.3421     0.0000    14.0000 </r>
       <r>   -11.3267     0.0000    14.0000 </r>
       <r>   -11.3113     0.0000    14.0000 </r>
       <r>   -11.2958     0.0000    14.0000 </r>
       <r>   -11.2804     0.0000    14.0000 </r>
       <r>   -11.2650     0.0000    14.0000 </r>
       <r>   -11.2496     0.0000    14.0000 </r>
       <r>   -11.2342     0.0000    14.0000 </r>
       <r>   -11.2188     0.0000    14.0000 </r>
       <r>   -11.2033     0.0000    14.0000 </r>
       <r>   -11.1879     0.0000    14.0000 </r>
       <r>   -11.1725     0.0000    14.0000 </r>
       <r>   -11.1571     0.0000    14.0000 </r>
       <r>   -11.1417     0.0000    14.0000 </r>
       <r>   -11.1262     0.0000    14.0000 </r>
       <r>   -11.1108     0.0000    14.0000 </r>
       <r>   -11.0954     0.0000    14.0000 </r>
       <r>   -11.0800     0.0000    14.0000 </r>
       <r>   -11.0646     0.0000    14.0000 </r>
       <r>   -11.0492     0.0000    14.0000 </r>
       <r>   -11.0337     0.0000    14.0000 </r>
       <r>   -11.0183     0.0000    14.0000 </r>
       <r>   -11.0029     0.0000    14.0000 </r>
       <r>   -10.9875     0.0000    14.0000 </r>
       <r>   -10.9721     0.0000    14.0000 </r>
       <r>   -10.9567     0.0000    14.0000 </r>
       <r>   -10.9413     0.0000    14.0000 </r>
       <r>   -10.9258     0.0000    14.0000 </r>
       <r>   -10.9104     0.0000    14.0000 </r>
       <r>   -10.8950     0.0000    14.0000 </r>
       <r>   -10.8796     0.0000    14.0000 </r>
       <r>   -10.8642     0.0000    14.0000 </r>
       <r>   -10.8487     0.0000    14.0000 </r>
       <r>   -10.8333     0.0000    14.0000 </r>
       <r>   -10.8179     0.0000    14.0000 </r>
       <r>   -10.8025     0.0000    14.0000 </r>
       <r>   -10.7871     0.0000    14.0000 </r>
       <r>   -10.7717     0.0000    14.0000 </r>
       <r>   -10.7562     0.0000    14.0000 </r>
       <r>   -10.7408     0.0000    14.0000 </r>
       <r>   -10.7254     0.0000    14.0000 </r>
       <r>   -10.7100     0.0000    14.0000 </r>
       <r>   -10.6946     0.0000    14.0000 </r>
       <r>   -10.6792     0.0000    14.0000 </r>
       <r>   -10.6638     0.0000    14.0000 </r>
       <r>   -10.6483     0.0000    14.0000 </r>
       <r>   -10.6329     0.0000    14.0000 </r>
       <r>   -10.6175     0.0000    14.0000 </r>
       <r>   -10.6021     0.0000    14.0000 </r>
       <r>   -10.5867     0.0000    14.0000 </r>
       <r>   -10.5712     0.0000    14.0000 </r>
       <r>   -10.5558     0.0000    14.0000 </r>
       <r>   -10.5404     0.0000    14.0000 </r>
       <r>   -10.5250     0.0000    14.0000 </r>
       <r>   -10.5096     0.0000    14.0000 </r>
       <r>   -10.4942     0.0000    14.0000 </r>
       <r>   -10.4787     0.0000    14.0000 </r>
       <r>   -10.4633     0.0000    14.0000 </r>
       <r>   -10.4479     0.0000    14.0000 </r>
       <r>   -10.4325     0.0000    14.0000 </r>
       <r>   -10.4171     0.0000    14.0000 </r>
       <r>   -10.4017     0.0000    14.0000 </r>
       <r>   -10.3863     0.0000    14.0000 </r>
       <r>   -10.3708     0.0000    14.0000 </r>
       <r>   -10.3554     0.0000    14.0000 </r>
       <r>   -10.3400     0.0000    14.0000 </r>
       <r>   -10.3246     0.0000    14.0000 </r>
       <r>   -10.3092     0.0000    14.0000 </r>
       <r>   -10.2937     0.0000    14.0000 </r>
       <r>   -10.2783     0.0000    14.0000 </r>
       <r>   -10.2629     0.0000    14.0000 </r>
       <r>   -10.2475     0.0000    14.0000 </r>
       <r>   -10.2321     0.0000    14.0000 </r>
       <r>   -10.2167     0.0000    14.0000 </r>
       <r>   -10.2012     0.0000    14.0000 </r>
       <r>   -10.1858     0.0000    14.0000 </r>
       <r>   -10.1704     0.0000    14.0000 </r>
       <r>   -10.1550     0.0000    14.0000 </r>
       <r>   -10.1396     0.0000    14.0000 </r>
       <r>   -10.1242     0.0000    14.0000 </r>
       <r>   -10.1088     0.0000    14.0000 </r>
       <r>   -10.0933     0.0000    14.0000 </r>
       <r>   -10.0779     0.0000    14.0000 </r>
       <r>   -10.0625     0.0000    14.0000 </r>
       <r>   -10.0471     0.0000    14.0000 </r>
       <r>   -10.0317     0.0000    14.0000 </r>
       <r>   -10.0162     0.0000    14.0000 </r>
       <r>   -10.0008     0.0000    14.0000 </r>
       <r>    -9.9854     0.0000    14.0000 </r>
       <r>    -9.9700     0.0000    14.0000 </r>
       <r>    -9.9546     0.0000    14.0000 </r>
       <r>    -9.9392     0.0000    14.0000 </r>
       <r>    -9.9238     0.0000    14.0000 </r>
       <r>    -9.9083     0.0000    14.0000 </r>
       <r>    -9.8929     0.0000    14.0000 </r>
       <r>    -9.8775     0.0000    14.0000 </r>
       <r>    -9.8621     0.0000    14.0000 </r>
       <r>    -9.8467     0.0000    14.0000 </r>
       <r>    -9.8313     0.0000    14.0000 </r>
       <r>    -9.8158     0.0000    14.0000 </r>
       <r>    -9.8004     0.0000    14.0000 </r>
       <r>    -9.7850     0.0000    14.0000 </r>
       <r>    -9.7696     0.0000    14.0000 </r>
       <r>    -9.7542     0.0000    14.0000 </r>
       <r>    -9.7387     0.0000    14.0000 </r>
       <r>    -9.7233     0.0000    14.0000 </r>
       <r>    -9.7079     0.0000    14.0000 </r>
       <r>    -9.6925     0.0000    14.0000 </r>
       <r>    -9.6771     0.0000    14.0000 </r>
       <r>    -9.6617     0.0000    14.0000 </r>
       <r>    -9.6463     0.0000    14.0000 </r>
       <r>    -9.6308     0.0000    14.0000 </r>
       <r>    -9.6154     0.0000    14.0000 </r>
       <r>    -9.6000     0.0000    14.0000 </r>
       <r>    -9.5846     0.0000    14.0000 </r>
       <r>    -9.5692     0.0000    14.0000 </r>
       <r>    -9.5538     0.0000    14.0000 </r>
       <r>    -9.5383     0.0000    14.0000 </r>
       <r>    -9.5229     0.0000    14.0000 </r>
       <r>    -9.5075     0.0000    14.0000 </r>
       <r>    -9.4921     0.0000    14.0000 </r>
       <r>    -9.4767     0.0000    14.0000 </r>
       <r>    -9.4612     0.0000    14.0000 </r>
       <r>    -9.4458     0.0000    14.0000 </r>
       <r>    -9.4304     0.0000    14.0000 </r>
       <r>    -9.4150     0.0000    14.0000 </r>
       <r>    -9.3996     0.0000    14.0000 </r>
       <r>    -9.3842     0.0000    14.0000 </r>
       <r>    -9.3687     0.0000    14.0000 </r>
       <r>    -9.3533     0.0000    14.0000 </r>
       <r>    -9.3379     0.0000    14.0000 </r>
       <r>    -9.3225     0.0000    14.0000 </r>
       <r>    -9.3071     0.0000    14.0000 </r>
       <r>    -9.2917     0.0000    14.0000 </r>
       <r>    -9.2763     0.0000    14.0000 </r>
       <r>    -9.2608     0.0000    14.0000 </r>
       <r>    -9.2454     0.0000    14.0000 </r>
       <r>    -9.2300     0.0000    14.0000 </r>
       <r>    -9.2146     0.0000    14.0000 </r>
       <r>    -9.1992     0.0000    14.0000 </r>
       <r>    -9.1837     0.0000    14.0000 </r>
       <r>    -9.1683     0.0000    14.0000 </r>
       <r>    -9.1529     0.0000    14.0000 </r>
       <r>    -9.1375     0.0000    14.0000 </r>
       <r>    -9.1221     0.0000    14.0000 </r>
       <r>    -9.1067     0.0000    14.0000 </r>
       <r>    -9.0912     0.0000    14.0000 </r>
       <r>    -9.0758     0.0000    14.0000 </r>
       <r>    -9.0604     0.0000    14.0000 </r>
       <r>    -9.0450     0.0000    14.0000 </r>
       <r>    -9.0296     0.0000    14.0000 </r>
       <r>    -9.0142     0.0000    14.0000 </r>
       <r>    -8.9987     0.0000    14.0000 </r>
       <r>    -8.9833     0.0000    14.0000 </r>
       <r>    -8.9679     0.0000    14.0000 </r>
       <r>    -8.9525     0.0000    14.0000 </r>
       <r>    -8.9371     0.0000    14.0000 </r>
       <r>    -8.9217     0.0000    14.0000 </r>
       <r>    -8.9062     0.0000    14.0000 </r>
       <r>    -8.8908     0.0000    14.0000 </r>
       <r>    -8.8754     0.0000    14.0000 </r>
       <r>    -8.8600     0.0000    14.0000 </r>
       <r>    -8.8446     0.0000    14.0000 </r>
       <r>    -8.8292     0.0000    14.0000 </r>
       <r>    -8.8138     0.0000    14.0000 </r>
       <r>    -8.7983     0.0000    14.0000 </r>
       <r>    -8.7829     0.0000    14.0000 </r>
       <r>    -8.7675     0.0000    14.0000 </r>
       <r>    -8.7521     0.0000    14.0000 </r>
       <r>    -8.7367     0.0000    14.0000 </r>
       <r>    -8.7212     0.0000    14.0000 </r>
       <r>    -8.7058     0.0000    14.0000 </r>
       <r>    -8.6904     0.0000    14.0000 </r>
       <r>    -8.6750     0.0000    14.0000 </r>
       <r>    -8.6596     0.0000    14.0000 </r>
       <r>    -8.6442     0.0000    14.0000 </r>
       <r>    -8.6288     0.0000    14.0000 </r>
       <r>    -8.6133     0.0000    14.0000 </r>
       <r>    -8.5979     0.0000    14.0000 </r>
       <r>    -8.5825     0.0000    14.0000 </r>
       <r>    -8.5671     0.0000    14.0000 </r>
       <r>    -8.5517     0.0000    14.0000 </r>
       <r>    -8.5362     0.0000    14.0000 </r>
       <r>    -8.5208     0.0000    14.0000 </r>
       <r>    -8.5054     0.0000    14.0000 </r>
       <r>    -8.4900     0.0000    14.0000 </r>
       <r>    -8.4746     0.0000    14.0000 </r>
       <r>    -8.4592     0.0000    14.0000 </r>
       <r>    -8.4437     0.0000    14.0000 </r>
       <r>    -8.4283     0.0000    14.0000 </r>
       <r>    -8.4129     0.0000    14.0000 </r>
       <r>    -8.3975     0.0000    14.0000 </r>
       <r>    -8.3821     0.0000    14.0000 </r>
       <r>    -8.3667     0.0000    14.0000 </r>
       <r>    -8.3513     0.0000    14.0000 </r>
       <r>    -8.3358     0.0000    14.0000 </r>
       <r>    -8.3204     0.0000    14.0000 </r>
       <r>    -8.3050     0.0000    14.0000 </r>
       <r>    -8.2896     0.0000    14.0000 </r>
       <r>    -8.2742     0.0000    14.0000 </r>
       <r>    -8.2587     0.0000    14.0000 </r>
       <r>    -8.2433     0.0000    14.0000 </r>
       <r>    -8.2279     0.0000    14.0000 </r>
       <r>    -8.2125     0.0000    14.0000 </r>
       <r>    -8.1971     0.0000    14.0000 </r>
       <r>    -8.1817     0.0000    14.0000 </r>
       <r>    -8.1662     0.0000    14.0000 </r>
       <r>    -8.1508     0.0000    14.0000 </r>
       <r>    -8.1354     0.0000    14.0000 </r>
       <r>    -8.1200     0.0000    14.0000 </r>
       <r>    -8.1046     0.0000    14.0000 </r>
       <r>    -8.0892     0.0000    14.0000 </r>
       <r>    -8.0738     0.0000    14.0000 </r>
       <r>    -8.0583     0.0000    14.0000 </r>
       <r>    -8.0429     0.0000    14.0000 </r>
       <r>    -8.0275     0.0000    14.0000 </r>
       <r>    -8.0121     0.0000    14.0000 </r>
       <r>    -7.9967     0.0000    14.0000 </r>
       <r>    -7.9812     0.0000    14.0000 </r>
       <r>    -7.9658     0.0000    14.0000 </r>
       <r>    -7.9504     0.0000    14.0000 </r>
       <r>    -7.9350     0.0000    14.0000 </r>
       <r>    -7.9196     0.0000    14.0000 </r>
       <r>    -7.9042     0.0000    14.0000 </r>
       <r>    -7.8887     0.0000    14.0000 </r>
       <r>    -7.8733     0.0000    14.0000 </r>
       <r>    -7.8579     0.0000    14.0000 </r>
       <r>    -7.8425     0.0000    14.0000 </r>
       <r>    -7.8271     0.0000    14.0000 </r>
       <r>    -7.8117     0.0000    14.0000 </r>
       <r>    -7.7963     0.0000    14.0000 </r>
       <r>    -7.7808     0.0000    14.0000 </r>
       <r>    -7.7654     0.0000    14.0000 </r>
       <r>    -7.7500     0.0000    14.0000 </r>
       <r>    -7.7346     0.0000    14.0000 </r>
       <r>    -7.7192     0.0000    14.0000 </r>
       <r>    -7.7037     0.0000    14.0000 </r>
       <r>    -7.6883     0.0000    14.0000 </r>
       <r>    -7.6729     0.0000    14.0000 </r>
       <r>    -7.6575     0.0000    14.0000 </r>
       <r>    -7.6421     0.0000    14.0000 </r>
       <r>    -7.6267     0.0000    14.0000 </r>
       <r>    -7.6113     0.0000    14.0000 </r>
       <r>    -7.5958     0.0000    14.0000 </r>
       <r>    -7.5804     0.0000    14.0000 </r>
       <r>    -7.5650     0.0000    14.0000 </r>
       <r>    -7.5496     0.0000    14.0000 </r>
       <r>    -7.5342     0.0000    14.0000 </r>
       <r>    -7.5187     0.0000    14.0000 </r>
       <r>    -7.5033     0.0000    14.0000 </r>
       <r>    -7.4879     0.0000    14.0000 </r>
       <r>    -7.4725     0.0000    14.0000 </r>
       <r>    -7.4571     0.0000    14.0000 </r>
       <r>    -7.4417     0.0000    14.0000 </r>
       <r>    -7.4262     0.0000    14.0000 </r>
       <r>    -7.4108     0.0000    14.0000 </r>
       <r>    -7.3954     0.0000    14.0000 </r>
       <r>    -7.3800     0.0000    14.0000 </r>
       <r>    -7.3646     0.0000    14.0000 </r>
       <r>    -7.3492     0.0000    14.0000 </r>
       <r>    -7.3338     0.0000    14.0000 </r>
       <r>    -7.3183     0.0000    14.0000 </r>
       <r>    -7.3029     0.0000    14.0000 </r>
       <r>    -7.2875     0.0000    14.0000 </r>
       <r>    -7.2721     0.0000    14.0000 </r>
       <r>    -7.2567     0.0000    14.0000 </r>
       <r>    -7.2412     0.0000    14.0000 </r>
       <r>    -7.2258     0.0000    14.0000 </r>
       <r>    -7.2104     0.0000    14.0000 </r>
       <r>    -7.1950     0.0000    14.0000 </r>
       <r>    -7.1796     0.0000    14.0000 </r>
       <r>    -7.1642     0.0000    14.0000 </r>
       <r>    -7.1487     0.0000    14.0000 </r>
       <r>    -7.1333     0.0000    14.0000 </r>
       <r>    -7.1179     0.0000    14.0000 </r>
       <r>    -7.1025     0.0000    14.0000 </r>
       <r>    -7.0871     0.0000    14.0000 </r>
       <r>    -7.0717     0.0000    14.0000 </r>
       <r>    -7.0563     0.0000    14.0000 </r>
       <r>    -7.0408     0.0000    14.0000 </r>
       <r>    -7.0254     0.0000    14.0000 </r>
       <r>    -7.0100     0.0000    14.0000 </r>
       <r>    -6.9946     0.0000    14.0000 </r>
       <r>    -6.9792     0.0000    14.0000 </r>
       <r>    -6.9637     0.0000    14.0000 </r>
       <r>    -6.9483     0.0000    14.0000 </r>
       <r>    -6.9329     0.0000    14.0000 </r>
       <r>    -6.9175     0.0000    14.0000 </r>
       <r>    -6.9021     0.0000    14.0000 </r>
       <r>    -6.8867     0.0000    14.0000 </r>
       <r>    -6.8712     0.0000    14.0000 </r>
       <r>    -6.8558     0.0000    14.0000 </r>
       <r>    -6.8404     0.0000    14.0000 </r>
       <r>    -6.8250     0.0000    14.0000 </r>
       <r>    -6.8096     0.0000    14.0000 </r>
       <r>    -6.7942     0.0000    14.0000 </r>
       <r>    -6.7788     0.0000    14.0000 </r>
       <r>    -6.7633     0.0000    14.0000 </r>
       <r>    -6.7479     0.0000    14.0000 </r>
       <r>    -6.7325     0.0000    14.0000 </r>
       <r>    -6.7171     0.0000    14.0000 </r>
       <r>    -6.7017     0.0000    14.0000 </r>
       <r>    -6.6862     0.0000    14.0000 </r>
       <r>    -6.6708     0.0000    14.0000 </r>
       <r>    -6.6554     0.0000    14.0000 </r>
       <r>    -6.6400     0.0000    14.0000 </r>
       <r>    -6.6246     0.0000    14.0000 </r>
       <r>    -6.6092     0.0000    14.0000 </r>
       <r>    -6.5938     0.0000    14.0000 </r>
       <r>    -6.5783     0.0000    14.0000 </r>
       <r>    -6.5629     0.0000    14.0000 </r>
       <r>    -6.5475     0.0000    14.0000 </r>
       <r>    -6.5321     0.0000    14.0000 </r>
       <r>    -6.5167     0.0000    14.0000 </r>
       <r>    -6.5012     0.0000    14.0000 </r>
       <r>    -6.4858     0.0000    14.0000 </r>
       <r>    -6.4704     0.0000    14.0000 </r>
       <r>    -6.4550     0.0000    14.0000 </r>
       <r>    -6.4396     0.0000    14.0000 </r>
       <r>    -6.4242     0.0000    14.0000 </r>
       <r>    -6.4087     0.0000    14.0000 </r>
       <r>    -6.3933     0.0000    14.0000 </r>
       <r>    -6.3779     0.0000    14.0000 </r>
       <r>    -6.3625     0.0000    14.0000 </r>
       <r>    -6.3471     0.0000    14.0000 </r>
       <r>    -6.3317     0.0000    14.0000 </r>
       <r>    -6.3163     0.0000    14.0000 </r>
       <r>    -6.3008     0.0000    14.0000 </r>
       <r>    -6.2854     0.0000    14.0000 </r>
       <r>    -6.2700     0.0000    14.0000 </r>
       <r>    -6.2546     0.0000    14.0000 </r>
       <r>    -6.2392     0.0000    14.0000 </r>
       <r>    -6.2237     0.0000    14.0000 </r>
       <r>    -6.2083     0.0000    14.0000 </r>
       <r>    -6.1929     0.0000    14.0000 </r>
       <r>    -6.1775     0.0000    14.0000 </r>
       <r>    -6.1621     0.0000    14.0000 </r>
       <r>    -6.1467     0.0000    14.0000 </r>
       <r>    -6.1312     0.0000    14.0000 </r>
       <r>    -6.1158     0.0000    14.0000 </r>
       <r>    -6.1004     0.0000    14.0000 </r>
       <r>    -6.0850     0.0000    14.0000 </r>
       <r>    -6.0696     0.0000    14.0000 </r>
       <r>    -6.0542     0.0000    14.0000 </r>
       <r>    -6.0388     0.0000    14.0000 </r>
       <r>    -6.0233     0.0000    14.0000 </r>
       <r>    -6.0079     0.0000    14.0000 </r>
       <r>    -5.9925     0.0000    14.0000 </r>
       <r>    -5.9771     0.0000    14.0000 </r>
       <r>    -5.9617     0.0000    14.0000 </r>
       <r>    -5.9462     0.0000    14.0000 </r>
       <r>    -5.9308     0.0000    14.0000 </r>
[...]
        <r>  0.3410  0.0003  0.0002  0.0003  0.0000  0.0000  0.0000  0.0000  0.0000 </r>
        <r>  0.1624  0.0001  0.0001  0.0000  0.0000  0.0000  0.0000  0.0000  0.0000 </r>
        <r>  0.1624  0.0000  0.0001  0.0001  0.0000  0.0000  0.0000  0.0000  0.0000 </r>
       </set>
       <set comment="band 3">
        <r>  0.0000  0.0630  0.0000  0.0630  0.0000  0.0008  0.0000  0.0008  0.0000 </r>
        <r>  0.0000  0.0273  0.0000  0.0273  0.0000  0.0001  0.0000  0.0001  0.0062 </r>
        <r>  0.0000  0.0004  0.0000  0.0004  0.0000  0.0000  0.0000  0.0000  0.0000 </r>
        <r>  0.3319  0.0000  0.0001  0.0000  0.0000  0.0000  0.0000  0.0000  0.0000 </r>
        <r>  0.3319  0.0000  0.0001  0.0000  0.0000  0.0000  0.0000  0.0000  0.0000 </r>
       </set>
       <set comment="band 4">
        <r>  0.0000  0.0076  0.0113  0.0076  0.0015  0.0004  0.0000  0.0004  0.0000 </r>
        <r>  0.0035  0.0140  0.0202  0.0140  0.0000  0.0000  0.0304  0.0000  0.0000 </r>
        <r>  0.4153  0.0001  0.0002  0.0001  0.0000  0.0000  0.0000  0.0000  0.0000 </r>
        <r>  0.1716  0.0000  0.0000  0.0000  0.0000  0.0000  0.0000  0.0000  0.0000 </r>
        <r>  0.1716  0.0000  0.0000  0.0000  0.0000  0.0000  0.0000  0.0000  0.0000 </r>
       </set>
       <set comment="band 5">
        <r>  0.0000  0.0893  0.7414  0.0893  0.0000  0.0000  0.0001  0.0000  0.0000 </r>
        <r>  0.0002  0.0000  0.0002  0.0000  0.0017  0.0003  0.0003  0.0003  0.0000 </r>
        <r>  0.0062  0.0003  0.0000  0.0003  0.0000  0.0000  0.0000  0.0000  0.0000 </r>
        <r>  0.0003  0.0000  0.0004  0.0019  0.0000  0.0000  0.0000  0.0000  0.0000 </r>
        <r>  0.0003  0.0019  0.0004  0.0000  0.0000  0.0000  0.0000  0.0000  0.0000 </r>
       </set>
       <set comment="band 6">
        <r>  0.0000  0.3991  0.0000  0.3991  0.0000  0.0002  0.0000  0.0002  0.0000 </r>
        <r>  0.0000  0.0037  0.0000  0.0037  0.0000  0.0008  0.0000  0.0008  0.0013 </r>
        <r>  0.0000  0.0012  0.0000  0.0012  0.0000  0.0000  0.0000  0.0000  0.0000 </r>
        <r>  0.0623  0.0000  0.0010  0.0000  0.0000  0.0000  0.0000  0.0000  0.0000 </r>
        <r>  0.0623  0.0000  0.0010  0.0000  0.0000  0.0000  0.0000  0.0000  0.0000 </r>
       </set>
       <set comment="band 7">
        <r>  0.0000  0.3140  0.1718  0.3140  0.0001  0.0002  0.0000  0.0002  0.0000 </r>
        <r>  0.0021  0.0035  0.0004  0.0035  0.0002  0.0005  0.0000  0.0005  0.0000 </r>
        <r>  0.0124  0.0008  0.0000  0.0008  0.0000  0.0000  0.0000  0.0000  0.0000 </r>
        <r>  0.0584  0.0000  0.0006  0.0002  0.0000  0.0000  0.0000  0.0000  0.0000 </r>
        <r>  0.0584  0.0002  0.0006  0.0000  0.0000  0.0000  0.0000  0.0000  0.0000 </r>
       </set>
       <set comment="band 8">
        <r>  0.0002  0.0002  0.0003  0.0002  0.0022  0.0002  0.0000  0.0002  0.0000 </r>
        <r>  0.2839  0.0067  0.0039  0.0067  0.0023  0.0015  0.1172  0.0015  0.0000 </r>
        <r>  0.0023  0.0026  0.0150  0.0026  0.0000  0.0000  0.0000  0.0000  0.0000 </r>
        <r>  0.0006  0.2496  0.0017  0.0027  0.0000  0.0000  0.0000  0.0000  0.0000 </r>
        <r>  0.0006  0.0027  0.0017  0.2496  0.0000  0.0000  0.0000  0.0000  0.0000 </r>
       </set>
       <set comment="band 9">
        <r>  0.0000  0.0002  0.0000  0.0002  0.0000  0.0000  0.0000  0.0000  0.0000 </r>
        <r>  0.0000  0.0055  0.0000  0.0055  0.0000  0.0002  0.0000  0.0002  0.5316 </r>
        <r>  0.0000  0.0008  0.0000  0.0008  0.0000  0.0000  0.0000  0.0000  0.0000 </r>
        <r>  0.0001  0.2506  0.0001  0.0000  0.0000  0.0000  0.0000  0.0000  0.0000 </r>
        <r>  0.0001  0.0000  0.0001  0.2506  0.0000  0.0000  0.0000  0.0000  0.0000 </r>
       </set>
       <set comment="band 10">
        <r>  0.0090  0.0003  0.0306  0.0003  0.0000  0.0010  0.0048  0.0010  0.0000 </r>
        <r>  0.0041  0.0000  0.0001  0.0000  0.1899  0.0046  0.0061  0.0046  0.0000 </r>
        <r>  0.0000  0.0039  0.0004  0.0039  0.0000  0.0000  0.0000  0.0000  0.0000 </r>
        <r>  0.0003  0.0057  0.0065  0.2029  0.0000  0.0000  0.0000  0.0000  0.0000 </r>
        <r>  0.0003  0.2029  0.0065  0.0057  0.0000  0.0000  0.0000  0.0000  0.0000 </r>
       </set>
       <set comment="band 11">
        <r>  0.0001  0.0105  0.0030  0.0105  0.0001  0.0019  0.0008  0.0019  0.0000 </r>
        <r>  0.0123  0.0000  0.0472  0.0000  0.0088  0.0479  0.1715  0.0479  0.0000 </r>
        <r>  0.0011  0.0431  0.2368  0.0431  0.0000  0.0000  0.0000  0.0000  0.0000 </r>
        <r>  0.0000  0.0073  0.0680  0.0095  0.0000  0.0000  0.0000  0.0000  0.0000 </r>
        <r>  0.0000  0.0095  0.0680  0.0073  0.0000  0.0000  0.0000  0.0000  0.0000 </r>
       </set>
       <set comment="band 12">
        <r>  0.0000  0.0217  0.0000  0.0217  0.0000  0.0035  0.0000  0.0035  0.0010 </r>
        <r>  0.0000  0.0004  0.0000  0.0004  0.0000  0.1020  0.0000  0.1020  0.0018 </r>
        <r>  0.0000  0.0976  0.0000  0.0976  0.0000  0.0000  0.0000  0.0000  0.0000 </r>
        <r>  0.0001  0.0008  0.1309  0.0001  0.0000  0.0000  0.0000  0.0000  0.0000 </r>
        <r>  0.0001  0.0001  0.1309  0.0008  0.0000  0.0000  0.0000  0.0000  0.0000 </r>
       </set>
       <set comment="band 13">
        <r>  0.0003  0.0094  0.0012  0.0094  0.0010  0.0006  0.0006  0.0006  0.0000 </r>
        <r>  0.0423  0.0003  0.0443  0.0003  0.0033  0.0473  0.1493  0.0473  0.0000 </r>
        <r>  0.0027  0.0523  0.2941  0.0523  0.0000  0.0000  0.0000  0.0000  0.0000 </r>
        <r>  0.0002  0.0000  0.0514  0.0035  0.0000  0.0000  0.0000  0.0000  0.0000 </r>
        <r>  0.0002  0.0035  0.0514  0.0000  0.0000  0.0000  0.0000  0.0000  0.0000 </r>
       </set>
       <set comment="band 14">
        <r>  0.0001  0.0007  0.0004  0.0007  0.0031  0.0052  0.0009  0.0052  0.0000 </r>
        <r>  0.0000  0.0029  0.0004  0.0029  0.0000  0.0015  0.0024  0.0015  0.0000 </r>
        <r>  0.0007  0.2014  0.0017  0.2014  0.0000  0.0000  0.0000  0.0000  0.0000 </r>
        <r>  0.0018  0.0004  0.1495  0.0000  0.0000  0.0000  0.0000  0.0000  0.0000 </r>
        <r>  0.0018  0.0000  0.1495  0.0004  0.0000  0.0000  0.0000  0.0000  0.0000 </r>
       </set>
       <set comment="band 15">
        <r>  0.0000  0.0015  0.0000  0.0015  0.0000  0.0059  0.0000  0.0059  0.0003 </r>
        <r>  0.0000  0.0034  0.0000  0.0034  0.0000  0.0011  0.0000  0.0011  0.0009 </r>
        <r>  0.0000  0.2012  0.0000  0.2012  0.0000  0.0000  0.0000  0.0000  0.0000 </r>
        <r>  0.0021  0.0003  0.1378  0.0153  0.0000  0.0000  0.0000  0.0000  0.0000 </r>
        <r>  0.0021  0.0153  0.1378  0.0003  0.0000  0.0000  0.0000  0.0000  0.0000 </r>
       </set>
       <set comment="band 16">
        <r>  0.0000  0.0001  0.0000  0.0001  0.0000  0.0002  0.0000  0.0002  0.0044 </r>
        <r>  0.0000  0.0002  0.0000  0.0002  0.0000  0.0002  0.0000  0.0002  0.0000 </r>
        <r>  0.0000  0.0088  0.0000  0.0088  0.0000  0.0000  0.0000  0.0000  0.0000 </r>
        <r>  0.0001  0.0000  0.0086  0.3611  0.0000  0.0000  0.0000  0.0000  0.0000 </r>
        <r>  0.0001  0.3611  0.0086  0.0000  0.0000  0.0000  0.0000  0.0000  0.0000 </r>
       </set>
       <set comment="band 17">
        <r>  0.0004  0.0023  0.0000  0.0023  0.0004  0.0000  0.0002  0.0000  0.0000 </r>
        <r>  0.0001  0.0012  0.0013  0.0012  0.0023  0.3910  0.0002  0.3910  0.0000 </r>
        <r>  0.0006  0.0181  0.0001  0.0181  0.0000  0.0000  0.0000  0.0000  0.0000 </r>
        <r>  0.0005  0.0000  0.0511  0.0001  0.0000  0.0000  0.0000  0.0000  0.0000 </r>
        <r>  0.0005  0.0001  0.0511  0.0000  0.0000  0.0000  0.0000  0.0000  0.0000 </r>
       </set>
       <set comment="band 18">
        <r>  0.0000  0.0022  0.0000  0.0022  0.0000  0.0001  0.0000  0.0001  0.0015 </r>
        <r>  0.0000  0.0012  0.0000  0.0012  0.0000  0.3916  0.0000  0.3916  0.0001 </r>
        <r>  0.0000  0.0174  0.0000  0.0174  0.0000  0.0000  0.0000  0.0000  0.0000 </r>
        <r>  0.0005  0.0000  0.0537  0.0000  0.0000  0.0000  0.0000  0.0000  0.0000 </r>
        <r>  0.0005  0.0000  0.0537  0.0000  0.0000  0.0000  0.0000  0.0000  0.0000 </r>
       </set>
       <set comment="band 19">
        <r>  0.0011  0.0000  0.0027  0.0000  0.0001  0.0002  0.0100  0.0002  0.0000 </r>
        <r>  0.0000  0.0005  0.0000  0.0005  0.8009  0.0011  0.0000  0.0011  0.0000 </r>
        <r>  0.0000  0.0002  0.0000  0.0002  0.0000  0.0000  0.0000  0.0000  0.0000 </r>
        <r>  0.0003  0.0000  0.0001  0.0575  0.0000  0.0000  0.0000  0.0000  0.0000 </r>
        <r>  0.0003  0.0575  0.0001  0.0000  0.0000  0.0000  0.0000  0.0000  0.0000 </r>
       </set>
       <set comment="band 20">
        <r>  0.0001  0.0011  0.0000  0.0003  0.4716  0.0002  0.0033  0.0198  0.0003 </r>
        <r>  0.0003  0.0010  0.0270  0.0000  0.0007  0.0005  0.0079  0.0023  0.0001 </r>
        <r>  0.0487  0.0055  0.0068  0.0024  0.0000  0.0000  0.0000  0.0000  0.0000 </r>
        <r>  0.0011  0.0159  0.0061  0.0000  0.0000  0.0000  0.0000  0.0000  0.0000 </r>
        <r>  0.0001  0.0003  0.0024  0.0123  0.0000  0.0000  0.0000  0.0000  0.0000 </r>
       </set>
      </set>
      <set comment="kpoint 20">
       <set comment="band 1">
        <r>  0.9794  0.0000  0.0000  0.0000  0.0000  0.0000  0.0000  0.0000  0.0000 </r>
        <r>  0.0000  0.0000  0.0000  0.0000  0.0000  0.0000  0.0000  0.0000  0.0000 </r>
        <r>  0.0000  0.0000  0.0000  0.0000  0.0000  0.0000  0.0000  0.0000  0.0000 </r>
        <r>  0.0000  0.0000  0.0000  0.0000  0.0000  0.0000  0.0000  0.0000  0.0000 </r>
        <r>  0.0000  0.0000  0.0000  0.0000  0.0000  0.0000  0.0000  0.0000  0.0000 </r>
       </set>
       <set comment="band 2">
        <r>  0.0000  0.0246  0.0246  0.0246  0.0009  0.0009  0.0000  0.0009  0.0000 </r>
        <r>  0.0087  0.0189  0.0189  0.0189  0.0001  0.0001  0.0000  0.0001  0.0000 </r>
        <r>  0.2369  0.0001  0.0001  0.0001  0.0000  0.0000  0.0000  0.0000  0.0000 </r>
        <r>  0.2369  0.0001  0.0001  0.0001  0.0000  0.0000  0.0000  0.0000  0.0000 </r>
        <r>  0.2369  0.0001  0.0001  0.0001  0.0000  0.0000  0.0000  0.0000  0.0000 </r>
       </set>
       <set comment="band 3">
        <r>  0.0000  0.0111  0.0107  0.0039  0.0012  0.0004  0.0000  0.0012  0.0000 </r>
        <r>  0.0000  0.0261  0.0254  0.0091  0.0000  0.0000  0.0046  0.0000  0.0027 </r>
        <r>  0.3186  0.0000  0.0000  0.0000  0.0000  0.0000  0.0000  0.0000  0.0000 </r>
        <r>  0.3282  0.0000  0.0000  0.0000  0.0000  0.0000  0.0000  0.0000  0.0000 </r>
        <r>  0.1148  0.0001  0.0001  0.0000  0.0000  0.0000  0.0000  0.0000  0.0000 </r>
       </set>
       <set comment="band 4">
        <r>  0.0000  0.0061  0.0064  0.0133  0.0007  0.0014  0.0000  0.0007  0.0000 </r>
        <r>  0.0000  0.0143  0.0151  0.0313  0.0000  0.0000  0.0027  0.0000  0.0045 </r>
        <r>  0.1892  0.0001  0.0000  0.0000  0.0000  0.0000  0.0000  0.0000  0.0000 </r>
        <r>  0.1796  0.0000  0.0001  0.0001  0.0000  0.0000  0.0000  0.0000  0.0000 </r>
        <r>  0.3929  0.0000  0.0000  0.0000  0.0000  0.0000  0.0000  0.0000  0.0000 </r>
       </set>
       <set comment="band 5">
        <r>  0.0000  0.5149  0.2638  0.1140  0.0000  0.0000  0.0000  0.0001  0.0000 </r>
        <r>  0.0000  0.0009  0.0005  0.0002  0.0008  0.0004  0.0001  0.0017  0.0001 </r>
        <r>  0.0074  0.0004  0.0000  0.0018  0.0000  0.0000  0.0000  0.0000  0.0000 </r>
        <r>  0.0144  0.0000  0.0004  0.0009  0.0000  0.0000  0.0000  0.0000  0.0000 </r>
        <r>  0.0032  0.0010  0.0019  0.0000  0.0000  0.0000  0.0000  0.0000  0.0000 </r>
       </set>
       <set comment="band 6">
        <r>  0.0000  0.0803  0.3313  0.4811  0.0000  0.0001  0.0000  0.0000  0.0000 </r>
        <r>  0.0000  0.0001  0.0006  0.0008  0.0011  0.0015  0.0001  0.0003  0.0001 </r>
        <r>  0.0092  0.0017  0.0000  0.0003  0.0000  0.0000  0.0000  0.0000  0.0000 </r>
        <r>  0.0022  0.0000  0.0017  0.0012  0.0000  0.0000  0.0000  0.0000  0.0000 </r>
        <r>  0.0134  0.0012  0.0003  0.0000  0.0000  0.0000  0.0000  0.0000  0.0000 </r>
       </set>
       <set comment="band 7">
        <r>  0.0000  0.2825  0.2825  0.2825  0.0001  0.0001  0.0000  0.0001  0.0000 </r>
        <r>  0.0008  0.0015  0.0015  0.0015  0.0008  0.0008  0.0000  0.0008  0.0000 </r>
        <r>  0.0241  0.0009  0.0000  0.0009  0.0000  0.0000  0.0000  0.0000  0.0000 </r>
        <r>  0.0241  0.0000  0.0009  0.0009  0.0000  0.0000  0.0000  0.0000  0.0000 </r>
        <r>  0.0241  0.0009  0.0009  0.0000  0.0000  0.0000  0.0000  0.0000  0.0000 </r>
       </set>
       <set comment="band 8">
        <r>  0.0000  0.0001  0.0001  0.0001  0.0002  0.0002  0.0000  0.0002  0.0000 </r>
        <r>  0.3859  0.0045  0.0045  0.0045  0.0004  0.0004  0.0000  0.0004  0.0000 </r>
        <r>  0.0008  0.0005  0.1791  0.0005  0.0000  0.0000  0.0000  0.0000  0.0000 </r>
        <r>  0.0008  0.1791  0.0005  0.0005  0.0000  0.0000  0.0000  0.0000  0.0000 </r>
        <r>  0.0008  0.0005  0.0005  0.1791  0.0000  0.0000  0.0000  0.0000  0.0000 </r>
       </set>
       <set comment="band 9">
        <r>  0.0000  0.0000  0.0000  0.0000  0.0000  0.0001  0.0000  0.0001  0.0000 </r>
        <r>  0.0000  0.0045  0.0022  0.0039  0.0000  0.0001  0.1663  0.0001  0.3671 </r>
        <r>  0.0001  0.0001  0.1046  0.0001  0.0000  0.0000  0.0000  0.0000  0.0000 </r>
        <r>  0.0001  0.2132  0.0001  0.0001  0.0000  0.0000  0.0000  0.0000  0.0000 </r>
        <r>  0.0001  0.0001  0.0001  0.1854  0.0000  0.0000  0.0000  0.0000  0.0000 </r>
       </set>
       <set comment="band 10">
        <r>  0.0000  0.0000  0.0000  0.0000  0.0001  0.0001  0.0000  0.0000  0.0000 </r>
        <r>  0.0000  0.0026  0.0048  0.0031  0.0001  0.0000  0.3671  0.0000  0.1663 </r>
        <r>  0.0001  0.0001  0.2308  0.0001  0.0000  0.0000  0.0000  0.0000  0.0000 </r>
        <r>  0.0001  0.1223  0.0001  0.0001  0.0000  0.0000  0.0000  0.0000  0.0000 </r>
        <r>  0.0001  0.0001  0.0001  0.1500  0.0000  0.0000  0.0000  0.0000  0.0000 </r>
       </set>
       <set comment="band 11">
        <r>  0.0032  0.0161  0.0161  0.0161  0.0009  0.0009  0.0000  0.0009  0.0000 </r>
        <r>  0.0028  0.0001  0.0001  0.0001  0.0703  0.0703  0.0000  0.0703  0.0000 </r>
        <r>  0.0001  0.0737  0.0014  0.0737  0.0000  0.0000  0.0000  0.0000  0.0000 </r>
        <r>  0.0001  0.0014  0.0737  0.0737  0.0000  0.0000  0.0000  0.0000  0.0000 </r>
        <r>  0.0001  0.0737  0.0737  0.0014  0.0000  0.0000  0.0000  0.0000  0.0000 </r>
       </set>
       <set comment="band 12">
        <r>  0.0000  0.0339  0.0099  0.0115  0.0001  0.0002  0.0003  0.0005  0.0008 </r>
        <r>  0.0000  0.0001  0.0000  0.0000  0.0385  0.0445  0.0001  0.1311  0.0004 </r>
        <r>  0.0000  0.0457  0.0001  0.1375  0.0000  0.0000  0.0000  0.0000  0.0000 </r>
        <r>  0.0000  0.0003  0.0476  0.0413  0.0000  0.0000  0.0000  0.0000  0.0000 </r>
        <r>  0.0000  0.0395  0.1376  0.0001  0.0000  0.0000  0.0000  0.0000  0.0000 </r>
       </set>
       <set comment="band 13">
        <r>  0.0000  0.0030  0.0269  0.0254  0.0004  0.0004  0.0008  0.0000  0.0003 </r>
        <r>  0.0000  0.0000  0.0000  0.0000  0.1042  0.0982  0.0004  0.0116  0.0001 </r>
        <r>  0.0000  0.1040  0.0002  0.0123  0.0000  0.0000  0.0000  0.0000  0.0000 </r>
        <r>  0.0000  0.0000  0.1021  0.1084  0.0000  0.0000  0.0000  0.0000  0.0000 </r>
        <r>  0.0000  0.1102  0.0121  0.0002  0.0000  0.0000  0.0000  0.0000  0.0000 </r>
       </set>
       <set comment="band 14">
        <r>  0.0000  0.0001  0.0000  0.0000  0.0022  0.0001  0.0005  0.0031  0.0003 </r>
        <r>  0.0000  0.0014  0.0010  0.0000  0.0000  0.0000  0.0002  0.0000  0.0001 </r>
        <r>  0.0006  0.2448  0.0001  0.0326  0.0000  0.0000  0.0000  0.0000  0.0000 </r>
        <r>  0.0009  0.0001  0.2435  0.0943  0.0000  0.0000  0.0000  0.0000  0.0000 </r>
        <r>  0.0000  0.0988  0.0358  0.0000  0.0000  0.0000  0.0000  0.0000  0.0000 </r>
       </set>
       <set comment="band 15">
        <r>  0.0000  0.0000  0.0000  0.0001  0.0014  0.0035  0.0003  0.0005  0.0005 </r>
        <r>  0.0000  0.0002  0.0006  0.0015  0.0000  0.0000  0.0001  0.0000  0.0002 </r>
        <r>  0.0004  0.0051  0.0001  0.2173  0.0000  0.0000  0.0000  0.0000  0.0000 </r>
        <r>  0.0001  0.0000  0.0065  0.1556  0.0000  0.0000  0.0000  0.0000  0.0000 </r>
        <r>  0.0010  0.1511  0.2142  0.0001  0.0000  0.0000  0.0000  0.0000  0.0000 </r>
       </set>
       <set comment="band 16">
        <r>  0.0000  0.0000  0.0000  0.0000  0.0000  0.0000  0.0000  0.0000  0.0000 </r>
        <r>  0.0000  0.0000  0.0000  0.0000  0.0000  0.0000  0.0000  0.0000  0.0000 </r>
        <r>  0.0000  0.1276  0.0000  0.1276  0.0000  0.0000  0.0000  0.0000  0.0000 </r>
        <r>  0.0000  0.0000  0.1276  0.1276  0.0000  0.0000  0.0000  0.0000  0.0000 </r>
        <r>  0.0000  0.1276  0.1276  0.0000  0.0000  0.0000  0.0000  0.0000  0.0000 </r>
       </set>
       <set comment="band 17">
        <r>  0.0002  0.0014  0.0033  0.0002  0.0001  0.0005  0.0007  0.0001  0.0003 </r>
        <r>  0.0000  0.0003  0.0002  0.0011  0.5366  0.0320  0.0000  0.2280  0.0000 </r>
        <r>  0.0001  0.0029  0.0000  0.0190  0.0000  0.0000  0.0000  0.0000  0.0000 </r>
        <r>  0.0001  0.0000  0.0026  0.0451  0.0000  0.0000  0.0000  0.0000  0.0000 </r>
        <r>  0.0005  0.0461  0.0197  0.0000  0.0000  0.0000  0.0000  0.0000  0.0000 </r>
       </set>
       <set comment="band 18">
        <r>  0.0000  0.0027  0.0009  0.0010  0.0001  0.0001  0.0006  0.0002  0.0013 </r>
        <r>  0.0000  0.0004  0.0001  0.0001  0.1568  0.1732  0.0000  0.4681  0.0000 </r>
        <r>  0.0001  0.0143  0.0000  0.0399  0.0000  0.0000  0.0000  0.0000  0.0000 </r>
        <r>  0.0002  0.0000  0.0152  0.0138  0.0000  0.0000  0.0000  0.0000  0.0000 </r>
        <r>  0.0001  0.0130  0.0399  0.0000  0.0000  0.0000  0.0000  0.0000  0.0000 </r>
       </set>
       <set comment="band 19">
        <r>  0.0001  0.0002  0.0005  0.0002  0.1065  0.0532  0.0008  0.3129  0.0006 </r>
        <r>  0.0000  0.0395  0.0138  0.0068  0.0025  0.0009  0.0056  0.0010  0.0053 </r>
        <r>  0.0141  0.0049  0.0000  0.0014  0.0000  0.0000  0.0000  0.0000  0.0000 </r>
        <r>  0.0417  0.0004  0.0048  0.0028  0.0000  0.0000  0.0000  0.0000  0.0000 </r>
        <r>  0.0071  0.0029  0.0014  0.0001  0.0000  0.0000  0.0000  0.0000  0.0000 </r>
       </set>
       <set comment="band 20">
        <r>  0.0015  0.0005  0.0004  0.0014  0.3051  0.0268  0.0002  0.1517  0.0000 </r>
        <r>  0.0002  0.0176  0.0348  0.0030  0.0012  0.0042  0.0002  0.0015  0.0000 </r>
        <r>  0.0394  0.0010  0.0006  0.0031  0.0000  0.0000  0.0000  0.0000  0.0000 </r>
        <r>  0.0200  0.0004  0.0004  0.0013  0.0000  0.0000  0.0000  0.0000  0.0000 </r>
        <r>  0.0034  0.0006  0.0019  0.0024  0.0000  0.0000  0.0000  0.0000  0.0000 </r>
       </set>
      </set>
     </set>
    </set>
   </array>
  </projected>
 </calculation>
 <structure name="finalpos" >
  <crystal>
   <varray name="basis" >
    <v>       3.94684634       0.00000000       0.00000000 </v>
    <v>       0.00000000       3.94684634       0.00000000 </v>
    <v>       0.00000000       0.00000000       3.94684634 </v>
   </varray>
   <i name="volume">     61.48237796 </i>
   <varray name="rec_basis" >
    <v>       0.25336684       0.00000000       0.00000000 </v>
    <v>       0.00000000       0.25336684       0.00000000 </v>
    <v>       0.00000000       0.00000000       0.25336684 </v>
   </varray>
  </crystal>
  <varray name="positions" >
   <v>       0.00000000       0.00000000       0.00000000 </v>
   <v>       0.50000000       0.50000000       0.50000000 </v>
   <v>       0.50000000       0.50000000       0.00000000 </v>
   <v>       0.50000000       0.00000000       0.50000000 </v>
   <v>       0.00000000       0.50000000       0.50000000 </v>
  </varray>
 </structure>
</modeling>
