unknown system                          
   1.00000000000000     
     4.913700    0.000000    0.000000
    -2.456850    4.255389    0.000000
     0.000000    0.000000    5.405130
   Si   O 
     3     6
Direct
  0.469800  0.000000  0.666670
  0.000000  0.469800  0.333330
  0.530200  0.530200  0.000000
  0.414500  0.266200  0.785600
  0.733800  0.148300  0.452270
  0.851700  0.585500  0.118930
  0.148300  0.733800  0.547730
  0.266200  0.414500  0.214400
  0.585500  0.851700  0.881070
 
   64   64   72
  1.4753      1.4281      1.4140      1.4263      1.4606      1.5138      1.5829      1.6659      1.7615      1.8691    
  1.9880      2.1164      2.2511      2.3877      2.5218      2.6501      2.7708      2.8838      2.9901      3.0921    
  3.1949      3.3088      3.4512      3.6465      3.9228      4.3090      4.8346      5.5339      6.4513      7.6457    
  9.1866      11.144      13.574      16.510      19.948      23.846      28.111      32.582      37.021      41.113    
  44.496      46.814      47.792      47.299      45.383      42.257      38.252      33.741      29.075      24.537    
  20.326      16.569      13.327      10.616      8.4107      6.6580      5.2865      4.2219      3.3995      2.7698    
  2.2976      1.9558      1.7201      1.5671      1.4281      1.3804      1.3682      1.3851      1.4270      1.4917    
  1.5768      1.6807      1.8021      1.9401      2.0933      2.2593      2.4342      2.6124      2.7878      2.9545    
  3.1079      3.2452      3.3653      3.4687      3.5580      3.6389      3.7234      3.8306      3.9858      4.2174    
  4.5539      5.0234      5.6573      6.4943      7.5830      8.9777      10.729      12.872      15.414      18.328    
  21.549      24.963      28.409      31.672      34.503      36.640      37.862      38.023      37.095      35.170    
  32.439      29.157      25.588      21.972      18.500      15.312      12.493      10.082      8.0816      6.4603    
  5.1686      4.1498      3.3519      2.7333      2.2639      1.9199      1.6798      1.5225      1.4140      1.3682    
  1.3596      1.3817      1.4315      1.5071      1.6074      1.7314      1.8780      2.0464      2.2347      2.4403    
  2.6582      2.8823      3.1047      3.3174      3.5128      3.6848      3.8295      3.9451      4.0321      4.0936    
  4.1372      4.1768      4.2332      4.3328      4.5041      4.7747      5.1711      5.7206      6.4556      7.4140    
  8.6351      10.152      11.980      14.109      16.498      19.069      21.708      24.267      26.570      28.430    
  29.675      30.174      29.867      28.776      27.001      24.700      22.061      19.271      16.497      13.874    
  11.493      9.4103      7.6442      6.1835      4.9972      4.0453      3.2886      2.6947      2.2390      1.9016    
  1.6641      1.5075      1.4263      1.3851      1.3817      1.4105      1.4687      1.5556      1.6709      1.8144    
  1.9858      2.1846      2.4089      2.6556      2.9196      3.1937      3.4691      3.7357      3.9831      4.2015    
  4.3835      4.5239      4.6207      4.6751      4.6921      4.6817      4.6602      4.6504      4.6795      4.7759    
  4.9661      5.2745      5.7245      6.3417      7.1532      8.1848      9.4540      10.962      12.686      14.578    
  16.560      18.527      20.356      21.911      23.060      23.695      23.749      23.208      22.115      20.562    
  18.673      16.587      14.437      12.341      10.388      8.6376      7.1199      5.8375      4.7749      3.9067    
  3.2058      2.6487      2.2169      1.8945      1.6661      1.5153      1.4606      1.4270      1.4315      1.4687    
  1.5367      1.6356      1.7659      1.9286      2.1243      2.3529      2.6131      2.9020      3.2142      3.5423    
  3.8766      4.2052      4.5152      4.7932      5.0272      5.2077      5.3290      5.3898      5.3932      5.3469    
  5.2644      5.1649      5.0733      5.0176      5.0259      5.1237      5.3328      5.6730      6.1628      6.8199    
  7.6581      8.6824      9.8827      11.230      12.676      14.148      15.559      16.812      17.807      18.455    
  18.695      18.496      17.870      16.864      15.556      14.043      12.425      10.798      9.2402      7.8086    
  6.5373      5.4388      4.5094      3.7359      3.1020      2.5921      2.1934      1.8939      1.6810      1.5412    
  1.5138      1.4917      1.5071      1.5556      1.6356      1.7477      1.8936      2.0753      2.2944      2.5518    
  2.8470      3.1776      3.5391      3.9241      4.3224      4.7211      5.1048      5.4567      5.7596      5.9986    
  6.1628      6.2466      6.2506      6.1813      6.0506      5.8762      5.6811      5.4924      5.3389      5.2484    
  5.2450      5.3480      5.5733      5.9333      6.4370      7.0883      7.8823      8.8022      9.8166      10.879    
  11.930      12.899      13.713      14.303      14.615      14.613      14.291      13.671      12.796      11.731    
  10.548      9.3194      8.1087      6.9665      5.9269      5.0073      4.2126      3.5389      2.9787      2.5236    
  2.1654      1.8958      1.7048      1.5813      1.5829      1.5768      1.6074      1.6709      1.7659      1.8936    
  2.0564      2.2573      2.4990      2.7839      3.1124      3.4837      3.8940      4.3371      4.8032      5.2790    
  5.7471      6.1873      6.5774      6.8961      7.1254      7.2536      7.2767      7.1988      7.0315      6.7928    
  6.5058      6.1977      5.8981      5.6365      5.4399      5.3306      5.3256      5.4364      5.6699      6.0281    
  6.5070      7.0948      7.7706      8.5029      9.2510      9.9667      10.597      11.091      11.401      11.497    
  11.361      11.000      10.435      9.7073      8.8644      7.9587      7.0395      6.1485      5.3164      4.5629    
  3.8976      3.3237      2.8403      2.4444      2.1322      1.8979      1.7343      1.6325      1.6659      1.6807    
  1.7314      1.8144      1.9286      2.0753      2.2573      2.4784      2.7428      3.0540      3.4142      3.8240    
  4.2817      4.7825      5.3181      5.8758      6.4372      6.9791      7.4745      7.8950      8.2145      8.4130    
  8.4793      8.4130      8.2238      7.9308      7.5595      7.1396      6.7030      6.2817      5.9055      5.5998    
  5.3846      5.2738      5.2750      5.3903      5.6161      5.9425      6.3531      6.8246      7.3276      7.8280    
  8.2882      8.6701      8.9385      9.0648      9.0312      8.8330      8.4797      7.9934      7.4050      6.7503    
  6.0655      5.3830      4.7292      4.1233      3.5778      3.0998      2.6929      2.3583      2.0950      1.9000    
  1.7682      1.6926      1.7615      1.8021      1.8780      1.9858      2.1243      2.2944      2.4990      2.7428    
  3.0308      3.3682      3.7589      4.2053      4.7079      5.2645      5.8691      6.5105      7.1708      7.8249    
  8.4414      8.9851      9.4210      9.7187      9.8576      9.8294      9.6397      9.3069      8.8596      8.3324    
  7.7623      7.1859      6.6367      6.1439      5.7305      5.4134      5.2030      5.1032      5.1121      5.2214    
  5.4173      5.6804      5.9869      6.3103      6.6223      6.8947      7.1010      7.2182      7.2292      7.1251    
  6.9070      6.5853      6.1785      5.7101      5.2055      4.6893      4.1830      3.7040      3.2654      2.8765    
  2.5434      2.2698      2.0567      1.9033      1.8064      1.7610      1.8691      1.9401      2.0464      2.1846    
  2.3529      2.5518      2.7839      3.0540      3.3682      3.7329      4.1538      4.6353      5.1804      5.7897    
  6.4604      7.1841      7.9448      8.7171      9.4665      10.152      10.728      11.155      11.399      11.442    
  11.280      10.930      10.421      9.7934      9.0910      8.3584      7.6361      6.9583      6.3518      5.8364    
  5.4251      5.1245      4.9349      4.8509      4.8610      4.9484      5.0922      5.2690      5.4551      5.6278    
  5.7663      5.8526      5.8718      5.8141      5.6758      5.4600      5.1766      4.8402      4.4686      4.0800    
  3.6915      3.3181      2.9720      2.6632      2.3989      2.1839      2.0208      1.9100      1.8499      1.8376    
  1.9880      2.0933      2.2347      2.4089      2.6131      2.8470      3.1124      3.4142      3.7589      4.1538    
  4.6061      5.1222      5.7075      6.3658      7.0980      7.8997      8.7581      9.6494      10.538      11.378    
  12.116      12.699      13.082      13.231      13.134      12.798      12.250      11.535      10.705      9.8141    
  8.9133      8.0453      7.2434      6.5311      5.9234      5.4288      5.0499      4.7838      4.6220      4.5501    
  4.5496      4.5985      4.6747      4.7573      4.8284      4.8728      4.8783      4.8353      4.7381      4.5856    
  4.3817      4.1350      3.8577      3.5634      3.2657      2.9770      2.7083      2.4689      2.2662      2.1057    
  1.9904      1.9218      1.8996      1.9224      2.1164      2.2593      2.4403      2.6556      2.9020      3.1776    
  3.4837      3.8240      4.2053      4.6353      5.1222      5.6739      6.2981      7.0017      7.7896      8.6624    
  9.6119      10.618      11.646      12.647      13.561      14.325      14.878      15.172      15.178      14.893    
  14.340      13.560      12.614      11.567      10.482      9.4145      8.4079      7.4923      6.6864      5.9999    
  5.4362      4.9936      4.6659      4.4416      4.3042      4.2335      4.2076      4.2057      4.2101      4.2065    
  4.1841      4.1344      4.0512      3.9312      3.7747      3.5859      3.3729      3.1457      2.9151      2.6916    
  2.4847      2.3027      2.1526      2.0399      1.9683      1.9398      1.9552      2.0144      2.2511      2.4342    
  2.6582      2.9196      3.2142      3.5391      3.8940      4.2817      4.7079      5.1804      5.7075      6.2981    
  6.9614      7.7073      8.5449      9.4803      10.511      11.623      12.785      13.948      15.047      16.008    
  16.758      17.231      17.382      17.192      16.671      15.860      14.820      13.626      12.356      11.079    
  9.8549      8.7236      7.7107      6.8286      6.0806      5.4645      4.9745      4.6006      4.3288      4.1406    
  4.0146      3.9293      3.8657      3.8090      3.7484      3.6762      3.5866      3.4756      3.3416      3.1859    
  3.0133      2.8311      2.6476      2.4716      2.3111      2.1734      2.0651      1.9916      1.9571      1.9646    
  2.0157      2.1112      2.3877      2.6124      2.8823      3.1937      3.5423      3.9241      4.3371      4.7825    
  5.2645      5.7897      6.3658      7.0017      7.7073      8.4946      9.3769      10.366      11.466      12.671    
  13.955      15.272      16.556      17.725      18.692      19.376      19.711      19.660      19.218      18.415    
  17.313      15.992      14.543      13.054      11.599      10.237      9.0030      7.9152      6.9782      6.1885    
  5.5382      5.0173      4.6124      4.3066      4.0795      3.9092      3.7750      3.6603      3.5531      3.4457    
  3.3329      3.2111      3.0780      2.9336      2.7804      2.6234      2.4691      2.3242      2.1954      2.0888    
  2.0104      1.9658      1.9601      1.9973      2.0800      2.2100      2.5218      2.7878      3.1047      3.4691    
  3.8766      4.3224      4.8032      5.3181      5.8691      6.4604      7.0980      7.7896      8.5449      9.3769    
  10.302      11.336      12.494      13.775      15.164      16.619      18.078      19.453      20.649      21.567    
  22.121      22.253      21.938      21.193      20.070      18.654      17.045      15.348      13.658      12.051    
  10.579      9.2711      8.1349      7.1667      6.3557      5.6889      5.1520      4.7284      4.3987      4.1409    
  3.9329      3.7558      3.5953      3.4427      3.2927      3.1426      2.9905      2.8362      2.6813      2.5295    
  2.3857      2.2552      2.1430      2.0541      1.9937      1.9674      1.9810      2.0400      2.1482      2.3085    
  2.6501      2.9545      3.3174      3.7357      4.2052      4.7211      5.2790      5.8758      6.5105      7.1841    
  7.8997      8.6624      9.4803      10.366      11.336      12.413      13.616      14.955      16.426      17.995    
  19.606      21.173      22.594      23.755      24.555      24.909      24.772      24.138      23.048      21.582    
  19.847      17.962      16.041      14.184      12.461      10.917      9.5672      8.4106      7.4338      6.6199    
  5.9511      5.4094      4.9754      4.6272      4.3420      4.0984      3.8794      3.6738      3.4757      3.2825    
  3.0934      2.9088      2.7306      2.5621      2.4078      2.2724      2.1598      2.0741      2.0192      2.0003    
  2.0236      2.0955      2.2216      2.4058      2.7708      3.1079      3.5128      3.9831      4.5152      5.1048    
  5.7471      6.4372      7.1708      7.9448      8.7581      9.6119      10.511      11.466      12.494      13.616    
  14.857      16.238      17.763      19.413      21.141      22.867      24.489      25.887      26.941      27.546    
  27.630      27.164      26.169      24.714      22.905      20.871      18.745      16.646      14.669      12.877    
  11.299      9.9409      8.7891      7.8230      7.0203      6.3596      5.8196      5.3781      5.0115      4.6968    
  4.4142      4.1494      3.8945      3.6463      3.4048      3.1713      2.9488      2.7412      2.5535      2.3907    
  2.2574      2.1569      2.0926      2.0689      2.0915      2.1671      2.3024      2.5026      2.8838      3.2452    
  3.6848      4.2015      4.7932      5.4567      6.1873      6.9791      7.8249      8.7171      9.6494      10.618    
  11.623      12.671      13.775      14.955      16.238      17.648      19.201      20.892      22.689      24.525    
  26.304      27.906      29.200      30.064      30.400      30.151      29.315      27.943      26.132      24.013    
  21.731      19.424      17.209      15.170      13.357      11.785      10.446      9.3199      8.3794      7.5982    
  6.9512      6.4142      5.9623      5.5710      5.2184      4.8872      4.5670      4.2530      3.9452      3.6461    
  3.3597      3.0913      2.8471      2.6334      2.4558      2.3187      2.2260      2.1815      2.1903      2.2588    
  2.3936      2.6006      2.9901      3.3653      3.8295      4.3835      5.0272      5.7596      6.5774      7.4745    
  8.4414      9.4665      10.538      11.646      12.785      13.955      15.164      16.426      17.763      19.201    
  20.762      22.456      24.266      26.147      28.017      29.765      31.260      32.366      32.962      32.965    
  32.344      31.126      29.394      27.274      24.914      22.463      20.056      17.797      15.757      13.968    
  12.436      11.142      10.059      9.1567      8.4037      7.7718      7.2330      6.7605      6.3304      5.9233    
  5.5263      5.1334      4.7441      4.3617      3.9918      3.6413      3.3179      3.0293      2.7828      2.5847    
  2.4400      2.3538      2.3311      2.3778      2.4998      2.7025      3.0921      3.4687      3.9451      4.5239    
  5.2077      5.9986      6.8961      7.8950      8.9851      10.152      11.378      12.647      13.948      15.272    
  16.619      17.995      19.413      20.892      22.456      24.122      25.893      27.747      29.628      31.443    
  33.071      34.372      35.210      35.475      35.106      34.104      32.530      30.500      28.156      25.652    
  23.132      20.715      18.489      16.506      14.788      13.328      12.103      11.081      10.227      9.5064    
  8.8846      8.3308      7.8177      7.3238      6.8349      6.3445      5.8525      5.3639      4.8861      4.4284    
  4.0004      3.6116      3.2709      2.9859      2.7636      2.6105      2.5330      2.5374      2.6292      2.8130    
  3.1949      3.5580      4.0321      4.6207      5.3290      6.1628      7.1254      8.2145      9.4210      10.728    
  12.116      13.561      15.047      16.556      18.078      19.606      21.141      22.689      24.266      25.893    
  27.587      29.350      31.157      32.947      34.614      36.028      37.049      37.554      37.454      36.717    
  35.374      33.519      31.288      28.836      26.309      23.830      21.499      19.381      17.516      15.913    
  14.561      13.432      12.490      11.693      11.000      10.373      9.7780      9.1901      8.5934      7.9819    
  7.3580      6.7299      6.1092      5.5090      4.9424      4.4216      3.9569      3.5570      3.2296      2.9821    
  2.8224      2.7584      2.7966      2.9414      3.3088      3.6389      4.0936      4.6751      5.3898      6.2466    
  7.2536      8.4130      9.7187      11.155      12.699      14.325      16.008      17.725      19.453      21.173    
  22.867      24.525      26.147      27.747      29.350      30.979      32.636      34.281      35.841      37.221    
  38.305      38.970      39.115      38.676      37.651      36.097      34.116      31.841      29.423      27.002    
  24.680      22.530      20.601      18.917      17.481      16.276      15.270      14.420      13.678      12.997    
  12.332      11.653      10.938      10.182      9.3913      8.5804      7.7677      6.9739      6.2186      5.5191    
  4.8890      4.3379      3.8732      3.5014      3.2301      3.0683      3.0243      3.1037      3.4512      3.7234    
  4.1372      4.6921      5.3932      6.2506      7.2767      8.4793      9.8576      11.399      13.082      14.878    
  16.758      18.692      20.649      22.594      24.489      26.304      28.017      29.628      31.157      32.636    
  34.065      35.429      36.710      37.866      38.829      39.505      39.797      39.625      38.958      37.812    
  36.251      34.366      32.265      30.064      27.888      25.840      23.973      22.316      20.882      19.666    
  18.646      17.782      17.026      16.321      15.612      14.856      14.025      13.110      12.120      11.079    
  10.014      8.9586      7.9441      6.9975      6.1396      5.3837      4.7370      4.2036      3.7880      3.4972    
  3.3397      3.3232      3.6465      3.8306      4.1768      4.6817      5.3469      6.1813      7.1988      8.4130    
  9.8294      11.442      13.231      15.172      17.231      19.376      21.567      23.755      25.887      27.906    
  29.765      31.443      32.947      34.281      35.429      36.405      37.239      37.958      38.567      39.033    
  39.291      39.273      38.926      38.236      37.222      35.927      34.404      32.716      30.938      29.168    
  27.517      26.036      24.736      23.618      22.669      21.858      21.141      20.458      19.747      18.947    
  18.019      16.944      15.734      14.417      13.037      11.642      10.280      8.9944      7.8200      6.7792    
  5.8832      5.1344      4.5319      4.0764      3.7726      3.6275      3.9228      3.9858      4.2332      4.6602    
  5.2644      6.0506      7.0315      8.2238      9.6397      11.280      13.134      15.178      17.382      19.711    
  22.121      24.555      26.941      29.200      31.260      33.071      34.614      35.841      36.710      37.239    
  37.495      37.577      37.575      37.550      37.512      37.437      37.282      37.011      36.604      36.052    
  35.343      34.471      33.441      32.288      31.091      29.958      28.958      28.089      27.339      26.686    
  26.093      25.505      24.853      24.064      23.079      21.866      20.430      18.804      17.048      15.230    
  13.422      11.689      10.085      8.6504      7.4076      6.3625      5.5099      4.8419      4.3537      4.0461    
  4.3090      4.2174      4.3328      4.6504      5.1649      5.8762      6.7928      7.9308      9.3069      10.930    
  12.798      14.893      17.192      19.660      22.253      24.909      27.546      30.064      32.366      34.372    
  36.028      37.221      37.866      37.958      37.577      36.869      36.018      35.200      34.540      34.105    
  33.903      33.909      34.077      34.346      34.635      34.852      34.913      34.766      34.416      33.928    
  33.416      32.973      32.588      32.242      31.903      31.521      31.026      30.334      29.365      28.063    
  26.417      24.464      22.277      19.952      17.591      15.287      13.124      11.163      9.4459      7.9912    
  6.7956      5.8440      5.1193      4.6092      4.8346      4.5539      4.5041      4.6795      5.0733      5.6811    
  6.5058      7.5595      8.8596      10.421      12.250      14.340      16.671      19.218      21.938      24.772    
  27.630      30.400      32.962      35.210      37.049      38.305      38.829      38.567      37.575      36.018    
  34.152      32.270      30.645      29.482      28.893      28.910      29.496      30.556      31.939      33.457    
  34.914      36.146      37.055      37.627      37.935      38.113      38.277      38.421      38.512      38.503    
  38.320      37.865      37.032      35.734      33.932      31.654      28.989      26.067      23.031      20.019    
  17.146      14.507      12.166      10.159      8.4951      7.1580      6.1201      5.3528      5.5339      5.0234    
  4.7747      4.7759      5.0176      5.4924      6.1977      7.1396      8.3324      9.7934      11.535      13.560    
  15.860      18.415      21.193      24.138      27.164      30.151      32.965      35.475      37.554      38.970    
  39.505      39.033      37.550      35.200      32.270      29.153      26.275      24.011      22.634      22.287    
  22.995      24.665      27.103      30.024      33.105      36.039      38.590      40.635      42.171      43.303    
  44.211      45.036      45.769      46.353      46.705      46.702      46.203      45.073      43.230      40.676    
  37.506      33.891      30.036      26.143      22.384      18.889      15.751      13.028      10.743      8.8874    
  7.4294      6.3254      6.4513      5.6573      5.1711      4.9661      5.0259      5.3389      5.8981      6.7030    
  7.7623      9.0910      10.705      12.614      14.820      17.313      20.070      23.048      26.169      29.315    
  32.344      35.106      37.454      39.115      39.797      39.291      37.512      34.540      30.645      26.275    
  21.984      18.331      15.779      14.639      15.052      16.990      20.259      24.514      29.307      34.163    
  38.674      42.561      45.712      48.180      50.140      51.834      53.418      54.849      56.019      56.768    
  56.897      56.204      54.534      51.835      48.190      43.807      38.973      33.986      29.109      24.535    
  20.395      16.768      13.688      11.156      9.1425      7.5945      7.6457      6.4943      5.7206      5.2745    
  5.1237      5.2484      5.6365      6.2817      7.1859      8.3584      9.8141      11.567      13.626      15.992    
  18.654      21.582      24.714      27.943      31.126      34.104      36.717      38.676      39.625      39.273    
  37.437      34.105      29.482      24.011      18.331      13.157      9.1518      6.8234      6.4796      8.2150    
  11.905      17.204      23.584      30.412      37.073      43.087      48.184      52.325      55.669      58.498    
  61.110      63.623      65.917      67.777      68.924      69.056      67.908      65.333      61.360      56.212    
  50.262      43.944      37.660      31.716      26.310      21.550      17.477      14.093      11.368      9.2439    
  9.1866      7.5830      6.4556      5.7245      5.3328      5.2450      5.4399      5.9055      6.6367      7.6361    
  8.9133      10.482      12.356      14.543      17.045      19.847      22.905      26.132      29.394      32.530    
  35.374      37.651      38.958      38.926      37.282      33.903      28.893      22.634      15.779      9.1518    
  3.5896     -.19752     -1.7100     -.68702      2.8787      8.7235      16.315      24.916      33.716      41.995    
  49.267      55.349      60.349      64.578      68.419      72.180      75.858      79.187      81.789      83.228    
  83.091      81.080      77.108      71.361      64.273      56.428      48.426      40.757      33.745      27.559    
  22.253      17.819      14.212      11.363      11.144      8.9777      7.4140      6.3417      5.6730      5.3480    
  5.3306      5.5998      6.1439      6.9583      8.0453      9.4145      11.079      13.054      15.348      17.962    
  20.871      24.013      27.274      30.500      33.519      36.097      37.812      38.236      37.011      33.909    
  28.910      22.287      14.639      6.8234     -.19752     -5.5341     -8.4932     -8.6293     -5.7628     -.80293E-02
  8.1950      18.098      28.756      39.217      48.735      56.916      63.758      69.569      74.816      79.934    
  85.138      90.203      94.654      97.907      99.357      98.505      95.078      89.137      81.107      71.702    
  61.746      51.990      42.975      34.998      28.161      22.441      17.764      14.034      13.574      10.729    
  8.6351      7.1532      6.1628      5.5733      5.3256      5.3846      5.7305      6.3518      7.2434      8.4079    
  9.8549      11.599      13.658      16.041      18.745      21.731      24.914      28.156      31.288      34.116    
  36.251      37.222      36.604      34.077      29.496      22.995      15.052      6.4796     -1.7100     -8.4932    
 -13.002     -14.606     -12.940     -7.9312     0.15041      10.654      22.607      34.891      46.499      56.775    
  65.529      73.008      79.732      86.262      92.986      99.877      106.42      111.89      115.49      116.46    
  114.29      108.82      100.35      89.638      77.712      65.626      54.234      44.067      35.340      28.053    
  22.093      17.315      16.510      12.872      10.152      8.1848      6.8199      5.9333      5.4364      5.2738    
  5.4134      5.8364      6.5311      7.4923      8.7236      10.237      12.051      14.184      16.646      19.424    
  22.463      25.652      28.836      31.841      34.366      35.927      36.052      34.346      30.556      24.665    
  16.990      8.2150     -.68702     -8.6293     -14.606     -17.816     -17.711     -14.020     -6.8026      3.4746    
  15.932      29.400      42.674      54.821      65.403      74.520      82.682      90.554      98.685      107.27    
  115.91      123.79      129.91      133.30      133.15      128.98      120.87      109.48      95.925      81.547    
  67.572      54.873      43.894      34.725      27.241      21.238      19.948      15.414      11.980      9.4540    
  7.6581      6.4370      5.6699      5.2750      5.2030      5.4251      5.9234      6.6864      7.7107      9.0030    
  10.579      12.461      14.669      17.209      20.056      23.132      26.309      29.423      32.265      34.404    
  35.343      34.635      31.939      27.103      20.259      11.905      2.8787     -5.7628     -12.940     -17.711    
 -19.354     -17.402     -11.699     -2.4767      9.5773      23.371      37.619      51.166      63.296      73.883    
  83.338      92.367      101.66      111.62      122.09      132.26      141.02      147.23      149.79      147.81    
  140.97      129.76      115.32      99.098      82.660      67.299      53.803      42.463      33.208      25.796    
  23.846      18.328      14.109      10.962      8.6824      7.0883      6.0281      5.3903      5.1032      5.1245    
  5.4288      5.9999      6.8286      7.9152      9.2711      10.917      12.877      15.170      17.797      20.715    
  23.830      27.002      30.064      32.716      34.471      34.852      33.457      30.024      24.514      17.204    
  8.7235     -.80293E-02 -7.9312     -14.020     -17.402     -17.429     -13.727     -6.2815      4.4701      17.626    
  31.954      46.187      59.365      71.094      81.589      91.504      101.62      112.52      124.29      136.33    
  147.49      156.57      162.25      163.23      158.68      148.67      134.23      116.99      98.651      80.851    
  64.810      51.136      39.919      30.935      28.111      21.549      16.498      12.686      9.8827      7.8823    
  6.5070      5.6161      5.1121      4.9349      5.0499      5.4362      6.0806      6.9782      8.1349      9.5672    
  11.299      13.357      15.757      18.489      21.499      24.680      27.888      30.938      33.441      34.913    
  34.914      33.105      29.307      23.584      16.315      8.1950     0.15041     -6.8026     -11.699     -13.727    
 -12.306     -7.1773      1.4961      13.073      26.499      40.527      54.050      66.417      77.586      88.052    
  98.590      109.91      122.35      135.58      148.57      160.09      168.80      173.10      171.67      164.02    
  150.75      133.48      114.17      94.586      76.326      60.400      47.170      36.522      32.582      24.963    
  19.069      14.578      11.230      8.8022      7.0948      5.9425      5.2214      4.8509      4.7838      4.9936    
  5.4645      6.1885      7.1667      8.4106      9.9409      11.785      13.968      16.506      19.381      22.530    
  25.840      29.168      32.288      34.766      36.146      36.039      34.163      30.412      24.916      18.098    
  10.654      3.4746     -2.4767     -6.2815     -7.1773     -4.6686      1.3611      10.568      22.155      35.025    
  48.049      60.396      71.754      82.382      92.937      104.17      116.61      130.22      144.22      157.42    
  168.53      175.94      177.97      173.56      162.73      146.70      127.51      107.17      87.413      69.646    