   9   9   0   0
  0.1255774E+02  0.4913700E-09  0.4913700E-09  0.5405130E-09  0.5000000E-15
  1.000000000000000E-004
  CAR 
 unknown system                          
     13.76910028    -20.37234390  301      1.16521714      1.00000000
    -20.372  0.0000E+00  0.0000E+00
    -20.259  0.0000E+00  0.0000E+00
    -20.145  0.0000E+00  0.0000E+00
    -20.031  0.0000E+00  0.0000E+00
    -19.917  0.0000E+00  0.0000E+00
    -19.803  0.0000E+00  0.0000E+00
    -19.690  0.0000E+00  0.0000E+00
    -19.576  0.0000E+00  0.0000E+00
    -19.462  0.0000E+00  0.0000E+00
    -19.348  0.0000E+00  0.0000E+00
    -19.234  0.0000E+00  0.0000E+00
    -19.120  0.0000E+00  0.0000E+00
    -19.007  0.0000E+00  0.0000E+00
    -18.893  0.0000E+00  0.0000E+00
    -18.779  0.0000E+00  0.0000E+00
    -18.665  0.0000E+00  0.0000E+00
    -18.551  0.0000E+00  0.0000E+00
    -18.438  0.0000E+00  0.0000E+00
    -18.324  0.3080E+00  0.4978E-02
    -18.210  0.1347E+01  0.1189E+00
    -18.096  0.2283E+01  0.3245E+00
    -17.982  0.4103E+01  0.6911E+00
    -17.869  0.9280E+01  0.1323E+01
    -17.755  0.6071E+00  0.1981E+01
    -17.641  0.1116E+01  0.2068E+01
    -17.527  0.2175E+01  0.2250E+01
    -17.413  0.6714E+01  0.2682E+01
    -17.300  0.3083E+01  0.3603E+01
    -17.186  0.1294E+01  0.3837E+01
    -17.072  0.6248E+00  0.3940E+01
    -16.958  0.9960E+00  0.4016E+01
    -16.844  0.6378E+01  0.4371E+01
    -16.731  0.4049E+01  0.5298E+01
    -16.617  0.2097E+01  0.5619E+01
    -16.503  0.1315E+01  0.5805E+01
    -16.389  0.7936E+00  0.5926E+01
    -16.275  0.2961E+01  0.5996E+01
    -16.162  0.2869E+02  0.1156E+02
    -16.048  0.0000E+00  0.1200E+02
    -15.934  0.0000E+00  0.1200E+02
    -15.820  0.0000E+00  0.1200E+02
    -15.706  0.0000E+00  0.1200E+02
    -15.593  0.0000E+00  0.1200E+02
    -15.479  0.0000E+00  0.1200E+02
    -15.365  0.0000E+00  0.1200E+02
    -15.251  0.0000E+00  0.1200E+02
    -15.137  0.0000E+00  0.1200E+02
    -15.024  0.0000E+00  0.1200E+02
    -14.910  0.0000E+00  0.1200E+02
    -14.796  0.0000E+00  0.1200E+02
    -14.682  0.0000E+00  0.1200E+02
    -14.568  0.0000E+00  0.1200E+02
    -14.454  0.0000E+00  0.1200E+02
    -14.341  0.0000E+00  0.1200E+02
    -14.227  0.0000E+00  0.1200E+02
    -14.113  0.0000E+00  0.1200E+02
    -13.999  0.0000E+00  0.1200E+02
    -13.885  0.0000E+00  0.1200E+02
    -13.772  0.0000E+00  0.1200E+02
    -13.658  0.0000E+00  0.1200E+02
    -13.544  0.0000E+00  0.1200E+02
    -13.430  0.0000E+00  0.1200E+02
    -13.316  0.0000E+00  0.1200E+02
    -13.203  0.0000E+00  0.1200E+02
    -13.089  0.0000E+00  0.1200E+02
    -12.975  0.0000E+00  0.1200E+02
    -12.861  0.0000E+00  0.1200E+02
    -12.747  0.0000E+00  0.1200E+02
    -12.634  0.0000E+00  0.1200E+02
    -12.520  0.0000E+00  0.1200E+02
    -12.406  0.0000E+00  0.1200E+02
    -12.292  0.0000E+00  0.1200E+02
    -12.178  0.0000E+00  0.1200E+02
    -12.065  0.0000E+00  0.1200E+02
    -11.951  0.0000E+00  0.1200E+02
    -11.837  0.0000E+00  0.1200E+02
    -11.723  0.0000E+00  0.1200E+02
    -11.609  0.0000E+00  0.1200E+02
    -11.496  0.0000E+00  0.1200E+02
    -11.382  0.0000E+00  0.1200E+02
    -11.268  0.0000E+00  0.1200E+02
    -11.154  0.0000E+00  0.1200E+02
    -11.040  0.0000E+00  0.1200E+02
    -10.927  0.0000E+00  0.1200E+02
    -10.813  0.0000E+00  0.1200E+02
    -10.699  0.0000E+00  0.1200E+02
    -10.585  0.0000E+00  0.1200E+02
    -10.471  0.0000E+00  0.1200E+02
    -10.358  0.0000E+00  0.1200E+02
    -10.244  0.0000E+00  0.1200E+02
    -10.130  0.0000E+00  0.1200E+02
    -10.016  0.0000E+00  0.1200E+02
     -9.902  0.0000E+00  0.1200E+02
     -9.788  0.0000E+00  0.1200E+02
     -9.675  0.0000E+00  0.1200E+02
     -9.561  0.0000E+00  0.1200E+02
     -9.447  0.0000E+00  0.1200E+02
     -9.333  0.0000E+00  0.1200E+02
     -9.219  0.0000E+00  0.1200E+02
     -9.106  0.0000E+00  0.1200E+02
     -8.992  0.0000E+00  0.1200E+02
     -8.878  0.0000E+00  0.1200E+02
     -8.764  0.0000E+00  0.1200E+02
     -8.650  0.0000E+00  0.1200E+02
     -8.537  0.0000E+00  0.1200E+02
     -8.423  0.0000E+00  0.1200E+02
     -8.309  0.0000E+00  0.1200E+02
     -8.195  0.6158E-01  0.1200E+02
     -8.081  0.3508E+00  0.1202E+02
     -7.968  0.4821E+00  0.1207E+02
     -7.854  0.6916E+00  0.1214E+02
     -7.740  0.8877E+00  0.1223E+02
     -7.626  0.1223E+01  0.1235E+02
     -7.512  0.1688E+01  0.1251E+02
     -7.399  0.3035E+01  0.1276E+02
     -7.285  0.8391E+01  0.1351E+02
     -7.171  0.9379E+00  0.1388E+02
     -7.057  0.5019E+00  0.1396E+02
     -6.943  0.2694E+00  0.1401E+02
     -6.830  0.2453E+00  0.1403E+02
     -6.716  0.3839E+00  0.1407E+02
     -6.602  0.5807E+00  0.1412E+02
     -6.488  0.9734E+00  0.1421E+02
     -6.374  0.1617E+01  0.1435E+02
     -6.261  0.4284E+01  0.1465E+02
     -6.147  0.3558E+01  0.1526E+02
     -6.033  0.2028E+01  0.1557E+02
     -5.919  0.1181E+01  0.1575E+02
     -5.805  0.8023E+00  0.1586E+02
     -5.692  0.5362E+00  0.1594E+02
     -5.578  0.3251E+00  0.1599E+02
     -5.464  0.6006E+00  0.1602E+02
     -5.350  0.2586E+01  0.1620E+02
     -5.236  0.3398E+01  0.1658E+02
     -5.122  0.2903E+01  0.1692E+02
     -5.009  0.2682E+01  0.1724E+02
     -4.895  0.1876E+01  0.1750E+02
     -4.781  0.1370E+01  0.1769E+02
     -4.667  0.1007E+01  0.1782E+02
     -4.553  0.6732E+00  0.1791E+02
     -4.440  0.1878E+01  0.1803E+02
     -4.326  0.1891E+02  0.1920E+02
     -4.212  0.8221E+01  0.2043E+02
     -4.098  0.6619E+01  0.2115E+02
     -3.984  0.4455E+01  0.2182E+02
     -3.871  0.7306E+01  0.2233E+02
     -3.757  0.6773E+01  0.2321E+02
     -3.643  0.3242E+01  0.2377E+02
     -3.529  0.4819E+00  0.2399E+02
     -3.415  0.0000E+00  0.2400E+02
     -3.302  0.0000E+00  0.2400E+02
     -3.188  0.0000E+00  0.2400E+02
     -3.074  0.0000E+00  0.2400E+02
     -2.960  0.0000E+00  0.2400E+02
     -2.846  0.0000E+00  0.2400E+02
     -2.733  0.0000E+00  0.2400E+02
     -2.619  0.0000E+00  0.2400E+02
     -2.505  0.0000E+00  0.2400E+02
     -2.391  0.0000E+00  0.2400E+02
     -2.277  0.0000E+00  0.2400E+02
     -2.164  0.2927E+01  0.2403E+02
     -2.050  0.1278E+02  0.2520E+02
     -1.936  0.5996E+01  0.2613E+02
     -1.822  0.8001E+01  0.2679E+02
     -1.708  0.6449E+01  0.2767E+02
     -1.595  0.6292E+01  0.2833E+02
     -1.481  0.6091E+01  0.2938E+02
     -1.367  0.2646E+01  0.2996E+02
     -1.253  0.3389E+01  0.3013E+02
     -1.139  0.9121E+01  0.3143E+02
     -1.026  0.2516E+01  0.3194E+02
     -0.912  0.2078E+02  0.3328E+02
     -0.798  0.1822E+01  0.3392E+02
     -0.684  0.6940E+01  0.3433E+02
     -0.570  0.7452E+01  0.3506E+02
     -0.457  0.1110E+02  0.3626E+02
     -0.343  0.5619E+01  0.3739E+02
     -0.229  0.4714E+01  0.3795E+02
     -0.115  0.1148E+02  0.3899E+02
     -0.001  0.5188E+01  0.4001E+02
      0.113  0.1388E+02  0.4089E+02
      0.226  0.0000E+00  0.4200E+02
      0.340  0.1125E+02  0.4245E+02
      0.454  0.3925E+01  0.4362E+02
      0.568  0.4285E+01  0.4412E+02
      0.682  0.6646E+01  0.4470E+02
      0.795  0.9944E+01  0.4572E+02
      0.909  0.6916E+01  0.4649E+02
      1.023  0.1210E+02  0.4768E+02
      1.137  0.0000E+00  0.4800E+02
      1.251  0.0000E+00  0.4800E+02
      1.364  0.0000E+00  0.4800E+02
      1.478  0.0000E+00  0.4800E+02
      1.592  0.0000E+00  0.4800E+02
      1.706  0.0000E+00  0.4800E+02
      1.820  0.0000E+00  0.4800E+02
      1.933  0.0000E+00  0.4800E+02
      2.047  0.0000E+00  0.4800E+02
      2.161  0.0000E+00  0.4800E+02
      2.275  0.0000E+00  0.4800E+02
      2.389  0.0000E+00  0.4800E+02
      2.502  0.0000E+00  0.4800E+02
      2.616  0.0000E+00  0.4800E+02
      2.730  0.0000E+00  0.4800E+02
      2.844  0.0000E+00  0.4800E+02
      2.958  0.0000E+00  0.4800E+02
      3.071  0.0000E+00  0.4800E+02
      3.185  0.0000E+00  0.4800E+02
      3.299  0.0000E+00  0.4800E+02
      3.413  0.0000E+00  0.4800E+02
      3.527  0.0000E+00  0.4800E+02
      3.640  0.0000E+00  0.4800E+02
      3.754  0.0000E+00  0.4800E+02
      3.868  0.0000E+00  0.4800E+02
      3.982  0.0000E+00  0.4800E+02
      4.096  0.0000E+00  0.4800E+02
      4.209  0.0000E+00  0.4800E+02
      4.323  0.0000E+00  0.4800E+02
      4.437  0.0000E+00  0.4800E+02
      4.551  0.0000E+00  0.4800E+02
      4.665  0.0000E+00  0.4800E+02
      4.779  0.0000E+00  0.4800E+02
      4.892  0.0000E+00  0.4800E+02
      5.006  0.0000E+00  0.4800E+02
      5.120  0.0000E+00  0.4800E+02
      5.234  0.0000E+00  0.4800E+02
      5.348  0.0000E+00  0.4800E+02
      5.461  0.0000E+00  0.4800E+02
      5.575  0.0000E+00  0.4800E+02
      5.689  0.0000E+00  0.4800E+02
      5.803  0.0000E+00  0.4800E+02
      5.917  0.0000E+00  0.4800E+02
      6.030  0.0000E+00  0.4800E+02
      6.144  0.0000E+00  0.4800E+02
      6.258  0.0000E+00  0.4800E+02
      6.372  0.0000E+00  0.4800E+02
      6.486  0.0000E+00  0.4800E+02
      6.599  0.0000E+00  0.4800E+02
      6.713  0.0000E+00  0.4800E+02
      6.827  0.0000E+00  0.4800E+02
      6.941  0.0000E+00  0.4800E+02
      7.055  0.0000E+00  0.4800E+02
      7.168  0.2266E-02  0.4800E+02
      7.282  0.2614E-01  0.4800E+02
      7.396  0.7605E-01  0.4801E+02
      7.510  0.1520E+00  0.4802E+02
      7.624  0.2251E+00  0.4804E+02
      7.737  0.2645E+00  0.4807E+02
      7.851  0.2865E+00  0.4810E+02
      7.965  0.3205E+00  0.4814E+02
      8.079  0.3669E+00  0.4817E+02
      8.193  0.4158E+00  0.4822E+02
      8.306  0.4673E+00  0.4827E+02
      8.420  0.5208E+00  0.4833E+02
      8.534  0.6102E+00  0.4839E+02
      8.648  0.7629E+00  0.4847E+02
      8.762  0.8378E+00  0.4856E+02
      8.875  0.8521E+00  0.4866E+02
      8.989  0.9133E+00  0.4876E+02
      9.103  0.9765E+00  0.4886E+02
      9.217  0.1042E+01  0.4898E+02
      9.331  0.1444E+01  0.4911E+02
      9.445  0.1516E+01  0.4929E+02
      9.558  0.1265E+01  0.4944E+02
      9.672  0.1282E+01  0.4958E+02
      9.786  0.1522E+01  0.4974E+02
      9.900  0.2014E+01  0.4992E+02
     10.014  0.1249E+01  0.5012E+02
     10.127  0.1193E+01  0.5025E+02
     10.241  0.3138E+01  0.5048E+02
     10.355  0.1149E+02  0.5116E+02
     10.469  0.4163E+01  0.5208E+02
     10.583  0.6038E+01  0.5258E+02
     10.696  0.7541E+01  0.5345E+02
     10.810  0.4578E+01  0.5420E+02
     10.924  0.2331E+01  0.5455E+02
     11.038  0.4846E+01  0.5494E+02
     11.152  0.5701E+01  0.5572E+02
     11.265  0.3943E+01  0.5614E+02
     11.379  0.6912E+01  0.5680E+02
     11.493  0.6645E+01  0.5752E+02
     11.607  0.1772E+01  0.5796E+02
     11.721  0.1617E-01  0.5800E+02
     11.834  0.0000E+00  0.5800E+02
     11.948  0.0000E+00  0.5800E+02
     12.062  0.0000E+00  0.5800E+02
     12.176  0.0000E+00  0.5800E+02
     12.290  0.0000E+00  0.5800E+02
     12.403  0.0000E+00  0.5800E+02
     12.517  0.0000E+00  0.5800E+02
     12.631  0.0000E+00  0.5800E+02
     12.745  0.0000E+00  0.5800E+02
     12.859  0.0000E+00  0.5800E+02
     12.972  0.0000E+00  0.5800E+02
     13.086  0.0000E+00  0.5800E+02
     13.200  0.0000E+00  0.5800E+02
     13.314  0.0000E+00  0.5800E+02
     13.428  0.0000E+00  0.5800E+02
     13.541  0.0000E+00  0.5800E+02
     13.655  0.0000E+00  0.5800E+02
     13.769  0.0000E+00  0.5800E+02
