Automatically generated mesh
      55
Reciprocal lattice
    0.00000000000000    0.00000000000000    0.00000000000000             1
    0.16666666666667    0.00000000000000    0.00000000000000             4
    0.33333333333333    0.00000000000000    0.00000000000000             4
    0.50000000000000    0.00000000000000    0.00000000000000             2
    0.16666666666667    0.16666666666667    0.00000000000000             2
    0.33333333333333    0.16666666666667    0.00000000000000             4
    0.50000000000000    0.16666666666667    0.00000000000000             4
   -0.33333333333333    0.16666666666667    0.00000000000000             4
   -0.16666666666667    0.16666666666667    0.00000000000000             2
    0.33333333333333    0.33333333333333    0.00000000000000             2
    0.50000000000000    0.33333333333333    0.00000000000000             4
   -0.33333333333333    0.33333333333333    0.00000000000000             2
    0.50000000000000    0.50000000000000    0.00000000000000             1
    0.00000000000000    0.00000000000000    0.20000000000000             2
    0.16666666666667    0.00000000000000    0.20000000000000             4
    0.33333333333333    0.00000000000000    0.20000000000000             4
    0.50000000000000    0.00000000000000    0.20000000000000             4
   -0.33333333333333    0.00000000000000    0.20000000000000             4
   -0.16666666666667    0.00000000000000    0.20000000000000             4
    0.16666666666667    0.16666666666667    0.20000000000000             4
    0.33333333333333    0.16666666666667    0.20000000000000             4
    0.50000000000000    0.16666666666667    0.20000000000000             4
   -0.33333333333333    0.16666666666667    0.20000000000000             4
   -0.16666666666667    0.16666666666667    0.20000000000000             2
    0.16666666666667    0.33333333333333    0.20000000000000             4
    0.33333333333333    0.33333333333333    0.20000000000000             4
    0.50000000000000    0.33333333333333    0.20000000000000             4
   -0.33333333333333    0.33333333333333    0.20000000000000             2
    0.16666666666667    0.50000000000000    0.20000000000000             4
    0.33333333333333    0.50000000000000    0.20000000000000             4
    0.50000000000000    0.50000000000000    0.20000000000000             2
    0.16666666666667   -0.33333333333333    0.20000000000000             4
    0.33333333333333   -0.33333333333333    0.20000000000000             2
    0.16666666666667   -0.16666666666667    0.20000000000000             2
    0.00000000000000    0.00000000000000    0.40000000000000             2
    0.16666666666667    0.00000000000000    0.40000000000000             4
    0.33333333333333    0.00000000000000    0.40000000000000             4
    0.50000000000000    0.00000000000000    0.40000000000000             4
   -0.33333333333333    0.00000000000000    0.40000000000000             4
   -0.16666666666667    0.00000000000000    0.40000000000000             4
    0.16666666666667    0.16666666666667    0.40000000000000             4
    0.33333333333333    0.16666666666667    0.40000000000000             4
    0.50000000000000    0.16666666666667    0.40000000000000             4
   -0.33333333333333    0.16666666666667    0.40000000000000             4
   -0.16666666666667    0.16666666666667    0.40000000000000             2
    0.16666666666667    0.33333333333333    0.40000000000000             4
    0.33333333333333    0.33333333333333    0.40000000000000             4
    0.50000000000000    0.33333333333333    0.40000000000000             4
   -0.33333333333333    0.33333333333333    0.40000000000000             2
    0.16666666666667    0.50000000000000    0.40000000000000             4
    0.33333333333333    0.50000000000000    0.40000000000000             4
    0.50000000000000    0.50000000000000    0.40000000000000             2
    0.16666666666667   -0.33333333333333    0.40000000000000             4
    0.33333333333333   -0.33333333333333    0.40000000000000             2
    0.16666666666667   -0.16666666666667    0.40000000000000             2
Tetrahedra
       273    0.00092592592593
         4         2         2         5        19
         4         1         2         2        19
         4         1         2        14        19
         4         2         5        19        20
         4         2        15        19        20
         4         2        14        15        19
         4         3         5         6        20
         4         2         3         5        20
         4         2         3        15        20
         4         3         6        20        21
         4         3        16        20        21
         4         3        15        16        20
         4         4         6         7        21
         4         3         4         6        21
         4         3         4        16        21
         4         4         7        21        22
         4         4        17        21        22
         4         4        16        17        21
         4         3         7         8        22
         4         3         4         7        22
         4         3         4        17        22
         4         3         8        22        23
         4         3        18        22        23
         4         3        17        18        22
         4         2         8         9        23
         4         2         3         8        23
         4         2         3        18        23
         4         2         9        23        24
         4         2        19        23        24
         4         2        18        19        23
         4         1         2         9        24
         4         1         2        19        24
         4         1        14        19        24
         4         3         5         6        18
         4         2         3         5        18
         4         2         5        18        19
         4         5         6        18        25
         4         5        18        20        25
         4         5        18        19        20
         4         6         6        10        25
         4         5         6         6        25
         4         5         6        20        25
         4         6        10        25        26
         4         6        21        25        26
         4         6        20        21        25
         4         7        10        11        26
         4         6         7        10        26
         4         6         7        21        26
         4         7        11        26        27
         4         7        22        26        27
         4         7        21        22        26
         4         8        11        12        27
         4         7         8        11        27
         4         7         8        22        27
         4         8        12        27        28
         4         8        23        27        28
         4         8        22        23        27
         4         8         9        12        28
         4         8         9        23        28
         4         9        23        24        28
         4         4         6         7        17
         4         3         4         6        17
         4         3         6        17        18
         4         6         7        17        29
         4         6        17        25        29
         4         6        17        18        25
         4         7        10        11        29
         4         6         7        10        29
         4         6        10        25        29
         4        10        11        29        30
         4        10        26        29        30
         4        10        25        26        29
         4        11        11        13        30
         4        10        11        11        30
         4        10        11        26        30
         4        11        13        30        31
         4        11        27        30        31
         4        11        26        27        30
         4        11        12        13        31
         4        11        12        27        31
         4        12        27        28        31
         4         3         7         8        16
         4         3         4         7        16
         4         4         7        16        17
         4         7         8        16        32
         4         7        16        29        32
         4         7        16        17        29
         4         8        11        12        32
         4         7         8        11        32
         4         7        11        29        32
         4        11        12        32        33
         4        11        30        32        33
         4        11        29        30        32
         4        11        12        13        33
         4        11        13        30        33
         4        13        30        31        33
         4         2         8         9        15
         4         2         3         8        15
         4         3         8        15        16
         4         8         9        15        34
         4         8        15        32        34
         4         8        15        16        32
         4         8         9        12        34
         4         8        12        32        34
         4        12        32        33        34
         4         1         2         9        14
         4         2         9        14        15
         4         9        14        15        34
         4        15        19        20        40
         4        14        15        19        40
         4        14        15        35        40
         4        15        20        40        41
         4        15        36        40        41
         4        15        35        36        40
         4        16        20        21        41
         4        15        16        20        41
         4        15        16        36        41
         4        16        21        41        42
         4        16        37        41        42
         4        16        36        37        41
         4        17        21        22        42
         4        16        17        21        42
         4        16        17        37        42
         4        17        22        42        43
         4        17        38        42        43
         4        17        37        38        42
         4        18        22        23        43
         4        17        18        22        43
         4        17        18        38        43
         4        18        23        43        44
         4        18        39        43        44
         4        18        38        39        43
         4        19        23        24        44
         4        18        19        23        44
         4        18        19        39        44
         4        19        24        44        45
         4        19        40        44        45
         4        19        39        40        44
         4        14        19        24        45
         4        14        19        40        45
         4        14        35        40        45
         4        18        20        25        39
         4        18        19        20        39
         4        19        20        39        40
         4        20        25        39        46
         4        20        39        41        46
         4        20        39        40        41
         4        21        25        26        46
         4        20        21        25        46
         4        20        21        41        46
         4        21        26        46        47
         4        21        42        46        47
         4        21        41        42        46
         4        22        26        27        47
         4        21        22        26        47
         4        21        22        42        47
         4        22        27        47        48
         4        22        43        47        48
         4        22        42        43        47
         4        23        27        28        48
         4        22        23        27        48
         4        22        23        43        48
         4        23        28        48        49
         4        23        44        48        49
         4        23        43        44        48
         4        23        24        28        49
         4        23        24        44        49
         4        24        44        45        49
         4        17        25        29        38
         4        17        18        25        38
         4        18        25        38        39
         4        25        29        38        50
         4        25        38        46        50
         4        25        38        39        46
         4        26        29        30        50
         4        25        26        29        50
         4        25        26        46        50
         4        26        30        50        51
         4        26        47        50        51
         4        26        46        47        50
         4        27        30        31        51
         4        26        27        30        51
         4        26        27        47        51
         4        27        31        51        52
         4        27        48        51        52
         4        27        47        48        51
         4        27        28        31        52
         4        27        28        48        52
         4        28        48        49        52
         4        16        29        32        37
         4        16        17        29        37
         4        17        29        37        38
         4        29        32        37        53
         4        29        37        50        53
         4        29        37        38        50
         4        30        32        33        53
         4        29        30        32        53
         4        29        30        50        53
         4        30        33        53        54
         4        30        51        53        54
         4        30        50        51        53
         4        30        31        33        54
         4        30        31        51        54
         4        31        51        52        54
         4        15        32        34        36
         4        15        16        32        36
         4        16        32        36        37
         4        32        34        36        55
         4        32        36        53        55
         4        32        36        37        53
         4        32        33        34        55
         4        32        33        53        55
         4        33        53        54        55
         4        14        15        34        35
         4        15        34        35        36
         4        34        35        36        55
         4        36        36        40        41
         4        35        36        36        40
         2        35        35        36        36
         2        36        36        41        41
         4        37        41        41        42
         4        36        37        41        41
         4        36        37        40        41
         4        37        41        42        46
         4        37        39        41        46
         4        37        39        40        41
         4        38        42        43        46
         4        37        38        42        46
         4        37        38        39        46
         4        38        43        46        50
         4        38        38        46        50
         4        38        38        39        46
         4        39        43        44        50
         4        38        39        43        50
         4        38        38        39        50
         4        39        44        50        53
         4        37        39        50        53
         4        37        38        39        50
         4        40        44        45        53
         4        39        40        44        53
         4        37        39        40        53
         4        40        45        53        55
         4        36        40        53        55
         4        36        37        40        53
         4        35        40        45        55
         4        35        36        40        55
         4        35        35        36        55
         4        42        42        46        47
         4        41        42        42        46
         2        41        41        42        42
         2        42        42        47        47
         4        43        47        47        48
         4        42        43        47        47
         4        42        43        46        47
         4        43        47        48        51
         4        43        47        50        51
         4        43        46        47        50
         4        44        48        49        51
         4        43        44        48        51
         4        43        44        50        51
         4        44        49        51        54
         4        44        51        53        54
         4        44        50        51        53
         4        44        45        49        54
         4        44        45        53        54
         4        45        53        54        55
         4        48        48        51        52
         4        47        48        48        51
         2        47        47        48        48
         2        48        48        52        52
         4        48        49        52        52
         4        48        49        51        52
         4        49        51        52        54
