 vasp.5.4.1 05Feb16 (build Mar 02 2016 14:09:44) complex                        
  
 executed on   Abel-impi-ifc-cuda date 2019.09.13  10:17:07
 running on    1 total cores
 distrk:  each k-point on    1 cores,    1 groups
 distr:  one band on NCORES_PER_BAND=   1 cores,    1 groups


--------------------------------------------------------------------------------------------------------


 INCAR:
 POTCAR:   PAW_PBE Si 05Jan2001                   
 POTCAR:   PAW_PBE O 08Apr2002                    
 POTCAR:   PAW_PBE Si 05Jan2001                   
   VRHFIN =Si: s2p2                                                             
   LEXCH  = PE                                                                  
   EATOM  =   103.0669 eV,    7.5752 Ry                                         
                                                                                
   TITEL  = PAW_PBE Si 05Jan2001                                                
   LULTRA =        F    use ultrasoft PP ?                                      
   IUNSCR =        1    unscreen: 0-lin 1-nonlin 2-no                           
   RPACOR =    1.500    partial core radius                                     
   POMASS =   28.085; ZVAL   =    4.000    mass and valenz                      
   RCORE  =    1.900    outmost cutoff radius                                   
   RWIGS  =    2.480; RWIGS  =    1.312    wigner-seitz radius (au A)           
   ENMAX  =  245.345; ENMIN  =  184.009 eV                                      
   ICORE  =        2    local potential                                         
   LCOR   =        T    correct aug charges                                     
   LPAW   =        T    paw PP                                                  
   EAUG   =  322.069                                                            
   DEXC   =    -.007                                                            
   RMAX   =    2.944    core radius for proj-oper                               
   RAUG   =    1.300    factor for augmentation sphere                          
   RDEP   =    1.993    radius for radial grids                                 
   QCUT   =   -4.246; QGAM   =    8.493    optimization parameters              
                                                                                
   Description                                                                  
     l     E      TYP  RCUT    TYP  RCUT                                        
     0   .000     23  1.900                                                     
     0   .000     23  1.900                                                     
     1   .000     23  1.900                                                     
     1   .000     23  1.900                                                     
     2   .000      7  1.900                                                     
  local pseudopotential read in
  partial core-charges read in
  atomic valenz-charges read in
  non local Contribution for L=           0  read in
    real space projection operators read in
  non local Contribution for L=           0  read in
    real space projection operators read in
  non local Contribution for L=           1  read in
    real space projection operators read in
  non local Contribution for L=           1  read in
    real space projection operators read in
    PAW grid and wavefunctions read in
 
   number of l-projection  operators is LMAX  =           4
   number of lm-projection operators is LMMAX =           8
 
 POTCAR:   PAW_PBE O 08Apr2002                    
   VRHFIN =O: s2p4                                                              
   LEXCH  = PE                                                                  
   EATOM  =   432.3788 eV,   31.7789 Ry                                         
                                                                                
   TITEL  = PAW_PBE O 08Apr2002                                                 
   LULTRA =        F    use ultrasoft PP ?                                      
   IUNSCR =        0    unscreen: 0-lin 1-nonlin 2-no                           
   RPACOR =     .000    partial core radius                                     
   POMASS =   16.000; ZVAL   =    6.000    mass and valenz                      
   RCORE  =    1.520    outmost cutoff radius                                   
   RWIGS  =    1.550; RWIGS  =     .820    wigner-seitz radius (au A)           
   ENMAX  =  400.000; ENMIN  =  300.000 eV                                      
   ICORE  =        2    local potential                                         
   LCOR   =        T    correct aug charges                                     
   LPAW   =        T    paw PP                                                  
   EAUG   =  605.392                                                            
   DEXC   =     .000                                                            
   RMAX   =    2.264    core radius for proj-oper                               
   RAUG   =    1.300    factor for augmentation sphere                          
   RDEP   =    1.550    radius for radial grids                                 
   QCUT   =   -5.520; QGAM   =   11.041    optimization parameters              
                                                                                
   Description                                                                  
     l     E      TYP  RCUT    TYP  RCUT                                        
     0   .000     23  1.200                                                     
     0  -.700     23  1.200                                                     
     1   .000     23  1.520                                                     
     1   .600     23  1.520                                                     
     2   .000      7  1.500                                                     
  local pseudopotential read in
  atomic valenz-charges read in
  non local Contribution for L=           0  read in
    real space projection operators read in
  non local Contribution for L=           0  read in
    real space projection operators read in
  non local Contribution for L=           1  read in
    real space projection operators read in
  non local Contribution for L=           1  read in
    real space projection operators read in
    PAW grid and wavefunctions read in
 
   number of l-projection  operators is LMAX  =           4
   number of lm-projection operators is LMMAX =           8
 
 Optimization of the real space projectors (new method)

 maximal supplied QI-value         = 19.84
 optimisation between [QCUT,QGAM] = [ 13.49, 26.99] = [ 50.98,203.92] Ry 
 Optimized for a Real-space Cutoff    1.07 Angstroem

   l    n(q)    QCUT    max X(q) W(low)/X(q) W(high)/X(q)  e(spline) 
   0      9    13.493     8.708    0.18E-04    0.50E-05    0.53E-08
   0      9    13.493   106.241    0.21E-03    0.15E-03    0.71E-07
   1      8    13.493     5.901    0.17E-04    0.34E-04    0.12E-07
   1      8    13.493    73.241    0.15E-03    0.10E-03    0.13E-06
 Optimization of the real space projectors (new method)

 maximal supplied QI-value         = 24.76
 optimisation between [QCUT,QGAM] = [ 13.37, 26.98] = [ 50.04,203.89] Ry 
 Optimized for a Real-space Cutoff    0.98 Angstroem

   l    n(q)    QCUT    max X(q) W(low)/X(q) W(high)/X(q)  e(spline) 
   0      8    13.368     4.192    0.70E-04    0.72E-04    0.26E-07
   0      8    13.368     8.473    0.48E-03    0.61E-03    0.10E-06
   1      7    13.368     2.474    0.77E-04    0.86E-04    0.16E-07
   1      7    13.368     3.912    0.27E-03    0.50E-03    0.84E-07
 PAW_PBE Si 05Jan2001                   :
 energy of atom  1       EATOM= -103.0669
 kinetic energy error for atom=    0.0003 (will be added to EATOM!!)
 PAW_PBE O 08Apr2002                    :
 energy of atom  2       EATOM= -432.3788
 kinetic energy error for atom=    0.0091 (will be added to EATOM!!)
 
 
 POSCAR: SiO2_P3221_icsd_34644                   
  positions in direct lattice
  No initial velocities read in
 exchange correlation table for  LEXCH =        8
   RHO(1)=    0.500       N(1)  =     2000
   RHO(2)=  100.500       N(2)  =     4000
 


--------------------------------------------------------------------------------------------------------


 ion  position               nearest neighbor table
   1  0.470  0.000  0.667-   4 1.60   7 1.60   9 1.62   5 1.62   3 3.06   3 3.06   2 3.06   2 3.06

   2  0.000  0.470  0.333-   8 1.60   5 1.60   6 1.62   7 1.62   3 3.06   3 3.06   1 3.06   1 3.06

   3  0.530  0.530  0.000-   6 1.60   9 1.60   8 1.62   4 1.62   2 3.06   2 3.06   1 3.06   1 3.06

   4  0.414  0.266  0.786-   1 1.60   3 1.62
   5  0.734  0.148  0.452-   2 1.60   1 1.62
   6  0.852  0.586  0.119-   3 1.60   2 1.62
   7  0.148  0.734  0.548-   1 1.60   2 1.62
   8  0.266  0.414  0.214-   2 1.60   3 1.62
   9  0.586  0.852  0.881-   3 1.60   1 1.62
 
  LATTYP: Found a hexagonal cell.
 ALAT       =     4.9137000030
 C/A-ratio  =     1.1000122101
  
  Lattice vectors:
  
 A1 = (   4.9137000000,   0.0000000000,   0.0000000000)
 A2 = (  -2.4568500000,   4.2553890300,   0.0000000000)
 A3 = (   0.0000000000,   0.0000000000,   5.4051300000)


Analysis of symmetry for initial positions (statically):
=====================================================================
 Subroutine PRICEL returns:
 Original cell was already a primitive cell.
 

 Routine SETGRP: Setting up the symmetry group for a 
 hexagonal supercell.


 Subroutine GETGRP returns: Found  2 space group operations
 (whereof  2 operations were pure point group operations)
 out of a pool of 24 trial point group operations.


The static configuration has the point symmetry C_2 .


Analysis of symmetry for dynamics (positions and initial velocities):
=====================================================================
 Subroutine PRICEL returns:
 Original cell was already a primitive cell.
 

 Routine SETGRP: Setting up the symmetry group for a 
 hexagonal supercell.


 Subroutine GETGRP returns: Found  2 space group operations
 (whereof  2 operations were pure point group operations)
 out of a pool of 24 trial point group operations.


The dynamic configuration has the point symmetry C_2 .


 Subroutine INISYM returns: Found  2 space group operations
 (whereof  2 operations are pure point group operations),
 and found     1 'primitive' translations

 
 
 KPOINTS: k-density: 4.0                          

Automatic generation of k-mesh.
Space group operators:
 irot       det(A)        alpha          n_x          n_y          n_z        tau_x        tau_y        tau_z
    1     1.000000     0.000001     1.000000     0.000000     0.000000     0.000000     0.000000     0.000000
    2     1.000000   180.000000    -0.500000    -0.866025     0.000000     0.000000     0.000000     0.000000
 
 Subroutine IBZKPT returns following result:
 ===========================================
 
 Found     55 irreducible k-points:
 
 Following reciprocal coordinates:
            Coordinates               Weight
  0.000000  0.000000  0.000000      1.000000
  0.166667  0.000000  0.000000      4.000000
  0.333333  0.000000  0.000000      4.000000
  0.500000  0.000000  0.000000      2.000000
  0.166667  0.166667  0.000000      2.000000
  0.333333  0.166667  0.000000      4.000000
  0.500000  0.166667  0.000000      4.000000
 -0.333333  0.166667  0.000000      4.000000
 -0.166667  0.166667  0.000000      2.000000
  0.333333  0.333333  0.000000      2.000000
  0.500000  0.333333  0.000000      4.000000
 -0.333333  0.333333  0.000000      2.000000
  0.500000  0.500000  0.000000      1.000000
  0.000000  0.000000  0.200000      2.000000
  0.166667  0.000000  0.200000      4.000000
  0.333333  0.000000  0.200000      4.000000
  0.500000  0.000000  0.200000      4.000000
 -0.333333  0.000000  0.200000      4.000000
 -0.166667  0.000000  0.200000      4.000000
  0.166667  0.166667  0.200000      4.000000
  0.333333  0.166667  0.200000      4.000000
  0.500000  0.166667  0.200000      4.000000
 -0.333333  0.166667  0.200000      4.000000
 -0.166667  0.166667  0.200000      2.000000
  0.166667  0.333333  0.200000      4.000000
  0.333333  0.333333  0.200000      4.000000
  0.500000  0.333333  0.200000      4.000000
 -0.333333  0.333333  0.200000      2.000000
  0.166667  0.500000  0.200000      4.000000
  0.333333  0.500000  0.200000      4.000000
  0.500000  0.500000  0.200000      2.000000
  0.166667 -0.333333  0.200000      4.000000
  0.333333 -0.333333  0.200000      2.000000
  0.166667 -0.166667  0.200000      2.000000
  0.000000  0.000000  0.400000      2.000000
  0.166667  0.000000  0.400000      4.000000
  0.333333  0.000000  0.400000      4.000000
  0.500000  0.000000  0.400000      4.000000
 -0.333333  0.000000  0.400000      4.000000
 -0.166667  0.000000  0.400000      4.000000
  0.166667  0.166667  0.400000      4.000000
  0.333333  0.166667  0.400000      4.000000
  0.500000  0.166667  0.400000      4.000000
 -0.333333  0.166667  0.400000      4.000000
 -0.166667  0.166667  0.400000      2.000000
  0.166667  0.333333  0.400000      4.000000
  0.333333  0.333333  0.400000      4.000000
  0.500000  0.333333  0.400000      4.000000
 -0.333333  0.333333  0.400000      2.000000
  0.166667  0.500000  0.400000      4.000000
  0.333333  0.500000  0.400000      4.000000
  0.500000  0.500000  0.400000      2.000000
  0.166667 -0.333333  0.400000      4.000000
  0.333333 -0.333333  0.400000      2.000000
  0.166667 -0.166667  0.400000      2.000000
 
 Following cartesian coordinates:
            Coordinates               Weight
  0.000000  0.000000  0.000000      1.000000
  0.033919  0.019583  0.000000      4.000000
  0.067838  0.039166  0.000000      4.000000
  0.101756  0.058749  0.000000      2.000000
  0.033919  0.058749  0.000000      2.000000
  0.067838  0.078332  0.000000      4.000000
  0.101756  0.097915  0.000000      4.000000
 -0.067838  0.000000  0.000000      4.000000
 -0.033919  0.019583  0.000000      2.000000
  0.067838  0.117498  0.000000      2.000000
  0.101756  0.137081  0.000000      4.000000
 -0.067838  0.039166  0.000000      2.000000
  0.101756  0.176247  0.000000      1.000000
  0.000000  0.000000  0.037002      2.000000
  0.033919  0.019583  0.037002      4.000000
  0.067838  0.039166  0.037002      4.000000
  0.101756  0.058749  0.037002      4.000000
 -0.067838 -0.039166  0.037002      4.000000
 -0.033919 -0.019583  0.037002      4.000000
  0.033919  0.058749  0.037002      4.000000
  0.067838  0.078332  0.037002      4.000000
  0.101756  0.097915  0.037002      4.000000
 -0.067838  0.000000  0.037002      4.000000
 -0.033919  0.019583  0.037002      2.000000
  0.033919  0.097915  0.037002      4.000000
  0.067838  0.117498  0.037002      4.000000
  0.101756  0.137081  0.037002      4.000000
 -0.067838  0.039166  0.037002      2.000000
  0.033919  0.137081  0.037002      4.000000
  0.067838  0.156664  0.037002      4.000000
  0.101756  0.176247  0.037002      2.000000
  0.033919 -0.058749  0.037002      4.000000
  0.067838 -0.039166  0.037002      2.000000
  0.033919 -0.019583  0.037002      2.000000
  0.000000  0.000000  0.074004      2.000000
  0.033919  0.019583  0.074004      4.000000
  0.067838  0.039166  0.074004      4.000000
  0.101756  0.058749  0.074004      4.000000
 -0.067838 -0.039166  0.074004      4.000000
 -0.033919 -0.019583  0.074004      4.000000
  0.033919  0.058749  0.074004      4.000000
  0.067838  0.078332  0.074004      4.000000
  0.101756  0.097915  0.074004      4.000000
 -0.067838  0.000000  0.074004      4.000000
 -0.033919  0.019583  0.074004      2.000000
  0.033919  0.097915  0.074004      4.000000
  0.067838  0.117498  0.074004      4.000000
  0.101756  0.137081  0.074004      4.000000
 -0.067838  0.039166  0.074004      2.000000
  0.033919  0.137081  0.074004      4.000000
  0.067838  0.156664  0.074004      4.000000
  0.101756  0.176247  0.074004      2.000000
  0.033919 -0.058749  0.074004      4.000000
  0.067838 -0.039166  0.074004      2.000000
  0.033919 -0.019583  0.074004      2.000000
 
 TETIRR: Found    273 inequivalent tetrahedra from     1080


--------------------------------------------------------------------------------------------------------




 Dimension of arrays:
   k-points           NKPTS =     55   k-points in BZ     NKDIM =     55   number of bands    NBANDS=     29
   number of dos      NEDOS =    301   number of ions     NIONS =      9
   non local maximal  LDIM  =      4   non local SUM 2l+1 LMDIM =      8
   total plane-waves  NPLWV =  36864
   max r-space proj   IRMAX =   1746   max aug-charges    IRDMAX=  11104
   dimension x,y,z NGX =    32 NGY =   32 NGZ =   36
   dimension x,y,z NGXF=    64 NGYF=   64 NGZF=   72
   support grid    NGXF=    64 NGYF=   64 NGZF=   72
   ions per type =               3   6
 NGX,Y,Z   is equivalent  to a cutoff of  10.83, 10.83, 11.07 a.u.
 NGXF,Y,Z  is equivalent  to a cutoff of  21.65, 21.65, 22.15 a.u.


 I would recommend the setting:
   dimension x,y,z NGX =    32 NGY =   32 NGZ =   35
 SYSTEM =  unknown system                          
 POSCAR =  SiO2_P3221_icsd_34644                   

 Startparameter for this run:
   NWRITE =      2    write-flag & timer
   PREC   = normal    normal or accurate (medium, high low for compatibility)
   ISTART =      0    job   : 0-new  1-cont  2-samecut
   ICHARG =      2    charge: 1-file 2-atom 10-const
   ISPIN  =      1    spin polarized calculation?
   LNONCOLLINEAR =      F non collinear calculations
   LSORBIT =      F    spin-orbit coupling
   INIWAV =      1    electr: 0-lowe 1-rand  2-diag
   LASPH  =      F    aspherical Exc in radial PAW
   METAGGA=      F    non-selfconsistent MetaGGA calc.

 Electronic Relaxation 1
   ENCUT  =  700.0 eV  51.45 Ry    7.17 a.u.  10.60 10.60 11.66*2*pi/ulx,y,z
   ENINI  =  700.0     initial cutoff
   ENAUG  =  605.4 eV  augmentation charge cutoff
   NELM   =     60;   NELMIN=  4; NELMDL= -5     # of ELM steps 
   EDIFF  = 0.1E-04   stopping-criterion for ELM
   LREAL  =      T    real-space projection
   NLSPLINE    = F    spline interpolate recip. space projectors
   LCOMPAT=      F    compatible to vasp.4.4
   GGA_COMPAT  = T    GGA compatible to vasp.4.4-vasp.4.6
   LMAXPAW     = -100 max onsite density
   LMAXMIX     =    2 max onsite mixed and CHGCAR
   VOSKOWN=      0    Vosko Wilk Nusair interpolation
   ROPT   =   -0.00050  -0.00050
 Ionic relaxation
   EDIFFG = 0.1E-03   stopping-criterion for IOM
   NSW    =      0    number of steps for IOM
   NBLOCK =      1;   KBLOCK =      1    inner block; outer block 
   IBRION =     -1    ionic relax: 0-MD 1-quasi-New 2-CG
   NFREE  =      0    steps in history (QN), initial steepest desc. (CG)
   ISIF   =      2    stress and relaxation
   IWAVPR =     10    prediction:  0-non 1-charg 2-wave 3-comb
   ISYM   =      2    0-nonsym 1-usesym 2-fastsym
   LCORR  =      T    Harris-Foulkes like correction to forces

   POTIM  = 0.5000    time-step for ionic-motion
   TEIN   =    0.0    initial temperature
   TEBEG  =    0.0;   TEEND  =   0.0 temperature during run
   SMASS  =  -3.00    Nose mass-parameter (am)
   estimated Nose-frequenzy (Omega)   =  0.10E-29 period in steps =****** mass=  -0.552E-27a.u.
   SCALEE = 1.0000    scale energy and forces
   NPACO  =    256;   APACO  = 16.0  distance and # of slots for P.C.
   PSTRESS=    0.0 pullay stress

  Mass of Ions in am
   POMASS =  28.09 16.00
  Ionic Valenz
   ZVAL   =   4.00  6.00
  Atomic Wigner-Seitz radii
   RWIGS  =  -1.00 -1.00
  virtual crystal weights 
   VCA    =   1.00  1.00
   NELECT =      48.0000    total number of electrons
   NUPDOWN=      -1.0000    fix difference up-down

 DOS related values:
   EMIN   =  10.00;   EMAX   =-10.00  energy-range for DOS
   EFERMI =   0.00
   ISMEAR =    -5;   SIGMA  =   0.20  broadening in eV -4-tet -1-fermi 0-gaus

 Electronic relaxation 2 (details)
   IALGO  =     68    algorithm
   LDIAG  =      T    sub-space diagonalisation (order eigenvalues)
   LSUBROT=      F    optimize rotation matrix (better conditioning)
   TURBO    =      0    0=normal 1=particle mesh
   IRESTART =      0    0=no restart 2=restart with 2 vectors
   NREBOOT  =      0    no. of reboots
   NMIN     =      0    reboot dimension
   EREF     =   0.00    reference energy to select bands
   IMIX   =      4    mixing-type and parameters
     AMIX     =   0.40;   BMIX     =  1.00
     AMIX_MAG =   1.60;   BMIX_MAG =  1.00
     AMIN     =   0.10
     WC   =   100.;   INIMIX=   1;  MIXPRE=   1;  MAXMIX= -45

 Intra band minimization:
   WEIMIN = 0.0000     energy-eigenvalue tresh-hold
   EBREAK =  0.86E-07  absolut break condition
   DEPER  =   0.30     relativ break condition  

   TIME   =   0.40     timestep for ELM

  volume/ion in A,a.u.               =      12.56        84.74
  Fermi-wavevector in a.u.,A,eV,Ry     =   1.230563  2.325427 20.603106  1.514286
  Thomas-Fermi vector in A             =   2.365407
 
 Write flags
   LWAVE  =      F    write WAVECAR
   LCHARG =      T    write CHGCAR
   LVTOT  =      F    write LOCPOT, total local potential
   LVHAR  =      F    write LOCPOT, Hartree potential only
   LELF   =      F    write electronic localiz. function (ELF)
   LORBIT =      0    0 simple, 1 ext, 2 COOP (PROOUT)


 Dipole corrections
   LMONO  =      F    monopole corrections only (constant potential shift)
   LDIPOL =      F    correct potential (dipole corrections)
   IDIPOL =      0    1-x, 2-y, 3-z, 4-all directions 
   EPSILON=  1.0000000 bulk dielectric constant

 Exchange correlation treatment:
   GGA     =    --    GGA type
   LEXCH   =     8    internal setting for exchange type
   VOSKOWN=      0    Vosko Wilk Nusair interpolation
   LHFCALC =     F    Hartree Fock is set to
   LHFONE  =     F    Hartree Fock one center treatment
   AEXX    =    0.0000 exact exchange contribution

 Linear response parameters
   LEPSILON=     F    determine dielectric tensor
   LRPA    =     F    only Hartree local field effects (RPA)
   LNABLA  =     F    use nabla operator in PAW spheres
   LVEL    =     F    velocity operator in full k-point grid
   LINTERFAST=   F  fast interpolation
   KINTER  =     0    interpolate to denser k-point grid
   CSHIFT  =0.1000    complex shift for real part using Kramers Kronig
   OMEGAMAX=  -1.0    maximum frequency
   DEG_THRESHOLD= 0.2000000E-02 threshold for treating states as degnerate
   RTIME   =    0.100 relaxation time in fs

 Orbital magnetization related:
   ORBITALMAG=     F  switch on orbital magnetization
   LCHIMAG   =     F  perturbation theory with respect to B field
   DQ        =  0.001000  dq finite difference perturbation B field



--------------------------------------------------------------------------------------------------------


 Static calculation
 charge density and potential will be updated during run
 non-spin polarized calculation
 RMM-DIIS sequential band-by-band and
  variant of blocked Davidson during initial phase
 perform sub-space diagonalisation
    before iterative eigenvector-optimisation
 modified Broyden-mixing scheme, WC =      100.0
 initial mixing is a Kerker type mixing with AMIX =  0.4000 and BMIX =      1.0000
 Hartree-type preconditioning will be used
 using additional bands            5
 real space projection scheme for non local part
 use partial core corrections
 calculate Harris-corrections to forces 
   (improved forces if not selfconsistent)
 use gradient corrections 
 use of overlap-Matrix (Vanderbilt PP)
 Fermi weights with tetrahedron method with Bloechl corrections


--------------------------------------------------------------------------------------------------------


  energy-cutoff  :      700.00
  volume of cell :      113.02
      direct lattice vectors                 reciprocal lattice vectors
     4.913700000  0.000000000  0.000000000     0.203512628  0.117498070  0.000000000
    -2.456850000  4.255389030  0.000000000     0.000000000  0.234996141  0.000000000
     0.000000000  0.000000000  5.405130000     0.000000000  0.000000000  0.185009426

  length of vectors
     4.913700000  4.913700003  5.405130000     0.234996141  0.234996141  0.185009426


 
 k-points in units of 2pi/SCALE and weight: k-density: 4.0                          
   0.00000000  0.00000000  0.00000000       0.006
   0.03391877  0.01958301  0.00000000       0.022
   0.06783754  0.03916602  0.00000000       0.022
   0.10175631  0.05874904  0.00000000       0.011
   0.03391877  0.05874904  0.00000000       0.011
   0.06783754  0.07833205  0.00000000       0.022
   0.10175631  0.09791506  0.00000000       0.022
  -0.06783754  0.00000000  0.00000000       0.022
  -0.03391877  0.01958301  0.00000000       0.011
   0.06783754  0.11749807  0.00000000       0.011
   0.10175631  0.13708108  0.00000000       0.022
  -0.06783754  0.03916602  0.00000000       0.011
   0.10175631  0.17624711  0.00000000       0.006
   0.00000000  0.00000000  0.03700189       0.011
   0.03391877  0.01958301  0.03700189       0.022
   0.06783754  0.03916602  0.03700189       0.022
   0.10175631  0.05874904  0.03700189       0.022
  -0.06783754 -0.03916602  0.03700189       0.022
  -0.03391877 -0.01958301  0.03700189       0.022
   0.03391877  0.05874904  0.03700189       0.022
   0.06783754  0.07833205  0.03700189       0.022
   0.10175631  0.09791506  0.03700189       0.022
  -0.06783754  0.00000000  0.03700189       0.022
  -0.03391877  0.01958301  0.03700189       0.011
   0.03391877  0.09791506  0.03700189       0.022
   0.06783754  0.11749807  0.03700189       0.022
   0.10175631  0.13708108  0.03700189       0.022
  -0.06783754  0.03916602  0.03700189       0.011
   0.03391877  0.13708108  0.03700189       0.022
   0.06783754  0.15666409  0.03700189       0.022
   0.10175631  0.17624711  0.03700189       0.011
   0.03391877 -0.05874904  0.03700189       0.022
   0.06783754 -0.03916602  0.03700189       0.011
   0.03391877 -0.01958301  0.03700189       0.011
   0.00000000  0.00000000  0.07400377       0.011
   0.03391877  0.01958301  0.07400377       0.022
   0.06783754  0.03916602  0.07400377       0.022
   0.10175631  0.05874904  0.07400377       0.022
  -0.06783754 -0.03916602  0.07400377       0.022
  -0.03391877 -0.01958301  0.07400377       0.022
   0.03391877  0.05874904  0.07400377       0.022
   0.06783754  0.07833205  0.07400377       0.022
   0.10175631  0.09791506  0.07400377       0.022
  -0.06783754  0.00000000  0.07400377       0.022
  -0.03391877  0.01958301  0.07400377       0.011
   0.03391877  0.09791506  0.07400377       0.022
   0.06783754  0.11749807  0.07400377       0.022
   0.10175631  0.13708108  0.07400377       0.022
  -0.06783754  0.03916602  0.07400377       0.011
   0.03391877  0.13708108  0.07400377       0.022
   0.06783754  0.15666409  0.07400377       0.022
   0.10175631  0.17624711  0.07400377       0.011
   0.03391877 -0.05874904  0.07400377       0.022
   0.06783754 -0.03916602  0.07400377       0.011
   0.03391877 -0.01958301  0.07400377       0.011
 
 k-points in reciprocal lattice and weights: k-density: 4.0                          
   0.00000000  0.00000000  0.00000000       0.006
   0.16666667  0.00000000  0.00000000       0.022
   0.33333333  0.00000000  0.00000000       0.022
   0.50000000  0.00000000  0.00000000       0.011
   0.16666667  0.16666667  0.00000000       0.011
   0.33333333  0.16666667  0.00000000       0.022
   0.50000000  0.16666667  0.00000000       0.022
  -0.33333333  0.16666667  0.00000000       0.022
  -0.16666667  0.16666667  0.00000000       0.011
   0.33333333  0.33333333  0.00000000       0.011
   0.50000000  0.33333333  0.00000000       0.022
  -0.33333333  0.33333333  0.00000000       0.011
   0.50000000  0.50000000  0.00000000       0.006
   0.00000000  0.00000000  0.20000000       0.011
   0.16666667  0.00000000  0.20000000       0.022
   0.33333333  0.00000000  0.20000000       0.022
   0.50000000  0.00000000  0.20000000       0.022
  -0.33333333  0.00000000  0.20000000       0.022
  -0.16666667  0.00000000  0.20000000       0.022
   0.16666667  0.16666667  0.20000000       0.022
   0.33333333  0.16666667  0.20000000       0.022
   0.50000000  0.16666667  0.20000000       0.022
  -0.33333333  0.16666667  0.20000000       0.022
  -0.16666667  0.16666667  0.20000000       0.011
   0.16666667  0.33333333  0.20000000       0.022
   0.33333333  0.33333333  0.20000000       0.022
   0.50000000  0.33333333  0.20000000       0.022
  -0.33333333  0.33333333  0.20000000       0.011
   0.16666667  0.50000000  0.20000000       0.022
   0.33333333  0.50000000  0.20000000       0.022
   0.50000000  0.50000000  0.20000000       0.011
   0.16666667 -0.33333333  0.20000000       0.022
   0.33333333 -0.33333333  0.20000000       0.011
   0.16666667 -0.16666667  0.20000000       0.011
   0.00000000  0.00000000  0.40000000       0.011
   0.16666667  0.00000000  0.40000000       0.022
   0.33333333  0.00000000  0.40000000       0.022
   0.50000000  0.00000000  0.40000000       0.022
  -0.33333333  0.00000000  0.40000000       0.022
  -0.16666667  0.00000000  0.40000000       0.022
   0.16666667  0.16666667  0.40000000       0.022
   0.33333333  0.16666667  0.40000000       0.022
   0.50000000  0.16666667  0.40000000       0.022
  -0.33333333  0.16666667  0.40000000       0.022
  -0.16666667  0.16666667  0.40000000       0.011
   0.16666667  0.33333333  0.40000000       0.022
   0.33333333  0.33333333  0.40000000       0.022
   0.50000000  0.33333333  0.40000000       0.022
  -0.33333333  0.33333333  0.40000000       0.011
   0.16666667  0.50000000  0.40000000       0.022
   0.33333333  0.50000000  0.40000000       0.022
   0.50000000  0.50000000  0.40000000       0.011
   0.16666667 -0.33333333  0.40000000       0.022
   0.33333333 -0.33333333  0.40000000       0.011
   0.16666667 -0.16666667  0.40000000       0.011
 
 position of ions in fractional coordinates (direct lattice) 
   0.46980000  0.00000000  0.66667000
   0.00000000  0.46980000  0.33333000
   0.53020000  0.53020000  0.00000000
   0.41450000  0.26620000  0.78560000
   0.73380000  0.14830000  0.45227000
   0.85170000  0.58550000  0.11893000
   0.14830000  0.73380000  0.54773000
   0.26620000  0.41450000  0.21440000
   0.58550000  0.85170000  0.88107000
 
 position of ions in cartesian coordinates  (Angst):
   2.30845626  0.00000000  3.60343802
  -1.15422813  1.99918177  1.80169198
   1.30262187  2.25620726  0.00000000
   1.38271518  1.13278456  4.24627013
   3.24132221  0.63107419  2.44457815
   2.74651261  2.49153028  0.64283211
  -1.07413482  3.12260447  2.96055185
   0.28966261  1.76385875  1.15885987
   0.78447221  3.62431484  4.76229789
 


--------------------------------------------------------------------------------------------------------


 k-point  1 :   0.0000 0.0000 0.0000  plane waves:    4775
 k-point  2 :   0.1667 0.0000 0.0000  plane waves:    4769
 k-point  3 :   0.3333 0.0000 0.0000  plane waves:    4752
 k-point  4 :   0.5000 0.0000 0.0000  plane waves:    4756
 k-point  5 :   0.1667 0.1667 0.0000  plane waves:    4773
 k-point  6 :   0.3333 0.1667 0.0000  plane waves:    4751
 k-point  7 :   0.5000 0.1667 0.0000  plane waves:    4751
 k-point  8 :  -0.3333 0.1667 0.0000  plane waves:    4773
 k-point  9 :  -0.1667 0.1667 0.0000  plane waves:    4769
 k-point 10 :   0.3333 0.3333 0.0000  plane waves:    4746
 k-point 11 :   0.5000 0.3333 0.0000  plane waves:    4751
 k-point 12 :  -0.3333 0.3333 0.0000  plane waves:    4752
 k-point 13 :   0.5000 0.5000 0.0000  plane waves:    4756
 k-point 14 :   0.0000 0.0000 0.2000  plane waves:    4757
 k-point 15 :   0.1667 0.0000 0.2000  plane waves:    4757
 k-point 16 :   0.3333 0.0000 0.2000  plane waves:    4748
 k-point 17 :   0.5000 0.0000 0.2000  plane waves:    4750
 k-point 18 :  -0.3333 0.0000 0.2000  plane waves:    4748
 k-point 19 :  -0.1667 0.0000 0.2000  plane waves:    4757
 k-point 20 :   0.1667 0.1667 0.2000  plane waves:    4756
 k-point 21 :   0.3333 0.1667 0.2000  plane waves:    4757
 k-point 22 :   0.5000 0.1667 0.2000  plane waves:    4757
 k-point 23 :  -0.3333 0.1667 0.2000  plane waves:    4756
 k-point 24 :  -0.1667 0.1667 0.2000  plane waves:    4757
 k-point 25 :   0.1667 0.3333 0.2000  plane waves:    4757
 k-point 26 :   0.3333 0.3333 0.2000  plane waves:    4743
 k-point 27 :   0.5000 0.3333 0.2000  plane waves:    4757
 k-point 28 :  -0.3333 0.3333 0.2000  plane waves:    4748
 k-point 29 :   0.1667 0.5000 0.2000  plane waves:    4757
 k-point 30 :   0.3333 0.5000 0.2000  plane waves:    4757
 k-point 31 :   0.5000 0.5000 0.2000  plane waves:    4750
 k-point 32 :   0.1667-0.3333 0.2000  plane waves:    4756
 k-point 33 :   0.3333-0.3333 0.2000  plane waves:    4748
 k-point 34 :   0.1667-0.1667 0.2000  plane waves:    4757
 k-point 35 :   0.0000 0.0000 0.4000  plane waves:    4776
 k-point 36 :   0.1667 0.0000 0.4000  plane waves:    4773
 k-point 37 :   0.3333 0.0000 0.4000  plane waves:    4749
 k-point 38 :   0.5000 0.0000 0.4000  plane waves:    4748
 k-point 39 :  -0.3333 0.0000 0.4000  plane waves:    4749
 k-point 40 :  -0.1667 0.0000 0.4000  plane waves:    4773
 k-point 41 :   0.1667 0.1667 0.4000  plane waves:    4748
 k-point 42 :   0.3333 0.1667 0.4000  plane waves:    4744
 k-point 43 :   0.5000 0.1667 0.4000  plane waves:    4744
 k-point 44 :  -0.3333 0.1667 0.4000  plane waves:    4748
 k-point 45 :  -0.1667 0.1667 0.4000  plane waves:    4773
 k-point 46 :   0.1667 0.3333 0.4000  plane waves:    4744
 k-point 47 :   0.3333 0.3333 0.4000  plane waves:    4740
 k-point 48 :   0.5000 0.3333 0.4000  plane waves:    4744
 k-point 49 :  -0.3333 0.3333 0.4000  plane waves:    4749
 k-point 50 :   0.1667 0.5000 0.4000  plane waves:    4744
 k-point 51 :   0.3333 0.5000 0.4000  plane waves:    4744
 k-point 52 :   0.5000 0.5000 0.4000  plane waves:    4748
 k-point 53 :   0.1667-0.3333 0.4000  plane waves:    4748
 k-point 54 :   0.3333-0.3333 0.4000  plane waves:    4749
 k-point 55 :   0.1667-0.1667 0.4000  plane waves:    4773

 maximum and minimum number of plane-waves per node :      4776     4740

 maximum number of plane-waves:      4776
 maximum index in each direction: 
   IXMAX=   10   IYMAX=   10   IZMAX=   11
   IXMIN=  -11   IYMIN=  -11   IZMIN=  -12

 WARNING: aliasing errors must be expected set NGX to  44 to avoid them
 WARNING: aliasing errors must be expected set NGY to  44 to avoid them
 WARNING: aliasing errors must be expected set NGZ to  48 to avoid them
 aliasing errors are usually negligible using standard VASP settings
 and one can safely disregard these warnings

 serial   3D FFT for wavefunctions
 parallel 3D FFT for charge:
    minimum data exchange during FFTs selected (reduces bandwidth)


 total amount of memory used by VASP on root node   183540. kBytes
========================================================================

   base      :      30000. kBytes
   nonlr-proj:       1144. kBytes
   fftplans  :      10316. kBytes
   grid      :      18333. kBytes
   one-center:         27. kBytes
   wavefun   :     123720. kBytes
 
     INWAV:  cpu time    0.0000: real time    0.0003
 Broyden mixing: mesh for mixing (old mesh)
   NGX = 21   NGY = 21   NGZ = 23
  (NGX  = 64   NGY  = 64   NGZ  = 72)
  gives a total of  10143 points

 initial charge density was supplied:
 charge density of overlapping atoms calculated
 number of electron      48.0000000 magnetization 
 keeping initial charge density in first step


--------------------------------------------------------------------------------------------------------


 Maximum index for non-local projection operator         1657
 Maximum index for augmentation-charges        10569 (set IRDMAX)


--------------------------------------------------------------------------------------------------------


 First call to EWALD:  gamma=   0.367
 Maximum number of real-space cells 3x 3x 3
 Maximum number of reciprocal cells 3x 3x 3

 FEWALD executed in parallel
    FEWALD:  cpu time    0.0020: real time    0.0019


----------------------------------------- Iteration    1(   1)  ---------------------------------------


    POTLOK:  cpu time    0.1720: real time    0.1734
    SETDIJ:  cpu time    0.0160: real time    0.0155
     EDDAV:  cpu time   10.1025: real time   10.0999
 BZINTS: Fermi energy: 18.301986; 48.000000 electrons
         Band energy:  33.461803;  BLOECHL correction: -0.166127
       DOS:  cpu time    0.0190: real time    0.0187
    --------------------------------------------
      LOOP:  cpu time   10.3124: real time   10.3438

 eigenvalue-minimisations  :  3190
 total energy-change (2. order) : 0.3659517E+03  (-0.3004752E+04)
 number of electron      48.0000000 magnetization 
 augmentation part       48.0000000 magnetization 

 Free energy of the ion-electron system (eV)
  ---------------------------------------------------
  alpha Z        PSCENC =        69.72802778
  Ewald energy   TEWEN  =     -1887.20590689
  -Hartree energ DENC   =      -937.14514243
  -exchange      EXHF   =         0.00000000
  -V(xc)+E(xc)   XCENC  =       142.01294183
  PAW double counting   =      1574.92322788    -1533.24131965
  entropy T*S    EENTRO =         0.00000000
  eigenvalues    EBANDS =        33.46180258
  atomic energy  EATOM  =      2903.41811360
  Solvation  Ediel_sol  =         0.00000000
  ---------------------------------------------------
  free energy    TOTEN  =       365.95174471 eV

  energy without entropy =      365.95174471  energy(sigma->0) =      365.95174471


--------------------------------------------------------------------------------------------------------




----------------------------------------- Iteration    1(   2)  ---------------------------------------


     EDDAV:  cpu time   12.3721: real time   12.3696
 BZINTS: Fermi energy: -0.441151; 48.000000 electrons
         Band energy:-389.163561;  BLOECHL correction:  0.000000
       DOS:  cpu time    0.0040: real time    0.0036
    --------------------------------------------
      LOOP:  cpu time   12.3771: real time   12.3795

 eigenvalue-minimisations  :  4226
 total energy-change (2. order) :-0.4226254E+03  (-0.4119957E+03)
 number of electron      48.0000000 magnetization 
 augmentation part       48.0000000 magnetization 

 Free energy of the ion-electron system (eV)
  ---------------------------------------------------
  alpha Z        PSCENC =        69.72802778
  Ewald energy   TEWEN  =     -1887.20590689
  -Hartree energ DENC   =      -937.14514243
  -exchange      EXHF   =         0.00000000
  -V(xc)+E(xc)   XCENC  =       142.01294183
  PAW double counting   =      1574.92322788    -1533.24131965
  entropy T*S    EENTRO =         0.00000000
  eigenvalues    EBANDS =      -389.16356141
  atomic energy  EATOM  =      2903.41811360
  Solvation  Ediel_sol  =         0.00000000
  ---------------------------------------------------
  free energy    TOTEN  =       -56.67361929 eV

  energy without entropy =      -56.67361929  energy(sigma->0) =      -56.67361929


--------------------------------------------------------------------------------------------------------




----------------------------------------- Iteration    1(   3)  ---------------------------------------


     EDDAV:  cpu time   11.0243: real time   11.0215
 BZINTS: Fermi energy: -2.106210; 48.000000 electrons
         Band energy:-412.817498;  BLOECHL correction:  0.000000
       DOS:  cpu time    0.0030: real time    0.0030
    --------------------------------------------
      LOOP:  cpu time   11.0283: real time   11.0366

 eigenvalue-minimisations  :  3725
 total energy-change (2. order) :-0.2365394E+02  (-0.2357987E+02)
 number of electron      48.0000000 magnetization 
 augmentation part       48.0000000 magnetization 

 Free energy of the ion-electron system (eV)
  ---------------------------------------------------
  alpha Z        PSCENC =        69.72802778
  Ewald energy   TEWEN  =     -1887.20590689
  -Hartree energ DENC   =      -937.14514243
  -exchange      EXHF   =         0.00000000
  -V(xc)+E(xc)   XCENC  =       142.01294183
  PAW double counting   =      1574.92322788    -1533.24131965
  entropy T*S    EENTRO =         0.00000000
  eigenvalues    EBANDS =      -412.81749767
  atomic energy  EATOM  =      2903.41811360
  Solvation  Ediel_sol  =         0.00000000
  ---------------------------------------------------
  free energy    TOTEN  =       -80.32755554 eV

  energy without entropy =      -80.32755554  energy(sigma->0) =      -80.32755554


--------------------------------------------------------------------------------------------------------




----------------------------------------- Iteration    1(   4)  ---------------------------------------


     EDDAV:  cpu time   11.1503: real time   11.1489
 BZINTS: Fermi energy: -2.137311; 48.000000 electrons
         Band energy:-413.140865;  BLOECHL correction:  0.000000
       DOS:  cpu time    0.0030: real time    0.0030
    --------------------------------------------
      LOOP:  cpu time   11.1543: real time   11.1585

 eigenvalue-minimisations  :  3772
 total energy-change (2. order) :-0.3233672E+00  (-0.3228228E+00)
 number of electron      48.0000000 magnetization 
 augmentation part       48.0000000 magnetization 

 Free energy of the ion-electron system (eV)
  ---------------------------------------------------
  alpha Z        PSCENC =        69.72802778
  Ewald energy   TEWEN  =     -1887.20590689
  -Hartree energ DENC   =      -937.14514243
  -exchange      EXHF   =         0.00000000
  -V(xc)+E(xc)   XCENC  =       142.01294183
  PAW double counting   =      1574.92322788    -1533.24131965
  entropy T*S    EENTRO =         0.00000000
  eigenvalues    EBANDS =      -413.14086483
  atomic energy  EATOM  =      2903.41811360
  Solvation  Ediel_sol  =         0.00000000
  ---------------------------------------------------
  free energy    TOTEN  =       -80.65092270 eV

  energy without entropy =      -80.65092270  energy(sigma->0) =      -80.65092270


--------------------------------------------------------------------------------------------------------




----------------------------------------- Iteration    1(   5)  ---------------------------------------


     EDDAV:  cpu time   10.5134: real time   10.5111
 BZINTS: Fermi energy: -2.102514; 48.000000 electrons
         Band energy:-413.146966;  BLOECHL correction:  0.000000
       DOS:  cpu time    0.0030: real time    0.0028
    CHARGE:  cpu time    0.7639: real time    0.7641
    MIXING:  cpu time    0.0050: real time    0.0056
    --------------------------------------------
      LOOP:  cpu time   11.2873: real time   11.2890

 eigenvalue-minimisations  :  3680
 total energy-change (2. order) :-0.6101182E-02  (-0.6098138E-02)
 number of electron      48.0000057 magnetization 
 augmentation part        4.4734751 magnetization 

 Broyden mixing:
  rms(total) = 0.18754E+01    rms(broyden)= 0.18753E+01
  rms(prec ) = 0.34969E+01
  weight for this iteration     100.00

 Free energy of the ion-electron system (eV)
  ---------------------------------------------------
  alpha Z        PSCENC =        69.72802778
  Ewald energy   TEWEN  =     -1887.20590689
  -Hartree energ DENC   =      -937.14514243
  -exchange      EXHF   =         0.00000000
  -V(xc)+E(xc)   XCENC  =       142.01294183
  PAW double counting   =      1574.92322788    -1533.24131965
  entropy T*S    EENTRO =         0.00000000
  eigenvalues    EBANDS =      -413.14696601
  atomic energy  EATOM  =      2903.41811360
  Solvation  Ediel_sol  =         0.00000000
  ---------------------------------------------------
  free energy    TOTEN  =       -80.65702388 eV

  energy without entropy =      -80.65702388  energy(sigma->0) =      -80.65702388


--------------------------------------------------------------------------------------------------------




----------------------------------------- Iteration    1(   6)  ---------------------------------------


    POTLOK:  cpu time    0.1610: real time    0.1618
    SETDIJ:  cpu time    0.0150: real time    0.0153
    EDDIAG:  cpu time    1.8317: real time    1.8308
  RMM-DIIS:  cpu time    6.1571: real time    6.1548
    ORTHCH:  cpu time    0.1870: real time    0.1869
 BZINTS: Fermi energy:  0.722578; 48.000000 electrons
         Band energy:-299.804266;  BLOECHL correction:  0.000000
       DOS:  cpu time    0.0030: real time    0.0028
    CHARGE:  cpu time    0.6919: real time    0.6928
    MIXING:  cpu time    0.0050: real time    0.0045
    --------------------------------------------
      LOOP:  cpu time    9.0536: real time    9.0557

 eigenvalue-minimisations  :  3386
 total energy-change (2. order) : 0.9605948E+01  (-0.4206834E+01)
 number of electron      48.0000049 magnetization 
 augmentation part        3.6577130 magnetization 

 Broyden mixing:
  rms(total) = 0.51393E+00    rms(broyden)= 0.51378E+00
  rms(prec ) = 0.82246E+00
  weight for this iteration     100.00

 eigenvalues of (default mixing * dielectric matrix)
  average eigenvalue GAMMA=   0.9989
  0.9989

 Free energy of the ion-electron system (eV)
  ---------------------------------------------------
  alpha Z        PSCENC =        69.72802778
  Ewald energy   TEWEN  =     -1887.20590689
  -Hartree energ DENC   =     -1045.96939580
  -exchange      EXHF   =         0.00000000
  -V(xc)+E(xc)   XCENC  =       149.31523712
  PAW double counting   =      1883.96090590    -1844.49379105
  entropy T*S    EENTRO =         0.00000000
  eigenvalues    EBANDS =      -299.80426615
  atomic energy  EATOM  =      2903.41811360
  Solvation  Ediel_sol  =         0.00000000
  ---------------------------------------------------
  free energy    TOTEN  =       -71.05107548 eV

  energy without entropy =      -71.05107548  energy(sigma->0) =      -71.05107548


--------------------------------------------------------------------------------------------------------




----------------------------------------- Iteration    1(   7)  ---------------------------------------


    POTLOK:  cpu time    0.1560: real time    0.1563
    SETDIJ:  cpu time    0.0150: real time    0.0150
    EDDIAG:  cpu time    1.8117: real time    1.8112
  RMM-DIIS:  cpu time    6.9359: real time    6.9371
    ORTHCH:  cpu time    0.2000: real time    0.2007
 BZINTS: Fermi energy:  1.082443; 48.000000 electrons
         Band energy:-283.436757;  BLOECHL correction:  0.000000
       DOS:  cpu time    0.0030: real time    0.0030
    CHARGE:  cpu time    0.7139: real time    0.7136
    MIXING:  cpu time    0.0050: real time    0.0057
    --------------------------------------------
      LOOP:  cpu time    9.8415: real time    9.8488

 eigenvalue-minimisations  :  3676
 total energy-change (2. order) : 0.1765630E-01  (-0.1693206E+00)
 number of electron      48.0000048 magnetization 
 augmentation part        3.5460332 magnetization 

 Broyden mixing:
  rms(total) = 0.34000E+00    rms(broyden)= 0.33998E+00
  rms(prec ) = 0.48283E+00
  weight for this iteration     100.00

 eigenvalues of (default mixing * dielectric matrix)
  average eigenvalue GAMMA=   1.7430
  1.1564  2.3297

 Free energy of the ion-electron system (eV)
  ---------------------------------------------------
  alpha Z        PSCENC =        69.72802778
  Ewald energy   TEWEN  =     -1887.20590689
  -Hartree energ DENC   =     -1063.31850470
  -exchange      EXHF   =         0.00000000
  -V(xc)+E(xc)   XCENC  =       150.49243378
  PAW double counting   =      1976.51419633    -1937.22502227
  entropy T*S    EENTRO =         0.00000000
  eigenvalues    EBANDS =      -283.43675682
  atomic energy  EATOM  =      2903.41811360
  Solvation  Ediel_sol  =         0.00000000
  ---------------------------------------------------
  free energy    TOTEN  =       -71.03341917 eV

  energy without entropy =      -71.03341917  energy(sigma->0) =      -71.03341917


--------------------------------------------------------------------------------------------------------




----------------------------------------- Iteration    1(   8)  ---------------------------------------


    POTLOK:  cpu time    0.1630: real time    0.1641
    SETDIJ:  cpu time    0.0160: real time    0.0158
    EDDIAG:  cpu time    1.8907: real time    1.8914
  RMM-DIIS:  cpu time    7.0369: real time    7.0341
    ORTHCH:  cpu time    0.1920: real time    0.1919
 BZINTS: Fermi energy:  0.984363; 48.000000 electrons
         Band energy:-280.782762;  BLOECHL correction:  0.000000
       DOS:  cpu time    0.0020: real time    0.0028
    CHARGE:  cpu time    0.7009: real time    0.7005
    MIXING:  cpu time    0.0050: real time    0.0051
    --------------------------------------------
      LOOP:  cpu time   10.0085: real time   10.0111

 eigenvalue-minimisations  :  3607
 total energy-change (2. order) :-0.1612764E-01  (-0.2791885E-01)
 number of electron      48.0000048 magnetization 
 augmentation part        3.5878721 magnetization 

 Broyden mixing:
  rms(total) = 0.64750E-01    rms(broyden)= 0.64747E-01
  rms(prec ) = 0.12065E+00
  weight for this iteration     100.00

 eigenvalues of (default mixing * dielectric matrix)
  average eigenvalue GAMMA=   1.5823
  2.5612  1.0929  1.0929

 Free energy of the ion-electron system (eV)
  ---------------------------------------------------
  alpha Z        PSCENC =        69.72802778
  Ewald energy   TEWEN  =     -1887.20590689
  -Hartree energ DENC   =     -1066.40589313
  -exchange      EXHF   =         0.00000000
  -V(xc)+E(xc)   XCENC  =       150.78592573
  PAW double counting   =      2047.68144222    -2008.26849451
  entropy T*S    EENTRO =         0.00000000
  eigenvalues    EBANDS =      -280.78276162
  atomic energy  EATOM  =      2903.41811360
  Solvation  Ediel_sol  =         0.00000000
  ---------------------------------------------------
  free energy    TOTEN  =       -71.04954682 eV

  energy without entropy =      -71.04954682  energy(sigma->0) =      -71.04954682


--------------------------------------------------------------------------------------------------------




----------------------------------------- Iteration    1(   9)  ---------------------------------------


    POTLOK:  cpu time    0.1660: real time    0.1661
    SETDIJ:  cpu time    0.0150: real time    0.0157
    EDDIAG:  cpu time    1.8677: real time    1.8669
  RMM-DIIS:  cpu time    7.1659: real time    7.1637
    ORTHCH:  cpu time    0.1970: real time    0.1966
 BZINTS: Fermi energy:  1.170758; 48.000000 electrons
         Band energy:-275.848063;  BLOECHL correction:  0.000000
       DOS:  cpu time    0.0030: real time    0.0029
    CHARGE:  cpu time    0.7159: real time    0.7162
    MIXING:  cpu time    0.0050: real time    0.0054
    --------------------------------------------
      LOOP:  cpu time   10.1375: real time   10.1412

 eigenvalue-minimisations  :  3735
 total energy-change (2. order) : 0.7968993E-02  (-0.5803326E-02)
 number of electron      48.0000048 magnetization 
 augmentation part        3.5628736 magnetization 

 Broyden mixing:
  rms(total) = 0.13777E-01    rms(broyden)= 0.13774E-01
  rms(prec ) = 0.20322E-01
  weight for this iteration     100.00

 eigenvalues of (default mixing * dielectric matrix)
  average eigenvalue GAMMA=   1.8832
  2.9688  2.4885  1.0378  1.0378

 Free energy of the ion-electron system (eV)
  ---------------------------------------------------
  alpha Z        PSCENC =        69.72802778
  Ewald energy   TEWEN  =     -1887.20590689
  -Hartree energ DENC   =     -1071.60314846
  -exchange      EXHF   =         0.00000000
  -V(xc)+E(xc)   XCENC  =       151.14363233
  PAW double counting   =      2060.33582607    -2021.01005889
  entropy T*S    EENTRO =         0.00000000
  eigenvalues    EBANDS =      -275.84806337
  atomic energy  EATOM  =      2903.41811360
  Solvation  Ediel_sol  =         0.00000000
  ---------------------------------------------------
  free energy    TOTEN  =       -71.04157782 eV

  energy without entropy =      -71.04157782  energy(sigma->0) =      -71.04157782


--------------------------------------------------------------------------------------------------------




----------------------------------------- Iteration    1(  10)  ---------------------------------------


    POTLOK:  cpu time    0.1650: real time    0.1653
    SETDIJ:  cpu time    0.0150: real time    0.0157
    EDDIAG:  cpu time    1.8377: real time    1.8368
  RMM-DIIS:  cpu time    6.8660: real time    6.8672
    ORTHCH:  cpu time    0.1880: real time    0.1873
 BZINTS: Fermi energy:  1.196087; 48.000000 electrons
         Band energy:-274.567415;  BLOECHL correction:  0.000000
       DOS:  cpu time    0.0030: real time    0.0029
    CHARGE:  cpu time    0.6929: real time    0.6933
    MIXING:  cpu time    0.0050: real time    0.0055
    --------------------------------------------
      LOOP:  cpu time    9.7745: real time    9.7791

 eigenvalue-minimisations  :  3674
 total energy-change (2. order) :-0.3383767E-02  (-0.1832895E-02)
 number of electron      48.0000048 magnetization 
 augmentation part        3.5497657 magnetization 

 Broyden mixing:
  rms(total) = 0.24744E-01    rms(broyden)= 0.24742E-01
  rms(prec ) = 0.42044E-01
  weight for this iteration     100.00

 eigenvalues of (default mixing * dielectric matrix)
  average eigenvalue GAMMA=   1.6723
  2.7786  2.4545  1.0693  1.0693  0.9900

 Free energy of the ion-electron system (eV)
  ---------------------------------------------------
  alpha Z        PSCENC =        69.72802778
  Ewald energy   TEWEN  =     -1887.20590689
  -Hartree energ DENC   =     -1072.94802857
  -exchange      EXHF   =         0.00000000
  -V(xc)+E(xc)   XCENC  =       151.23034578
  PAW double counting   =      2054.65982844    -2015.35992633
  entropy T*S    EENTRO =         0.00000000
  eigenvalues    EBANDS =      -274.56741540
  atomic energy  EATOM  =      2903.41811360
  Solvation  Ediel_sol  =         0.00000000
  ---------------------------------------------------
  free energy    TOTEN  =       -71.04496159 eV

  energy without entropy =      -71.04496159  energy(sigma->0) =      -71.04496159


--------------------------------------------------------------------------------------------------------




----------------------------------------- Iteration    1(  11)  ---------------------------------------


    POTLOK:  cpu time    0.1590: real time    0.1593
    SETDIJ:  cpu time    0.0150: real time    0.0151
    EDDIAG:  cpu time    1.7957: real time    1.7949
  RMM-DIIS:  cpu time    6.9199: real time    6.9175
    ORTHCH:  cpu time    0.1900: real time    0.1903
 BZINTS: Fermi energy:  1.176385; 48.000000 electrons
         Band energy:-275.624203;  BLOECHL correction:  0.000000
       DOS:  cpu time    0.0030: real time    0.0028
    CHARGE:  cpu time    0.6829: real time    0.6829
    MIXING:  cpu time    0.0060: real time    0.0060
    --------------------------------------------
      LOOP:  cpu time    9.7725: real time    9.7744

 eigenvalue-minimisations  :  3727
 total energy-change (2. order) : 0.1520231E-02  (-0.3228326E-03)
 number of electron      48.0000048 magnetization 
 augmentation part        3.5559922 magnetization 

 Broyden mixing:
  rms(total) = 0.69530E-02    rms(broyden)= 0.69526E-02
  rms(prec ) = 0.12158E-01
  weight for this iteration     100.00

 eigenvalues of (default mixing * dielectric matrix)
  average eigenvalue GAMMA=   1.7146
  2.9353  2.4622  1.5998  0.9500  1.1702  1.1702

 Free energy of the ion-electron system (eV)
  ---------------------------------------------------
  alpha Z        PSCENC =        69.72802778
  Ewald energy   TEWEN  =     -1887.20590689
  -Hartree energ DENC   =     -1071.83696667
  -exchange      EXHF   =         0.00000000
  -V(xc)+E(xc)   XCENC  =       151.15520907
  PAW double counting   =      2052.47768066    -2013.15539629
  entropy T*S    EENTRO =         0.00000000
  eigenvalues    EBANDS =      -275.62420264
  atomic energy  EATOM  =      2903.41811360
  Solvation  Ediel_sol  =         0.00000000
  ---------------------------------------------------
  free energy    TOTEN  =       -71.04344136 eV

  energy without entropy =      -71.04344136  energy(sigma->0) =      -71.04344136


--------------------------------------------------------------------------------------------------------




----------------------------------------- Iteration    1(  12)  ---------------------------------------


    POTLOK:  cpu time    0.1610: real time    0.1618
    SETDIJ:  cpu time    0.0160: real time    0.0152
    EDDIAG:  cpu time    1.8647: real time    1.8673
  RMM-DIIS:  cpu time    7.1199: real time    7.1194
    ORTHCH:  cpu time    0.1930: real time    0.1928
 BZINTS: Fermi energy:  1.168419; 48.000000 electrons
         Band energy:-275.965248;  BLOECHL correction:  0.000000
       DOS:  cpu time    0.0030: real time    0.0029
    CHARGE:  cpu time    0.6899: real time    0.6893
    MIXING:  cpu time    0.0060: real time    0.0062
    --------------------------------------------
      LOOP:  cpu time   10.0545: real time   10.0629

 eigenvalue-minimisations  :  3717
 total energy-change (2. order) : 0.5702414E-04  (-0.9935385E-04)
 number of electron      48.0000048 magnetization 
 augmentation part        3.5595374 magnetization 

 Broyden mixing:
  rms(total) = 0.77098E-03    rms(broyden)= 0.76765E-03
  rms(prec ) = 0.12212E-02
  weight for this iteration     100.00

 eigenvalues of (default mixing * dielectric matrix)
  average eigenvalue GAMMA=   1.6967
  2.8675  2.2879  2.2879  1.0024  1.0924  1.1696  1.1696

 Free energy of the ion-electron system (eV)
  ---------------------------------------------------
  alpha Z        PSCENC =        69.72802778
  Ewald energy   TEWEN  =     -1887.20590689
  -Hartree energ DENC   =     -1071.47676699
  -exchange      EXHF   =         0.00000000
  -V(xc)+E(xc)   XCENC  =       151.12911466
  PAW double counting   =      2051.70150961    -2012.37222788
  entropy T*S    EENTRO =         0.00000000
  eigenvalues    EBANDS =      -275.96524822
  atomic energy  EATOM  =      2903.41811360
  Solvation  Ediel_sol  =         0.00000000
  ---------------------------------------------------
  free energy    TOTEN  =       -71.04338433 eV

  energy without entropy =      -71.04338433  energy(sigma->0) =      -71.04338433


--------------------------------------------------------------------------------------------------------




----------------------------------------- Iteration    1(  13)  ---------------------------------------


    POTLOK:  cpu time    0.1640: real time    0.1647
    SETDIJ:  cpu time    0.0150: real time    0.0154
    EDDIAG:  cpu time    1.8427: real time    1.8414
  RMM-DIIS:  cpu time    5.5712: real time    5.5700
    ORTHCH:  cpu time    0.1910: real time    0.1913
 BZINTS: Fermi energy:  1.165217; 48.000000 electrons
         Band energy:-275.925138;  BLOECHL correction:  0.000000
       DOS:  cpu time    0.0030: real time    0.0029
    --------------------------------------------
      LOOP:  cpu time    7.7888: real time    7.7914

 eigenvalue-minimisations  :  2740
 total energy-change (2. order) :-0.2818105E-05  (-0.2915698E-05)
 number of electron      48.0000048 magnetization 
 augmentation part        3.5595374 magnetization 

 Free energy of the ion-electron system (eV)
  ---------------------------------------------------
  alpha Z        PSCENC =        69.72802778
  Ewald energy   TEWEN  =     -1887.20590689
  -Hartree energ DENC   =     -1071.51884527
  -exchange      EXHF   =         0.00000000
  -V(xc)+E(xc)   XCENC  =       151.13172565
  PAW double counting   =      2051.88465519    -2012.55601966
  entropy T*S    EENTRO =         0.00000000
  eigenvalues    EBANDS =      -275.92513756
  atomic energy  EATOM  =      2903.41811360
  Solvation  Ediel_sol  =         0.00000000
  ---------------------------------------------------
  free energy    TOTEN  =       -71.04338715 eV

  energy without entropy =      -71.04338715  energy(sigma->0) =      -71.04338715


--------------------------------------------------------------------------------------------------------




 average (electrostatic) potential at core
  the test charge radii are     0.9892  0.7215
  (the norm of the test charge is              1.0000)
       1 -86.3825       2 -86.3825       3 -86.3825       4 -72.3954       5 -72.3953
       6 -72.3954       7 -72.3953       8 -72.3954       9 -72.3954
 
 
 
 E-fermi :   1.1652     XC(G=0):  -9.2014     alpha+bet :-10.3421


 k-point     1 :       0.0000    0.0000    0.0000
  band No.  band energies     occupation 
      1     -18.3723      2.00000
      2     -16.8357      2.00000
      3     -16.8356      2.00000
      4     -16.2010      2.00000
      5     -16.1530      2.00000
      6     -16.1529      2.00000
      7      -7.1756      2.00000
      8      -7.1755      2.00000
      9      -4.3356      2.00000
     10      -4.3297      2.00000
     11      -4.1775      2.00000
     12      -4.1774      2.00000
     13      -1.8592      2.00000
     14      -1.8591      2.00000
     15      -1.6219      2.00000
     16      -1.3617      2.00000
     17      -0.4112      2.00000
     18      -0.4112      2.00000
     19      -0.3932      2.00000
     20       0.1099      2.00000
     21       0.1100      2.00000
     22       0.4193      2.00000
     23       0.7596      2.00000
     24       0.7597      2.00000
     25       7.1209      0.00000
     26      10.3985      0.00000
     27      10.3986      0.00000
     28      10.9004      0.00000
     29      10.9004      0.00000

 k-point     2 :       0.1667    0.0000    0.0000
  band No.  band energies     occupation 
      1     -18.2908      2.00000
      2     -16.9299      2.00000
      3     -16.8237      2.00000
      4     -16.2206      2.00000
      5     -16.1701      2.00000
      6     -16.1594      2.00000
      7      -7.2131      2.00000
      8      -6.9940      2.00000
      9      -4.3756      2.00000
     10      -4.3496      2.00000
     11      -4.2782      2.00000
     12      -4.0168      2.00000
     13      -1.9843      2.00000
     14      -1.7994      2.00000
     15      -1.5917      2.00000
     16      -1.1953      2.00000
     17      -0.6847      2.00000
     18      -0.4500      2.00000
     19      -0.4046      2.00000
     20       0.0472      2.00000
     21       0.0999      2.00000
     22       0.3170      2.00000
     23       0.8230      2.00000
     24       0.8567      2.00000
     25       7.5430      0.00000
     26      10.3852      0.00000
     27      10.4454      0.00000
     28      10.9354      0.00000
     29      11.0439      0.00000

 k-point     3 :       0.3333    0.0000    0.0000
  band No.  band energies     occupation 
      1     -18.0719      2.00000
      2     -17.1891      2.00000
      3     -16.7982      2.00000
      4     -16.2437      2.00000
      5     -16.1985      2.00000
      6     -16.1786      2.00000
      7      -7.2848      2.00000
      8      -6.5744      2.00000
      9      -4.6315      2.00000
     10      -4.3833      2.00000
     11      -4.3014      2.00000
     12      -3.7145      2.00000
     13      -2.0668      2.00000
     14      -1.6910      2.00000
     15      -1.5664      2.00000
     16      -1.1994      2.00000
     17      -1.0004      2.00000
     18      -0.5811      2.00000
     19      -0.4893      2.00000
     20      -0.0040      2.00000
     21       0.0652      2.00000
     22       0.2682      2.00000
     23       0.8510      2.00000
     24       1.0002      2.00000
     25       8.5418      0.00000
     26      10.4286      0.00000
     27      10.5574      0.00000
     28      11.0752      0.00000
     29      11.3968      0.00000

 k-point     4 :       0.5000    0.0000    0.0000
  band No.  band energies     occupation 
      1     -17.8825      2.00000
      2     -17.4036      2.00000
      3     -16.7845      2.00000
      4     -16.2496      2.00000
      5     -16.2112      2.00000
      6     -16.1901      2.00000
      7      -7.3191      2.00000
      8      -6.3122      2.00000
      9      -4.8198      2.00000
     10      -4.3607      2.00000
     11      -4.3295      2.00000
     12      -3.5487      2.00000
     13      -1.9947      2.00000
     14      -1.8282      2.00000
     15      -1.5977      2.00000
     16      -1.2166      2.00000
     17      -1.0083      2.00000
     18      -0.6640      2.00000
     19      -0.5967      2.00000
     20      -0.0071      2.00000
     21       0.0582      2.00000
     22       0.2987      2.00000
     23       0.8340      2.00000
     24       1.0579      2.00000
     25       9.3795      0.00000
     26      10.1164      0.00000
     27      10.8436      0.00000
     28      10.8446      0.00000
     29      11.6288      0.00000

 k-point     5 :       0.1667    0.1667    0.0000
  band No.  band energies     occupation 
      1     -18.1381      2.00000
      2     -17.1058      2.00000
      3     -16.8122      2.00000
      4     -16.2385      2.00000
      5     -16.1954      2.00000
      6     -16.1690      2.00000
      7      -7.2773      2.00000
      8      -6.6682      2.00000
      9      -4.6394      2.00000
     10      -4.3683      2.00000
     11      -4.2264      2.00000
     12      -3.8040      2.00000
     13      -2.0338      2.00000
     14      -1.7864      2.00000
     15      -1.4868      2.00000
     16      -1.0868      2.00000
     17      -1.0792      2.00000
     18      -0.5599      2.00000
     19      -0.3620      2.00000
     20      -0.1303      2.00000
     21       0.1828      2.00000
     22       0.2280      2.00000
     23       0.8418      2.00000
     24       0.9777      2.00000
     25       8.2505      0.00000
     26      10.4279      0.00000
     27      10.5700      0.00000
     28      11.0589      0.00000
     29      11.2326      0.00000

 k-point     6 :       0.3333    0.1667    0.0000
  band No.  band energies     occupation 
      1     -17.8892      2.00000
      2     -17.3842      2.00000
      3     -16.8044      2.00000
      4     -16.2470      2.00000
      5     -16.2095      2.00000
      6     -16.1873      2.00000
      7      -7.3424      2.00000
      8      -6.2122      2.00000
      9      -5.0388      2.00000
     10      -4.3204      2.00000
     11      -4.2287      2.00000
     12      -3.5565      2.00000
     13      -1.9830      2.00000
     14      -1.7840      2.00000
     15      -1.6577      2.00000
     16      -1.1638      2.00000
     17      -1.0014      2.00000
     18      -0.6951      2.00000
     19      -0.5068      2.00000
     20      -0.1886      2.00000
     21       0.0308      2.00000
     22       0.4231      2.00000
     23       0.8004      2.00000
     24       1.0692      2.00000
     25       9.2671      0.00000
     26      10.3665      0.00000
     27      10.6838      0.00000
     28      11.0896      0.00000
     29      11.5041      0.00000

 k-point     7 :       0.5000    0.1667    0.0000
  band No.  band energies     occupation 
      1     -17.8892      2.00000
      2     -17.3842      2.00000
      3     -16.8044      2.00000
      4     -16.2470      2.00000
      5     -16.2094      2.00000
      6     -16.1873      2.00000
      7      -7.3424      2.00000
      8      -6.2122      2.00000
      9      -5.0388      2.00000
     10      -4.3204      2.00000
     11      -4.2287      2.00000
     12      -3.5565      2.00000
     13      -1.9830      2.00000
     14      -1.7841      2.00000
     15      -1.6577      2.00000
     16      -1.1637      2.00000
     17      -1.0014      2.00000
     18      -0.6951      2.00000
     19      -0.5068      2.00000
     20      -0.1886      2.00000
     21       0.0308      2.00000
     22       0.4231      2.00000
     23       0.8004      2.00000
     24       1.0692      2.00000
     25       9.2671      0.00000
     26      10.3666      0.00000
     27      10.6840      0.00000
     28      11.0982      0.00000
     29      11.6169      0.00000

 k-point     8 :      -0.3333    0.1667    0.0000
  band No.  band energies     occupation 
      1     -18.1381      2.00000
      2     -17.1058      2.00000
      3     -16.8122      2.00000
      4     -16.2385      2.00000
      5     -16.1954      2.00000
      6     -16.1690      2.00000
      7      -7.2773      2.00000
      8      -6.6683      2.00000
      9      -4.6394      2.00000
     10      -4.3683      2.00000
     11      -4.2264      2.00000
     12      -3.8040      2.00000
     13      -2.0338      2.00000
     14      -1.7864      2.00000
     15      -1.4868      2.00000
     16      -1.0868      2.00000
     17      -1.0792      2.00000
     18      -0.5599      2.00000
     19      -0.3620      2.00000
     20      -0.1303      2.00000
     21       0.1827      2.00000
     22       0.2281      2.00000
     23       0.8418      2.00000
     24       0.9777      2.00000
     25       8.2505      0.00000
     26      10.4278      0.00000
     27      10.5697      0.00000
     28      11.0558      0.00000
     29      11.2415      0.00000

 k-point     9 :      -0.1667    0.1667    0.0000
  band No.  band energies     occupation 
      1     -18.2908      2.00000
      2     -16.9299      2.00000
      3     -16.8238      2.00000
      4     -16.2206      2.00000
      5     -16.1700      2.00000
      6     -16.1594      2.00000
      7      -7.2131      2.00000
      8      -6.9941      2.00000
      9      -4.3755      2.00000
     10      -4.3497      2.00000
     11      -4.2782      2.00000
     12      -4.0168      2.00000
     13      -1.9844      2.00000
     14      -1.7993      2.00000
     15      -1.5917      2.00000
     16      -1.1953      2.00000
     17      -0.6847      2.00000
     18      -0.4500      2.00000
     19      -0.4046      2.00000
     20       0.0472      2.00000
     21       0.1000      2.00000
     22       0.3170      2.00000
     23       0.8230      2.00000
     24       0.8567      2.00000
     25       7.5430      0.00000
     26      10.3852      0.00000
     27      10.4454      0.00000
     28      10.9354      0.00000
     29      11.0440      0.00000

 k-point    10 :       0.3333    0.3333    0.0000
  band No.  band energies     occupation 
      1     -17.6373      2.00000
      2     -17.6372      2.00000
      3     -16.8185      2.00000
      4     -16.2459      2.00000
      5     -16.2017      2.00000
      6     -16.2016      2.00000
      7      -7.3800      2.00000
      8      -5.6416      2.00000
      9      -5.6416      2.00000
     10      -4.2378      2.00000
     11      -4.2378      2.00000
     12      -3.4623      2.00000
     13      -1.8534      2.00000
     14      -1.8534      2.00000
     15      -1.8027      2.00000
     16      -0.9766      2.00000
     17      -0.9766      2.00000
     18      -0.8206      2.00000
     19      -0.6240      2.00000
     20      -0.1461      2.00000
     21      -0.1460      2.00000
     22       0.6588      2.00000
     23       0.6588      2.00000
     24       1.1005      2.00000
     25      10.0508      0.00000
     26      10.0508      0.00000
     27      10.5387      0.00000
     28      11.4826      0.00000
     29      11.6574      0.00000

 k-point    11 :       0.5000    0.3333    0.0000
  band No.  band energies     occupation 
      1     -17.8892      2.00000
      2     -17.3843      2.00000
      3     -16.8044      2.00000
      4     -16.2470      2.00000
      5     -16.2095      2.00000
      6     -16.1872      2.00000
      7      -7.3423      2.00000
      8      -6.2122      2.00000
      9      -5.0388      2.00000
     10      -4.3204      2.00000
     11      -4.2287      2.00000
     12      -3.5565      2.00000
     13      -1.9830      2.00000
     14      -1.7841      2.00000
     15      -1.6577      2.00000
     16      -1.1638      2.00000
     17      -1.0014      2.00000
     18      -0.6951      2.00000
     19      -0.5068      2.00000
     20      -0.1886      2.00000
     21       0.0308      2.00000
     22       0.4231      2.00000
     23       0.8004      2.00000
     24       1.0693      2.00000
     25       9.2671      0.00000
     26      10.3665      0.00000
     27      10.6837      0.00000
     28      11.0937      0.00000
     29      11.5211      0.00000

 k-point    12 :      -0.3333    0.3333    0.0000
  band No.  band energies     occupation 
      1     -18.0719      2.00000
      2     -17.1892      2.00000
      3     -16.7983      2.00000
      4     -16.2438      2.00000
      5     -16.1985      2.00000
      6     -16.1784      2.00000
      7      -7.2847      2.00000
      8      -6.5745      2.00000
      9      -4.6316      2.00000
     10      -4.3832      2.00000
     11      -4.3014      2.00000
     12      -3.7145      2.00000
     13      -2.0668      2.00000
     14      -1.6911      2.00000
     15      -1.5664      2.00000
     16      -1.1995      2.00000
     17      -1.0003      2.00000
     18      -0.5811      2.00000
     19      -0.4893      2.00000
     20      -0.0041      2.00000
     21       0.0653      2.00000
     22       0.2682      2.00000
     23       0.8509      2.00000
     24       1.0003      2.00000
     25       8.5418      0.00000
     26      10.4287      0.00000
     27      10.5558      0.00000
     28      11.0569      0.00000
     29      11.4095      0.00000

 k-point    13 :       0.5000    0.5000    0.0000
  band No.  band energies     occupation 
      1     -17.8824      2.00000
      2     -17.4037      2.00000
      3     -16.7846      2.00000
      4     -16.2497      2.00000
      5     -16.2112      2.00000
      6     -16.1899      2.00000
      7      -7.3191      2.00000
      8      -6.3123      2.00000
      9      -4.8198      2.00000
     10      -4.3606      2.00000
     11      -4.3295      2.00000
     12      -3.5488      2.00000
     13      -1.9946      2.00000
     14      -1.8282      2.00000
     15      -1.5977      2.00000
     16      -1.2166      2.00000
     17      -1.0083      2.00000
     18      -0.6640      2.00000
     19      -0.5967      2.00000
     20      -0.0071      2.00000
     21       0.0582      2.00000
     22       0.2987      2.00000
     23       0.8340      2.00000
     24       1.0579      2.00000
     25       9.3795      0.00000
     26      10.1164      0.00000
     27      10.8437      0.00000
     28      10.8451      0.00000
     29      11.6245      0.00000

 k-point    14 :       0.0000    0.0000    0.2000
  band No.  band energies     occupation 
      1     -18.2938      2.00000
      2     -17.2847      2.00000
      3     -16.4511      2.00000
      4     -16.1987      2.00000
      5     -16.1687      2.00000
      6     -16.1379      2.00000
      7      -7.8485      2.00000
      8      -6.3484      2.00000
      9      -4.4952      2.00000
     10      -4.4187      2.00000
     11      -4.3700      2.00000
     12      -3.8720      2.00000
     13      -1.9430      2.00000
     14      -1.6645      2.00000
     15      -1.5638      2.00000
     16      -1.2318      2.00000
     17      -0.6042      2.00000
     18      -0.4834      2.00000
     19      -0.4232      2.00000
     20      -0.2833      2.00000
     21       0.0783      2.00000
     22       0.5197      2.00000
     23       0.8101      2.00000
     24       0.9697      2.00000
     25       7.5150      0.00000
     26      10.2556      0.00000
     27      10.4196      0.00000
     28      10.5212      0.00000
     29      11.2237      0.00000

 k-point    15 :       0.1667    0.0000    0.2000
  band No.  band energies     occupation 
      1     -18.2167      2.00000
      2     -17.2838      2.00000
      3     -16.5343      2.00000
      4     -16.2137      2.00000
      5     -16.1878      2.00000
      6     -16.1492      2.00000
      7      -7.7035      2.00000
      8      -6.3566      2.00000
      9      -4.6735      2.00000
     10      -4.3770      2.00000
     11      -4.1807      2.00000
     12      -3.9216      2.00000
     13      -2.0433      2.00000
     14      -1.6486      2.00000
     15      -1.5278      2.00000
     16      -1.1543      2.00000
     17      -0.8338      2.00000
     18      -0.4974      2.00000
     19      -0.3942      2.00000
     20      -0.2393      2.00000
     21       0.1611      2.00000
     22       0.4159      2.00000
     23       0.7516      2.00000
     24       1.0113      2.00000
     25       7.8909      0.00000
     26      10.2693      0.00000
     27      10.5114      0.00000
     28      10.6060      0.00000
     29      11.2993      0.00000

 k-point    16 :       0.3333    0.0000    0.2000
  band No.  band energies     occupation 
      1     -18.0149      2.00000
      2     -17.3239      2.00000
      3     -16.7205      2.00000
      4     -16.2412      2.00000
      5     -16.2140      2.00000
      6     -16.1689      2.00000
      7      -7.4104      2.00000
      8      -6.3284      2.00000
      9      -4.9085      2.00000
     10      -4.3357      2.00000
     11      -4.0996      2.00000
     12      -3.8255      2.00000
     13      -2.1384      2.00000
     14      -1.7112      2.00000
     15      -1.4741      2.00000
     16      -1.2114      2.00000
     17      -0.8956      2.00000
     18      -0.6023      2.00000
     19      -0.4915      2.00000
     20      -0.0543      2.00000
     21       0.1607      2.00000
     22       0.2803      2.00000
     23       0.7942      2.00000
     24       0.9666      2.00000
     25       8.8066      0.00000
     26      10.3212      0.00000
     27      10.5738      0.00000
     28      11.0402      0.00000
     29      11.4083      0.00000

 k-point    17 :       0.5000    0.0000    0.2000
  band No.  band energies     occupation 
      1     -17.8601      2.00000
      2     -17.3926      2.00000
      3     -16.8311      2.00000
      4     -16.2500      2.00000
      5     -16.2157      2.00000
      6     -16.1813      2.00000
      7      -7.2715      2.00000
      8      -6.2730      2.00000
      9      -5.0440      2.00000
     10      -4.3572      2.00000
     11      -4.1051      2.00000
     12      -3.6720      2.00000
     13      -2.0468      2.00000
     14      -1.9458      2.00000
     15      -1.4706      2.00000
     16      -1.2614      2.00000
     17      -0.8452      2.00000
     18      -0.7252      2.00000
     19      -0.4210      2.00000
     20      -0.0730      2.00000
     21       0.1398      2.00000
     22       0.3325      2.00000
     23       0.7212      2.00000
     24       0.9971      2.00000
     25       9.5727      0.00000
     26      10.1823      0.00000
     27      10.6869      0.00000
     28      11.1580      0.00000
     29      11.6163      0.00000

 k-point    18 :      -0.3333    0.0000    0.2000
  band No.  band energies     occupation 
      1     -18.0186      2.00000
      2     -17.3038      2.00000
      3     -16.7540      2.00000
      4     -16.2333      2.00000
      5     -16.1930      2.00000
      6     -16.1803      2.00000
      7      -7.4141      2.00000
      8      -6.3297      2.00000
      9      -4.9101      2.00000
     10      -4.3749      2.00000
     11      -4.0765      2.00000
     12      -3.7760      2.00000
     13      -2.0741      2.00000
     14      -1.7027      2.00000
     15      -1.5272      2.00000
     16      -1.3898      2.00000
     17      -0.9252      2.00000
     18      -0.5008      2.00000
     19      -0.3474      2.00000
     20      -0.0902      2.00000
     21       0.0627      2.00000
     22       0.3942      2.00000
     23       0.6364      2.00000
     24       1.0600      2.00000
     25       8.7730      0.00000
     26      10.3809      0.00000
     27      10.7675      0.00000
[...]
      8      -5.6347      2.00000
      9      -5.0487      2.00000
     10      -4.4335      2.00000
     11      -4.3360      2.00000
     12      -3.6893      2.00000
     13      -1.9253      2.00000
     14      -1.6436      2.00000
     15      -1.4942      2.00000
     16      -1.1207      2.00000
     17      -0.9436      2.00000
     18      -0.5708      2.00000
     19      -0.5236      2.00000
     20      -0.3222      2.00000
     21      -0.0187      2.00000
     22       0.6526      2.00000
     23       0.9054      2.00000
     24       0.9352      2.00000
     25       8.7746      0.00000
     26       9.7837      0.00000
     27      10.3727      0.00000
     28      10.5690      0.00000
     29      11.3385      0.00000

 k-point    46 :       0.1667    0.3333    0.4000
  band No.  band energies     occupation 
      1     -17.8161      2.00000
      2     -17.3922      2.00000
      3     -16.8825      2.00000
      4     -16.2662      2.00000
      5     -16.2061      2.00000
      6     -16.1832      2.00000
      7      -7.1828      2.00000
      8      -6.1633      2.00000
      9      -5.3706      2.00000
     10      -4.2408      2.00000
     11      -3.9684      2.00000
     12      -3.8669      2.00000
     13      -2.1474      2.00000
     14      -1.9619      2.00000
     15      -1.4688      2.00000
     16      -1.0936      2.00000
     17      -0.9276      2.00000
     18      -0.5891      2.00000
     19      -0.1601      2.00000
     20       0.0230      2.00000
     21       0.1861      2.00000
     22       0.2954      2.00000
     23       0.5362      2.00000
     24       0.8304      2.00000
     25       9.8651      0.00000
     26      10.5301      0.00000
     27      10.7981      0.00000
     28      11.1355      0.00000
     29      11.3084      0.00000

 k-point    47 :       0.3333    0.3333    0.4000
  band No.  band energies     occupation 
      1     -17.7803      2.00000
      2     -17.2633      2.00000
      3     -17.0437      2.00000
      4     -16.2769      2.00000
      5     -16.2195      2.00000
      6     -16.1917      2.00000
      7      -6.8678      2.00000
      8      -6.3833      2.00000
      9      -5.4812      2.00000
     10      -4.1821      2.00000
     11      -3.9255      2.00000
     12      -3.9246      2.00000
     13      -2.1856      2.00000
     14      -1.7455      2.00000
     15      -1.7300      2.00000
     16      -0.8875      2.00000
     17      -0.8637      2.00000
     18      -0.8573      2.00000
     19       0.0149      2.00000
     20       0.0315      2.00000
     21       0.1970      2.00000
     22       0.4201      2.00000
     23       0.4417      2.00000
     24       0.6486      2.00000
     25      10.1478      0.00000
     26      10.7015      0.00000
     27      10.9255      0.00000
     28      11.2948      0.00000
     29      11.3278      0.00000

 k-point    48 :       0.5000    0.3333    0.4000
  band No.  band energies     occupation 
      1     -17.8138      2.00000
      2     -17.3992      2.00000
      3     -16.8748      2.00000
      4     -16.2690      2.00000
      5     -16.2071      2.00000
      6     -16.1824      2.00000
      7      -7.1820      2.00000
      8      -6.1619      2.00000
      9      -5.3728      2.00000
     10      -4.2319      2.00000
     11      -3.9656      2.00000
     12      -3.8841      2.00000
     13      -2.1534      2.00000
     14      -1.9563      2.00000
     15      -1.4617      2.00000
     16      -1.0955      2.00000
     17      -0.8802      2.00000
     18      -0.6379      2.00000
     19      -0.1546      2.00000
     20      -0.0358      2.00000
     21       0.1915      2.00000
     22       0.3678      2.00000
     23       0.5574      2.00000
     24       0.7866      2.00000
     25       9.9220      0.00000
     26      10.4296      0.00000
     27      10.7282      0.00000
     28      11.1341      0.00000
     29      11.5134      0.00000

 k-point    49 :      -0.3333    0.3333    0.4000
  band No.  band energies     occupation 
      1     -17.8764      2.00000
      2     -17.5381      2.00000
      3     -16.6582      2.00000
      4     -16.2541      2.00000
      5     -16.1964      2.00000
      6     -16.1653      2.00000
      7      -7.5430      2.00000
      8      -5.9342      2.00000
      9      -5.2320      2.00000
     10      -4.3142      2.00000
     11      -4.0606      2.00000
     12      -3.8249      2.00000
     13      -2.1054      2.00000
     14      -1.9224      2.00000
     15      -1.3501      2.00000
     16      -1.1848      2.00000
     17      -0.9440      2.00000
     18      -0.4853      2.00000
     19      -0.3523      2.00000
     20      -0.1430      2.00000
     21       0.1208      2.00000
     22       0.4567      2.00000
     23       0.6822      2.00000
     24       0.8802      2.00000
     25       9.4999      0.00000
     26      10.0817      0.00000
     27      10.6273      0.00000
     28      10.8006      0.00000
     29      11.7691      0.00000

 k-point    50 :       0.1667    0.5000    0.4000
  band No.  band energies     occupation 
      1     -17.8138      2.00000
      2     -17.3992      2.00000
      3     -16.8747      2.00000
      4     -16.2690      2.00000
      5     -16.2071      2.00000
      6     -16.1825      2.00000
      7      -7.1820      2.00000
      8      -6.1618      2.00000
      9      -5.3728      2.00000
     10      -4.2320      2.00000
     11      -3.9656      2.00000
     12      -3.8841      2.00000
     13      -2.1534      2.00000
     14      -1.9563      2.00000
     15      -1.4617      2.00000
     16      -1.0955      2.00000
     17      -0.8803      2.00000
     18      -0.6379      2.00000
     19      -0.1546      2.00000
     20      -0.0358      2.00000
     21       0.1916      2.00000
     22       0.3678      2.00000
     23       0.5574      2.00000
     24       0.7865      2.00000
     25       9.9220      0.00000
     26      10.4296      0.00000
     27      10.7278      0.00000
     28      11.1415      0.00000
     29      11.5035      0.00000

 k-point    51 :       0.3333    0.5000    0.4000
  band No.  band energies     occupation 
      1     -17.8160      2.00000
      2     -17.3923      2.00000
      3     -16.8826      2.00000
      4     -16.2662      2.00000
      5     -16.2061      2.00000
      6     -16.1831      2.00000
      7      -7.1828      2.00000
      8      -6.1634      2.00000
      9      -5.3707      2.00000
     10      -4.2407      2.00000
     11      -3.9684      2.00000
     12      -3.8669      2.00000
     13      -2.1474      2.00000
     14      -1.9619      2.00000
     15      -1.4689      2.00000
     16      -1.0935      2.00000
     17      -0.9276      2.00000
     18      -0.5892      2.00000
     19      -0.1602      2.00000
     20       0.0229      2.00000
     21       0.1861      2.00000
     22       0.2954      2.00000
     23       0.5362      2.00000
     24       0.8305      2.00000
     25       9.8651      0.00000
     26      10.5300      0.00000
     27      10.7987      0.00000
     28      11.1315      0.00000
     29      11.3173      0.00000

 k-point    52 :       0.5000    0.5000    0.4000
  band No.  band energies     occupation 
      1     -17.8203      2.00000
      2     -17.3740      2.00000
      3     -16.9062      2.00000
      4     -16.2714      2.00000
      5     -16.1986      2.00000
      6     -16.1751      2.00000
      7      -7.1884      2.00000
      8      -6.2074      2.00000
      9      -5.2833      2.00000
     10      -4.2855      2.00000
     11      -3.9214      2.00000
     12      -3.8882      2.00000
     13      -2.1151      2.00000
     14      -2.0861      2.00000
     15      -1.3614      2.00000
     16      -1.1057      2.00000
     17      -0.9522      2.00000
     18      -0.5134      2.00000
     19      -0.2106      2.00000
     20      -0.0651      2.00000
     21       0.1285      2.00000
     22       0.4115      2.00000
     23       0.4679      2.00000
     24       0.9085      2.00000
     25       9.9983      0.00000
     26      10.3855      0.00000
     27      10.7495      0.00000
     28      11.0619      0.00000
     29      11.5063      0.00000

 k-point    53 :       0.1667   -0.3333    0.4000
  band No.  band energies     occupation 
      1     -17.9094      2.00000
      2     -17.5815      2.00000
      3     -16.5717      2.00000
      4     -16.2383      2.00000
      5     -16.1922      2.00000
      6     -16.1664      2.00000
      7      -7.6805      2.00000
      8      -5.8258      2.00000
      9      -5.2283      2.00000
     10      -4.3129      2.00000
     11      -4.1525      2.00000
     12      -3.7705      2.00000
     13      -2.0612      2.00000
     14      -1.8408      2.00000
     15      -1.3880      2.00000
     16      -1.2453      2.00000
     17      -0.9366      2.00000
     18      -0.4981      2.00000
     19      -0.3564      2.00000
     20      -0.1474      2.00000
     21       0.0871      2.00000
     22       0.4559      2.00000
     23       0.7421      2.00000
     24       0.9072      2.00000
     25       9.2312      0.00000
     26      10.0934      0.00000
     27      10.5311      0.00000
     28      10.9164      0.00000
     29      11.3481      0.00000

 k-point    54 :       0.3333   -0.3333    0.4000
  band No.  band energies     occupation 
      1     -17.8821      2.00000
      2     -17.5258      2.00000
      3     -16.6758      2.00000
      4     -16.2470      2.00000
      5     -16.1882      2.00000
      6     -16.1693      2.00000
      7      -7.5449      2.00000
      8      -5.9387      2.00000
      9      -5.2261      2.00000
     10      -4.3351      2.00000
     11      -4.0614      2.00000
     12      -3.7859      2.00000
     13      -2.0823      2.00000
     14      -1.9456      2.00000
     15      -1.3200      2.00000
     16      -1.2558      2.00000
     17      -1.0049      2.00000
     18      -0.4118      2.00000
     19      -0.3012      2.00000
     20      -0.1116      2.00000
     21       0.1323      2.00000
     22       0.3267      2.00000
     23       0.6310      2.00000
     24       0.9794      2.00000
     25       9.3823      0.00000
     26      10.3570      0.00000
     27      10.5581      0.00000
     28      11.0973      0.00000
     29      11.2733      0.00000

 k-point    55 :       0.1667   -0.1667    0.4000
  band No.  band energies     occupation 
      1     -18.0060      2.00000
      2     -17.6720      2.00000
      3     -16.3554      2.00000
      4     -16.2106      2.00000
      5     -16.1819      2.00000
      6     -16.1444      2.00000
      7      -8.0296      2.00000
      8      -5.6359      2.00000
      9      -5.0481      2.00000
     10      -4.4299      2.00000
     11      -4.3446      2.00000
     12      -3.6780      2.00000
     13      -1.9185      2.00000
     14      -1.6407      2.00000
     15      -1.4918      2.00000
     16      -1.1496      2.00000
     17      -0.9757      2.00000
     18      -0.5681      2.00000
     19      -0.4515      2.00000
     20      -0.3468      2.00000
     21      -0.0184      2.00000
     22       0.6507      2.00000
     23       0.8154      2.00000
     24       1.0208      2.00000
     25       8.7487      0.00000
     26       9.8389      0.00000
     27      10.3317      0.00000
     28      10.6875      0.00000
     29      11.2063      0.00000


--------------------------------------------------------------------------------------------------------


 soft charge-density along one line, spin component           1
         0         1         2         3         4         5         6         7         8         9
 total charge-density along one line
 
 pseudopotential strength for first ion, spin component:           1
 18.756   0.002  -0.000   0.000  -0.000  -0.000  -0.000   0.000
  0.002   0.006  -0.000  -0.000   0.000   0.000   0.000  -0.000
 -0.000  -0.000   4.218   0.001  -0.000  -0.003  -0.000   0.000
  0.000  -0.000   0.001   4.218  -0.000  -0.000  -0.003   0.000
 -0.000   0.000  -0.000  -0.000   4.218   0.000   0.000  -0.003
 -0.000   0.000  -0.003  -0.000   0.000   0.005   0.000  -0.000
 -0.000   0.000  -0.000  -0.003   0.000   0.000   0.005  -0.000
  0.000  -0.000   0.000   0.000  -0.003  -0.000  -0.000   0.005
 total augmentation occupancy for first ion, spin component:           1
  1.167  -1.629   0.000   0.000  -0.005  -0.000  -0.000   0.025
 -1.629   3.558  -0.000  -0.000   0.040   0.000   0.000  -0.081
  0.000  -0.000   1.030   0.016  -0.000  -1.185  -0.026   0.000
  0.000  -0.000   0.016   1.001  -0.000  -0.024  -1.175   0.000
 -0.005   0.040  -0.000  -0.000   0.973   0.000   0.000  -1.173
 -0.000   0.000  -1.185  -0.024   0.000   1.687   0.052  -0.000
 -0.000   0.000  -0.026  -1.175   0.000   0.052   1.677  -0.000
  0.025  -0.081   0.000   0.000  -1.173  -0.000  -0.000   1.682


------------------------ aborting loop because EDIFF is reached ----------------------------------------


    CHARGE:  cpu time    0.6859: real time    0.6874
    FORLOC:  cpu time    0.0210: real time    0.0210
    FORNL :  cpu time    2.8136: real time    2.8113
    STRESS:  cpu time    8.4927: real time    8.4908
    FORCOR:  cpu time    0.1660: real time    0.1661
    FORHAR:  cpu time    0.0440: real time    0.0437
    MIXING:  cpu time    0.0060: real time    0.0065
    OFIELD:  cpu time    0.0000: real time    0.0000

  FORCE on cell =-STRESS in cart. coord.  units (eV):
  Direction    XX          YY          ZZ          XY          YZ          ZX
  --------------------------------------------------------------------------------------
  Alpha Z    69.72803    69.72803    69.72803
  Ewald    -646.24789  -646.25516  -594.70673    -0.00630     0.00069    -0.00119
  Hartree   347.20112   347.20071   377.17053    -0.00036     0.00077    -0.00133
  E(xc)    -225.65879  -225.65876  -225.59644     0.00002    -0.00000     0.00000
  Local    -418.56055  -418.55433  -499.38981     0.00538    -0.00159     0.00276
  n-local   -50.91605   -51.02701   -50.77929     0.03076    -0.04247    -0.02502
  augment    27.14406    27.14431    27.04625     0.00022     0.00001    -0.00002
  Kinetic   903.01407   903.55367   901.47826    -0.15525     0.03042     0.01706
  Fock        0.00000     0.00000     0.00000     0.00000     0.00000     0.00000
  -------------------------------------------------------------------------------------
  Total       5.91852     5.91693     4.95079    -0.00138     0.00008    -0.00014
  in kB      83.90151    83.87888    70.18287    -0.01960     0.00111    -0.00192
  external pressure =       79.32 kB  Pullay stress =        0.00 kB


 VOLUME and BASIS-vectors are now :
 -----------------------------------------------------------------------------
  energy-cutoff  :      700.00
  volume of cell :      113.02
      direct lattice vectors                 reciprocal lattice vectors
     4.913700000  0.000000000  0.000000000     0.203512628  0.117498070  0.000000000
    -2.456850000  4.255389030  0.000000000     0.000000000  0.234996141  0.000000000
     0.000000000  0.000000000  5.405130000     0.000000000  0.000000000  0.185009426

  length of vectors
     4.913700000  4.913700003  5.405130000     0.234996141  0.234996141  0.185009426


 FORCES acting on ions
    electron-ion (+dipol)            ewald-force                    non-local-force                 convergence-correction
 -----------------------------------------------------------------------------------------------
   -.120E+01 0.449E-02 -.559E-03   0.812E+00 -.379E-02 0.176E-03   0.802E+00 -.110E-02 -.169E-03   0.263E-03 -.663E-05 0.261E-04
   0.602E+00 -.103E+01 0.559E-03   -.410E+00 0.702E+00 -.176E-03   -.402E+00 0.694E+00 0.169E-03   -.137E-03 0.224E-03 -.261E-04
   0.600E+00 0.104E+01 0.557E-06   -.408E+00 -.706E+00 -.197E-06   -.401E+00 -.695E+00 0.000E+00   -.112E-03 -.195E-03 0.168E-11
   0.723E+02 0.723E+01 0.302E+02   -.907E+02 -.616E+01 -.401E+02   0.179E+02 -.805E+00 0.993E+01   0.336E-02 0.817E-03 0.141E-02
   -.424E+02 0.590E+02 0.302E+02   0.507E+02 -.755E+02 -.401E+02   -.824E+01 0.159E+02 0.993E+01   -.238E-02 0.252E-02 0.138E-02
   -.299E+02 -.662E+02 0.302E+02   0.400E+02 0.816E+02 -.401E+02   -.964E+01 -.151E+02 0.993E+01   -.103E-02 -.329E-02 0.140E-02
   0.723E+02 -.723E+01 -.302E+02   -.907E+02 0.616E+01 0.401E+02   0.179E+02 0.804E+00 -.993E+01   0.337E-02 -.799E-03 -.138E-02
   -.299E+02 0.662E+02 -.302E+02   0.400E+02 -.816E+02 0.401E+02   -.964E+01 0.151E+02 -.993E+01   -.970E-03 0.332E-02 -.141E-02
   -.424E+02 -.590E+02 -.302E+02   0.507E+02 0.755E+02 0.401E+02   -.824E+01 -.159E+02 -.993E+01   -.233E-02 -.253E-02 -.140E-02
 -----------------------------------------------------------------------------------------------
   0.260E-02 0.450E-02 0.720E-06   -.711E-14 -.142E-13 0.000E+00   -.262E-02 -.454E-02 0.000E+00   0.315E-04 0.545E-04 0.188E-13
 
 
 POSITION                                       TOTAL-FORCE (eV/Angst)
 -----------------------------------------------------------------------------------
      2.30846      0.00000      3.60344         0.418634     -0.000410     -0.000526
     -1.15423      1.99918      1.80169        -0.209672      0.362343      0.000526
      1.30262      2.25621      0.00000        -0.209523     -0.362904      0.000000
      1.38272      1.13278      4.24627        -0.511233      0.270764      0.072907
      3.24132      0.63107      2.44458         0.021333     -0.577515      0.072534
      2.74651      2.49153      0.64283         0.490196      0.307227      0.072826
     -1.07413      3.12260      2.96055        -0.510809     -0.270282     -0.072534
      0.28966      1.76386      1.15886         0.490105     -0.307359     -0.072907
      0.78447      3.62431      4.76230         0.020968      0.578136     -0.072826
 -----------------------------------------------------------------------------------
    total drift:                                0.000009      0.000015      0.000001


--------------------------------------------------------------------------------------------------------



  FREE ENERGIE OF THE ION-ELECTRON SYSTEM (eV)
  ---------------------------------------------------
  free  energy   TOTEN  =       -71.04338715 eV

  energy  without entropy=      -71.04338715  energy(sigma->0) =      -71.04338715
 


--------------------------------------------------------------------------------------------------------


    POTLOK:  cpu time    0.1770: real time    0.1768


--------------------------------------------------------------------------------------------------------


     LOOP+:  cpu time  145.3149: real time  145.5018
    4ORBIT:  cpu time    0.0010: real time    0.0003
 BZINTS: Fermi energy:  1.165217; 48.000000 electrons
         Band energy:-275.925138;  BLOECHL correction:  0.000000

 total amount of memory used by VASP on root node   183540. kBytes
========================================================================

   base      :      30000. kBytes
   nonlr-proj:       1144. kBytes
   fftplans  :      10316. kBytes
   grid      :      18333. kBytes
   one-center:         27. kBytes
   wavefun   :     123720. kBytes
 
  
  
 General timing and accounting informations for this job:
 ========================================================
  
                  Total CPU time used (sec):      148.065
                            User time (sec):      147.826
                          System time (sec):        0.240
                         Elapsed time (sec):      164.563
  
                   Maximum memory used (kb):      201396.
                   Average memory used (kb):           0.
  
                          Minor page faults:        91729
                          Major page faults:           80
                 Voluntary context switches:         1795
