Starting job 28172867 ("jobname") on c14-33 at Fri Sep 13 10:17:07 CEST 2019
 running on    1 total cores
 distrk:  each k-point on    1 cores,    1 groups
 distr:  one band on    1 cores,    1 groups
 using from now: INCAR     
 vasp.5.4.1 05Feb16 (build Mar 02 2016 14:09:44) complex                        
  
 POSCAR found :  2 types and       9 ions
 LDA part: xc-table for Pade appr. of Perdew
 POSCAR, INCAR and KPOINTS ok, starting setup
 WARNING: small aliasing (wrap around) errors must be expected
 FFT: planning ...
 WAVECAR not read
 entering main loop
       N       E                     dE             d eps       ncg     rms          rms(c)
DAV:   1     0.365951744713E+03    0.36595E+03   -0.30048E+04  3190   0.194E+03
DAV:   2    -0.566736192863E+02   -0.42263E+03   -0.41200E+03  4226   0.374E+02
DAV:   3    -0.803275555387E+02   -0.23654E+02   -0.23580E+02  3725   0.991E+01
DAV:   4    -0.806509226985E+02   -0.32337E+00   -0.32282E+00  3772   0.124E+01
DAV:   5    -0.806570238806E+02   -0.61012E-02   -0.60981E-02  3680   0.170E+00    0.188E+01
RMM:   6    -0.710510754783E+02    0.96059E+01   -0.42068E+01  3386   0.346E+01    0.514E+00
RMM:   7    -0.710334191746E+02    0.17656E-01   -0.16932E+00  3676   0.599E+00    0.340E+00
RMM:   8    -0.710495468156E+02   -0.16128E-01   -0.27919E-01  3607   0.438E+00    0.648E-01
RMM:   9    -0.710415778221E+02    0.79690E-02   -0.58033E-02  3735   0.128E+00    0.138E-01
RMM:  10    -0.710449615888E+02   -0.33838E-02   -0.18329E-02  3674   0.725E-01    0.247E-01
RMM:  11    -0.710434413582E+02    0.15202E-02   -0.32283E-03  3727   0.332E-01    0.695E-02
RMM:  12    -0.710433843341E+02    0.57024E-04   -0.99354E-04  3717   0.168E-01    0.771E-03
RMM:  13    -0.710433871522E+02   -0.28181E-05   -0.29157E-05  2740   0.316E-02
   1 F= -.71043387E+02 E0= -.71043387E+02  d E =0.000000E+00

Currently Loaded Modulefiles:
  1) Anaconda3/5.1.0       3) vesta/3.3.8           5) intel/2016.1
  2) gnuplot/5.0.4         4) imagemagick/6.7.9-0   6) vasp/5.4.1.Feb16

Job script resource usage:
       JobID  MaxVMSize     MaxRSS 
------------ ---------- ---------- 
28172867.ba+    552228K    179106K 

Job step resource usage:
       JobID    JobName  AllocCPUS  MaxVMSize     MaxRSS    Elapsed ExitCode 
------------ ---------- ---------- ---------- ---------- ---------- -------- 
28172867        jobname          1                         00:02:46      0:0 

Job 28172867 ("jobname") completed on c14-33 at Fri Sep 13 10:19:51 CEST 2019
