<?xml version="1.0" encoding="ISO-8859-1"?>
<modeling>
 <generator>
  <i name="program" type="string">vasp </i>
  <i name="version" type="string">5.4.1  </i>
  <i name="subversion" type="string">05Feb16 (build Mar 02 2016 14:09:44) complex                          parallel </i>
  <i name="platform" type="string">Abel-impi-ifc-cuda </i>
  <i name="date" type="string">2019 09 13 </i>
  <i name="time" type="string">10:17:07 </i>
 </generator>
 <incar>
  <i type="string" name="PREC">normal    ! low/normal/accurate</i>
  <i type="string" name="ALGO"> Fast      ! Algorithm for electronic re</i>
  <i type="int" name="ISPIN">     1</i>
  <i type="int" name="NELMIN">     4</i>
  <i name="EDIFF">      0.00001000</i>
  <i type="int" name="NSW">     0</i>
  <i name="ENCUT">    700.00000000</i>
  <i type="string" name="LREAL"> Auto      ! Projection in reciprocal sp</i>
  <i type="int" name="ISMEAR">    -5</i>
  <i name="SIGMA">      0.20000000</i>
  <i type="logical" name="LWAVE"> F  </i>
  <v type="int" name="KPOINT_BSE">    -1     0     0     0</v>
 </incar>
 <kpoints>
  <generation param="Gamma">
   <v type="int" name="divisions">       6        6        5 </v>
   <v name="usershift">      0.00000000       0.00000000       0.00000000 </v>
   <v name="genvec1">      0.16666667       0.00000000       0.00000000 </v>
   <v name="genvec2">      0.00000000       0.16666667       0.00000000 </v>
   <v name="genvec3">      0.00000000       0.00000000       0.20000000 </v>
   <v name="shift">      0.00000000       0.00000000       0.00000000 </v>
  </generation>
  <varray name="kpointlist" >
   <v>       0.00000000       0.00000000       0.00000000 </v>
   <v>       0.16666667       0.00000000       0.00000000 </v>
   <v>       0.33333333       0.00000000       0.00000000 </v>
   <v>       0.50000000       0.00000000       0.00000000 </v>
   <v>       0.16666667       0.16666667       0.00000000 </v>
   <v>       0.33333333       0.16666667       0.00000000 </v>
   <v>       0.50000000       0.16666667       0.00000000 </v>
   <v>      -0.33333333       0.16666667       0.00000000 </v>
   <v>      -0.16666667       0.16666667       0.00000000 </v>
   <v>       0.33333333       0.33333333       0.00000000 </v>
   <v>       0.50000000       0.33333333       0.00000000 </v>
   <v>      -0.33333333       0.33333333       0.00000000 </v>
   <v>       0.50000000       0.50000000       0.00000000 </v>
   <v>       0.00000000       0.00000000       0.20000000 </v>
   <v>       0.16666667       0.00000000       0.20000000 </v>
   <v>       0.33333333       0.00000000       0.20000000 </v>
   <v>       0.50000000       0.00000000       0.20000000 </v>
   <v>      -0.33333333       0.00000000       0.20000000 </v>
   <v>      -0.16666667       0.00000000       0.20000000 </v>
   <v>       0.16666667       0.16666667       0.20000000 </v>
   <v>       0.33333333       0.16666667       0.20000000 </v>
   <v>       0.50000000       0.16666667       0.20000000 </v>
   <v>      -0.33333333       0.16666667       0.20000000 </v>
   <v>      -0.16666667       0.16666667       0.20000000 </v>
   <v>       0.16666667       0.33333333       0.20000000 </v>
   <v>       0.33333333       0.33333333       0.20000000 </v>
   <v>       0.50000000       0.33333333       0.20000000 </v>
   <v>      -0.33333333       0.33333333       0.20000000 </v>
   <v>       0.16666667       0.50000000       0.20000000 </v>
   <v>       0.33333333       0.50000000       0.20000000 </v>
   <v>       0.50000000       0.50000000       0.20000000 </v>
   <v>       0.16666667      -0.33333333       0.20000000 </v>
   <v>       0.33333333      -0.33333333       0.20000000 </v>
   <v>       0.16666667      -0.16666667       0.20000000 </v>
   <v>       0.00000000       0.00000000       0.40000000 </v>
   <v>       0.16666667       0.00000000       0.40000000 </v>
   <v>       0.33333333       0.00000000       0.40000000 </v>
   <v>       0.50000000       0.00000000       0.40000000 </v>
   <v>      -0.33333333       0.00000000       0.40000000 </v>
   <v>      -0.16666667       0.00000000       0.40000000 </v>
   <v>       0.16666667       0.16666667       0.40000000 </v>
   <v>       0.33333333       0.16666667       0.40000000 </v>
   <v>       0.50000000       0.16666667       0.40000000 </v>
   <v>      -0.33333333       0.16666667       0.40000000 </v>
   <v>      -0.16666667       0.16666667       0.40000000 </v>
   <v>       0.16666667       0.33333333       0.40000000 </v>
   <v>       0.33333333       0.33333333       0.40000000 </v>
   <v>       0.50000000       0.33333333       0.40000000 </v>
   <v>      -0.33333333       0.33333333       0.40000000 </v>
   <v>       0.16666667       0.50000000       0.40000000 </v>
   <v>       0.33333333       0.50000000       0.40000000 </v>
   <v>       0.50000000       0.50000000       0.40000000 </v>
   <v>       0.16666667      -0.33333333       0.40000000 </v>
   <v>       0.33333333      -0.33333333       0.40000000 </v>
   <v>       0.16666667      -0.16666667       0.40000000 </v>
  </varray>
  <varray name="weights" >
   <v>       0.00555556 </v>
   <v>       0.02222222 </v>
   <v>       0.02222222 </v>
   <v>       0.01111111 </v>
   <v>       0.01111111 </v>
   <v>       0.02222222 </v>
   <v>       0.02222222 </v>
   <v>       0.02222222 </v>
   <v>       0.01111111 </v>
   <v>       0.01111111 </v>
   <v>       0.02222222 </v>
   <v>       0.01111111 </v>
   <v>       0.00555556 </v>
   <v>       0.01111111 </v>
   <v>       0.02222222 </v>
   <v>       0.02222222 </v>
   <v>       0.02222222 </v>
   <v>       0.02222222 </v>
   <v>       0.02222222 </v>
   <v>       0.02222222 </v>
   <v>       0.02222222 </v>
   <v>       0.02222222 </v>
   <v>       0.02222222 </v>
   <v>       0.01111111 </v>
   <v>       0.02222222 </v>
   <v>       0.02222222 </v>
   <v>       0.02222222 </v>
   <v>       0.01111111 </v>
   <v>       0.02222222 </v>
   <v>       0.02222222 </v>
   <v>       0.01111111 </v>
   <v>       0.02222222 </v>
   <v>       0.01111111 </v>
   <v>       0.01111111 </v>
   <v>       0.01111111 </v>
   <v>       0.02222222 </v>
   <v>       0.02222222 </v>
   <v>       0.02222222 </v>
   <v>       0.02222222 </v>
   <v>       0.02222222 </v>
   <v>       0.02222222 </v>
   <v>       0.02222222 </v>
   <v>       0.02222222 </v>
   <v>       0.02222222 </v>
   <v>       0.01111111 </v>
   <v>       0.02222222 </v>
   <v>       0.02222222 </v>
   <v>       0.02222222 </v>
   <v>       0.01111111 </v>
   <v>       0.02222222 </v>
   <v>       0.02222222 </v>
   <v>       0.01111111 </v>
   <v>       0.02222222 </v>
   <v>       0.01111111 </v>
   <v>       0.01111111 </v>
  </varray>
  <varray name="tetrahedronlist"  type="int" >
   <v type="int" >        4        2        2        5       19 </v>
   <v type="int" >        4        1        2        2       19 </v>
   <v type="int" >        4        1        2       14       19 </v>
   <v type="int" >        4        2        5       19       20 </v>
   <v type="int" >        4        2       15       19       20 </v>
   <v type="int" >        4        2       14       15       19 </v>
   <v type="int" >        4        3        5        6       20 </v>
   <v type="int" >        4        2        3        5       20 </v>
   <v type="int" >        4        2        3       15       20 </v>
   <v type="int" >        4        3        6       20       21 </v>
   <v type="int" >        4        3       16       20       21 </v>
   <v type="int" >        4        3       15       16       20 </v>
   <v type="int" >        4        4        6        7       21 </v>
   <v type="int" >        4        3        4        6       21 </v>
   <v type="int" >        4        3        4       16       21 </v>
   <v type="int" >        4        4        7       21       22 </v>
   <v type="int" >        4        4       17       21       22 </v>
   <v type="int" >        4        4       16       17       21 </v>
   <v type="int" >        4        3        7        8       22 </v>
   <v type="int" >        4        3        4        7       22 </v>
   <v type="int" >        4        3        4       17       22 </v>
   <v type="int" >        4        3        8       22       23 </v>
   <v type="int" >        4        3       18       22       23 </v>
   <v type="int" >        4        3       17       18       22 </v>
   <v type="int" >        4        2        8        9       23 </v>
   <v type="int" >        4        2        3        8       23 </v>
   <v type="int" >        4        2        3       18       23 </v>
   <v type="int" >        4        2        9       23       24 </v>
   <v type="int" >        4        2       19       23       24 </v>
   <v type="int" >        4        2       18       19       23 </v>
   <v type="int" >        4        1        2        9       24 </v>
   <v type="int" >        4        1        2       19       24 </v>
   <v type="int" >        4        1       14       19       24 </v>
   <v type="int" >        4        3        5        6       18 </v>
   <v type="int" >        4        2        3        5       18 </v>
   <v type="int" >        4        2        5       18       19 </v>
   <v type="int" >        4        5        6       18       25 </v>
   <v type="int" >        4        5       18       20       25 </v>
   <v type="int" >        4        5       18       19       20 </v>
   <v type="int" >        4        6        6       10       25 </v>
   <v type="int" >        4        5        6        6       25 </v>
   <v type="int" >        4        5        6       20       25 </v>
   <v type="int" >        4        6       10       25       26 </v>
   <v type="int" >        4        6       21       25       26 </v>
   <v type="int" >        4        6       20       21       25 </v>
   <v type="int" >        4        7       10       11       26 </v>
   <v type="int" >        4        6        7       10       26 </v>
   <v type="int" >        4        6        7       21       26 </v>
   <v type="int" >        4        7       11       26       27 </v>
   <v type="int" >        4        7       22       26       27 </v>
   <v type="int" >        4        7       21       22       26 </v>
   <v type="int" >        4        8       11       12       27 </v>
   <v type="int" >        4        7        8       11       27 </v>
   <v type="int" >        4        7        8       22       27 </v>
   <v type="int" >        4        8       12       27       28 </v>
   <v type="int" >        4        8       23       27       28 </v>
   <v type="int" >        4        8       22       23       27 </v>
   <v type="int" >        4        8        9       12       28 </v>
   <v type="int" >        4        8        9       23       28 </v>
   <v type="int" >        4        9       23       24       28 </v>
   <v type="int" >        4        4        6        7       17 </v>
   <v type="int" >        4        3        4        6       17 </v>
   <v type="int" >        4        3        6       17       18 </v>
   <v type="int" >        4        6        7       17       29 </v>
   <v type="int" >        4        6       17       25       29 </v>
   <v type="int" >        4        6       17       18       25 </v>
   <v type="int" >        4        7       10       11       29 </v>
   <v type="int" >        4        6        7       10       29 </v>
   <v type="int" >        4        6       10       25       29 </v>
   <v type="int" >        4       10       11       29       30 </v>
   <v type="int" >        4       10       26       29       30 </v>
   <v type="int" >        4       10       25       26       29 </v>
   <v type="int" >        4       11       11       13       30 </v>
   <v type="int" >        4       10       11       11       30 </v>
   <v type="int" >        4       10       11       26       30 </v>
   <v type="int" >        4       11       13       30       31 </v>
   <v type="int" >        4       11       27       30       31 </v>
   <v type="int" >        4       11       26       27       30 </v>
   <v type="int" >        4       11       12       13       31 </v>
   <v type="int" >        4       11       12       27       31 </v>
   <v type="int" >        4       12       27       28       31 </v>
   <v type="int" >        4        3        7        8       16 </v>
   <v type="int" >        4        3        4        7       16 </v>
   <v type="int" >        4        4        7       16       17 </v>
   <v type="int" >        4        7        8       16       32 </v>
   <v type="int" >        4        7       16       29       32 </v>
   <v type="int" >        4        7       16       17       29 </v>
   <v type="int" >        4        8       11       12       32 </v>
   <v type="int" >        4        7        8       11       32 </v>
   <v type="int" >        4        7       11       29       32 </v>
   <v type="int" >        4       11       12       32       33 </v>
   <v type="int" >        4       11       30       32       33 </v>
   <v type="int" >        4       11       29       30       32 </v>
   <v type="int" >        4       11       12       13       33 </v>
   <v type="int" >        4       11       13       30       33 </v>
   <v type="int" >        4       13       30       31       33 </v>
   <v type="int" >        4        2        8        9       15 </v>
   <v type="int" >        4        2        3        8       15 </v>
   <v type="int" >        4        3        8       15       16 </v>
   <v type="int" >        4        8        9       15       34 </v>
   <v type="int" >        4        8       15       32       34 </v>
   <v type="int" >        4        8       15       16       32 </v>
   <v type="int" >        4        8        9       12       34 </v>
   <v type="int" >        4        8       12       32       34 </v>
   <v type="int" >        4       12       32       33       34 </v>
   <v type="int" >        4        1        2        9       14 </v>
   <v type="int" >        4        2        9       14       15 </v>
   <v type="int" >        4        9       14       15       34 </v>
   <v type="int" >        4       15       19       20       40 </v>
   <v type="int" >        4       14       15       19       40 </v>
   <v type="int" >        4       14       15       35       40 </v>
   <v type="int" >        4       15       20       40       41 </v>
   <v type="int" >        4       15       36       40       41 </v>
   <v type="int" >        4       15       35       36       40 </v>
   <v type="int" >        4       16       20       21       41 </v>
   <v type="int" >        4       15       16       20       41 </v>
   <v type="int" >        4       15       16       36       41 </v>
   <v type="int" >        4       16       21       41       42 </v>
   <v type="int" >        4       16       37       41       42 </v>
   <v type="int" >        4       16       36       37       41 </v>
   <v type="int" >        4       17       21       22       42 </v>
   <v type="int" >        4       16       17       21       42 </v>
   <v type="int" >        4       16       17       37       42 </v>
   <v type="int" >        4       17       22       42       43 </v>
   <v type="int" >        4       17       38       42       43 </v>
   <v type="int" >        4       17       37       38       42 </v>
   <v type="int" >        4       18       22       23       43 </v>
   <v type="int" >        4       17       18       22       43 </v>
   <v type="int" >        4       17       18       38       43 </v>
   <v type="int" >        4       18       23       43       44 </v>
   <v type="int" >        4       18       39       43       44 </v>
   <v type="int" >        4       18       38       39       43 </v>
   <v type="int" >        4       19       23       24       44 </v>
   <v type="int" >        4       18       19       23       44 </v>
   <v type="int" >        4       18       19       39       44 </v>
   <v type="int" >        4       19       24       44       45 </v>
   <v type="int" >        4       19       40       44       45 </v>
   <v type="int" >        4       19       39       40       44 </v>
   <v type="int" >        4       14       19       24       45 </v>
   <v type="int" >        4       14       19       40       45 </v>
   <v type="int" >        4       14       35       40       45 </v>
   <v type="int" >        4       18       20       25       39 </v>
   <v type="int" >        4       18       19       20       39 </v>
   <v type="int" >        4       19       20       39       40 </v>
   <v type="int" >        4       20       25       39       46 </v>
   <v type="int" >        4       20       39       41       46 </v>
   <v type="int" >        4       20       39       40       41 </v>
   <v type="int" >        4       21       25       26       46 </v>
   <v type="int" >        4       20       21       25       46 </v>
   <v type="int" >        4       20       21       41       46 </v>
   <v type="int" >        4       21       26       46       47 </v>
   <v type="int" >        4       21       42       46       47 </v>
   <v type="int" >        4       21       41       42       46 </v>
   <v type="int" >        4       22       26       27       47 </v>
   <v type="int" >        4       21       22       26       47 </v>
   <v type="int" >        4       21       22       42       47 </v>
   <v type="int" >        4       22       27       47       48 </v>
   <v type="int" >        4       22       43       47       48 </v>
   <v type="int" >        4       22       42       43       47 </v>
   <v type="int" >        4       23       27       28       48 </v>
   <v type="int" >        4       22       23       27       48 </v>
   <v type="int" >        4       22       23       43       48 </v>
   <v type="int" >        4       23       28       48       49 </v>
   <v type="int" >        4       23       44       48       49 </v>
   <v type="int" >        4       23       43       44       48 </v>
   <v type="int" >        4       23       24       28       49 </v>
   <v type="int" >        4       23       24       44       49 </v>
   <v type="int" >        4       24       44       45       49 </v>
   <v type="int" >        4       17       25       29       38 </v>
   <v type="int" >        4       17       18       25       38 </v>
   <v type="int" >        4       18       25       38       39 </v>
   <v type="int" >        4       25       29       38       50 </v>
   <v type="int" >        4       25       38       46       50 </v>
   <v type="int" >        4       25       38       39       46 </v>
   <v type="int" >        4       26       29       30       50 </v>
   <v type="int" >        4       25       26       29       50 </v>
   <v type="int" >        4       25       26       46       50 </v>
   <v type="int" >        4       26       30       50       51 </v>
   <v type="int" >        4       26       47       50       51 </v>
   <v type="int" >        4       26       46       47       50 </v>
   <v type="int" >        4       27       30       31       51 </v>
   <v type="int" >        4       26       27       30       51 </v>
   <v type="int" >        4       26       27       47       51 </v>
   <v type="int" >        4       27       31       51       52 </v>
   <v type="int" >        4       27       48       51       52 </v>
   <v type="int" >        4       27       47       48       51 </v>
   <v type="int" >        4       27       28       31       52 </v>
   <v type="int" >        4       27       28       48       52 </v>
   <v type="int" >        4       28       48       49       52 </v>
   <v type="int" >        4       16       29       32       37 </v>
   <v type="int" >        4       16       17       29       37 </v>
   <v type="int" >        4       17       29       37       38 </v>
   <v type="int" >        4       29       32       37       53 </v>
   <v type="int" >        4       29       37       50       53 </v>
   <v type="int" >        4       29       37       38       50 </v>
   <v type="int" >        4       30       32       33       53 </v>
   <v type="int" >        4       29       30       32       53 </v>
   <v type="int" >        4       29       30       50       53 </v>
   <v type="int" >        4       30       33       53       54 </v>
   <v type="int" >        4       30       51       53       54 </v>
   <v type="int" >        4       30       50       51       53 </v>
   <v type="int" >        4       30       31       33       54 </v>
   <v type="int" >        4       30       31       51       54 </v>
   <v type="int" >        4       31       51       52       54 </v>
   <v type="int" >        4       15       32       34       36 </v>
   <v type="int" >        4       15       16       32       36 </v>
   <v type="int" >        4       16       32       36       37 </v>
   <v type="int" >        4       32       34       36       55 </v>
   <v type="int" >        4       32       36       53       55 </v>
   <v type="int" >        4       32       36       37       53 </v>
   <v type="int" >        4       32       33       34       55 </v>
   <v type="int" >        4       32       33       53       55 </v>
   <v type="int" >        4       33       53       54       55 </v>
   <v type="int" >        4       14       15       34       35 </v>
   <v type="int" >        4       15       34       35       36 </v>
   <v type="int" >        4       34       35       36       55 </v>
   <v type="int" >        4       36       36       40       41 </v>
   <v type="int" >        4       35       36       36       40 </v>
   <v type="int" >        2       35       35       36       36 </v>
   <v type="int" >        2       36       36       41       41 </v>
   <v type="int" >        4       37       41       41       42 </v>
   <v type="int" >        4       36       37       41       41 </v>
   <v type="int" >        4       36       37       40       41 </v>
   <v type="int" >        4       37       41       42       46 </v>
   <v type="int" >        4       37       39       41       46 </v>
   <v type="int" >        4       37       39       40       41 </v>
   <v type="int" >        4       38       42       43       46 </v>
   <v type="int" >        4       37       38       42       46 </v>
   <v type="int" >        4       37       38       39       46 </v>
   <v type="int" >        4       38       43       46       50 </v>
   <v type="int" >        4       38       38       46       50 </v>
   <v type="int" >        4       38       38       39       46 </v>
   <v type="int" >        4       39       43       44       50 </v>
   <v type="int" >        4       38       39       43       50 </v>
   <v type="int" >        4       38       38       39       50 </v>
   <v type="int" >        4       39       44       50       53 </v>
   <v type="int" >        4       37       39       50       53 </v>
   <v type="int" >        4       37       38       39       50 </v>
   <v type="int" >        4       40       44       45       53 </v>
   <v type="int" >        4       39       40       44       53 </v>
   <v type="int" >        4       37       39       40       53 </v>
   <v type="int" >        4       40       45       53       55 </v>
   <v type="int" >        4       36       40       53       55 </v>
   <v type="int" >        4       36       37       40       53 </v>
   <v type="int" >        4       35       40       45       55 </v>
   <v type="int" >        4       35       36       40       55 </v>
   <v type="int" >        4       35       35       36       55 </v>
   <v type="int" >        4       42       42       46       47 </v>
   <v type="int" >        4       41       42       42       46 </v>
   <v type="int" >        2       41       41       42       42 </v>
   <v type="int" >        2       42       42       47       47 </v>
   <v type="int" >        4       43       47       47       48 </v>
   <v type="int" >        4       42       43       47       47 </v>
   <v type="int" >        4       42       43       46       47 </v>
   <v type="int" >        4       43       47       48       51 </v>
   <v type="int" >        4       43       47       50       51 </v>
   <v type="int" >        4       43       46       47       50 </v>
   <v type="int" >        4       44       48       49       51 </v>
   <v type="int" >        4       43       44       48       51 </v>
   <v type="int" >        4       43       44       50       51 </v>
   <v type="int" >        4       44       49       51       54 </v>
   <v type="int" >        4       44       51       53       54 </v>
   <v type="int" >        4       44       50       51       53 </v>
   <v type="int" >        4       44       45       49       54 </v>
   <v type="int" >        4       44       45       53       54 </v>
   <v type="int" >        4       45       53       54       55 </v>
   <v type="int" >        4       48       48       51       52 </v>
   <v type="int" >        4       47       48       48       51 </v>
   <v type="int" >        2       47       47       48       48 </v>
   <v type="int" >        2       48       48       52       52 </v>
   <v type="int" >        4       48       49       52       52 </v>
   <v type="int" >        4       48       49       51       52 </v>
   <v type="int" >        4       49       51       52       54 </v>
  </varray>
  <i name="volumeweight">      0.00092593 </i>
 </kpoints>
 <parameters>
  <separator name="general" >
   <i type="string" name="SYSTEM">unknown system</i>
   <i type="logical" name="LCOMPAT"> F  </i>
  </separator>
  <separator name="electronic" >
   <i type="string" name="PREC">normal</i>
   <i name="ENMAX">    700.00000000</i>
   <i name="ENAUG">    605.39200000</i>
   <i name="EDIFF">      0.00001000</i>
   <i type="int" name="IALGO">    68</i>
   <i type="int" name="IWAVPR">    10</i>
   <i type="int" name="NBANDS">    29</i>
   <i name="NELECT">     48.00000000</i>
   <i type="int" name="TURBO">     0</i>
   <i type="int" name="IRESTART">     0</i>
   <i type="int" name="NREBOOT">     0</i>
   <i type="int" name="NMIN">     0</i>
   <i name="EREF">      0.00000000</i>
   <separator name="electronic smearing" >
    <i type="int" name="ISMEAR">    -5</i>
    <i name="SIGMA">      0.20000000</i>
    <i name="KSPACING">      0.50000000</i>
    <i type="logical" name="KGAMMA"> T  </i>
   </separator>
   <separator name="electronic projectors" >
    <i type="logical" name="LREAL"> T  </i>
    <v name="ROPT">     -0.00050000     -0.00050000</v>
    <i type="int" name="LMAXPAW">  -100</i>
    <i type="int" name="LMAXMIX">     2</i>
    <i type="logical" name="NLSPLINE"> F  </i>
   </separator>
   <separator name="electronic startup" >
    <i type="int" name="ISTART">     0</i>
    <i type="int" name="ICHARG">     2</i>
    <i type="int" name="INIWAV">     1</i>
   </separator>
   <separator name="electronic spin" >
    <i type="int" name="ISPIN">     1</i>
    <i type="logical" name="LNONCOLLINEAR"> F  </i>
    <v name="MAGMOM">      1.00000000      1.00000000      1.00000000      1.00000000      1.00000000      1.00000000      1.00000000      1.00000000      1.00000000</v>
    <i name="NUPDOWN">     -1.00000000</i>
    <i type="logical" name="LSORBIT"> F  </i>
    <v name="SAXIS">      0.00000000      0.00000000      1.00000000</v>
    <i type="logical" name="LSPIRAL"> F  </i>
    <v name="QSPIRAL">      0.00000000      0.00000000      0.00000000</v>
    <i type="logical" name="LZEROZ"> F  </i>
   </separator>
   <separator name="electronic exchange-correlation" >
    <i type="logical" name="LASPH"> F  </i>
    <i type="logical" name="LMETAGGA"> F  </i>
   </separator>
   <separator name="electronic convergence" >
    <i type="int" name="NELM">    60</i>
    <i type="int" name="NELMDL">    -5</i>
    <i type="int" name="NELMIN">     4</i>
    <i name="ENINI">    700.00000000</i>
    <separator name="electronic convergence detail" >
     <i type="logical" name="LDIAG"> T  </i>
     <i type="logical" name="LSUBROT"> F  </i>
     <i name="WEIMIN">      0.00000000</i>
     <i name="EBREAK">      0.00000009</i>
     <i name="DEPER">      0.30000000</i>
     <i type="int" name="NRMM">     4</i>
     <i name="TIME">      0.40000000</i>
    </separator>
   </separator>
   <separator name="electronic mixer" >
    <i name="AMIX">      0.40000000</i>
    <i name="BMIX">      1.00000000</i>
    <i name="AMIN">      0.10000000</i>
    <i name="AMIX_MAG">      1.60000000</i>
    <i name="BMIX_MAG">      1.00000000</i>
    <separator name="electronic mixer details" >
     <i type="int" name="IMIX">     4</i>
     <i type="logical" name="MIXFIRST"> F  </i>
     <i type="int" name="MAXMIX">   -45</i>
     <i name="WC">    100.00000000</i>
     <i type="int" name="INIMIX">     1</i>
     <i type="int" name="MIXPRE">     1</i>
     <i type="int" name="MREMOVE">     5</i>
    </separator>
   </separator>
   <separator name="electronic dipolcorrection" >
    <i type="logical" name="LDIPOL"> F  </i>
    <i type="logical" name="LMONO"> F  </i>
    <i type="int" name="IDIPOL">     0</i>
    <i name="EPSILON">      1.00000000</i>
    <v name="DIPOL">   -100.00000000   -100.00000000   -100.00000000</v>
    <i name="EFIELD">      0.00000000</i>
   </separator>
  </separator>
  <separator name="grids" >
   <i type="int" name="NGX">    32</i>
   <i type="int" name="NGY">    32</i>
   <i type="int" name="NGZ">    36</i>
   <i type="int" name="NGXF">    64</i>
   <i type="int" name="NGYF">    64</i>
   <i type="int" name="NGZF">    72</i>
   <i type="logical" name="ADDGRID"> F  </i>
  </separator>
  <separator name="ionic" >
   <i type="int" name="NSW">     0</i>
   <i type="int" name="IBRION">    -1</i>
   <i type="int" name="ISIF">     2</i>
   <i name="PSTRESS">      0.00000000</i>
   <i name="EDIFFG">      0.00010000</i>
   <i type="int" name="NFREE">     0</i>
   <i name="POTIM">      0.50000000</i>
   <i name="SMASS">     -3.00000000</i>
   <i name="SCALEE">      1.00000000</i>
  </separator>
  <separator name="ionic md" >
   <i name="TEBEG">      0.00010000</i>
   <i name="TEEND">      0.00010000</i>
   <i type="int" name="NBLOCK">     1</i>
   <i type="int" name="KBLOCK">     1</i>
   <i type="int" name="NPACO">   256</i>
   <i name="APACO">     16.00000000</i>
  </separator>
  <separator name="symmetry" >
   <i type="int" name="ISYM">     2</i>
   <i name="SYMPREC">      0.00001000</i>
  </separator>
  <separator name="dos" >
   <i type="logical" name="LORBIT"> F  </i>
   <v name="RWIGS">     -1.00000000     -1.00000000</v>
   <i type="int" name="NEDOS">   301</i>
   <i name="EMIN">     10.00000000</i>
   <i name="EMAX">    -10.00000000</i>
   <i name="EFERMI">      0.00000000</i>
  </separator>
  <separator name="writing" >
   <i type="int" name="NWRITE">     2</i>
   <i type="logical" name="LWAVE"> F  </i>
   <i type="logical" name="LCHARG"> T  </i>
   <i type="logical" name="LPARD"> F  </i>
   <i type="logical" name="LVTOT"> F  </i>
   <i type="logical" name="LVHAR"> F  </i>
   <i type="logical" name="LELF"> F  </i>
   <i type="logical" name="LOPTICS"> F  </i>
   <v name="STM">      0.00000000      0.00000000      0.00000000      0.00000000      0.00000000      0.00000000      0.00000000</v>
  </separator>
  <separator name="performance" >
   <i type="int" name="NPAR">     1</i>
   <i type="int" name="NSIM">     4</i>
   <i type="int" name="NBLK">    -1</i>
   <i type="logical" name="LPLANE"> T  </i>
   <i type="logical" name="LSCALAPACK"> F  </i>
   <i type="logical" name="LSCAAWARE"> F  </i>
   <i type="logical" name="LSCALU"> F  </i>
   <i type="logical" name="LASYNC"> F  </i>
   <i type="logical" name="LORBITALREAL"> F  </i>
  </separator>
  <separator name="miscellaneous" >
   <i type="int" name="IDIOT">     3</i>
   <i type="logical" name="LMUSIC"> F  </i>
   <v name="POMASS">     28.08500000     16.00000000</v>
   <v name="DARWINR">      0.00000000      0.00000000</v>
   <v name="DARWINV">      1.00000000      1.00000000</v>
   <i type="logical" name="LCORR"> T  </i>
  </separator>
  <i type="logical" name="GGA_COMPAT"> T  </i>
  <i type="logical" name="LBERRY"> F  </i>
  <i type="int" name="ICORELEVEL">     0</i>
  <i type="logical" name="LDAU"> F  </i>
  <i type="int" name="I_CONSTRAINED_M">     0</i>
  <separator name="electronic exchange-correlation" >
   <i type="string" name="GGA">--</i>
   <i type="int" name="VOSKOWN">     0</i>
   <i type="logical" name="LHFCALC"> F  </i>
   <i type="string" name="PRECFOCK"></i>
   <i type="logical" name="LSYMGRAD"> F  </i>
   <i type="logical" name="LHFONE"> F  </i>
   <i type="logical" name="LRHFCALC"> F  </i>
   <i type="logical" name="LTHOMAS"> F  </i>
   <i type="logical" name="LMODELHF"> F  </i>
   <i name="ENCUT4O">     -1.00000000</i>
   <i type="int" name="EXXOEP">     0</i>
   <i type="int" name="FOURORBIT">     0</i>
   <i name="AEXX">      0.00000000</i>
   <i name="HFALPHA">      0.00000000</i>
   <i name="MCALPHA">      0.00000000</i>
   <i name="ALDAX">      1.00000000</i>
   <i name="AGGAX">      1.00000000</i>
   <i name="ALDAC">      1.00000000</i>
   <i name="AGGAC">      1.00000000</i>
   <i type="int" name="NKREDX">     1</i>
   <i type="int" name="NKREDY">     1</i>
   <i type="int" name="NKREDZ">     1</i>
   <i type="logical" name="SHIFTRED"> F  </i>
   <i type="logical" name="ODDONLY"> F  </i>
   <i type="logical" name="EVENONLY"> F  </i>
   <i type="int" name="LMAXFOCK">     0</i>
   <i type="int" name="NMAXFOCKAE">     0</i>
   <i type="logical" name="LFOCKAEDFT"> F  </i>
   <i name="HFSCREEN">      0.00000000</i>
   <i name="HFSCREENC">      0.00000000</i>
   <i type="int" name="NBANDSGWLOW">     0</i>
  </separator>
  <separator name="vdW DFT" >
   <i type="logical" name="LUSE_VDW"> F  </i>
   <i name="Zab_VDW">     -0.84910000</i>
   <i name="PARAM1">      0.12340000</i>
   <i name="PARAM2">      1.00000000</i>
   <i name="PARAM3">      0.00000000</i>
  </separator>
  <separator name="model GW" >
   <i type="int" name="MODEL_GW">     0</i>
   <i name="MODEL_EPS0">      7.53464495</i>
   <i name="MODEL_ALPHA">      1.00000000</i>
  </separator>
  <separator name="linear response parameters" >
   <i type="logical" name="LEPSILON"> F  </i>
   <i type="logical" name="LRPA"> F  </i>
   <i type="logical" name="LNABLA"> F  </i>
   <i type="logical" name="LVEL"> F  </i>
   <i type="int" name="KINTER">     0</i>
   <i name="CSHIFT">      0.10000000</i>
   <i name="OMEGAMAX">     -1.00000000</i>
   <i name="DEG_THRESHOLD">      0.00200000</i>
  </separator>
  <separator name="orbital magnetization" >
   <i type="logical" name="NUCIND"> F  </i>
   <v name="MAGPOS">      0.00000000      0.00000000      0.00000000</v>
   <i type="logical" name="LNICSALL"> T  </i>
   <i type="logical" name="ORBITALMAG"> F  </i>
   <i type="logical" name="LMAGBLOCH"> F  </i>
   <i type="logical" name="LCHIMAG"> F  </i>
   <i type="logical" name="LGAUGE"> T  </i>
   <i type="int" name="MAGATOM">     0</i>
   <v name="MAGDIPOL">      0.00000000      0.00000000      0.00000000</v>
   <v name="AVECCONST">      0.00000000      0.00000000      0.00000000</v>
  </separator>
  <separator name="response functions" >
   <i type="logical" name="LADDER"> F  </i>
   <i type="logical" name="LFXC"> F  </i>
   <i type="logical" name="LHARTREE"> T  </i>
   <i type="int" name="IBSE">     0</i>
   <v type="int" name="KPOINT">    -1     0     0     0</v>
   <i type="logical" name="LTCTE"> F  </i>
   <i type="logical" name="LTETE"> F  </i>
   <i type="logical" name="LTRIPLET"> F  </i>
   <i type="logical" name="LFXCEPS"> F  </i>
   <i type="logical" name="LFXHEG"> F  </i>
   <i type="int" name="NATURALO">     0</i>
   <i type="logical" name="L2ORDER"> F  </i>
   <i type="logical" name="LUSEW"> F  </i>
   <i name="ENCUTGW">     -2.00000000</i>
   <i name="ENCUTGWSOFT">     -2.00000000</i>
   <i name="ENCUTLF">     -1.00000000</i>
   <i type="int" name="LMAXMP2">    -1</i>
   <i name="SCISSOR">      0.00000000</i>
   <i type="int" name="NOMEGA">     0</i>
   <i type="int" name="NOMEGAR">     0</i>
   <i type="int" name="NBANDSGW">    -1</i>
   <i type="int" name="NBANDSO">    -1</i>
   <i type="int" name="NBANDSV">    -1</i>
   <i type="int" name="NELM">     1</i>
   <i type="int" name="NELMHF">     1</i>
   <i type="int" name="DIM">     3</i>
   <i type="int" name="ANTIRES">     0</i>
   <i name="OMEGAMAX">    -30.00000000</i>
   <i name="OMEGAMIN">    -30.00000000</i>
   <i name="OMEGATL">   -200.00000000</i>
   <i type="int" name="OMEGAGRID">     0</i>
   <i name="CSHIFT">     -0.10000000</i>
   <i type="logical" name="SELFENERGY"> F  </i>
   <i type="logical" name="LSPECTRAL"> F  </i>
   <i type="logical" name="LSPECTRALGW"> F  </i>
   <i type="logical" name="LSINGLES"> F  </i>
   <i type="logical" name="LFERMIGW"> F  </i>
   <i type="logical" name="ODDONLYGW"> F  </i>
   <i type="logical" name="EVENONLYGW"> F  </i>
   <i type="int" name="NKREDLFX">     1</i>
   <i type="int" name="NKREDLFY">     1</i>
   <i type="int" name="NKREDLFZ">     1</i>
   <i type="int" name="MAXMEM">  1800</i>
   <i type="int" name="TELESCOPE">     0</i>
   <i type="int" name="TAUPAR">     1</i>
   <i type="int" name="OMEGAPAR">    -1</i>
   <i name="LAMBDA">      1.00000000</i>
  </separator>
  <separator name="External order field" >
   <i name="OFIELD_KAPPA">      0.00000000</i>
   <v name="OFIELD_K">      0.00000000      0.00000000      0.00000000</v>
   <i name="OFIELD_Q6_NEAR">      0.00000000</i>
   <i name="OFIELD_Q6_FAR">      0.00000000</i>
   <i name="OFIELD_A">      0.00000000</i>
  </separator>
 </parameters>
 <atominfo>
  <atoms>       9 </atoms>
  <types>       2 </types>
  <array name="atoms" >
   <dimension dim="1">ion</dimension>
   <field type="string">element</field>
   <field type="int">atomtype</field>
   <set>
    <rc><c>Si</c><c>   1</c></rc>
    <rc><c>Si</c><c>   1</c></rc>
    <rc><c>Si</c><c>   1</c></rc>
    <rc><c>O </c><c>   2</c></rc>
    <rc><c>O </c><c>   2</c></rc>
    <rc><c>O </c><c>   2</c></rc>
    <rc><c>O </c><c>   2</c></rc>
    <rc><c>O </c><c>   2</c></rc>
    <rc><c>O </c><c>   2</c></rc>
   </set>
  </array>
  <array name="atomtypes" >
   <dimension dim="1">type</dimension>
   <field type="int">atomspertype</field>
   <field type="string">element</field>
   <field>mass</field>
   <field>valence</field>
   <field type="string">pseudopotential</field>
   <set>
    <rc><c>   3</c><c>Si</c><c>     28.08500000</c><c>      4.00000000</c><c> PAW_PBE Si 05Jan2001                   </c></rc>
    <rc><c>   6</c><c>O </c><c>     16.00000000</c><c>      6.00000000</c><c> PAW_PBE O 08Apr2002                    </c></rc>
   </set>
  </array>
 </atominfo>
 <structure name="initialpos" >
  <crystal>
   <varray name="basis" >
    <v>       4.91370000       0.00000000       0.00000000 </v>
    <v>      -2.45685000       4.25538903       0.00000000 </v>
    <v>       0.00000000       0.00000000       5.40513000 </v>
   </varray>
   <i name="volume">    113.01967420 </i>
   <varray name="rec_basis" >
    <v>       0.20351263       0.11749807       0.00000000 </v>
    <v>       0.00000000       0.23499614       0.00000000 </v>
    <v>       0.00000000       0.00000000       0.18500943 </v>
   </varray>
  </crystal>
  <varray name="positions" >
   <v>       0.46980000       0.00000000       0.66667000 </v>
   <v>       0.00000000       0.46980000       0.33333000 </v>
   <v>       0.53020000       0.53020000       0.00000000 </v>
   <v>       0.41450000       0.26620000       0.78560000 </v>
   <v>       0.73380000       0.14830000       0.45227000 </v>
   <v>       0.85170000       0.58550000       0.11893000 </v>
   <v>       0.14830000       0.73380000       0.54773000 </v>
   <v>       0.26620000       0.41450000       0.21440000 </v>
   <v>       0.58550000       0.85170000       0.88107000 </v>
  </varray>
 </structure>
 <calculation>
  <scstep>
   <time name="dav">   10.10   10.10</time>
   <time name="total">   10.31   10.34</time>
   <energy>
    <i name="alphaZ">     69.72802778 </i>
    <i name="ewald">  -1887.20590689 </i>
    <i name="hartreedc">   -937.14514243 </i>
    <i name="XCdc">    142.01294183 </i>
    <i name="pawpsdc">   1574.92322788 </i>
    <i name="pawaedc">  -1533.24131965 </i>
    <i name="eentropy">      0.00000000 </i>
    <i name="bandstr">     33.46180258 </i>
    <i name="atom">   2903.41811360 </i>
    <i name="e_fr_energy">    365.95174471 </i>
    <i name="e_wo_entrp">    365.95174471 </i>
    <i name="e_0_energy">    365.95174471 </i>
   </energy>
  </scstep>
  <scstep>
   <time name="dav">   12.37   12.37</time>
   <time name="total">   12.38   12.38</time>
   <energy>
    <i name="e_fr_energy">    -56.67361929 </i>
    <i name="e_wo_entrp">    -56.67361929 </i>
    <i name="e_0_energy">    -56.67361929 </i>
   </energy>
  </scstep>
  <scstep>
   <time name="dav">   11.02   11.02</time>
   <time name="total">   11.03   11.04</time>
   <energy>
    <i name="e_fr_energy">    -80.32755554 </i>
    <i name="e_wo_entrp">    -80.32755554 </i>
    <i name="e_0_energy">    -80.32755554 </i>
   </energy>
  </scstep>
  <scstep>
   <time name="dav">   11.15   11.15</time>
   <time name="total">   11.15   11.16</time>
   <energy>
    <i name="e_fr_energy">    -80.65092270 </i>
    <i name="e_wo_entrp">    -80.65092270 </i>
    <i name="e_0_energy">    -80.65092270 </i>
   </energy>
  </scstep>
  <scstep>
   <time name="dav">   10.51   10.51</time>
   <time name="total">   11.29   11.29</time>
   <energy>
    <i name="e_fr_energy">    -80.65702388 </i>
    <i name="e_wo_entrp">    -80.65702388 </i>
    <i name="e_0_energy">    -80.65702388 </i>
   </energy>
  </scstep>
  <scstep>
   <time name="diag">    1.83    1.83</time>
   <time name="diis">    6.16    6.15</time>
   <time name="orth">    0.19    0.19</time>
   <time name="total">    9.05    9.06</time>
   <energy>
    <i name="e_fr_energy">    -71.05107548 </i>
    <i name="e_wo_entrp">    -71.05107548 </i>
    <i name="e_0_energy">    -71.05107548 </i>
   </energy>
  </scstep>
  <scstep>
   <time name="diag">    1.81    1.81</time>
   <time name="diis">    6.94    6.94</time>
   <time name="orth">    0.20    0.20</time>
   <time name="total">    9.84    9.85</time>
   <energy>
    <i name="e_fr_energy">    -71.03341917 </i>
    <i name="e_wo_entrp">    -71.03341917 </i>
    <i name="e_0_energy">    -71.03341917 </i>
   </energy>
  </scstep>
  <scstep>
   <time name="diag">    1.89    1.89</time>
   <time name="diis">    7.04    7.03</time>
   <time name="orth">    0.19    0.19</time>
   <time name="total">   10.01   10.01</time>
   <energy>
    <i name="e_fr_energy">    -71.04954682 </i>
    <i name="e_wo_entrp">    -71.04954682 </i>
    <i name="e_0_energy">    -71.04954682 </i>
   </energy>
  </scstep>
  <scstep>
   <time name="diag">    1.87    1.87</time>
   <time name="diis">    7.17    7.16</time>
   <time name="orth">    0.20    0.20</time>
   <time name="total">   10.14   10.14</time>
   <energy>
    <i name="e_fr_energy">    -71.04157782 </i>
    <i name="e_wo_entrp">    -71.04157782 </i>
    <i name="e_0_energy">    -71.04157782 </i>
   </energy>
  </scstep>
  <scstep>
   <time name="diag">    1.84    1.84</time>
   <time name="diis">    6.87    6.87</time>
   <time name="orth">    0.19    0.19</time>
   <time name="total">    9.77    9.78</time>
   <energy>
    <i name="e_fr_energy">    -71.04496159 </i>
    <i name="e_wo_entrp">    -71.04496159 </i>
    <i name="e_0_energy">    -71.04496159 </i>
   </energy>
  </scstep>
  <scstep>
   <time name="diag">    1.80    1.79</time>
   <time name="diis">    6.92    6.92</time>
   <time name="orth">    0.19    0.19</time>
   <time name="total">    9.77    9.77</time>
   <energy>
    <i name="e_fr_energy">    -71.04344136 </i>
    <i name="e_wo_entrp">    -71.04344136 </i>
    <i name="e_0_energy">    -71.04344136 </i>
   </energy>
  </scstep>
  <scstep>
   <time name="diag">    1.86    1.87</time>
   <time name="diis">    7.12    7.12</time>
   <time name="orth">    0.19    0.19</time>
   <time name="total">   10.05   10.06</time>
   <energy>
    <i name="e_fr_energy">    -71.04338433 </i>
    <i name="e_wo_entrp">    -71.04338433 </i>
    <i name="e_0_energy">    -71.04338433 </i>
   </energy>
  </scstep>
  <scstep>
   <time name="diag">    1.84    1.84</time>
   <time name="diis">    5.57    5.57</time>
   <time name="orth">    0.19    0.19</time>
   <time name="total">    7.79    7.79</time>
   <energy>
    <i name="alphaZ">     69.72802778 </i>
    <i name="ewald">  -1887.20590689 </i>
    <i name="hartreedc">  -1071.51884527 </i>
    <i name="XCdc">    151.13172565 </i>
    <i name="pawpsdc">   2051.88465519 </i>
    <i name="pawaedc">  -2012.55601966 </i>
    <i name="eentropy">      0.00000000 </i>
    <i name="bandstr">   -275.92513756 </i>
    <i name="atom">   2903.41811360 </i>
    <i name="e_fr_energy">    -71.04338715 </i>
    <i name="e_wo_entrp">    -71.04338715 </i>
    <i name="e_0_energy">    -71.04338715 </i>
   </energy>
  </scstep>
  <structure>
   <crystal>
    <varray name="basis" >
     <v>       4.91370000       0.00000000       0.00000000 </v>
     <v>      -2.45685000       4.25538903       0.00000000 </v>
     <v>       0.00000000       0.00000000       5.40513000 </v>
    </varray>
    <i name="volume">    113.01967420 </i>
    <varray name="rec_basis" >
     <v>       0.20351263       0.11749807       0.00000000 </v>
     <v>       0.00000000       0.23499614       0.00000000 </v>
     <v>       0.00000000       0.00000000       0.18500943 </v>
    </varray>
   </crystal>
   <varray name="positions" >
    <v>       0.46980000       0.00000000       0.66667000 </v>
    <v>       0.00000000       0.46980000       0.33333000 </v>
    <v>       0.53020000       0.53020000       0.00000000 </v>
    <v>       0.41450000       0.26620000       0.78560000 </v>
    <v>       0.73380000       0.14830000       0.45227000 </v>
    <v>       0.85170000       0.58550000       0.11893000 </v>
    <v>       0.14830000       0.73380000       0.54773000 </v>
    <v>       0.26620000       0.41450000       0.21440000 </v>
    <v>       0.58550000       0.85170000       0.88107000 </v>
   </varray>
  </structure>
  <varray name="forces" >
   <v>       0.41863395      -0.00040951      -0.00052585 </v>
   <v>      -0.20967163       0.36234288       0.00052585 </v>
   <v>      -0.20952287      -0.36290426       0.00000000 </v>
   <v>      -0.51123348       0.27076413       0.07290675 </v>
   <v>       0.02133338      -0.57751457       0.07253412 </v>
   <v>       0.49019598       0.30722687       0.07282636 </v>
   <v>      -0.51080898      -0.27028204      -0.07253412 </v>
   <v>       0.49010536      -0.30735911      -0.07290675 </v>
   <v>       0.02096828       0.57813561      -0.07282636 </v>
  </varray>
  <varray name="stress" >
   <v>      83.90150582      -0.01959840      -0.00192046 </v>
   <v>      -0.01959840      83.87887566       0.00110878 </v>
   <v>      -0.00192039       0.00110874      70.18287381 </v>
  </varray>
  <energy>
   <i name="e_fr_energy">    -71.04338715 </i>
   <i name="e_wo_entrp">    -71.04338715 </i>
   <i name="e_0_energy">      0.00000000 </i>
  </energy>
  <time name="totalsc">  145.31  145.50</time>
  <eigenvalues>
   <array>
    <dimension dim="1">band</dimension>
    <dimension dim="2">kpoint</dimension>
    <dimension dim="3">spin</dimension>
    <field>eigene</field>
    <field>occ</field>
    <set>
     <set comment="spin 1">
      <set comment="kpoint 1">
       <r>  -18.3723    1.0000 </r>
       <r>  -16.8357    1.0000 </r>
       <r>  -16.8356    1.0000 </r>
       <r>  -16.2010    1.0000 </r>
       <r>  -16.1530    1.0000 </r>
       <r>  -16.1529    1.0000 </r>
       <r>   -7.1756    1.0000 </r>
       <r>   -7.1755    1.0000 </r>
       <r>   -4.3356    1.0000 </r>
       <r>   -4.3297    1.0000 </r>
       <r>   -4.1775    1.0000 </r>
       <r>   -4.1774    1.0000 </r>
       <r>   -1.8592    1.0000 </r>
       <r>   -1.8591    1.0000 </r>
       <r>   -1.6219    1.0000 </r>
       <r>   -1.3617    1.0000 </r>
       <r>   -0.4112    1.0000 </r>
       <r>   -0.4112    1.0000 </r>
       <r>   -0.3932    1.0000 </r>
       <r>    0.1099    1.0000 </r>
       <r>    0.1100    1.0000 </r>
       <r>    0.4193    1.0000 </r>
       <r>    0.7596    1.0000 </r>
       <r>    0.7597    1.0000 </r>
       <r>    7.1209    0.0000 </r>
       <r>   10.3985    0.0000 </r>
       <r>   10.3986    0.0000 </r>
       <r>   10.9004    0.0000 </r>
       <r>   10.9004    0.0000 </r>
      </set>
      <set comment="kpoint 2">
       <r>  -18.2908    1.0000 </r>
       <r>  -16.9299    1.0000 </r>
       <r>  -16.8237    1.0000 </r>
       <r>  -16.2206    1.0000 </r>
       <r>  -16.1701    1.0000 </r>
       <r>  -16.1594    1.0000 </r>
       <r>   -7.2131    1.0000 </r>
       <r>   -6.9940    1.0000 </r>
       <r>   -4.3756    1.0000 </r>
       <r>   -4.3496    1.0000 </r>
       <r>   -4.2782    1.0000 </r>
       <r>   -4.0168    1.0000 </r>
       <r>   -1.9843    1.0000 </r>
       <r>   -1.7994    1.0000 </r>
       <r>   -1.5917    1.0000 </r>
       <r>   -1.1953    1.0000 </r>
       <r>   -0.6847    1.0000 </r>
       <r>   -0.4500    1.0000 </r>
       <r>   -0.4046    1.0000 </r>
       <r>    0.0472    1.0000 </r>
       <r>    0.0999    1.0000 </r>
       <r>    0.3170    1.0000 </r>
       <r>    0.8230    1.0000 </r>
       <r>    0.8567    1.0000 </r>
       <r>    7.5430    0.0000 </r>
       <r>   10.3852    0.0000 </r>
       <r>   10.4454    0.0000 </r>
       <r>   10.9354    0.0000 </r>
       <r>   11.0439    0.0000 </r>
      </set>
      <set comment="kpoint 3">
       <r>  -18.0719    1.0000 </r>
       <r>  -17.1891    1.0000 </r>
       <r>  -16.7982    1.0000 </r>
       <r>  -16.2437    1.0000 </r>
       <r>  -16.1985    1.0000 </r>
       <r>  -16.1786    1.0000 </r>
       <r>   -7.2848    1.0000 </r>
       <r>   -6.5744    1.0000 </r>
       <r>   -4.6315    1.0000 </r>
       <r>   -4.3833    1.0000 </r>
       <r>   -4.3014    1.0000 </r>
       <r>   -3.7145    1.0000 </r>
       <r>   -2.0668    1.0000 </r>
       <r>   -1.6910    1.0000 </r>
       <r>   -1.5664    1.0000 </r>
       <r>   -1.1994    1.0000 </r>
       <r>   -1.0004    1.0000 </r>
       <r>   -0.5811    1.0000 </r>
       <r>   -0.4893    1.0000 </r>
       <r>   -0.0040    1.0000 </r>
       <r>    0.0652    1.0000 </r>
       <r>    0.2682    1.0000 </r>
       <r>    0.8510    1.0000 </r>
       <r>    1.0002    1.0000 </r>
       <r>    8.5418    0.0000 </r>
       <r>   10.4286    0.0000 </r>
       <r>   10.5574    0.0000 </r>
       <r>   11.0752    0.0000 </r>
       <r>   11.3968    0.0000 </r>
      </set>
      <set comment="kpoint 4">
       <r>  -17.8825    1.0000 </r>
       <r>  -17.4036    1.0000 </r>
       <r>  -16.7845    1.0000 </r>
       <r>  -16.2496    1.0000 </r>
       <r>  -16.2112    1.0000 </r>
       <r>  -16.1901    1.0000 </r>
       <r>   -7.3191    1.0000 </r>
       <r>   -6.3122    1.0000 </r>
       <r>   -4.8198    1.0000 </r>
       <r>   -4.3607    1.0000 </r>
       <r>   -4.3295    1.0000 </r>
       <r>   -3.5487    1.0000 </r>
       <r>   -1.9947    1.0000 </r>
       <r>   -1.8282    1.0000 </r>
       <r>   -1.5977    1.0000 </r>
       <r>   -1.2166    1.0000 </r>
       <r>   -1.0083    1.0000 </r>
       <r>   -0.6640    1.0000 </r>
       <r>   -0.5967    1.0000 </r>
       <r>   -0.0071    1.0000 </r>
       <r>    0.0582    1.0000 </r>
       <r>    0.2987    1.0000 </r>
       <r>    0.8340    1.0000 </r>
       <r>    1.0579    1.0000 </r>
       <r>    9.3795    0.0000 </r>
       <r>   10.1164    0.0000 </r>
       <r>   10.8436    0.0000 </r>
       <r>   10.8446    0.0000 </r>
       <r>   11.6288    0.0000 </r>
      </set>
      <set comment="kpoint 5">
       <r>  -18.1381    1.0000 </r>
       <r>  -17.1058    1.0000 </r>
       <r>  -16.8122    1.0000 </r>
       <r>  -16.2385    1.0000 </r>
       <r>  -16.1954    1.0000 </r>
       <r>  -16.1690    1.0000 </r>
       <r>   -7.2773    1.0000 </r>
       <r>   -6.6682    1.0000 </r>
       <r>   -4.6394    1.0000 </r>
       <r>   -4.3683    1.0000 </r>
       <r>   -4.2264    1.0000 </r>
       <r>   -3.8040    1.0000 </r>
       <r>   -2.0338    1.0000 </r>
       <r>   -1.7864    1.0000 </r>
       <r>   -1.4868    1.0000 </r>
       <r>   -1.0868    1.0000 </r>
       <r>   -1.0792    1.0000 </r>
       <r>   -0.5599    1.0000 </r>
       <r>   -0.3620    1.0000 </r>
       <r>   -0.1303    1.0000 </r>
       <r>    0.1828    1.0000 </r>
       <r>    0.2280    1.0000 </r>
       <r>    0.8418    1.0000 </r>
       <r>    0.9777    1.0000 </r>
       <r>    8.2505    0.0000 </r>
       <r>   10.4279    0.0000 </r>
       <r>   10.5700    0.0000 </r>
       <r>   11.0589    0.0000 </r>
       <r>   11.2326    0.0000 </r>
      </set>
      <set comment="kpoint 6">
       <r>  -17.8892    1.0000 </r>
       <r>  -17.3842    1.0000 </r>
       <r>  -16.8044    1.0000 </r>
       <r>  -16.2470    1.0000 </r>
       <r>  -16.2095    1.0000 </r>
       <r>  -16.1873    1.0000 </r>
       <r>   -7.3424    1.0000 </r>
       <r>   -6.2122    1.0000 </r>
       <r>   -5.0388    1.0000 </r>
       <r>   -4.3204    1.0000 </r>
       <r>   -4.2287    1.0000 </r>
       <r>   -3.5565    1.0000 </r>
       <r>   -1.9830    1.0000 </r>
       <r>   -1.7840    1.0000 </r>
       <r>   -1.6577    1.0000 </r>
       <r>   -1.1638    1.0000 </r>
       <r>   -1.0014    1.0000 </r>
       <r>   -0.6951    1.0000 </r>
       <r>   -0.5068    1.0000 </r>
       <r>   -0.1886    1.0000 </r>
       <r>    0.0308    1.0000 </r>
       <r>    0.4231    1.0000 </r>
       <r>    0.8004    1.0000 </r>
       <r>    1.0692    1.0000 </r>
       <r>    9.2671    0.0000 </r>
       <r>   10.3665    0.0000 </r>
       <r>   10.6838    0.0000 </r>
       <r>   11.0896    0.0000 </r>
       <r>   11.5041    0.0000 </r>
      </set>
      <set comment="kpoint 7">
       <r>  -17.8892    1.0000 </r>
       <r>  -17.3842    1.0000 </r>
       <r>  -16.8044    1.0000 </r>
       <r>  -16.2470    1.0000 </r>
       <r>  -16.2094    1.0000 </r>
       <r>  -16.1873    1.0000 </r>
       <r>   -7.3424    1.0000 </r>
       <r>   -6.2122    1.0000 </r>
       <r>   -5.0388    1.0000 </r>
       <r>   -4.3204    1.0000 </r>
       <r>   -4.2287    1.0000 </r>
       <r>   -3.5565    1.0000 </r>
       <r>   -1.9830    1.0000 </r>
       <r>   -1.7841    1.0000 </r>
       <r>   -1.6577    1.0000 </r>
       <r>   -1.1637    1.0000 </r>
       <r>   -1.0014    1.0000 </r>
       <r>   -0.6951    1.0000 </r>
       <r>   -0.5068    1.0000 </r>
       <r>   -0.1886    1.0000 </r>
       <r>    0.0308    1.0000 </r>
       <r>    0.4231    1.0000 </r>
       <r>    0.8004    1.0000 </r>
       <r>    1.0692    1.0000 </r>
       <r>    9.2671    0.0000 </r>
       <r>   10.3666    0.0000 </r>
       <r>   10.6840    0.0000 </r>
       <r>   11.0982    0.0000 </r>
       <r>   11.6169    0.0000 </r>
      </set>
      <set comment="kpoint 8">
       <r>  -18.1381    1.0000 </r>
       <r>  -17.1058    1.0000 </r>
       <r>  -16.8122    1.0000 </r>
       <r>  -16.2385    1.0000 </r>
       <r>  -16.1954    1.0000 </r>
       <r>  -16.1690    1.0000 </r>
       <r>   -7.2773    1.0000 </r>
       <r>   -6.6683    1.0000 </r>
       <r>   -4.6394    1.0000 </r>
       <r>   -4.3683    1.0000 </r>
       <r>   -4.2264    1.0000 </r>
       <r>   -3.8040    1.0000 </r>
       <r>   -2.0338    1.0000 </r>
       <r>   -1.7864    1.0000 </r>
       <r>   -1.4868    1.0000 </r>
       <r>   -1.0868    1.0000 </r>
       <r>   -1.0792    1.0000 </r>
       <r>   -0.5599    1.0000 </r>
       <r>   -0.3620    1.0000 </r>
       <r>   -0.1303    1.0000 </r>
       <r>    0.1827    1.0000 </r>
       <r>    0.2281    1.0000 </r>
       <r>    0.8418    1.0000 </r>
       <r>    0.9777    1.0000 </r>
       <r>    8.2505    0.0000 </r>
       <r>   10.4278    0.0000 </r>
       <r>   10.5697    0.0000 </r>
       <r>   11.0558    0.0000 </r>
       <r>   11.2415    0.0000 </r>
      </set>
      <set comment="kpoint 9">
       <r>  -18.2908    1.0000 </r>
       <r>  -16.9299    1.0000 </r>
       <r>  -16.8238    1.0000 </r>
       <r>  -16.2206    1.0000 </r>
       <r>  -16.1700    1.0000 </r>
       <r>  -16.1594    1.0000 </r>
       <r>   -7.2131    1.0000 </r>
       <r>   -6.9941    1.0000 </r>
       <r>   -4.3755    1.0000 </r>
       <r>   -4.3497    1.0000 </r>
       <r>   -4.2782    1.0000 </r>
       <r>   -4.0168    1.0000 </r>
       <r>   -1.9844    1.0000 </r>
       <r>   -1.7993    1.0000 </r>
       <r>   -1.5917    1.0000 </r>
       <r>   -1.1953    1.0000 </r>
       <r>   -0.6847    1.0000 </r>
       <r>   -0.4500    1.0000 </r>
       <r>   -0.4046    1.0000 </r>
       <r>    0.0472    1.0000 </r>
       <r>    0.1000    1.0000 </r>
       <r>    0.3170    1.0000 </r>
       <r>    0.8230    1.0000 </r>
       <r>    0.8567    1.0000 </r>
       <r>    7.5430    0.0000 </r>
       <r>   10.3852    0.0000 </r>
       <r>   10.4454    0.0000 </r>
       <r>   10.9354    0.0000 </r>
       <r>   11.0440    0.0000 </r>
      </set>
      <set comment="kpoint 10">
       <r>  -17.6373    1.0000 </r>
       <r>  -17.6372    1.0000 </r>
       <r>  -16.8185    1.0000 </r>
       <r>  -16.2459    1.0000 </r>
       <r>  -16.2017    1.0000 </r>
       <r>  -16.2016    1.0000 </r>
       <r>   -7.3800    1.0000 </r>
       <r>   -5.6416    1.0000 </r>
       <r>   -5.6416    1.0000 </r>
       <r>   -4.2378    1.0000 </r>
       <r>   -4.2378    1.0000 </r>
       <r>   -3.4623    1.0000 </r>
       <r>   -1.8534    1.0000 </r>
       <r>   -1.8534    1.0000 </r>
       <r>   -1.8027    1.0000 </r>
       <r>   -0.9766    1.0000 </r>
       <r>   -0.9766    1.0000 </r>
       <r>   -0.8206    1.0000 </r>
       <r>   -0.6240    1.0000 </r>
       <r>   -0.1461    1.0000 </r>
       <r>   -0.1460    1.0000 </r>
       <r>    0.6588    1.0000 </r>
       <r>    0.6588    1.0000 </r>
       <r>    1.1005    1.0000 </r>
       <r>   10.0508    0.0000 </r>
       <r>   10.0508    0.0000 </r>
       <r>   10.5387    0.0000 </r>
       <r>   11.4826    0.0000 </r>
       <r>   11.6574    0.0000 </r>
      </set>
      <set comment="kpoint 11">
       <r>  -17.8892    1.0000 </r>
       <r>  -17.3843    1.0000 </r>
       <r>  -16.8044    1.0000 </r>
       <r>  -16.2470    1.0000 </r>
       <r>  -16.2095    1.0000 </r>
       <r>  -16.1872    1.0000 </r>
       <r>   -7.3423    1.0000 </r>
       <r>   -6.2122    1.0000 </r>
       <r>   -5.0388    1.0000 </r>
       <r>   -4.3204    1.0000 </r>
       <r>   -4.2287    1.0000 </r>
       <r>   -3.5565    1.0000 </r>
       <r>   -1.9830    1.0000 </r>
       <r>   -1.7841    1.0000 </r>
       <r>   -1.6577    1.0000 </r>
       <r>   -1.1638    1.0000 </r>
       <r>   -1.0014    1.0000 </r>
       <r>   -0.6951    1.0000 </r>
       <r>   -0.5068    1.0000 </r>
       <r>   -0.1886    1.0000 </r>
       <r>    0.0308    1.0000 </r>
       <r>    0.4231    1.0000 </r>
       <r>    0.8004    1.0000 </r>
       <r>    1.0693    1.0000 </r>
       <r>    9.2671    0.0000 </r>
       <r>   10.3665    0.0000 </r>
       <r>   10.6837    0.0000 </r>
       <r>   11.0937    0.0000 </r>
       <r>   11.5211    0.0000 </r>
      </set>
      <set comment="kpoint 12">
       <r>  -18.0719    1.0000 </r>
       <r>  -17.1892    1.0000 </r>
       <r>  -16.7983    1.0000 </r>
       <r>  -16.2438    1.0000 </r>
       <r>  -16.1985    1.0000 </r>
       <r>  -16.1784    1.0000 </r>
       <r>   -7.2847    1.0000 </r>
       <r>   -6.5745    1.0000 </r>
       <r>   -4.6316    1.0000 </r>
       <r>   -4.3832    1.0000 </r>
       <r>   -4.3014    1.0000 </r>
       <r>   -3.7145    1.0000 </r>
       <r>   -2.0668    1.0000 </r>
       <r>   -1.6911    1.0000 </r>
       <r>   -1.5664    1.0000 </r>
       <r>   -1.1995    1.0000 </r>
       <r>   -1.0003    1.0000 </r>
       <r>   -0.5811    1.0000 </r>
       <r>   -0.4893    1.0000 </r>
       <r>   -0.0041    1.0000 </r>
       <r>    0.0653    1.0000 </r>
       <r>    0.2682    1.0000 </r>
       <r>    0.8509    1.0000 </r>
       <r>    1.0003    1.0000 </r>
       <r>    8.5418    0.0000 </r>
       <r>   10.4287    0.0000 </r>
       <r>   10.5558    0.0000 </r>
       <r>   11.0569    0.0000 </r>
       <r>   11.4095    0.0000 </r>
      </set>
      <set comment="kpoint 13">
       <r>  -17.8824    1.0000 </r>
       <r>  -17.4037    1.0000 </r>
       <r>  -16.7846    1.0000 </r>
       <r>  -16.2497    1.0000 </r>
       <r>  -16.2112    1.0000 </r>
       <r>  -16.1899    1.0000 </r>
       <r>   -7.3191    1.0000 </r>
       <r>   -6.3123    1.0000 </r>
       <r>   -4.8198    1.0000 </r>
       <r>   -4.3606    1.0000 </r>
       <r>   -4.3295    1.0000 </r>
       <r>   -3.5488    1.0000 </r>
       <r>   -1.9946    1.0000 </r>
       <r>   -1.8282    1.0000 </r>
       <r>   -1.5977    1.0000 </r>
       <r>   -1.2166    1.0000 </r>
       <r>   -1.0083    1.0000 </r>
       <r>   -0.6640    1.0000 </r>
       <r>   -0.5967    1.0000 </r>
       <r>   -0.0071    1.0000 </r>
       <r>    0.0582    1.0000 </r>
       <r>    0.2987    1.0000 </r>
       <r>    0.8340    1.0000 </r>
       <r>    1.0579    1.0000 </r>
       <r>    9.3795    0.0000 </r>
       <r>   10.1164    0.0000 </r>
       <r>   10.8437    0.0000 </r>
       <r>   10.8451    0.0000 </r>
       <r>   11.6245    0.0000 </r>
      </set>
      <set comment="kpoint 14">
       <r>  -18.2938    1.0000 </r>
       <r>  -17.2847    1.0000 </r>
       <r>  -16.4511    1.0000 </r>
       <r>  -16.1987    1.0000 </r>
       <r>  -16.1687    1.0000 </r>
       <r>  -16.1379    1.0000 </r>
       <r>   -7.8485    1.0000 </r>
       <r>   -6.3484    1.0000 </r>
       <r>   -4.4952    1.0000 </r>
       <r>   -4.4187    1.0000 </r>
       <r>   -4.3700    1.0000 </r>
       <r>   -3.8720    1.0000 </r>
       <r>   -1.9430    1.0000 </r>
       <r>   -1.6645    1.0000 </r>
       <r>   -1.5638    1.0000 </r>
       <r>   -1.2318    1.0000 </r>
       <r>   -0.6042    1.0000 </r>
       <r>   -0.4834    1.0000 </r>
       <r>   -0.4232    1.0000 </r>
       <r>   -0.2833    1.0000 </r>
       <r>    0.0783    1.0000 </r>
       <r>    0.5197    1.0000 </r>
       <r>    0.8101    1.0000 </r>
       <r>    0.9697    1.0000 </r>
       <r>    7.5150    0.0000 </r>
       <r>   10.2556    0.0000 </r>
       <r>   10.4196    0.0000 </r>
       <r>   10.5212    0.0000 </r>
       <r>   11.2237    0.0000 </r>
      </set>
      <set comment="kpoint 15">
       <r>  -18.2167    1.0000 </r>
       <r>  -17.2838    1.0000 </r>
       <r>  -16.5343    1.0000 </r>
       <r>  -16.2137    1.0000 </r>
       <r>  -16.1878    1.0000 </r>
       <r>  -16.1492    1.0000 </r>
       <r>   -7.7035    1.0000 </r>
       <r>   -6.3566    1.0000 </r>
       <r>   -4.6735    1.0000 </r>
       <r>   -4.3770    1.0000 </r>
       <r>   -4.1807    1.0000 </r>
       <r>   -3.9216    1.0000 </r>
       <r>   -2.0433    1.0000 </r>
       <r>   -1.6486    1.0000 </r>
       <r>   -1.5278    1.0000 </r>
       <r>   -1.1543    1.0000 </r>
       <r>   -0.8338    1.0000 </r>
       <r>   -0.4974    1.0000 </r>
       <r>   -0.3942    1.0000 </r>
       <r>   -0.2393    1.0000 </r>
       <r>    0.1611    1.0000 </r>
       <r>    0.4159    1.0000 </r>
       <r>    0.7516    1.0000 </r>
       <r>    1.0113    1.0000 </r>
       <r>    7.8909    0.0000 </r>
       <r>   10.2693    0.0000 </r>
       <r>   10.5114    0.0000 </r>
       <r>   10.6060    0.0000 </r>
       <r>   11.2993    0.0000 </r>
      </set>
      <set comment="kpoint 16">
       <r>  -18.0149    1.0000 </r>
       <r>  -17.3239    1.0000 </r>
       <r>  -16.7205    1.0000 </r>
       <r>  -16.2412    1.0000 </r>
       <r>  -16.2140    1.0000 </r>
       <r>  -16.1689    1.0000 </r>
       <r>   -7.4104    1.0000 </r>
       <r>   -6.3284    1.0000 </r>
       <r>   -4.9085    1.0000 </r>
       <r>   -4.3357    1.0000 </r>
       <r>   -4.0996    1.0000 </r>
       <r>   -3.8255    1.0000 </r>
       <r>   -2.1384    1.0000 </r>
       <r>   -1.7112    1.0000 </r>
       <r>   -1.4741    1.0000 </r>
       <r>   -1.2114    1.0000 </r>
       <r>   -0.8956    1.0000 </r>
       <r>   -0.6023    1.0000 </r>
       <r>   -0.4915    1.0000 </r>
       <r>   -0.0543    1.0000 </r>
       <r>    0.1607    1.0000 </r>
       <r>    0.2803    1.0000 </r>
       <r>    0.7942    1.0000 </r>
       <r>    0.9666    1.0000 </r>
       <r>    8.8066    0.0000 </r>
       <r>   10.3212    0.0000 </r>
       <r>   10.5738    0.0000 </r>
       <r>   11.0402    0.0000 </r>
       <r>   11.4083    0.0000 </r>
      </set>
      <set comment="kpoint 17">
       <r>  -17.8601    1.0000 </r>
       <r>  -17.3926    1.0000 </r>
       <r>  -16.8311    1.0000 </r>
       <r>  -16.2500    1.0000 </r>
       <r>  -16.2157    1.0000 </r>
       <r>  -16.1813    1.0000 </r>
       <r>   -7.2715    1.0000 </r>
       <r>   -6.2730    1.0000 </r>
       <r>   -5.0440    1.0000 </r>
       <r>   -4.3572    1.0000 </r>
       <r>   -4.1051    1.0000 </r>
       <r>   -3.6720    1.0000 </r>
       <r>   -2.0468    1.0000 </r>
       <r>   -1.9458    1.0000 </r>
       <r>   -1.4706    1.0000 </r>
       <r>   -1.2614    1.0000 </r>
       <r>   -0.8452    1.0000 </r>
       <r>   -0.7252    1.0000 </r>
       <r>   -0.4210    1.0000 </r>
       <r>   -0.0730    1.0000 </r>
       <r>    0.1398    1.0000 </r>
       <r>    0.3325    1.0000 </r>
       <r>    0.7212    1.0000 </r>
       <r>    0.9971    1.0000 </r>
       <r>    9.5727    0.0000 </r>
       <r>   10.1823    0.0000 </r>
       <r>   10.6869    0.0000 </r>
       <r>   11.1580    0.0000 </r>
       <r>   11.6163    0.0000 </r>
      </set>
      <set comment="kpoint 18">
       <r>  -18.0186    1.0000 </r>
       <r>  -17.3038    1.0000 </r>
       <r>  -16.7540    1.0000 </r>
       <r>  -16.2333    1.0000 </r>
       <r>  -16.1930    1.0000 </r>
       <r>  -16.1803    1.0000 </r>
       <r>   -7.4141    1.0000 </r>
       <r>   -6.3297    1.0000 </r>
       <r>   -4.9101    1.0000 </r>
       <r>   -4.3749    1.0000 </r>
       <r>   -4.0765    1.0000 </r>
       <r>   -3.7760    1.0000 </r>
       <r>   -2.0741    1.0000 </r>
       <r>   -1.7027    1.0000 </r>
       <r>   -1.5272    1.0000 </r>
       <r>   -1.3898    1.0000 </r>
       <r>   -0.9252    1.0000 </r>
       <r>   -0.5008    1.0000 </r>
       <r>   -0.3474    1.0000 </r>
       <r>   -0.0902    1.0000 </r>
       <r>    0.0627    1.0000 </r>
       <r>    0.3942    1.0000 </r>
       <r>    0.6364    1.0000 </r>
       <r>    1.0600    1.0000 </r>
       <r>    8.7730    0.0000 </r>
       <r>   10.3809    0.0000 </r>
       <r>   10.7675    0.0000 </r>
       <r>   11.2056    0.0000 </r>
       <r>   11.3618    0.0000 </r>
      </set>
      <set comment="kpoint 19">
       <r>  -18.2172    1.0000 </r>
       <r>  -17.2798    1.0000 </r>
       <r>  -16.5455    1.0000 </r>
       <r>  -16.2123    1.0000 </r>
       <r>  -16.1773    1.0000 </r>
       <r>  -16.1531    1.0000 </r>
       <r>   -7.7046    1.0000 </r>
       <r>   -6.3567    1.0000 </r>
       <r>   -4.6777    1.0000 </r>
       <r>   -4.3781    1.0000 </r>
       <r>   -4.1949    1.0000 </r>
       <r>   -3.8931    1.0000 </r>
       <r>   -2.0165    1.0000 </r>
       <r>   -1.6659    1.0000 </r>
       <r>   -1.5224    1.0000 </r>
       <r>   -1.2049    1.0000 </r>
       <r>   -0.8770    1.0000 </r>
       <r>   -0.4121    1.0000 </r>
       <r>   -0.3831    1.0000 </r>
       <r>   -0.2597    1.0000 </r>
       <r>    0.1913    1.0000 </r>
       <r>    0.3773    1.0000 </r>
       <r>    0.7260    1.0000 </r>
       <r>    1.0409    1.0000 </r>
       <r>    7.8811    0.0000 </r>
       <r>   10.3078    0.0000 </r>
       <r>   10.5367    0.0000 </r>
       <r>   10.6555    0.0000 </r>
       <r>   11.2312    0.0000 </r>
      </set>
      <set comment="kpoint 20">
       <r>  -18.0758    1.0000 </r>
       <r>  -17.2966    1.0000 </r>
       <r>  -16.6874    1.0000 </r>
       <r>  -16.2296    1.0000 </r>
       <r>  -16.2041    1.0000 </r>
       <r>  -16.1657    1.0000 </r>
       <r>   -7.4868    1.0000 </r>
       <r>   -6.3304    1.0000 </r>
       <r>   -4.8872    1.0000 </r>
       <r>   -4.3419    1.0000 </r>
       <r>   -4.0726    1.0000 </r>
       <r>   -3.8611    1.0000 </r>
       <r>   -2.0953    1.0000 </r>
       <r>   -1.6490    1.0000 </r>
       <r>   -1.5305    1.0000 </r>
       <r>   -1.2584    1.0000 </r>
       <r>   -0.9432    1.0000 </r>
       <r>   -0.4939    1.0000 </r>
       <r>   -0.4126    1.0000 </r>
       <r>   -0.1316    1.0000 </r>
       <r>    0.1776    1.0000 </r>
       <r>    0.3082    1.0000 </r>
       <r>    0.7119    1.0000 </r>
       <r>    1.0290    1.0000 </r>
       <r>    8.5218    0.0000 </r>
       <r>   10.3275    0.0000 </r>
       <r>   10.7389    0.0000 </r>
       <r>   10.8890    0.0000 </r>
       <r>   11.3680    0.0000 </r>
      </set>
      <set comment="kpoint 21">
       <r>  -17.8618    1.0000 </r>
       <r>  -17.3908    1.0000 </r>
       <r>  -16.8278    1.0000 </r>
       <r>  -16.2486    1.0000 </r>
       <r>  -16.2242    1.0000 </r>
       <r>  -16.1779    1.0000 </r>
       <r>   -7.2847    1.0000 </r>
       <r>   -6.1893    1.0000 </r>
       <r>   -5.1855    1.0000 </r>
       <r>   -4.3199    1.0000 </r>
       <r>   -4.0726    1.0000 </r>
       <r>   -3.6903    1.0000 </r>
       <r>   -2.0913    1.0000 </r>
       <r>   -1.8137    1.0000 </r>
       <r>   -1.5878    1.0000 </r>
       <r>   -1.1316    1.0000 </r>
       <r>   -0.8988    1.0000 </r>
       <r>   -0.7065    1.0000 </r>
       <r>   -0.4203    1.0000 </r>
       <r>   -0.1376    1.0000 </r>
       <r>    0.1222    1.0000 </r>
       <r>    0.3747    1.0000 </r>
       <r>    0.7386    1.0000 </r>
       <r>    0.9713    1.0000 </r>
       <r>    9.4561    0.0000 </r>
       <r>   10.4457    0.0000 </r>
       <r>   10.6053    0.0000 </r>
       <r>   11.2105    0.0000 </r>
       <r>   11.4148    0.0000 </r>
      </set>
      <set comment="kpoint 22">
       <r>  -17.8644    1.0000 </r>
       <r>  -17.3814    1.0000 </r>
       <r>  -16.8396    1.0000 </r>
       <r>  -16.2438    1.0000 </r>
       <r>  -16.2228    1.0000 </r>
       <r>  -16.1789    1.0000 </r>
       <r>   -7.2859    1.0000 </r>
       <r>   -6.1905    1.0000 </r>
       <r>   -5.1852    1.0000 </r>
       <r>   -4.3292    1.0000 </r>
       <r>   -4.0664    1.0000 </r>
       <r>   -3.6755    1.0000 </r>
       <r>   -2.0555    1.0000 </r>
       <r>   -1.8404    1.0000 </r>
       <r>   -1.6061    1.0000 </r>
       <r>   -1.1852    1.0000 </r>
       <r>   -0.9109    1.0000 </r>
       <r>   -0.6723    1.0000 </r>
       <r>   -0.3228    1.0000 </r>
       <r>   -0.1857    1.0000 </r>
       <r>    0.0726    1.0000 </r>
       <r>    0.4563    1.0000 </r>
       <r>    0.6518    1.0000 </r>
       <r>    1.0075    1.0000 </r>
       <r>    9.4458    0.0000 </r>
       <r>   10.3541    0.0000 </r>
       <r>   10.9117    0.0000 </r>
       <r>   11.0657    0.0000 </r>
       <r>   11.5221    0.0000 </r>
      </set>
      <set comment="kpoint 23">
       <r>  -18.0758    1.0000 </r>
       <r>  -17.2966    1.0000 </r>
       <r>  -16.6875    1.0000 </r>
       <r>  -16.2296    1.0000 </r>
       <r>  -16.2041    1.0000 </r>
       <r>  -16.1656    1.0000 </r>
       <r>   -7.4868    1.0000 </r>
       <r>   -6.3304    1.0000 </r>
       <r>   -4.8872    1.0000 </r>
       <r>   -4.3418    1.0000 </r>
       <r>   -4.0726    1.0000 </r>
       <r>   -3.8611    1.0000 </r>
       <r>   -2.0953    1.0000 </r>
       <r>   -1.6491    1.0000 </r>
       <r>   -1.5305    1.0000 </r>
       <r>   -1.2584    1.0000 </r>
       <r>   -0.9432    1.0000 </r>
       <r>   -0.4940    1.0000 </r>
       <r>   -0.4126    1.0000 </r>
       <r>   -0.1316    1.0000 </r>
       <r>    0.1777    1.0000 </r>
       <r>    0.3081    1.0000 </r>
       <r>    0.7120    1.0000 </r>
       <r>    1.0290    1.0000 </r>
       <r>    8.5218    0.0000 </r>
       <r>   10.3276    0.0000 </r>
       <r>   10.7385    0.0000 </r>
       <r>   10.8898    0.0000 </r>
       <r>   11.4201    0.0000 </r>
      </set>
      <set comment="kpoint 24">
       <r>  -18.2167    1.0000 </r>
       <r>  -17.2838    1.0000 </r>
       <r>  -16.5344    1.0000 </r>
       <r>  -16.2137    1.0000 </r>
       <r>  -16.1878    1.0000 </r>
       <r>  -16.1491    1.0000 </r>
       <r>   -7.7035    1.0000 </r>
       <r>   -6.3566    1.0000 </r>
       <r>   -4.6735    1.0000 </r>
       <r>   -4.3770    1.0000 </r>
       <r>   -4.1807    1.0000 </r>
       <r>   -3.9216    1.0000 </r>
       <r>   -2.0433    1.0000 </r>
       <r>   -1.6486    1.0000 </r>
       <r>   -1.5279    1.0000 </r>
       <r>   -1.1542    1.0000 </r>
       <r>   -0.8338    1.0000 </r>
       <r>   -0.4974    1.0000 </r>
       <r>   -0.3943    1.0000 </r>
       <r>   -0.2392    1.0000 </r>
       <r>    0.1610    1.0000 </r>
       <r>    0.4159    1.0000 </r>
       <r>    0.7516    1.0000 </r>
       <r>    1.0113    1.0000 </r>
       <r>    7.8908    0.0000 </r>
       <r>   10.2693    0.0000 </r>
       <r>   10.5114    0.0000 </r>
       <r>   10.6061    0.0000 </r>
       <r>   11.3023    0.0000 </r>
      </set>
      <set comment="kpoint 25">
       <r>  -17.8645    1.0000 </r>
       <r>  -17.3814    1.0000 </r>
       <r>  -16.8395    1.0000 </r>
       <r>  -16.2437    1.0000 </r>
       <r>  -16.2229    1.0000 </r>
       <r>  -16.1790    1.0000 </r>
       <r>   -7.2859    1.0000 </r>
       <r>   -6.1904    1.0000 </r>
       <r>   -5.1852    1.0000 </r>
       <r>   -4.3293    1.0000 </r>
       <r>   -4.0664    1.0000 </r>
       <r>   -3.6755    1.0000 </r>
       <r>   -2.0555    1.0000 </r>
       <r>   -1.8404    1.0000 </r>
       <r>   -1.6061    1.0000 </r>
       <r>   -1.1852    1.0000 </r>
       <r>   -0.9109    1.0000 </r>
       <r>   -0.6723    1.0000 </r>
       <r>   -0.3228    1.0000 </r>
       <r>   -0.1858    1.0000 </r>
       <r>    0.0726    1.0000 </r>
       <r>    0.4562    1.0000 </r>
       <r>    0.6518    1.0000 </r>
       <r>    1.0075    1.0000 </r>
       <r>    9.4459    0.0000 </r>
       <r>   10.3541    0.0000 </r>
       <r>   10.9130    0.0000 </r>
       <r>   11.0666    0.0000 </r>
       <r>   11.5066    0.0000 </r>
      </set>
      <set comment="kpoint 26">
       <r>  -17.7366    1.0000 </r>
       <r>  -17.4750    1.0000 </r>
       <r>  -16.8784    1.0000 </r>
       <r>  -16.2431    1.0000 </r>
       <r>  -16.2405    1.0000 </r>
       <r>  -16.1812    1.0000 </r>
       <r>   -7.2401    1.0000 </r>
       <r>   -5.9341    1.0000 </r>
       <r>   -5.5178    1.0000 </r>
       <r>   -4.2973    1.0000 </r>
       <r>   -4.0621    1.0000 </r>
       <r>   -3.6174    1.0000 </r>
       <r>   -2.0593    1.0000 </r>
       <r>   -1.7557    1.0000 </r>
       <r>   -1.7524    1.0000 </r>
       <r>   -0.9675    1.0000 </r>
       <r>   -0.9117    1.0000 </r>
       <r>   -0.8451    1.0000 </r>
       <r>   -0.3628    1.0000 </r>
       <r>   -0.2071    1.0000 </r>
       <r>    0.0269    1.0000 </r>
       <r>    0.5741    1.0000 </r>
       <r>    0.6198    1.0000 </r>
       <r>    0.9664    1.0000 </r>
       <r>   10.0551    0.0000 </r>
       <r>   10.2555    0.0000 </r>
       <r>   10.6647    0.0000 </r>
       <r>   11.3970    0.0000 </r>
       <r>   11.4942    0.0000 </r>
      </set>
      <set comment="kpoint 27">
       <r>  -17.8617    1.0000 </r>
       <r>  -17.3909    1.0000 </r>
       <r>  -16.8279    1.0000 </r>
       <r>  -16.2486    1.0000 </r>
       <r>  -16.2242    1.0000 </r>
       <r>  -16.1778    1.0000 </r>
       <r>   -7.2846    1.0000 </r>
       <r>   -6.1894    1.0000 </r>
       <r>   -5.1855    1.0000 </r>
       <r>   -4.3198    1.0000 </r>
       <r>   -4.0726    1.0000 </r>
       <r>   -3.6903    1.0000 </r>
       <r>   -2.0913    1.0000 </r>
       <r>   -1.8137    1.0000 </r>
       <r>   -1.5879    1.0000 </r>
       <r>   -1.1315    1.0000 </r>
       <r>   -0.8988    1.0000 </r>
       <r>   -0.7065    1.0000 </r>
       <r>   -0.4203    1.0000 </r>
       <r>   -0.1377    1.0000 </r>
       <r>    0.1222    1.0000 </r>
       <r>    0.3747    1.0000 </r>
       <r>    0.7386    1.0000 </r>
       <r>    0.9713    1.0000 </r>
       <r>    9.4561    0.0000 </r>
       <r>   10.4455    0.0000 </r>
       <r>   10.6055    0.0000 </r>
       <r>   11.2084    0.0000 </r>
       <r>   11.4313    0.0000 </r>
      </set>
      <set comment="kpoint 28">
       <r>  -18.0149    1.0000 </r>
       <r>  -17.3240    1.0000 </r>
       <r>  -16.7206    1.0000 </r>
       <r>  -16.2412    1.0000 </r>
       <r>  -16.2140    1.0000 </r>
       <r>  -16.1687    1.0000 </r>
       <r>   -7.4104    1.0000 </r>
       <r>   -6.3285    1.0000 </r>
       <r>   -4.9085    1.0000 </r>
       <r>   -4.3356    1.0000 </r>
       <r>   -4.0996    1.0000 </r>
       <r>   -3.8255    1.0000 </r>
       <r>   -2.1384    1.0000 </r>
       <r>   -1.7112    1.0000 </r>
       <r>   -1.4741    1.0000 </r>
       <r>   -1.2114    1.0000 </r>
       <r>   -0.8955    1.0000 </r>
       <r>   -0.6023    1.0000 </r>
       <r>   -0.4915    1.0000 </r>
       <r>   -0.0543    1.0000 </r>
       <r>    0.1607    1.0000 </r>
       <r>    0.2803    1.0000 </r>
       <r>    0.7942    1.0000 </r>
       <r>    0.9667    1.0000 </r>
       <r>    8.8066    0.0000 </r>
       <r>   10.3212    0.0000 </r>
       <r>   10.5736    0.0000 </r>
       <r>   11.0348    0.0000 </r>
       <r>   11.4422    0.0000 </r>
      </set>
      <set comment="kpoint 29">
       <r>  -17.8617    1.0000 </r>
       <r>  -17.3908    1.0000 </r>
       <r>  -16.8279    1.0000 </r>
       <r>  -16.2486    1.0000 </r>
       <r>  -16.2242    1.0000 </r>
       <r>  -16.1779    1.0000 </r>
       <r>   -7.2847    1.0000 </r>
       <r>   -6.1893    1.0000 </r>
       <r>   -5.1855    1.0000 </r>
       <r>   -4.3199    1.0000 </r>
       <r>   -4.0726    1.0000 </r>
       <r>   -3.6903    1.0000 </r>
       <r>   -2.0913    1.0000 </r>
       <r>   -1.8137    1.0000 </r>
       <r>   -1.5878    1.0000 </r>
       <r>   -1.1315    1.0000 </r>
       <r>   -0.8988    1.0000 </r>
       <r>   -0.7065    1.0000 </r>
       <r>   -0.4204    1.0000 </r>
       <r>   -0.1377    1.0000 </r>
       <r>    0.1223    1.0000 </r>
       <r>    0.3747    1.0000 </r>
       <r>    0.7386    1.0000 </r>
       <r>    0.9713    1.0000 </r>
       <r>    9.4561    0.0000 </r>
       <r>   10.4457    0.0000 </r>
       <r>   10.6052    0.0000 </r>
       <r>   11.2107    0.0000 </r>
       <r>   11.4287    0.0000 </r>
      </set>
      <set comment="kpoint 30">
       <r>  -17.8644    1.0000 </r>
       <r>  -17.3815    1.0000 </r>
       <r>  -16.8396    1.0000 </r>
       <r>  -16.2437    1.0000 </r>
       <r>  -16.2228    1.0000 </r>
       <r>  -16.1789    1.0000 </r>
       <r>   -7.2859    1.0000 </r>
       <r>   -6.1905    1.0000 </r>
       <r>   -5.1852    1.0000 </r>
       <r>   -4.3292    1.0000 </r>
       <r>   -4.0664    1.0000 </r>
       <r>   -3.6755    1.0000 </r>
       <r>   -2.0555    1.0000 </r>
       <r>   -1.8404    1.0000 </r>
       <r>   -1.6062    1.0000 </r>
       <r>   -1.1852    1.0000 </r>
       <r>   -0.9109    1.0000 </r>
[...]
       <r>    0.9085    1.0000 </r>
       <r>    9.9983    0.0000 </r>
       <r>   10.3855    0.0000 </r>
       <r>   10.7495    0.0000 </r>
       <r>   11.0619    0.0000 </r>
       <r>   11.5063    0.0000 </r>
      </set>
      <set comment="kpoint 53">
       <r>  -17.9094    1.0000 </r>
       <r>  -17.5815    1.0000 </r>
       <r>  -16.5717    1.0000 </r>
       <r>  -16.2383    1.0000 </r>
       <r>  -16.1922    1.0000 </r>
       <r>  -16.1664    1.0000 </r>
       <r>   -7.6805    1.0000 </r>
       <r>   -5.8258    1.0000 </r>
       <r>   -5.2283    1.0000 </r>
       <r>   -4.3129    1.0000 </r>
       <r>   -4.1525    1.0000 </r>
       <r>   -3.7705    1.0000 </r>
       <r>   -2.0612    1.0000 </r>
       <r>   -1.8408    1.0000 </r>
       <r>   -1.3880    1.0000 </r>
       <r>   -1.2453    1.0000 </r>
       <r>   -0.9366    1.0000 </r>
       <r>   -0.4981    1.0000 </r>
       <r>   -0.3564    1.0000 </r>
       <r>   -0.1474    1.0000 </r>
       <r>    0.0871    1.0000 </r>
       <r>    0.4559    1.0000 </r>
       <r>    0.7421    1.0000 </r>
       <r>    0.9072    1.0000 </r>
       <r>    9.2312    0.0000 </r>
       <r>   10.0934    0.0000 </r>
       <r>   10.5311    0.0000 </r>
       <r>   10.9164    0.0000 </r>
       <r>   11.3481    0.0000 </r>
      </set>
      <set comment="kpoint 54">
       <r>  -17.8821    1.0000 </r>
       <r>  -17.5258    1.0000 </r>
       <r>  -16.6758    1.0000 </r>
       <r>  -16.2470    1.0000 </r>
       <r>  -16.1882    1.0000 </r>
       <r>  -16.1693    1.0000 </r>
       <r>   -7.5449    1.0000 </r>
       <r>   -5.9387    1.0000 </r>
       <r>   -5.2261    1.0000 </r>
       <r>   -4.3351    1.0000 </r>
       <r>   -4.0614    1.0000 </r>
       <r>   -3.7859    1.0000 </r>
       <r>   -2.0823    1.0000 </r>
       <r>   -1.9456    1.0000 </r>
       <r>   -1.3200    1.0000 </r>
       <r>   -1.2558    1.0000 </r>
       <r>   -1.0049    1.0000 </r>
       <r>   -0.4118    1.0000 </r>
       <r>   -0.3012    1.0000 </r>
       <r>   -0.1116    1.0000 </r>
       <r>    0.1323    1.0000 </r>
       <r>    0.3267    1.0000 </r>
       <r>    0.6310    1.0000 </r>
       <r>    0.9794    1.0000 </r>
       <r>    9.3823    0.0000 </r>
       <r>   10.3570    0.0000 </r>
       <r>   10.5581    0.0000 </r>
       <r>   11.0973    0.0000 </r>
       <r>   11.2733    0.0000 </r>
      </set>
      <set comment="kpoint 55">
       <r>  -18.0060    1.0000 </r>
       <r>  -17.6720    1.0000 </r>
       <r>  -16.3554    1.0000 </r>
       <r>  -16.2106    1.0000 </r>
       <r>  -16.1819    1.0000 </r>
       <r>  -16.1444    1.0000 </r>
       <r>   -8.0296    1.0000 </r>
       <r>   -5.6359    1.0000 </r>
       <r>   -5.0481    1.0000 </r>
       <r>   -4.4299    1.0000 </r>
       <r>   -4.3446    1.0000 </r>
       <r>   -3.6780    1.0000 </r>
       <r>   -1.9185    1.0000 </r>
       <r>   -1.6407    1.0000 </r>
       <r>   -1.4918    1.0000 </r>
       <r>   -1.1496    1.0000 </r>
       <r>   -0.9757    1.0000 </r>
       <r>   -0.5681    1.0000 </r>
       <r>   -0.4515    1.0000 </r>
       <r>   -0.3468    1.0000 </r>
       <r>   -0.0184    1.0000 </r>
       <r>    0.6507    1.0000 </r>
       <r>    0.8154    1.0000 </r>
       <r>    1.0208    1.0000 </r>
       <r>    8.7487    0.0000 </r>
       <r>    9.8389    0.0000 </r>
       <r>   10.3317    0.0000 </r>
       <r>   10.6875    0.0000 </r>
       <r>   11.2063    0.0000 </r>
      </set>
     </set>
    </set>
   </array>
  </eigenvalues>
  <separator name="orbital magnetization" >
   <v name="MAGDIPOLOUT">      0.00000000      0.00000000      0.00000000</v>
  </separator>
  <dos>
   <i name="efermi">      1.16521714 </i>
   <total>
    <array>
     <dimension dim="1">gridpoints</dimension>
     <dimension dim="2">spin</dimension>
     <field>energy</field>
     <field>total</field>
     <field>integrated</field>
     <set>
      <set comment="spin 1">
       <r>   -20.3723     0.0000     0.0000 </r>
       <r>   -20.2585     0.0000     0.0000 </r>
       <r>   -20.1447     0.0000     0.0000 </r>
       <r>   -20.0309     0.0000     0.0000 </r>
       <r>   -19.9171     0.0000     0.0000 </r>
       <r>   -19.8033     0.0000     0.0000 </r>
       <r>   -19.6895     0.0000     0.0000 </r>
       <r>   -19.5757     0.0000     0.0000 </r>
       <r>   -19.4619     0.0000     0.0000 </r>
       <r>   -19.3481     0.0000     0.0000 </r>
       <r>   -19.2343     0.0000     0.0000 </r>
       <r>   -19.1205     0.0000     0.0000 </r>
       <r>   -19.0067     0.0000     0.0000 </r>
       <r>   -18.8929     0.0000     0.0000 </r>
       <r>   -18.7791     0.0000     0.0000 </r>
       <r>   -18.6653     0.0000     0.0000 </r>
       <r>   -18.5515     0.0000     0.0000 </r>
       <r>   -18.4377     0.0000     0.0000 </r>
       <r>   -18.3239     0.3080     0.0050 </r>
       <r>   -18.2101     1.3469     0.1189 </r>
       <r>   -18.0962     2.2830     0.3245 </r>
       <r>   -17.9824     4.1029     0.6911 </r>
       <r>   -17.8686     9.2804     1.3226 </r>
       <r>   -17.7548     0.6071     1.9811 </r>
       <r>   -17.6410     1.1157     2.0678 </r>
       <r>   -17.5272     2.1747     2.2501 </r>
       <r>   -17.4134     6.7137     2.6815 </r>
       <r>   -17.2996     3.0829     3.6034 </r>
       <r>   -17.1858     1.2939     3.8373 </r>
       <r>   -17.0720     0.6248     3.9404 </r>
       <r>   -16.9582     0.9960     4.0159 </r>
       <r>   -16.8444     6.3782     4.3707 </r>
       <r>   -16.7306     4.0485     5.2984 </r>
       <r>   -16.6168     2.0966     5.6190 </r>
       <r>   -16.5030     1.3151     5.8051 </r>
       <r>   -16.3892     0.7936     5.9257 </r>
       <r>   -16.2754     2.9608     5.9955 </r>
       <r>   -16.1616    28.6902    11.5626 </r>
       <r>   -16.0478     0.0000    12.0000 </r>
       <r>   -15.9340     0.0000    12.0000 </r>
       <r>   -15.8202     0.0000    12.0000 </r>
       <r>   -15.7063     0.0000    12.0000 </r>
       <r>   -15.5925     0.0000    12.0000 </r>
       <r>   -15.4787     0.0000    12.0000 </r>
       <r>   -15.3649     0.0000    12.0000 </r>
       <r>   -15.2511     0.0000    12.0000 </r>
       <r>   -15.1373     0.0000    12.0000 </r>
       <r>   -15.0235     0.0000    12.0000 </r>
       <r>   -14.9097     0.0000    12.0000 </r>
       <r>   -14.7959     0.0000    12.0000 </r>
       <r>   -14.6821     0.0000    12.0000 </r>
       <r>   -14.5683     0.0000    12.0000 </r>
       <r>   -14.4545     0.0000    12.0000 </r>
       <r>   -14.3407     0.0000    12.0000 </r>
       <r>   -14.2269     0.0000    12.0000 </r>
       <r>   -14.1131     0.0000    12.0000 </r>
       <r>   -13.9993     0.0000    12.0000 </r>
       <r>   -13.8855     0.0000    12.0000 </r>
       <r>   -13.7717     0.0000    12.0000 </r>
       <r>   -13.6579     0.0000    12.0000 </r>
       <r>   -13.5441     0.0000    12.0000 </r>
       <r>   -13.4303     0.0000    12.0000 </r>
       <r>   -13.3164     0.0000    12.0000 </r>
       <r>   -13.2026     0.0000    12.0000 </r>
       <r>   -13.0888     0.0000    12.0000 </r>
       <r>   -12.9750     0.0000    12.0000 </r>
       <r>   -12.8612     0.0000    12.0000 </r>
       <r>   -12.7474     0.0000    12.0000 </r>
       <r>   -12.6336     0.0000    12.0000 </r>
       <r>   -12.5198     0.0000    12.0000 </r>
       <r>   -12.4060     0.0000    12.0000 </r>
       <r>   -12.2922     0.0000    12.0000 </r>
       <r>   -12.1784     0.0000    12.0000 </r>
       <r>   -12.0646     0.0000    12.0000 </r>
       <r>   -11.9508     0.0000    12.0000 </r>
       <r>   -11.8370     0.0000    12.0000 </r>
       <r>   -11.7232     0.0000    12.0000 </r>
       <r>   -11.6094     0.0000    12.0000 </r>
       <r>   -11.4956     0.0000    12.0000 </r>
       <r>   -11.3818     0.0000    12.0000 </r>
       <r>   -11.2680     0.0000    12.0000 </r>
       <r>   -11.1542     0.0000    12.0000 </r>
       <r>   -11.0403     0.0000    12.0000 </r>
       <r>   -10.9265     0.0000    12.0000 </r>
       <r>   -10.8127     0.0000    12.0000 </r>
       <r>   -10.6989     0.0000    12.0000 </r>
       <r>   -10.5851     0.0000    12.0000 </r>
       <r>   -10.4713     0.0000    12.0000 </r>
       <r>   -10.3575     0.0000    12.0000 </r>
       <r>   -10.2437     0.0000    12.0000 </r>
       <r>   -10.1299     0.0000    12.0000 </r>
       <r>   -10.0161     0.0000    12.0000 </r>
       <r>    -9.9023     0.0000    12.0000 </r>
       <r>    -9.7885     0.0000    12.0000 </r>
       <r>    -9.6747     0.0000    12.0000 </r>
       <r>    -9.5609     0.0000    12.0000 </r>
       <r>    -9.4471     0.0000    12.0000 </r>
       <r>    -9.3333     0.0000    12.0000 </r>
       <r>    -9.2195     0.0000    12.0000 </r>
       <r>    -9.1057     0.0000    12.0000 </r>
       <r>    -8.9919     0.0000    12.0000 </r>
       <r>    -8.8781     0.0000    12.0000 </r>
       <r>    -8.7643     0.0000    12.0000 </r>
       <r>    -8.6504     0.0000    12.0000 </r>
       <r>    -8.5366     0.0000    12.0000 </r>
       <r>    -8.4228     0.0000    12.0000 </r>
       <r>    -8.3090     0.0000    12.0000 </r>
       <r>    -8.1952     0.0616    12.0010 </r>
       <r>    -8.0814     0.3508    12.0233 </r>
       <r>    -7.9676     0.4821    12.0725 </r>
       <r>    -7.8538     0.6916    12.1390 </r>
       <r>    -7.7400     0.8877    12.2295 </r>
       <r>    -7.6262     1.2230    12.3470 </r>
       <r>    -7.5124     1.6881    12.5111 </r>
       <r>    -7.3986     3.0347    12.7597 </r>
       <r>    -7.2848     8.3911    13.5059 </r>
       <r>    -7.1710     0.9379    13.8846 </r>
       <r>    -7.0572     0.5019    13.9644 </r>
       <r>    -6.9434     0.2694    14.0068 </r>
       <r>    -6.8296     0.2453    14.0328 </r>
       <r>    -6.7158     0.3839    14.0684 </r>
       <r>    -6.6020     0.5807    14.1220 </r>
       <r>    -6.4882     0.9734    14.2083 </r>
       <r>    -6.3744     1.6173    14.3522 </r>
       <r>    -6.2605     4.2844    14.6452 </r>
       <r>    -6.1467     3.5576    15.2629 </r>
       <r>    -6.0329     2.0275    15.5743 </r>
       <r>    -5.9191     1.1807    15.7500 </r>
       <r>    -5.8053     0.8023    15.8610 </r>
       <r>    -5.6915     0.5362    15.9363 </r>
       <r>    -5.5777     0.3251    15.9933 </r>
       <r>    -5.4639     0.6006    16.0158 </r>
       <r>    -5.3501     2.5863    16.2008 </r>
       <r>    -5.2363     3.3978    16.5780 </r>
       <r>    -5.1225     2.9033    16.9152 </r>
       <r>    -5.0087     2.6823    17.2413 </r>
       <r>    -4.8949     1.8756    17.5029 </r>
       <r>    -4.7811     1.3699    17.6852 </r>
       <r>    -4.6673     1.0068    17.8194 </r>
       <r>    -4.5535     0.6732    17.9147 </r>
       <r>    -4.4397     1.8784    18.0297 </r>
       <r>    -4.3259    18.9058    19.2026 </r>
       <r>    -4.2121     8.2214    20.4303 </r>
       <r>    -4.0983     6.6187    21.1476 </r>
       <r>    -3.9845     4.4549    21.8213 </r>
       <r>    -3.8706     7.3064    22.3272 </r>
       <r>    -3.7568     6.7729    23.2132 </r>
       <r>    -3.6430     3.2423    23.7676 </r>
       <r>    -3.5292     0.4819    23.9892 </r>
       <r>    -3.4154     0.0000    24.0000 </r>
       <r>    -3.3016     0.0000    24.0000 </r>
       <r>    -3.1878     0.0000    24.0000 </r>
       <r>    -3.0740     0.0000    24.0000 </r>
       <r>    -2.9602     0.0000    24.0000 </r>
       <r>    -2.8464     0.0000    24.0000 </r>
       <r>    -2.7326     0.0000    24.0000 </r>
       <r>    -2.6188     0.0000    24.0000 </r>
       <r>    -2.5050     0.0000    24.0000 </r>
       <r>    -2.3912     0.0000    24.0000 </r>
       <r>    -2.2774     0.0000    24.0000 </r>
       <r>    -2.1636     2.9271    24.0309 </r>
       <r>    -2.0498    12.7785    25.2024 </r>
       <r>    -1.9360     5.9958    26.1340 </r>
       <r>    -1.8222     8.0007    26.7890 </r>
       <r>    -1.7084     6.4489    27.6696 </r>
       <r>    -1.5945     6.2924    28.3349 </r>
       <r>    -1.4807     6.0914    29.3799 </r>
       <r>    -1.3669     2.6456    29.9569 </r>
       <r>    -1.2531     3.3889    30.1347 </r>
       <r>    -1.1393     9.1208    31.4281 </r>
       <r>    -1.0255     2.5162    31.9438 </r>
       <r>    -0.9117    20.7815    33.2776 </r>
       <r>    -0.7979     1.8223    33.9224 </r>
       <r>    -0.6841     6.9395    34.3327 </r>
       <r>    -0.5703     7.4523    35.0563 </r>
       <r>    -0.4565    11.0963    36.2601 </r>
       <r>    -0.3427     5.6193    37.3943 </r>
       <r>    -0.2289     4.7142    37.9476 </r>
       <r>    -0.1151    11.4780    38.9908 </r>
       <r>    -0.0013     5.1883    40.0090 </r>
       <r>     0.1125    13.8775    40.8937 </r>
       <r>     0.2263     0.0000    42.0000 </r>
       <r>     0.3401    11.2475    42.4489 </r>
       <r>     0.4539     3.9251    43.6225 </r>
       <r>     0.5677     4.2848    44.1155 </r>
       <r>     0.6815     6.6461    44.7040 </r>
       <r>     0.7954     9.9443    45.7162 </r>
       <r>     0.9092     6.9157    46.4867 </r>
       <r>     1.0230    12.1013    47.6788 </r>
       <r>     1.1368     0.0000    48.0000 </r>
       <r>     1.2506     0.0000    48.0000 </r>
       <r>     1.3644     0.0000    48.0000 </r>
       <r>     1.4782     0.0000    48.0000 </r>
       <r>     1.5920     0.0000    48.0000 </r>
       <r>     1.7058     0.0000    48.0000 </r>
       <r>     1.8196     0.0000    48.0000 </r>
       <r>     1.9334     0.0000    48.0000 </r>
       <r>     2.0472     0.0000    48.0000 </r>
       <r>     2.1610     0.0000    48.0000 </r>
       <r>     2.2748     0.0000    48.0000 </r>
       <r>     2.3886     0.0000    48.0000 </r>
       <r>     2.5024     0.0000    48.0000 </r>
       <r>     2.6162     0.0000    48.0000 </r>
       <r>     2.7300     0.0000    48.0000 </r>
       <r>     2.8438     0.0000    48.0000 </r>
       <r>     2.9576     0.0000    48.0000 </r>
       <r>     3.0714     0.0000    48.0000 </r>
       <r>     3.1853     0.0000    48.0000 </r>
       <r>     3.2991     0.0000    48.0000 </r>
       <r>     3.4129     0.0000    48.0000 </r>
       <r>     3.5267     0.0000    48.0000 </r>
       <r>     3.6405     0.0000    48.0000 </r>
       <r>     3.7543     0.0000    48.0000 </r>
       <r>     3.8681     0.0000    48.0000 </r>
       <r>     3.9819     0.0000    48.0000 </r>
       <r>     4.0957     0.0000    48.0000 </r>
       <r>     4.2095     0.0000    48.0000 </r>
       <r>     4.3233     0.0000    48.0000 </r>
       <r>     4.4371     0.0000    48.0000 </r>
       <r>     4.5509     0.0000    48.0000 </r>
       <r>     4.6647     0.0000    48.0000 </r>
       <r>     4.7785     0.0000    48.0000 </r>
       <r>     4.8923     0.0000    48.0000 </r>
       <r>     5.0061     0.0000    48.0000 </r>
       <r>     5.1199     0.0000    48.0000 </r>
       <r>     5.2337     0.0000    48.0000 </r>
       <r>     5.3475     0.0000    48.0000 </r>
       <r>     5.4613     0.0000    48.0000 </r>
       <r>     5.5752     0.0000    48.0000 </r>
       <r>     5.6890     0.0000    48.0000 </r>
       <r>     5.8028     0.0000    48.0000 </r>
       <r>     5.9166     0.0000    48.0000 </r>
       <r>     6.0304     0.0000    48.0000 </r>
       <r>     6.1442     0.0000    48.0000 </r>
       <r>     6.2580     0.0000    48.0000 </r>
       <r>     6.3718     0.0000    48.0000 </r>
       <r>     6.4856     0.0000    48.0000 </r>
       <r>     6.5994     0.0000    48.0000 </r>
       <r>     6.7132     0.0000    48.0000 </r>
       <r>     6.8270     0.0000    48.0000 </r>
       <r>     6.9408     0.0000    48.0000 </r>
       <r>     7.0546     0.0000    48.0000 </r>
       <r>     7.1684     0.0023    48.0000 </r>
       <r>     7.2822     0.0261    48.0014 </r>
       <r>     7.3960     0.0760    48.0070 </r>
       <r>     7.5098     0.1520    48.0197 </r>
       <r>     7.6236     0.2251    48.0419 </r>
       <r>     7.7374     0.2645    48.0699 </r>
       <r>     7.8512     0.2865    48.1015 </r>
       <r>     7.9651     0.3205    48.1356 </r>
       <r>     8.0789     0.3669    48.1747 </r>
       <r>     8.1927     0.4158    48.2192 </r>
       <r>     8.3065     0.4673    48.2694 </r>
       <r>     8.4203     0.5208    48.3256 </r>
       <r>     8.5341     0.6102    48.3887 </r>
       <r>     8.6479     0.7629    48.4669 </r>
       <r>     8.7617     0.8378    48.5617 </r>
       <r>     8.8755     0.8521    48.6556 </r>
       <r>     8.9893     0.9133    48.7560 </r>
       <r>     9.1031     0.9765    48.8635 </r>
       <r>     9.2169     1.0415    48.9783 </r>
       <r>     9.3307     1.4442    49.1129 </r>
       <r>     9.4445     1.5159    49.2851 </r>
       <r>     9.5583     1.2654    49.4408 </r>
       <r>     9.6721     1.2825    49.5828 </r>
       <r>     9.7859     1.5218    49.7429 </r>
       <r>     9.8997     2.0141    49.9237 </r>
       <r>    10.0135     1.2488    50.1220 </r>
       <r>    10.1273     1.1926    50.2520 </r>
       <r>    10.2412     3.1377    50.4768 </r>
       <r>    10.3550    11.4864    51.1620 </r>
       <r>    10.4688     4.1627    52.0787 </r>
       <r>    10.5826     6.0381    52.5819 </r>
       <r>    10.6964     7.5409    53.4505 </r>
       <r>    10.8102     4.5781    54.2029 </r>
       <r>    10.9240     2.3306    54.5473 </r>
       <r>    11.0378     4.8457    54.9401 </r>
       <r>    11.1516     5.7007    55.7242 </r>
       <r>    11.2654     3.9427    56.1366 </r>
       <r>    11.3792     6.9124    56.7954 </r>
       <r>    11.4930     6.6449    57.5169 </r>
       <r>    11.6068     1.7721    57.9600 </r>
       <r>    11.7206     0.0162    57.9997 </r>
       <r>    11.8344     0.0000    58.0000 </r>
       <r>    11.9482     0.0000    58.0000 </r>
       <r>    12.0620     0.0000    58.0000 </r>
       <r>    12.1758     0.0000    58.0000 </r>
       <r>    12.2896     0.0000    58.0000 </r>
       <r>    12.4034     0.0000    58.0000 </r>
       <r>    12.5172     0.0000    58.0000 </r>
       <r>    12.6311     0.0000    58.0000 </r>
       <r>    12.7449     0.0000    58.0000 </r>
       <r>    12.8587     0.0000    58.0000 </r>
       <r>    12.9725     0.0000    58.0000 </r>
       <r>    13.0863     0.0000    58.0000 </r>
       <r>    13.2001     0.0000    58.0000 </r>
       <r>    13.3139     0.0000    58.0000 </r>
       <r>    13.4277     0.0000    58.0000 </r>
       <r>    13.5415     0.0000    58.0000 </r>
       <r>    13.6553     0.0000    58.0000 </r>
       <r>    13.7691     0.0000    58.0000 </r>
      </set>
     </set>
    </array>
   </total>
  </dos>
 </calculation>
 <structure name="finalpos" >
  <crystal>
   <varray name="basis" >
    <v>       4.91370000       0.00000000       0.00000000 </v>
    <v>      -2.45685000       4.25538903       0.00000000 </v>
    <v>       0.00000000       0.00000000       5.40513000 </v>
   </varray>
   <i name="volume">    113.01967420 </i>
   <varray name="rec_basis" >
    <v>       0.20351263       0.11749807       0.00000000 </v>
    <v>       0.00000000       0.23499614       0.00000000 </v>
    <v>       0.00000000       0.00000000       0.18500943 </v>
   </varray>
  </crystal>
  <varray name="positions" >
   <v>       0.46980000       0.00000000       0.66667000 </v>
   <v>       0.00000000       0.46980000       0.33333000 </v>
   <v>       0.53020000       0.53020000       0.00000000 </v>
   <v>       0.41450000       0.26620000       0.78560000 </v>
   <v>       0.73380000       0.14830000       0.45227000 </v>
   <v>       0.85170000       0.58550000       0.11893000 </v>
   <v>       0.14830000       0.73380000       0.54773000 </v>
   <v>       0.26620000       0.41450000       0.21440000 </v>
   <v>       0.58550000       0.85170000       0.88107000 </v>
  </varray>
 </structure>
</modeling>
