unknown system                          
   1.00000000000000     
     2.573869    0.000000    0.000000
     1.286934    2.229036    0.000000
     0.000000    0.000000   30.304665
   Cu   H 
     4     1
Direct
  0.999706  0.000588  0.396567
  0.333186  0.333624  0.465140
  0.665829  0.668343  0.533594
  0.000801  0.998398  0.604216
  0.500476  0.999044  0.640803
 
   20   20  240
 -.18784E-01 -.17537E-01 -.13815E-01 -.87401E-02 -.36967E-02 0.33297E-03 0.30176E-02 0.44450E-02 0.48312E-02 0.44960E-02
 0.39423E-02 0.36814E-02 0.38209E-02 0.38458E-02 0.29076E-02 0.40449E-03 -.36393E-02 -.86058E-02 -.13520E-01 -.17259E-01
 -.17422E-01 -.14792E-01 -.10106E-01 -.48386E-02 -.57852E-03 0.17336E-02 0.21456E-02 0.14788E-02 0.79177E-03 0.84007E-03
 0.17483E-02 0.29979E-02 0.37295E-02 0.32062E-02 0.11530E-02 -.22232E-02 -.64438E-02 -.10911E-01 -.14864E-01 -.17338E-01
 -.13624E-01 -.10374E-01 -.59785E-02 -.19396E-02 0.27643E-03 -.91985E-04 -.26304E-02 -.58540E-02 -.79800E-02 -.79352E-02
 -.59045E-02 -.30606E-02 -.77390E-03 0.51964E-04 -.85259E-03 -.32984E-02 -.67912E-02 -.10544E-01 -.13527E-01 -.14740E-01
 -.87508E-02 -.60301E-02 -.31606E-02 -.13685E-02 -.19218E-02 -.54622E-02 -.11289E-01 -.17336E-01 -.21132E-01 -.21135E-01
 -.17490E-01 -.11766E-01 -.60597E-02 -.21350E-02 -.91282E-03 -.22971E-02 -.52816E-02 -.83833E-02 -.10293E-01 -.10378E-01
 -.40040E-02 -.24957E-02 -.18037E-02 -.30720E-02 -.74308E-02 -.15113E-01 -.24652E-01 -.33044E-01 -.37077E-01 -.35024E-01
 -.27574E-01 -.17451E-01 -.80476E-02 -.19292E-02 0.79500E-04 -.11019E-02 -.35825E-02 -.55804E-02 -.61920E-02 -.54734E-02
 -.21201E-03 -.24031E-04 -.20187E-02 -.74599E-02 -.16875E-01 -.29172E-01 -.41352E-01 -.49400E-01 -.50157E-01 -.43077E-01
 -.30671E-01 -.17247E-01 -.67389E-02 -.10248E-02 0.37749E-03 -.63750E-03 -.20890E-02 -.27742E-02 -.24080E-02 -.13277E-02
 0.17165E-02 0.62735E-03 -.44532E-02 -.14495E-01 -.28600E-01 -.43709E-01 -.55369E-01 -.59518E-01 -.54522E-01 -.42187E-01
 -.26920E-01 -.13445E-01 -.45898E-02 -.54884E-03 0.22489E-03 -.41866E-03 -.11810E-02 -.13594E-02 -.66012E-03 0.70032E-03
 0.12427E-02 -.90134E-03 -.84889E-02 -.21576E-01 -.37645E-01 -.52181E-01 -.60401E-01 -.59431E-01 -.49774E-01 -.35072E-01
 -.20199E-01 -.88961E-02 -.24801E-02 -.19111E-03 -.44626E-03 -.17956E-02 -.30989E-02 -.34094E-02 -.22205E-02 -.56583E-04
 -.88424E-03 -.34191E-02 -.11814E-01 -.25116E-01 -.39872E-01 -.51312E-01 -.55426E-01 -.50856E-01 -.39478E-01 -.25350E-01
 -.12741E-01 -.44364E-02 -.11411E-02 -.18984E-02 -.49022E-02 -.81710E-02 -.10004E-01 -.93991E-02 -.64950E-02 -.27993E-02
 -.30069E-02 -.51982E-02 -.12794E-01 -.24101E-01 -.35536E-01 -.42990E-01 -.43669E-01 -.37351E-01 -.26387E-01 -.14591E-01
 -.57199E-02 -.21581E-02 -.41835E-02 -.99900E-02 -.16512E-01 -.20756E-01 -.21006E-01 -.17351E-01 -.11425E-01 -.57536E-02
 -.39108E-02 -.55776E-02 -.11723E-01 -.20062E-01 -.27367E-01 -.30693E-01 -.28609E-01 -.21808E-01 -.12873E-01 -.53755E-02
 -.25890E-02 -.61112E-02 -.14943E-01 -.25675E-01 -.33963E-01 -.36596E-01 -.32889E-01 -.24663E-01 -.15099E-01 -.74055E-02
 -.33107E-02 -.46873E-02 -.92476E-02 -.14349E-01 -.17558E-01 -.17394E-01 -.13796E-01 -.82082E-02 -.32534E-02 -.19528E-02
 -.65403E-02 -.17203E-01 -.31436E-01 -.44678E-01 -.52197E-01 -.51301E-01 -.42571E-01 -.29417E-01 -.16349E-01 -.70685E-02
 -.14648E-02 -.26192E-02 -.55487E-02 -.78878E-02 -.83081E-02 -.65964E-02 -.35503E-02 -.84102E-03 -.71163E-03 -.53276E-02
 -.15791E-01 -.31150E-01 -.48008E-01 -.61316E-01 -.66366E-01 -.61100E-01 -.47334E-01 -.29967E-01 -.14570E-01 -.48468E-02
 0.76056E-03 -.11036E-03 -.18114E-02 -.27718E-02 -.24807E-02 -.11967E-02 0.18765E-03 0.15685E-03 -.32162E-02 -.11627E-01
 -.25526E-01 -.43153E-01 -.60317E-01 -.71548E-01 -.72507E-01 -.62390E-01 -.44679E-01 -.25450E-01 -.10276E-01 -.17737E-02
 0.17430E-02 0.90781E-03 -.37563E-03 -.11700E-02 -.11342E-02 -.41786E-03 0.14105E-03 -.11299E-02 -.63588E-02 -.17083E-01
 -.32927E-01 -.50816E-01 -.65558E-01 -.71927E-01 -.67304E-01 -.53225E-01 -.34665E-01 -.17453E-01 -.55070E-02 0.36766E-03
 0.12524E-03 -.10730E-02 -.22646E-02 -.27536E-02 -.22178E-02 -.92450E-03 -.94332E-04 -.18799E-02 -.85020E-02 -.20725E-01
 -.36618E-01 -.51701E-01 -.60786E-01 -.60569E-01 -.51327E-01 -.36639E-01 -.21401E-01 -.94901E-02 -.24779E-02 0.19212E-03
 -.39001E-02 -.54473E-02 -.60819E-02 -.54108E-02 -.35361E-02 -.12466E-02 -.18727E-03 -.25045E-02 -.96914E-02 -.21182E-01
 -.33867E-01 -.43284E-01 -.45923E-01 -.41089E-01 -.31056E-01 -.19588E-01 -.10027E-01 -.41122E-02 -.18858E-02 -.22912E-02
 -.89258E-02 -.10389E-01 -.10024E-01 -.80014E-02 -.50099E-02 -.21718E-02 -.96635E-03 -.28138E-02 -.82169E-02 -.16000E-01
 -.23455E-01 -.27602E-01 -.26799E-01 -.21576E-01 -.14173E-01 -.72851E-02 -.28924E-02 -.17068E-02 -.32256E-02 -.61423E-02
 -.13673E-01 -.14626E-01 -.13280E-01 -.10263E-01 -.65520E-02 -.31744E-02 -.10632E-02 -.91137E-03 -.28864E-02 -.63328E-02
 -.98094E-02 -.11659E-01 -.10874E-01 -.77123E-02 -.36227E-02 -.52783E-03 0.11847E-03 -.20212E-02 -.60916E-02 -.10506E-01
 -.17285E-01 -.17355E-01 -.14958E-01 -.10936E-01 -.63978E-02 -.22628E-02 0.90480E-03 0.27623E-02 0.31001E-02 0.20395E-02
 0.29145E-03 -.10033E-02 -.96592E-03 0.30966E-03 0.16897E-02 0.17028E-02 -.53167E-03 -.48118E-02 -.10008E-01 -.14606E-01
 -.76427E-02 -.69157E-02 -.53165E-02 -.34399E-02 -.18581E-02 -.93564E-03 -.77858E-03 -.12739E-02 -.21578E-02 -.30841E-02
 -.36981E-02 -.37343E-02 -.31333E-02 -.21302E-02 -.12288E-02 -.10090E-02 -.18224E-02 -.35487E-02 -.55922E-02 -.71572E-02
 -.69643E-02 -.57229E-02 -.36495E-02 -.15564E-02 -.33852E-03 -.48907E-03 -.17923E-02 -.34267E-02 -.44556E-02 -.43856E-02
 -.34014E-02 -.21343E-02 -.11978E-02 -.87540E-03 -.11464E-02 -.19032E-02 -.30783E-02 -.45615E-02 -.60450E-02 -.70139E-02
 -.55718E-02 -.41814E-02 -.22283E-02 -.62344E-03 -.17157E-03 -.10658E-02 -.27314E-02 -.41681E-02 -.45809E-02 -.38521E-02
 -.25205E-02 -.13272E-02 -.72495E-03 -.72663E-03 -.11243E-02 -.17883E-02 -.27401E-02 -.39633E-02 -.51847E-02 -.58823E-02
 -.38427E-02 -.27613E-02 -.15458E-02 -.69838E-03 -.52111E-03 -.10099E-02 -.19031E-02 -.28267E-02 -.34463E-02 -.35634E-02
 -.31490E-02 -.23340E-02 -.13771E-02 -.60828E-03 -.33721E-03 -.73358E-03 -.17231E-02 -.29674E-02 -.39751E-02 -.43176E-02
 -.18825E-02 -.14302E-02 -.10970E-02 -.79928E-03 -.51657E-03 -.44982E-03 -.91085E-03 -.19918E-02 -.33198E-02 -.41839E-02
 -.40025E-02 -.27717E-02 -.11180E-02 0.99300E-04 0.32929E-03 -.37610E-03 -.14806E-02 -.23528E-02 -.26364E-02 -.23786E-02
 -.17268E-03 -.29141E-03 -.62812E-03 -.90334E-03 -.10437E-02 -.12635E-02 -.18314E-02 -.27218E-02 -.35004E-02 -.36037E-02
 -.28025E-02 -.14430E-02 -.24111E-03 0.21072E-03 -.16870E-03 -.94716E-03 -.15225E-02 -.15324E-02 -.10497E-02 -.46514E-03
 0.61185E-03 0.30220E-03 -.46010E-03 -.14976E-02 -.25119E-02 -.32053E-02 -.33937E-02 -.30636E-02 -.23618E-02 -.15327E-02
 -.82721E-03 -.41494E-03 -.33133E-03 -.48319E-03 -.70355E-03 -.82323E-03 -.72961E-03 -.40385E-03 0.61726E-04 0.47652E-03
 0.51498E-03 0.35748E-03 -.50859E-03 -.19253E-02 -.32753E-02 -.38703E-02 -.34408E-02 -.23310E-02 -.12323E-02 -.67320E-03
 -.68001E-03 -.85945E-03 -.78870E-03 -.36294E-03 0.16951E-03 0.46809E-03 0.40765E-03 0.17531E-03 0.86280E-04 0.27407E-03
 0.17373E-03 0.22037E-03 -.29615E-03 -.12841E-02 -.22731E-02 -.27804E-02 -.26822E-02 -.22603E-02 -.18968E-02 -.17162E-02
 -.15079E-02 -.97668E-03 -.67653E-04 0.92808E-03 0.15649E-02 0.15610E-02 0.10013E-02 0.28567E-03 -.14102E-03 -.10237E-03
 -.17255E-03 -.91703E-04 -.53935E-04 -.33087E-03 -.99562E-03 -.18676E-02 -.26156E-02 -.29327E-02 -.26751E-02 -.19082E-02
 -.85487E-03 0.21843E-03 0.11111E-02 0.17300E-02 0.20486E-02 0.20472E-02 0.17150E-02 0.11204E-02 0.45865E-03 -.19310E-04
 -.64824E-03 -.74770E-03 -.48028E-03 -.42276E-03 -.90542E-03 -.17280E-02 -.23157E-02 -.21856E-02 -.13300E-02 -.19991E-03
 0.67773E-03 0.11093E-02 0.13273E-02 0.17115E-02 0.23954E-02 0.30963E-02 0.33102E-02 0.27179E-02 0.14766E-02 0.15663E-03
 -.88138E-03 -.13092E-02 -.12775E-02 -.11586E-02 -.11245E-02 -.10470E-02 -.70704E-03 -.88128E-04 0.55572E-03 0.93461E-03
 0.10253E-02 0.11336E-02 0.16419E-02 0.26603E-02 0.38733E-02 0.47000E-02 0.46432E-02 0.35962E-02 0.19208E-02 0.24804E-03
 -.30369E-03 -.10273E-02 -.13228E-02 -.11307E-02 -.55835E-03 0.11546E-03 0.56394E-03 0.61976E-03 0.42933E-03 0.40326E-03
 0.94588E-03 0.21419E-02 0.36497E-02 0.48995E-02 0.54407E-02 0.51691E-02 0.42915E-02 0.31175E-02 0.18808E-02 0.70842E-03
 0.66859E-03 -.86138E-04 -.52057E-03 -.44436E-03 -.68857E-04 0.15197E-03 -.58711E-04 -.48528E-03 -.51317E-03 0.40316E-03
 0.22606E-02 0.44106E-02 0.59416E-02 0.62597E-02 0.54374E-02 0.40915E-02 0.29118E-02 0.22112E-02 0.18211E-02 0.13674E-02
 0.84495E-03 0.33934E-03 -.13030E-03 -.42794E-03 -.61046E-03 -.79414E-03 -.92459E-03 -.71263E-03 0.16407E-03 0.17549E-02
 0.36891E-02 0.53183E-02 0.60551E-02 0.56903E-02 0.44973E-02 0.30664E-02 0.19645E-02 0.14278E-02 0.12866E-02 0.11741E-02
 -.23141E-03 -.50974E-03 -.97066E-03 -.13461E-02 -.13655E-02 -.93879E-03 -.19149E-03 0.64721E-03 0.14146E-02 0.21160E-02
 0.28643E-02 0.36898E-02 0.43887E-02 0.45885E-02 0.40257E-02 0.28092E-02 0.14117E-02 0.36221E-03 -.10967E-03 -.18198E-03
 -.19388E-02 -.22683E-02 -.25423E-02 -.23779E-02 -.15732E-02 -.36102E-03 0.70065E-03 0.11369E-02 0.93903E-03 0.59908E-03
 0.73555E-03 0.15877E-02 0.27817E-02 0.35711E-02 0.33764E-02 0.22013E-02 0.60529E-03 -.72676E-03 -.14561E-02 -.17339E-02
 -.37298E-02 -.42315E-02 -.41266E-02 -.33198E-02 -.20516E-02 -.82647E-03 -.11147E-03 -.32654E-04 -.31328E-03 -.49859E-03
 -.28052E-03 0.31909E-03 0.10060E-02 0.14263E-02 0.13689E-02 0.84231E-03 0.91708E-05 -.94923E-03 -.19298E-02 -.28885E-02
 -.55615E-02 -.59742E-02 -.54488E-02 -.43467E-02 -.31328E-02 -.21090E-02 -.13265E-02 -.72287E-03 -.32317E-03 -.27718E-03
 -.67128E-03 -.13127E-02 -.17548E-02 -.16110E-02 -.90534E-03 -.13427E-03 0.40774E-04 -.76012E-03 -.23796E-02 -.42150E-02
 -.71075E-02 -.70366E-02 -.60414E-02 -.46671E-02 -.33268E-02 -.21531E-02 -.11471E-02 -.42451E-03 -.27215E-03 -.90974E-03
 -.21611E-02 -.33811E-02 -.38009E-02 -.30800E-02 -.16292E-02 -.41139E-03 -.33366E-03 -.16615E-02 -.38622E-02 -.59568E-02
 0.18977E-01 0.17971E-01 0.14281E-01 0.90400E-02 0.38570E-02 -.62131E-04 -.23784E-02 -.34158E-02 -.36981E-02 -.36969E-02
 -.37956E-02 -.41833E-02 -.46418E-02 -.45343E-02 -.31731E-02 -.28080E-03 0.38739E-02 0.86909E-02 0.13435E-01 0.17208E-01
 0.17671E-01 0.15309E-01 0.11211E-01 0.65564E-02 0.23431E-02 -.88118E-03 -.28823E-02 -.35447E-02 -.29608E-02 -.16754E-02
 -.61480E-03 -.52354E-03 -.13372E-02 -.21093E-02 -.16152E-02 0.85871E-03 0.51179E-02 0.10190E-01 0.14735E-01 0.17487E-01
 0.13437E-01 0.10354E-01 0.66875E-02 0.33002E-02 0.86624E-03 -.67611E-04 0.79226E-03 0.31729E-02 0.60747E-02 0.80885E-02
 0.81200E-02 0.60637E-02 0.29538E-02 0.47165E-03 0.90692E-04 0.23262E-02 0.64734E-02 0.10959E-01 0.14115E-01 0.14942E-01
 0.80755E-02 0.51951E-02 0.25472E-02 0.11949E-02 0.21851E-02 0.59988E-02 0.11886E-01 0.17822E-01 0.21409E-01 0.21177E-01
 0.17331E-01 0.11502E-01 0.58645E-02 0.22252E-02 0.14603E-02 0.33059E-02 0.65223E-02 0.94598E-02 0.10832E-01 0.10231E-01
 0.38030E-02 0.16428E-02 0.57014E-03 0.23549E-02 0.82059E-02 0.17604E-01 0.27908E-01 0.35396E-01 0.37234E-01 0.32990E-01
 0.24645E-01 0.15295E-01 0.76169E-02 0.30078E-02 0.15402E-02 0.23590E-02 0.41870E-02 0.58016E-02 0.63830E-02 0.56421E-02
 0.11851E-02 0.94380E-04 0.13630E-02 0.69741E-02 0.17448E-01 0.30877E-01 0.43277E-01 0.50320E-01 0.49519E-01 0.41456E-01
 0.29296E-01 0.17018E-01 0.75760E-02 0.20470E-02 -.60161E-04 0.63590E-04 0.12288E-02 0.24822E-02 0.30810E-02 0.25808E-02
 -.21034E-03 0.33641E-03 0.44930E-02 0.13580E-01 0.27081E-01 0.42190E-01 0.54471E-01 0.59643E-01 0.55689E-01 0.44013E-01
 0.28771E-01 0.14696E-01 0.48885E-02 -.56730E-04 -.13491E-02 -.68815E-03 0.57550E-03 0.15410E-02 0.16384E-02 0.79330E-03
 -.19293E-03 0.22099E-02 0.89988E-02 0.20490E-01 0.35197E-01 0.49684E-01 0.59420E-01 0.60672E-01 0.52556E-01 0.37831E-01
 0.21604E-01 0.87052E-02 0.14981E-02 -.51413E-03 0.51911E-03 0.23518E-02 0.35013E-02 0.33491E-02 0.20170E-02 0.34068E-03
 0.12808E-02 0.47706E-02 0.13183E-01 0.25706E-01 0.39649E-01 0.50937E-01 0.55568E-01 0.51522E-01 0.40008E-01 0.25077E-01
 0.11686E-01 0.33931E-02 0.10533E-02 0.30861E-02 0.67692E-02 0.96090E-02 0.10167E-01 0.82871E-02 0.49514E-02 0.19277E-02
 0.27620E-02 0.61111E-02 0.14807E-01 0.26611E-01 0.37636E-01 0.43895E-01 0.43075E-01 0.35574E-01 0.24207E-01 0.12896E-01
 0.51058E-02 0.26924E-02 0.54611E-02 0.11418E-01 0.17603E-01 0.21250E-01 0.20834E-01 0.16581E-01 0.10309E-01 0.47728E-02
 0.27269E-02 0.51772E-02 0.12732E-01 0.21993E-01 0.28946E-01 0.30860E-01 0.27366E-01 0.20212E-01 0.12181E-01 0.60702E-02
 0.40570E-02 0.72124E-02 0.14954E-01 0.24835E-01 0.33213E-01 0.36758E-01 0.33967E-01 0.25833E-01 0.15407E-01 0.66007E-02
 0.16387E-02 0.29706E-02 0.82165E-02 0.14065E-01 0.17653E-01 0.17644E-01 0.14416E-01 0.95563E-02 0.52667E-02 0.39137E-02
 0.74690E-02 0.16578E-01 0.29649E-01 0.42860E-01 0.51529E-01 0.52287E-01 0.44719E-01 0.31538E-01 0.17296E-01 0.64405E-02
 0.88461E-03 0.11341E-02 0.38305E-02 0.68109E-02 0.84763E-02 0.80121E-02 0.56068E-02 0.26518E-02 0.15994E-02 0.51742E-02
 0.15014E-01 0.30338E-01 0.47525E-01 0.61194E-01 0.66508E-01 0.61519E-01 0.48137E-01 0.31108E-01 0.15663E-01 0.53028E-02
 0.56753E-03 0.26710E-03 0.13183E-02 0.25659E-02 0.30263E-02 0.20497E-02 0.24471E-04 -.11369E-02 0.14941E-02 0.10363E-01
 0.25735E-01 0.44810E-01 0.62310E-01 0.72497E-01 0.71812E-01 0.60686E-01 0.43342E-01 0.25562E-01 0.11849E-01 0.38137E-02
 0.21928E-03 0.42125E-03 0.10434E-02 0.13531E-02 0.84328E-03 -.51970E-03 -.17204E-02 -.58281E-03 0.53984E-02 0.17572E-01
 0.34814E-01 0.53220E-01 0.67250E-01 0.72052E-01 0.65882E-01 0.51125E-01 0.33101E-01 0.17286E-01 0.67928E-02 0.16966E-02
 0.78293E-03 0.21298E-02 0.28373E-02 0.25751E-02 0.15621E-02 0.41669E-03 0.27552E-03 0.28142E-02 0.97222E-02 0.21593E-01
 0.36834E-01 0.51520E-01 0.60734E-01 0.60914E-01 0.51813E-01 0.36741E-01 0.20858E-01 0.86047E-02 0.18990E-02 0.91216E-05
 0.37368E-02 0.57580E-02 0.62805E-02 0.55002E-02 0.41031E-02 0.28199E-02 0.25362E-02 0.45462E-02 0.10191E-01 0.19739E-01
 0.31387E-01 0.41463E-01 0.46086E-01 0.43233E-01 0.33855E-01 0.21350E-01 0.98600E-02 0.24258E-02 -.81873E-04 0.11168E-02
 0.87134E-02 0.10486E-01 0.10330E-01 0.86093E-02 0.60421E-02 0.34685E-02 0.19918E-02 0.29477E-02 0.72235E-02 0.14288E-01
 0.21907E-01 0.27079E-01 0.27651E-01 0.23444E-01 0.16200E-01 0.86066E-02 0.31112E-02 0.10551E-02 0.23129E-02 0.54990E-02
 0.13759E-01 0.14831E-01 0.13592E-01 0.10321E-01 0.59837E-02 0.20127E-02 -.11772E-03 0.49881E-03 0.36300E-02 0.78198E-02
 0.11047E-01 0.11816E-01 0.99471E-02 0.65348E-02 0.32045E-02 0.12937E-02 0.14356E-02 0.35573E-02 0.70296E-02 0.10826E-01
 0.17411E-01 0.17623E-01 0.15064E-01 0.10317E-01 0.49197E-02 0.63440E-03 -.14521E-02 -.13812E-02 -.13041E-03 0.10040E-02
 0.10776E-02 -.67902E-04 -.17742E-02 -.29582E-02 -.27207E-02 -.77987E-03 0.25434E-02 0.66667E-02 0.11001E-01 0.14882E-01
 0.80490E-02 0.80758E-02 0.65308E-02 0.41051E-02 0.20891E-02 0.13282E-02 0.16792E-02 0.24446E-02 0.31183E-02 0.35695E-02
 0.36926E-02 0.32480E-02 0.22061E-02 0.10604E-02 0.53583E-03 0.96319E-03 0.20895E-02 0.35181E-02 0.51136E-02 0.67911E-02
 0.75508E-02 0.66771E-02 0.50065E-02 0.32729E-02 0.20364E-02 0.13766E-02 0.11263E-02 0.12990E-02 0.20884E-02 0.33951E-02
 0.45328E-02 0.46423E-02 0.34830E-02 0.17512E-02 0.56274E-03 0.63270E-03 0.19199E-02 0.38786E-02 0.58502E-02 0.72316E-02
 0.52676E-02 0.39162E-02 0.27307E-02 0.18289E-02 0.11367E-02 0.70707E-03 0.77772E-03 0.15342E-02 0.28375E-02 0.41720E-02
 0.48677E-02 0.44753E-02 0.30957E-02 0.14479E-02 0.53912E-03 0.10456E-02 0.28137E-02 0.49080E-02 0.62359E-02 0.62671E-02
 0.27779E-02 0.17175E-02 0.10236E-02 0.63935E-03 0.70865E-03 0.14617E-02 0.27433E-02 0.39136E-02 0.43599E-02 0.40137E-02
 0.32542E-02 0.24089E-02 0.15639E-02 0.87908E-03 0.80943E-03 0.17278E-02 0.33328E-02 0.46713E-02 0.49126E-02 0.40535E-02
 0.17536E-02 0.93895E-03 0.33433E-03 0.39188E-03 0.14801E-02 0.33483E-02 0.50082E-02 0.54252E-02 0.44207E-02 0.28052E-02
 0.15726E-02 0.10521E-02 0.90454E-03 0.79899E-03 0.84670E-03 0.13160E-02 0.21197E-02 0.27872E-02 0.29168E-02 0.24934E-02
 0.14939E-02 0.63335E-03 0.16969E-03 0.66566E-03 0.20912E-02 0.37863E-02 0.48940E-02 0.49436E-02 0.41197E-02 0.30224E-02
 0.21612E-02 0.16307E-02 0.12058E-02 0.69664E-03 0.19990E-03 0.25529E-04 0.39069E-03 0.11627E-02 0.18765E-02 0.20358E-02
 0.69586E-03 0.27506E-03 0.35796E-03 0.91635E-03 0.17100E-02 0.26462E-02 0.37280E-02 0.47234E-02 0.51319E-02 0.46196E-02
 0.34027E-02 0.20652E-02 0.10198E-02 0.27482E-03 -.26519E-03 -.46858E-03 -.12742E-03 0.61448E-03 0.12067E-02 0.11937E-02
 -.27589E-04 0.56848E-03 0.11923E-02 0.15144E-02 0.17371E-02 0.24566E-02 0.38665E-02 0.52603E-02 0.55642E-02 0.44022E-02
 0.24962E-02 0.95631E-03 0.29389E-03 0.21120E-03 0.20198E-03 0.99425E-04 0.23566E-05 -.68617E-04 -.18716E-03 -.26047E-03
 0.24174E-03 0.14173E-02 0.22703E-02 0.27260E-02 0.30938E-02 0.36599E-02 0.42539E-02 0.43100E-02 0.34360E-02 0.19000E-02
 0.48914E-03 -.13971E-03 0.29267E-04 0.45887E-03 0.56955E-03 0.15515E-03 -.57669E-03 -.12121E-02 -.13588E-02 -.82741E-03
 0.45902E-03 0.13916E-02 0.24810E-02 0.35537E-02 0.41617E-02 0.39616E-02 0.30714E-02 0.19742E-02 0.10903E-02 0.51365E-03
 0.14395E-03 -.72811E-04 -.14196E-03 -.18458E-03 -.42437E-03 -.92557E-03 -.14251E-02 -.15384E-02 -.11281E-02 -.38564E-03
 -.45080E-03 0.14825E-03 0.15110E-02 0.29149E-02 0.33811E-02 0.26936E-02 0.16308E-02 0.11138E-02 0.12576E-02 0.13855E-02
 0.88231E-03 -.17336E-03 -.12326E-02 -.18922E-02 -.21144E-02 -.19791E-02 -.15220E-02 -.90190E-03 -.47633E-03 -.44292E-03
 -.11778E-02 -.73054E-03 0.32867E-03 0.13478E-02 0.17653E-02 0.16696E-02 0.15949E-02 0.18178E-02 0.19969E-02 0.15568E-02
 0.33070E-03 -.12573E-02 -.25748E-02 -.32203E-02 -.31243E-02 -.24377E-02 -.14886E-02 -.75447E-03 -.60882E-03 -.94945E-03
 -.22371E-03 -.27337E-03 -.15632E-03 0.29352E-03 0.94627E-03 0.14484E-02 0.15086E-02 0.11163E-02 0.47506E-03 -.24615E-03
 -.10435E-02 -.19547E-02 -.28629E-02 -.34862E-02 -.35761E-02 -.31076E-02 -.22824E-02 -.13904E-02 -.68034E-03 -.29516E-03
 0.12065E-02 0.51978E-03 0.12225E-04 0.22338E-03 0.76952E-03 0.80429E-03 0.84793E-05 -.10479E-02 -.15759E-02 -.14465E-02
 -.12642E-02 -.16422E-02 -.25827E-02 -.35796E-02 -.41258E-02 -.39767E-02 -.30784E-02 -.15589E-02 0.10839E-03 0.11825E-02
 0.12654E-02 0.78873E-03 0.53096E-03 0.63313E-03 0.61349E-03 0.42265E-04 -.84554E-03 -.13772E-02 -.12372E-02 -.85525E-03
 -.93539E-03 -.17219E-02 -.28306E-02 -.36984E-02 -.40040E-02 -.36552E-02 -.26349E-02 -.11011E-02 0.43017E-03 0.12973E-02
 0.79785E-03 0.12979E-02 0.14631E-02 0.13143E-02 0.10184E-02 0.77154E-03 0.64370E-03 0.50168E-03 0.10537E-03 -.66781E-03
 -.16588E-02 -.24942E-02 -.28513E-02 -.26898E-02 -.22432E-02 -.17913E-02 -.14364E-02 -.10780E-02 -.57088E-03 0.10344E-03
 0.18260E-02 0.28009E-02 0.28233E-02 0.23936E-02 0.21912E-02 0.22859E-02 0.21272E-02 0.12466E-02 -.18533E-03 -.15207E-02
 -.22055E-02 -.21097E-02 -.14388E-02 -.55602E-03 0.86112E-04 0.94844E-04 -.51459E-03 -.11317E-02 -.95255E-03 0.25318E-03
 0.41465E-02 0.47225E-02 0.43059E-02 0.35272E-02 0.28676E-02 0.22146E-02 0.12630E-02 0.12011E-03 -.70721E-03 -.87429E-03
 -.53175E-03 -.46583E-04 0.41029E-03 0.83394E-03 0.10808E-02 0.90427E-03 0.40559E-03 0.22599E-03 0.10049E-02 0.26177E-02
 0.60973E-02 0.63572E-02 0.56503E-02 0.41708E-02 0.23650E-02 0.79051E-03 -.35786E-04 0.11945E-03 0.98565E-03 0.18765E-02
 0.21582E-02 0.17295E-02 0.10421E-02 0.64185E-03 0.72108E-03 0.11250E-02 0.17048E-02 0.25287E-02 0.37010E-02 0.50500E-02
 0.72948E-02 0.76475E-02 0.66002E-02 0.43155E-02 0.18510E-02 0.44775E-03 0.62072E-03 0.18741E-02 0.31986E-02 0.37908E-02
 0.34165E-02 0.23456E-02 0.11263E-02 0.35219E-03 0.40163E-03 0.12309E-02 0.24468E-02 0.36793E-02 0.48785E-02 0.61513E-02
 -.18821E-01 -.16522E-01 -.12682E-01 -.82588E-02 -.36614E-02 0.61835E-03 0.37061E-02 0.49751E-02 0.47715E-02 0.41654E-02
 0.39371E-02 0.40106E-02 0.38928E-02 0.33262E-02 0.22143E-02 0.10701E-03 -.36773E-02 -.90841E-02 -.14671E-01 -.18330E-01
 -.17185E-01 -.14306E-01 -.98959E-02 -.50105E-02 -.74601E-03 0.18853E-02 0.24406E-02 0.15310E-02 0.56140E-03 0.68135E-03
 0.18971E-02 0.32334E-02 0.36911E-02 0.29148E-02 0.98910E-03 -.20698E-02 -.62774E-02 -.11131E-01 -.15387E-01 -.17640E-01
 -.14222E-01 -.11159E-01 -.65836E-02 -.23334E-02 -.87400E-04 -.49266E-03 -.29338E-02 -.59491E-02 -.79537E-02 -.79432E-02
 -.59381E-02 -.29581E-02 -.46172E-03 0.44705E-03 -.50816E-03 -.29250E-02 -.62020E-02 -.97795E-02 -.12963E-01 -.14762E-01
 -.97775E-02 -.66202E-02 -.30686E-02 -.11915E-02 -.21868E-02 -.59324E-02 -.11384E-01 -.17000E-01 -.20906E-01 -.21367E-01
 -.17828E-01 -.11670E-01 -.55941E-02 -.18857E-02 -.11151E-02 -.24170E-02 -.47153E-02 -.73746E-02 -.97840E-02 -.10902E-01
 -.39764E-02 -.18305E-02 -.90428E-03 -.25943E-02 -.74658E-02 -.15142E-01 -.24308E-01 -.32617E-01 -.37079E-01 -.35452E-01
 -.27916E-01 -.17424E-01 -.80255E-02 -.24315E-02 -.84967E-03 -.17933E-02 -.36284E-02 -.53184E-02 -.61964E-02 -.57467E-02
 0.47508E-03 0.52394E-03 -.17165E-02 -.73459E-02 -.16817E-01 -.29085E-01 -.41251E-01 -.49355E-01 -.50202E-01 -.43174E-01
 -.30753E-01 -.17307E-01 -.68665E-02 -.13481E-02 -.19170E-03 -.13428E-02 -.26866E-02 -.30147E-02 -.21857E-02 -.74731E-03
 0.13577E-02 -.15747E-03 -.49842E-02 -.14561E-01 -.28610E-01 -.44010E-01 -.55737E-01 -.59513E-01 -.54147E-01 -.41886E-01
 -.26914E-01 -.13380E-01 -.40575E-02 0.23327E-03 0.57281E-03 -.78972E-03 -.17329E-02 -.13691E-02 -.12757E-03 0.10541E-02
 0.13168E-03 -.17655E-02 -.86008E-02 -.21315E-01 -.37711E-01 -.52648E-01 -.60678E-01 -.59142E-01 -.49306E-01 -.35015E-01
 -.20466E-01 -.87800E-02 -.16027E-02 0.93211E-03 0.12421E-03 -.18926E-02 -.32675E-02 -.32583E-02 -.21335E-02 -.62498E-03
 -.90671E-03 -.30580E-02 -.11247E-01 -.24724E-01 -.39840E-01 -.51444E-01 -.55428E-01 -.50728E-01 -.39514E-01 -.25748E-01
 -.13313E-01 -.47936E-02 -.11016E-02 -.16291E-02 -.46725E-02 -.80827E-02 -.10013E-01 -.94965E-02 -.67140E-02 -.30465E-02
 -.20822E-02 -.47123E-02 -.12682E-01 -.23988E-01 -.35294E-01 -.42855E-01 -.43815E-01 -.37605E-01 -.26510E-01 -.14707E-01
 -.62025E-02 -.30748E-02 -.50643E-02 -.10317E-01 -.16332E-01 -.20594E-01 -.21175E-01 -.17534E-01 -.11094E-01 -.48645E-02
 -.39132E-02 -.62638E-02 -.12323E-01 -.20032E-01 -.27032E-01 -.30694E-01 -.28951E-01 -.21851E-01 -.12279E-01 -.46827E-02
 -.25776E-02 -.67980E-02 -.15564E-01 -.25673E-01 -.33648E-01 -.36596E-01 -.33213E-01 -.24686E-01 -.14501E-01 -.67242E-02
 -.42264E-02 -.55454E-02 -.95442E-02 -.14144E-01 -.17386E-01 -.17570E-01 -.14002E-01 -.79061E-02 -.23855E-02 -.10319E-02
 -.60442E-02 -.17079E-01 -.31318E-01 -.44438E-01 -.52062E-01 -.51447E-01 -.42835E-01 -.29566E-01 -.16498E-01 -.75743E-02
 -.14240E-02 -.23524E-02 -.53213E-02 -.77989E-02 -.83156E-02 -.66929E-02 -.37699E-02 -.10908E-02 -.74016E-03 -.49749E-02
 -.15227E-01 -.30748E-01 -.47954E-01 -.61431E-01 -.66375E-01 -.61004E-01 -.47410E-01 -.30392E-01 -.15150E-01 -.52018E-02
 0.18650E-02 0.42691E-03 -.19376E-02 -.29523E-02 -.23206E-02 -.10851E-02 -.35301E-03 -.93911E-03 -.40869E-02 -.11760E-01
 -.25283E-01 -.43221E-01 -.60778E-01 -.71829E-01 -.72238E-01 -.61945E-01 -.44628E-01 -.25701E-01 -.10137E-01 -.88995E-03
 0.20759E-02 0.50874E-03 -.95187E-03 -.11841E-02 -.58529E-03 -.41624E-04 -.20545E-03 -.19171E-02 -.69010E-02 -.17164E-01
 -.32955E-01 -.51139E-01 -.65946E-01 -.71930E-01 -.66923E-01 -.52908E-01 -.34639E-01 -.17368E-01 -.49603E-02 0.11524E-02
 -.56523E-03 -.16624E-02 -.25082E-02 -.25428E-02 -.16524E-02 -.25117E-03 0.44624E-03 -.15750E-02 -.83789E-02 -.20663E-01
 -.36542E-01 -.51620E-01 -.60755E-01 -.60610E-01 -.51407E-01 -.36710E-01 -.21464E-01 -.96280E-02 -.28042E-02 -.36715E-03
 -.39080E-02 -.51627E-02 -.60960E-02 -.57187E-02 -.35438E-02 -.59674E-03 0.72146E-03 -.20026E-02 -.97015E-02 -.21195E-01
 -.33519E-01 -.42860E-01 -.45930E-01 -.41521E-01 -.31404E-01 -.19577E-01 -.10032E-01 -.46395E-02 -.28180E-02 -.29571E-02
 -.79044E-02 -.98802E-02 -.10558E-01 -.90397E-02 -.56036E-02 -.20733E-02 -.77590E-03 -.30623E-02 -.86713E-02 -.16085E-01
 -.23117E-01 -.27382E-01 -.27042E-01 -.21926E-01 -.14089E-01 -.68340E-02 -.26562E-02 -.19135E-02 -.33367E-02 -.55592E-02
 -.13127E-01 -.14648E-01 -.13856E-01 -.11015E-01 -.71335E-02 -.35668E-02 -.14430E-02 -.13291E-02 -.31965E-02 -.64268E-02
 -.97851E-02 -.11677E-01 -.10921E-01 -.76137E-02 -.32993E-02 -.11023E-03 0.48544E-03 -.16370E-02 -.55089E-02 -.97611E-02
 -.17597E-01 -.17104E-01 -.14438E-01 -.10691E-01 -.65568E-02 -.24472E-02 0.10232E-02 0.30313E-02 0.31457E-02 0.18131E-02
 0.13107E-03 -.86589E-03 -.73836E-03 0.28251E-03 0.14297E-02 0.15744E-02 -.35808E-03 -.46490E-02 -.10250E-01 -.15153E-01
 -.81469E-02 -.63415E-02 -.45532E-02 -.32136E-02 -.19313E-02 -.60820E-03 0.75254E-04 -.49986E-03 -.19354E-02 -.31182E-02
 -.34020E-02 -.31063E-02 -.27795E-02 -.24108E-02 -.17623E-02 -.12646E-02 -.19641E-02 -.42784E-02 -.71148E-02 -.86729E-02
 -.71691E-02 -.56283E-02 -.37369E-02 -.18998E-02 -.54053E-03 -.25530E-03 -.13442E-02 -.32004E-02 -.45219E-02 -.43926E-02
 -.30982E-02 -.17301E-02 -.10615E-02 -.10179E-02 -.12325E-02 -.17850E-02 -.30823E-02 -.50811E-02 -.69635E-02 -.77601E-02
 -.65366E-02 -.52623E-02 -.30256E-02 -.11003E-02 -.54361E-03 -.14684E-02 -.31068E-02 -.44522E-02 -.48511E-02 -.41992E-02
 -.28484E-02 -.14102E-02 -.48142E-03 -.33205E-03 -.78923E-03 -.15005E-02 -.23449E-02 -.34957E-02 -.49876E-02 -.62945E-02
 -.51183E-02 -.35229E-02 -.15426E-02 -.57258E-03 -.89891E-03 -.17791E-02 -.25770E-02 -.33545E-02 -.42654E-02 -.48409E-02
 -.43517E-02 -.28165E-02 -.12088E-02 -.46996E-03 -.58970E-03 -.94113E-03 -.13259E-02 -.22044E-02 -.37562E-02 -.51327E-02
 -.19696E-02 -.81963E-03 -.23701E-03 -.46186E-03 -.96207E-03 -.13193E-02 -.19008E-02 -.32969E-02 -.52090E-02 -.63489E-02
 -.56832E-02 -.35874E-02 -.15060E-02 -.54213E-03 -.63822E-03 -.11204E-02 -.16384E-02 -.22551E-02 -.28258E-02 -.28186E-02
 0.50830E-03 0.26549E-03 -.41437E-03 -.11686E-02 -.18756E-02 -.27214E-02 -.39003E-02 -.52314E-02 -.61025E-02 -.58737E-02
 -.44308E-02 -.23918E-02 -.74728E-03 -.20304E-03 -.73267E-03 -.16614E-02 -.21748E-02 -.18592E-02 -.91371E-03 0.61328E-04
 0.29281E-03 -.49144E-03 -.12340E-02 -.22928E-02 -.39599E-02 -.57232E-02 -.65916E-02 -.61201E-02 -.48148E-02 -.34475E-02
 -.22580E-02 -.10782E-02 -.42394E-04 0.28814E-03 -.31939E-03 -.11975E-02 -.13331E-02 -.48341E-03 0.54566E-03 0.83126E-03
 -.58273E-03 -.60419E-03 -.10760E-02 -.27470E-02 -.52199E-02 -.69673E-02 -.68053E-02 -.51278E-02 -.33909E-02 -.24932E-02
 -.20308E-02 -.11992E-02 -.71441E-05 0.77641E-03 0.71305E-03 0.25175E-03 0.55267E-04 0.14283E-03 0.53654E-04 -.32316E-03
 0.89963E-04 0.37104E-03 -.36904E-03 -.21989E-02 -.42894E-02 -.55469E-02 -.55420E-02 -.47675E-02 -.39832E-02 -.34218E-02
 -.27212E-02 -.15441E-02 -.87007E-04 0.10700E-02 0.14936E-02 0.11872E-02 0.46486E-03 -.27711E-03 -.66612E-03 -.48154E-03
 0.61398E-03 0.10676E-03 -.65484E-03 -.15256E-02 -.26383E-02 -.39710E-02 -.50000E-02 -.50704E-02 -.41072E-02 -.27389E-02
 -.16269E-02 -.83659E-03 -.29611E-04 0.84618E-03 0.13503E-02 0.11253E-02 0.46306E-03 0.58790E-04 0.23330E-03 0.60923E-03
 -.82250E-03 -.17214E-02 -.17205E-02 -.14797E-02 -.20238E-02 -.33223E-02 -.41093E-02 -.33142E-02 -.13764E-02 0.20397E-03
 0.51669E-03 0.71247E-04 -.71662E-04 0.40591E-03 0.97315E-03 0.11954E-02 0.12544E-02 0.13939E-02 0.12999E-02 0.48725E-03
 -.19384E-02 -.23791E-02 -.20316E-02 -.16884E-02 -.18669E-02 -.21391E-02 -.16510E-02 -.24312E-03 0.12155E-02 0.17171E-02
 0.11673E-02 0.38770E-03 0.18311E-03 0.63746E-03 0.13191E-02 0.18635E-02 0.21149E-02 0.18718E-02 0.90454E-03 -.61131E-03
 -.32752E-03 -.86279E-03 -.13434E-02 -.14275E-02 -.10081E-02 -.37132E-03 0.93267E-04 0.27004E-03 0.34076E-03 0.49207E-03
 0.72271E-03 0.95948E-03 0.12333E-02 0.16119E-02 0.19893E-02 0.20866E-02 0.17383E-02 0.11068E-02 0.51484E-03 0.88156E-04
 0.17838E-02 0.43448E-03 -.74076E-03 -.77123E-03 -.54467E-04 0.17084E-03 -.61568E-03 -.15715E-02 -.15184E-02 -.29728E-03
 0.11826E-02 0.20644E-02 0.23003E-02 0.22488E-02 0.19757E-02 0.13554E-02 0.68377E-03 0.63815E-03 0.13931E-02 0.21180E-02
 0.12153E-02 -.55614E-04 -.74572E-03 -.49631E-03 -.96755E-04 -.41089E-03 -.12353E-02 -.15315E-02 -.69066E-03 0.77929E-03
 0.19097E-02 0.22974E-02 0.22226E-02 0.19609E-02 0.14392E-02 0.68987E-03 0.24032E-03 0.61715E-03 0.15230E-02 0.19313E-02
 -.92726E-03 -.11485E-02 -.12931E-02 -.12133E-02 -.84836E-03 -.27162E-03 0.34866E-03 0.83057E-03 0.10667E-02 0.10871E-02
 0.10462E-02 0.11043E-02 0.12793E-02 0.14079E-02 0.12819E-02 0.84526E-03 0.25706E-03 -.24752E-03 -.55621E-03 -.73941E-03
 -.20539E-02 -.21406E-02 -.27318E-02 -.28426E-02 -.16889E-02 0.23489E-03 0.15586E-02 0.14577E-02 0.41437E-03 -.46220E-03
 -.58231E-03 -.15553E-03 0.41565E-03 0.97405E-03 0.13629E-02 0.11613E-02 0.81206E-04 -.14376E-02 -.24389E-02 -.24523E-02
 -.29452E-02 -.40034E-02 -.49424E-02 -.45956E-02 -.28076E-02 -.81589E-03 0.12242E-04 -.43970E-03 -.11656E-02 -.13385E-02
 -.10671E-02 -.82334E-03 -.59890E-03 -.48542E-04 0.69688E-03 0.89571E-03 0.85846E-04 -.12250E-02 -.21311E-02 -.24685E-02
 -.53728E-02 -.63794E-02 -.63857E-02 -.53882E-02 -.39006E-02 -.25843E-02 -.17284E-02 -.11812E-02 -.78132E-03 -.68379E-03
 -.11115E-02 -.18599E-02 -.22703E-02 -.18269E-02 -.72494E-03 0.25003E-03 0.38742E-03 -.46318E-03 -.19870E-02 -.37584E-02
 -.78568E-02 -.72241E-02 -.59134E-02 -.47197E-02 -.36539E-02 -.23700E-02 -.95441E-03 -.27246E-04 -.96945E-04 -.10354E-02
 -.22481E-02 -.31724E-02 -.34762E-02 -.29784E-02 -.17580E-02 -.46182E-03 -.19092E-03 -.16669E-02 -.44007E-02 -.68936E-02
 0.18968E-01 0.19011E-01 0.15425E-01 0.95228E-02 0.38962E-02 0.23396E-03 -.16782E-02 -.28778E-02 -.37483E-02 -.40086E-02
 -.37743E-02 -.38319E-02 -.45601E-02 -.50518E-02 -.38612E-02 -.56706E-03 0.38465E-02 0.82184E-02 0.12291E-01 0.16157E-01
 0.17934E-01 0.15817E-01 0.11433E-01 0.63908E-02 0.21825E-02 -.71988E-03 -.25769E-02 -.34817E-02 -.31763E-02 -.18115E-02
 -.43893E-03 -.26473E-03 -.13615E-02 -.23939E-02 -.17742E-02 0.10180E-02 0.52909E-02 0.99785E-02 0.14227E-01 0.17208E-01