unknown system                          
   1.00000000000000     
     2.573869    0.000000    0.000000
     1.286934    2.229036    0.000000
     0.000000    0.000000   30.304665
   Cu   H 
     4     1
Direct
  0.999706  0.000588  0.396567
  0.333186  0.333624  0.465140
  0.665829  0.668343  0.533594
  0.000801  0.998398  0.604216
  0.500476  0.999044  0.640803
 
   20   20  240
 -.18783899579E-01 -.17536837746E-01 -.13815263142E-01 -.87400545423E-02 -.36966548770E-02
 0.33297173181E-03 0.30176421635E-02 0.44450469076E-02 0.48311664117E-02 0.44960360946E-02
 0.39423292539E-02 0.36814293220E-02 0.38208789142E-02 0.38458038597E-02 0.29076201278E-02
 0.40448543896E-03 -.36392719899E-02 -.86057550604E-02 -.13520109524E-01 -.17258688246E-01
 -.17422427793E-01 -.14792447548E-01 -.10106438479E-01 -.48386015096E-02 -.57852462035E-03
 0.17336071068E-02 0.21455523801E-02 0.14787611511E-02 0.79177190441E-03 0.84007168658E-03
 0.17483373065E-02 0.29979001756E-02 0.37295415125E-02 0.32062189149E-02 0.11530301890E-02
 -.22232012302E-02 -.64438039896E-02 -.10910893147E-01 -.14863924383E-01 -.17338301573E-01
 -.13624093914E-01 -.10373958712E-01 -.59785074271E-02 -.19395860232E-02 0.27643497171E-03
 -.91985192270E-04 -.26303829687E-02 -.58539684111E-02 -.79799641570E-02 -.79351518904E-02
 -.59044716746E-02 -.30605689425E-02 -.77390157317E-03 0.51964044502E-04 -.85259130856E-03
 -.32983722715E-02 -.67912406221E-02 -.10543633545E-01 -.13526811916E-01 -.14740269646E-01
 -.87507680461E-02 -.60300527612E-02 -.31606284463E-02 -.13685498584E-02 -.19217610631E-02
 -.54621870977E-02 -.11288892532E-01 -.17336200391E-01 -.21131897613E-01 -.21135096254E-01
 -.17490160166E-01 -.11765571575E-01 -.60596543981E-02 -.21349743529E-02 -.91282182206E-03
 -.22971307793E-02 -.52815721140E-02 -.83833427684E-02 -.10293150267E-01 -.10378200630E-01
 -.40040048394E-02 -.24957425670E-02 -.18037019611E-02 -.30719832627E-02 -.74308059003E-02
 -.15113294480E-01 -.24652181251E-01 -.33044404650E-01 -.37077323285E-01 -.35023621666E-01
 -.27573825520E-01 -.17450565913E-01 -.80475673423E-02 -.19291559506E-02 0.79500168397E-04
 -.11018616603E-02 -.35824659838E-02 -.55803526882E-02 -.61919587876E-02 -.54733518652E-02
 -.21200876768E-03 -.24031483321E-04 -.20186851967E-02 -.74599184792E-02 -.16875338720E-01
 -.29172407770E-01 -.41351643438E-01 -.49400120282E-01 -.50156988167E-01 -.43076711007E-01
 -.30671377066E-01 -.17246985684E-01 -.67388734105E-02 -.10248098745E-02 0.37749292480E-03
 -.63750069748E-03 -.20889813292E-02 -.27742302591E-02 -.24079776188E-02 -.13276652512E-02
 0.17164848822E-02 0.62735487737E-03 -.44531858564E-02 -.14494914628E-01 -.28600404593E-01
 -.43709459400E-01 -.55368752498E-01 -.59518283589E-01 -.54522067636E-01 -.42186501008E-01
 -.26919668989E-01 -.13445305324E-01 -.45898070364E-02 -.54884220494E-03 0.22488876520E-03
 -.41865593769E-03 -.11810428222E-02 -.13593894697E-02 -.66011862754E-03 0.70032227291E-03
 0.12426898191E-02 -.90133939403E-03 -.84889084310E-02 -.21576173907E-01 -.37645201030E-01
 -.52181462531E-01 -.60401003257E-01 -.59430922668E-01 -.49773917980E-01 -.35072110835E-01
 -.20198785200E-01 -.88961490455E-02 -.24801495284E-02 -.19110570486E-03 -.44625888410E-03
 -.17956252899E-02 -.30988756503E-02 -.34094359049E-02 -.22204985977E-02 -.56583459283E-04
 -.88424406313E-03 -.34190930215E-02 -.11814376775E-01 -.25116200684E-01 -.39872268441E-01
 -.51311974179E-01 -.55426145269E-01 -.50855947277E-01 -.39477632748E-01 -.25350332545E-01
 -.12741135274E-01 -.44364175671E-02 -.11410694660E-02 -.18984144321E-02 -.49022370260E-02
 -.81710183107E-02 -.10003674655E-01 -.93990751963E-02 -.64949950289E-02 -.27993055349E-02
 -.30069278757E-02 -.51982026189E-02 -.12794193274E-01 -.24101414874E-01 -.35536418001E-01
 -.42989956264E-01 -.43668699691E-01 -.37351496732E-01 -.26387326940E-01 -.14591428447E-01
 -.57198844775E-02 -.21581220740E-02 -.41834569095E-02 -.99900443337E-02 -.16512387333E-01
 -.20755694125E-01 -.21006167823E-01 -.17350665886E-01 -.11425132773E-01 -.57535697449E-02
 -.39107935606E-02 -.55775933597E-02 -.11723238783E-01 -.20062408946E-01 -.27367204874E-01
 -.30692917516E-01 -.28609127720E-01 -.21808312241E-01 -.12872692798E-01 -.53754630904E-02
 -.25890412789E-02 -.61112403130E-02 -.14943385180E-01 -.25674502641E-01 -.33962842939E-01
 -.36595938416E-01 -.32889288743E-01 -.24662888549E-01 -.15099114436E-01 -.74054652411E-02
 -.33107293383E-02 -.46872848669E-02 -.92475698901E-02 -.14349423208E-01 -.17557830428E-01
 -.17393703276E-01 -.13795707561E-01 -.82081893917E-02 -.32534216214E-02 -.19528184046E-02
 -.65403153587E-02 -.17202640197E-01 -.31436192037E-01 -.44678364780E-01 -.52196919904E-01
 -.51300602277E-01 -.42571136746E-01 -.29417138843E-01 -.16348797457E-01 -.70684550965E-02
 -.14647875117E-02 -.26192387876E-02 -.55487000990E-02 -.78878076160E-02 -.83080828225E-02
 -.65963860237E-02 -.35502771554E-02 -.84101511689E-03 -.71162876430E-03 -.53276480106E-02
 -.15791385348E-01 -.31150205141E-01 -.48007612523E-01 -.61315674575E-01 -.66365997717E-01
 -.61100327989E-01 -.47334042069E-01 -.29967206294E-01 -.14569793371E-01 -.48467978281E-02
 0.76055870692E-03 -.11035692200E-03 -.18114292970E-02 -.27718397938E-02 -.24806892899E-02
 -.11967312112E-02 0.18764992963E-03 0.15685441292E-03 -.32162239577E-02 -.11626653569E-01
 -.25525806367E-01 -.43153158323E-01 -.60316675378E-01 -.71548415194E-01 -.72506779895E-01
 -.62390460083E-01 -.44679289771E-01 -.25450162794E-01 -.10275954061E-01 -.17737159031E-02
 0.17429739740E-02 0.90780987703E-03 -.37562650695E-03 -.11699780097E-02 -.11342321223E-02
 -.41786145874E-03 0.14104942264E-03 -.11299398359E-02 -.63587660568E-02 -.17083210677E-01
 -.32926676155E-01 -.50815626643E-01 -.65557517925E-01 -.71926556564E-01 -.67304385074E-01
 -.53224772858E-01 -.34665112000E-01 -.17452835308E-01 -.55070158171E-02 0.36766321688E-03
 0.12524231784E-03 -.10729823165E-02 -.22645949396E-02 -.27536071673E-02 -.22178133041E-02
 -.92449608667E-03 -.94332462325E-04 -.18799251697E-02 -.85019618900E-02 -.20725216242E-01
 -.36618361637E-01 -.51701096354E-01 -.60786436793E-01 -.60569028346E-01 -.51326592139E-01
 -.36639317174E-01 -.21400852025E-01 -.94900987037E-02 -.24779405170E-02 0.19212416997E-03
 -.39001460891E-02 -.54473071677E-02 -.60819013846E-02 -.54108236045E-02 -.35361378921E-02
 -.12466003077E-02 -.18727022220E-03 -.25044683526E-02 -.96914496207E-02 -.21182130224E-01
 -.33866994989E-01 -.43283502787E-01 -.45922786704E-01 -.41089324536E-01 -.31055561813E-01
 -.19587564212E-01 -.10027052088E-01 -.41122101577E-02 -.18858439852E-02 -.22912134375E-02
 -.89257830543E-02 -.10389252902E-01 -.10024206753E-01 -.80014424350E-02 -.50099336697E-02
 -.21718153516E-02 -.96635250708E-03 -.28137578400E-02 -.82168718195E-02 -.16000325957E-01
 -.23455350161E-01 -.27601741499E-01 -.26799351899E-01 -.21576092806E-01 -.14172782149E-01
 -.72851209834E-02 -.28923728655E-02 -.17068262918E-02 -.32256217376E-02 -.61422505509E-02
 -.13672644194E-01 -.14626223697E-01 -.13280038130E-01 -.10263007072E-01 -.65519730057E-02
 -.31744196484E-02 -.10631790662E-02 -.91137277887E-03 -.28863974495E-02 -.63328103557E-02
 -.98093860204E-02 -.11658876412E-01 -.10874397747E-01 -.77122553542E-02 -.36227249133E-02
 -.52782617009E-03 0.11847025490E-03 -.20212330867E-02 -.60916140120E-02 -.10505859709E-01
 -.17285000863E-01 -.17354879491E-01 -.14957885357E-01 -.10935793156E-01 -.63978194310E-02
 -.22627739929E-02 0.90480457426E-03 0.27623315664E-02 0.31000819794E-02 0.20394556560E-02
 0.29144713337E-03 -.10033151444E-02 -.96591774128E-03 0.30965812401E-03 0.16896872828E-02
 0.17028002529E-02 -.53166840416E-03 -.48117847564E-02 -.10008378094E-01 -.14606347979E-01
 -.76426897497E-02 -.69156685804E-02 -.53165226890E-02 -.34398988739E-02 -.18580821000E-02
 -.93563576343E-03 -.77858139908E-03 -.12738561210E-02 -.21577562497E-02 -.30840699461E-02
 -.36981224768E-02 -.37342783502E-02 -.31332972496E-02 -.21302134274E-02 -.12288310720E-02
 -.10090300501E-02 -.18224440199E-02 -.35486816523E-02 -.55922117326E-02 -.71572059740E-02
 -.69642738805E-02 -.57229035413E-02 -.36494854407E-02 -.15563822747E-02 -.33852059551E-03
 -.48907176462E-03 -.17922929562E-02 -.34267346427E-02 -.44556034634E-02 -.43856194487E-02
 -.34014156551E-02 -.21343088928E-02 -.11978262066E-02 -.87539910552E-03 -.11463646352E-02
 -.19032144470E-02 -.30783028872E-02 -.45615331738E-02 -.60449683468E-02 -.70138867763E-02
 -.55717970730E-02 -.41814159844E-02 -.22283107520E-02 -.62343955670E-03 -.17156687753E-03
 -.10658102188E-02 -.27314128554E-02 -.41681160521E-02 -.45808864986E-02 -.38520909045E-02
 -.25204989101E-02 -.13271621402E-02 -.72495107345E-03 -.72663169315E-03 -.11243015058E-02
 -.17882855067E-02 -.27400669227E-02 -.39633196448E-02 -.51847444221E-02 -.58822651894E-02
 -.38427002043E-02 -.27612576727E-02 -.15458106388E-02 -.69837587242E-03 -.52110651458E-03
 -.10099097888E-02 -.19030743680E-02 -.28267040810E-02 -.34462627380E-02 -.35634088161E-02
 -.31489907194E-02 -.23339651917E-02 -.13770793145E-02 -.60827801523E-03 -.33720963398E-03
 -.73358489595E-03 -.17230721143E-02 -.29673665933E-02 -.39751355260E-02 -.43175908453E-02
 -.18825095432E-02 -.14302390650E-02 -.10969936396E-02 -.79927764551E-03 -.51656635110E-03
 -.44981980431E-03 -.91085067957E-03 -.19918013929E-02 -.33198303443E-02 -.41838992710E-02
 -.40024575411E-02 -.27716636942E-02 -.11179697383E-02 0.99299959068E-04 0.32929482978E-03
 -.37609575452E-03 -.14805632465E-02 -.23527810428E-02 -.26364321932E-02 -.23786007366E-02
 -.17267796233E-03 -.29140531767E-03 -.62811627073E-03 -.90334077835E-03 -.10436931374E-02
 -.12635365265E-02 -.18314002823E-02 -.27217554768E-02 -.35003584197E-02 -.36037168015E-02
 -.28024719657E-02 -.14429602415E-02 -.24110628273E-03 0.21071863432E-03 -.16869906855E-03
 -.94716389685E-03 -.15225274771E-02 -.15324232680E-02 -.10496756922E-02 -.46514288556E-03
 0.61185096581E-03 0.30219647127E-03 -.46010335008E-03 -.14975681526E-02 -.25119069220E-02
 -.32052931999E-02 -.33936549312E-02 -.30635617812E-02 -.23617999126E-02 -.15326506158E-02
 -.82720954646E-03 -.41494329433E-03 -.33132862069E-03 -.48319328144E-03 -.70354932585E-03
 -.82323407653E-03 -.72960637422E-03 -.40385023786E-03 0.61726289445E-04 0.47651644101E-03
 0.51498243561E-03 0.35748278122E-03 -.50859474415E-03 -.19253450100E-02 -.32752671116E-02
 -.38702527641E-02 -.34407801041E-02 -.23309642872E-02 -.12322726392E-02 -.67319853791E-03
 -.68001479694E-03 -.85945430010E-03 -.78869904768E-03 -.36294188941E-03 0.16950613328E-03
 0.46808799001E-03 0.40765284903E-03 0.17530689599E-03 0.86279997930E-04 0.27407209348E-03
 0.17373447582E-03 0.22036517641E-03 -.29614867742E-03 -.12840727272E-02 -.22730709659E-02
 -.27804085869E-02 -.26822191906E-02 -.22603315327E-02 -.18967656852E-02 -.17161889369E-02
 -.15079456894E-02 -.97668153064E-03 -.67652764137E-04 0.92807781347E-03 0.15648533347E-02
 0.15609726008E-02 0.10012733775E-02 0.28567297191E-03 -.14102133936E-03 -.10236837240E-03
 -.17255433513E-03 -.91703249943E-04 -.53935018588E-04 -.33087041857E-03 -.99561883475E-03
 -.18675719649E-02 -.26156276774E-02 -.29326776754E-02 -.26750632968E-02 -.19082372456E-02
 -.85487203903E-03 0.21843301645E-03 0.11111035599E-02 0.17299604326E-02 0.20486027188E-02
 0.20472428050E-02 0.17149504568E-02 0.11203695772E-02 0.45864956559E-03 -.19310177645E-04
 -.64824138778E-03 -.74770464959E-03 -.48028315868E-03 -.42276462581E-03 -.90542190568E-03
 -.17280029523E-02 -.23157175629E-02 -.21856493509E-02 -.13300156059E-02 -.19991090770E-03
 0.67773006522E-03 0.11092726698E-02 0.13272662722E-02 0.17114838448E-02 0.23954342868E-02
 0.30962540135E-02 0.33101594170E-02 0.27178814541E-02 0.14765831591E-02 0.15663408277E-03
 -.88137576878E-03 -.13091716639E-02 -.12774922186E-02 -.11585990321E-02 -.11244561345E-02
 -.10469576829E-02 -.70704434694E-03 -.88128420121E-04 0.55571709693E-03 0.93460807227E-03
 0.10253182000E-02 0.11336216582E-02 0.16419292745E-02 0.26602531573E-02 0.38733453032E-02
 0.47000381988E-02 0.46431606594E-02 0.35962432444E-02 0.19208481893E-02 0.24804272255E-03
 -.30369031271E-03 -.10272563399E-02 -.13228452079E-02 -.11306891305E-02 -.55835356935E-03
 0.11545996621E-03 0.56393630362E-03 0.61976242953E-03 0.42932763775E-03 0.40326072275E-03
 0.94588083336E-03 0.21418510278E-02 0.36496526109E-02 0.48994766235E-02 0.54406879465E-02
 0.51690865369E-02 0.42914959904E-02 0.31174913841E-02 0.18807724810E-02 0.70842149293E-03
 0.66858783251E-03 -.86138275556E-04 -.52056702810E-03 -.44436451218E-03 -.68857281114E-04
 0.15196541608E-03 -.58710680236E-04 -.48527881437E-03 -.51316981626E-03 0.40315780592E-03
 0.22605947413E-02 0.44105693740E-02 0.59415735149E-02 0.62596808901E-02 0.54374424607E-02
 0.40915373490E-02 0.29117746138E-02 0.22112430268E-02 0.18211493697E-02 0.13674454671E-02
 0.84494606266E-03 0.33933520736E-03 -.13029910458E-03 -.42794122993E-03 -.61046446054E-03
 -.79414126419E-03 -.92458671713E-03 -.71263006946E-03 0.16406803369E-03 0.17548951408E-02
 0.36891456080E-02 0.53182761667E-02 0.60550854389E-02 0.56903344556E-02 0.44973475781E-02
 0.30663712703E-02 0.19645419520E-02 0.14277534866E-02 0.12865696619E-02 0.11741008887E-02
 -.23140674244E-03 -.50973718487E-03 -.97065776819E-03 -.13460930720E-02 -.13654895796E-02
 -.93879252995E-03 -.19148814766E-03 0.64720855929E-03 0.14146361901E-02 0.21160007114E-02
 0.28642881697E-02 0.36897832860E-02 0.43887037572E-02 0.45884633674E-02 0.40256774409E-02
 0.28092272277E-02 0.14117057090E-02 0.36221497005E-03 -.10967036068E-03 -.18197666678E-03
 -.19387848392E-02 -.22683175488E-02 -.25423393909E-02 -.23779192109E-02 -.15731572620E-02
 -.36101510318E-03 0.70064972712E-03 0.11368567984E-02 0.93902928956E-03 0.59907937919E-03
 0.73554551307E-03 0.15877441856E-02 0.27817345655E-02 0.35711269330E-02 0.33763922868E-02
 0.22013212245E-02 0.60528913520E-03 -.72676277157E-03 -.14561372474E-02 -.17338921090E-02
 -.37298125655E-02 -.42314998688E-02 -.41266301134E-02 -.33197515699E-02 -.20516012464E-02
 -.82646734339E-03 -.11146822578E-03 -.32654136568E-04 -.31327838072E-03 -.49859269641E-03
 -.28052097407E-03 0.31909212516E-03 0.10060383799E-02 0.14263023183E-02 0.13689084997E-02
 0.84230962620E-03 0.91708030610E-05 -.94922541939E-03 -.19297721958E-02 -.28884790543E-02
 -.55615287504E-02 -.59741977157E-02 -.54488242311E-02 -.43466663050E-02 -.31328233401E-02
 -.21090106894E-02 -.13265057603E-02 -.72286762332E-03 -.32317335117E-03 -.27717580270E-03
 -.67127766781E-03 -.13127210888E-02 -.17547599805E-02 -.16110061496E-02 -.90533560538E-03
 -.13426663789E-03 0.40774006365E-04 -.76012105924E-03 -.23795681515E-02 -.42149897611E-02
 -.71074789612E-02 -.70365690349E-02 -.60413809591E-02 -.46671149177E-02 -.33268033192E-02
 -.21530826676E-02 -.11470562770E-02 -.42450572046E-03 -.27214721955E-03 -.90974418526E-03
 -.21611247731E-02 -.33811168817E-02 -.38008581741E-02 -.30800047118E-02 -.16292164654E-02
 -.41138633682E-03 -.33365929690E-03 -.16615463718E-02 -.38621684967E-02 -.59568231145E-02
 0.18977408006E-01 0.17970837925E-01 0.14280916118E-01 0.90399827837E-02 0.38570327489E-02
 -.62130654499E-04 -.23783724271E-02 -.34158360634E-02 -.36981451480E-02 -.36968679184E-02
 -.37955995685E-02 -.41833246066E-02 -.46417552731E-02 -.45342891120E-02 -.31730517969E-02
 -.28079931610E-03 0.38739089036E-02 0.86908989973E-02 0.13434556912E-01 0.17208426439E-01
 0.17670758439E-01 0.15309132475E-01 0.11210817739E-01 0.65564061840E-02 0.23430676984E-02
 -.88117873543E-03 -.28822803420E-02 -.35446634835E-02 -.29608399516E-02 -.16753913479E-02
 -.61480172108E-03 -.52353608563E-03 -.13372183693E-02 -.21092744940E-02 -.16152043414E-02
 0.85870940109E-03 0.51178675130E-02 0.10190347432E-01 0.14735103995E-01 0.17486719314E-01
 0.13437053327E-01 0.10353810072E-01 0.66875394788E-02 0.33001994794E-02 0.86624207756E-03
 -.67611134746E-04 0.79225602310E-03 0.31729373023E-02 0.60747455934E-02 0.80885255499E-02
 0.81200471512E-02 0.60636959476E-02 0.29537830991E-02 0.47164742413E-03 0.90692384376E-04
 0.23262247070E-02 0.64733746896E-02 0.10958826875E-01 0.14114663749E-01 0.14942141351E-01
 0.80754668761E-02 0.51950536998E-02 0.25471638085E-02 0.11948999259E-02 0.21850546121E-02
 0.59987739372E-02 0.11886005137E-01 0.17821591104E-01 0.21408941748E-01 0.21177378409E-01
 0.17330663552E-01 0.11502332323E-01 0.58645023108E-02 0.22252427841E-02 0.14602633712E-02
 0.33059329515E-02 0.65222884840E-02 0.94598052015E-02 0.10832158162E-01 0.10231497727E-01
 0.38030446021E-02 0.16427784662E-02 0.57014202203E-03 0.23548966544E-02 0.82058811454E-02
 0.17604380556E-01 0.27908364920E-01 0.35395652469E-01 0.37233762971E-01 0.32989988386E-01
 0.24644923295E-01 0.15294955047E-01 0.76168870048E-02 0.30078475637E-02 0.15401670615E-02
 0.23589520602E-02 0.41870098821E-02 0.58015906325E-02 0.63829883069E-02 0.56421293746E-02
 0.11851336251E-02 0.94380083141E-04 0.13630233474E-02 0.69741246789E-02 0.17447572642E-01
 0.30877361755E-01 0.43276989566E-01 0.50320248297E-01 0.49519449250E-01 0.41455963465E-01
 0.29296096632E-01 0.17018158732E-01 0.75760203722E-02 0.20470010027E-02 -.60160596135E-04
 0.63590230553E-04 0.12287759090E-02 0.24822454919E-02 0.30810028484E-02 0.25808298593E-02
 -.21033606720E-03 0.33641429378E-03 0.44930161731E-02 0.13579553371E-01 0.27081335829E-01
 0.42189872251E-01 0.54470781400E-01 0.59643060682E-01 0.55688696842E-01 0.44013212465E-01
 0.28770673809E-01 0.14695959739E-01 0.48885295804E-02 -.56730435446E-04 -.13491252860E-02
 -.68814505552E-03 0.57549975557E-03 0.15409573646E-02 0.16383798428E-02 0.79329720245E-03
 -.19293136359E-03 0.22098553949E-02 0.89988010813E-02 0.20490302193E-01 0.35197245948E-01
 0.49684108636E-01 0.59420332520E-01 0.60671544279E-01 0.52555888331E-01 0.37830598734E-01
 0.21604295022E-01 0.87051891873E-02 0.14980949342E-02 -.51412966745E-03 0.51910841765E-03
 0.23518432286E-02 0.35012584157E-02 0.33491231682E-02 0.20170192241E-02 0.34067737712E-03
 0.12807546392E-02 0.47706398654E-02 0.13183209430E-01 0.25706329212E-01 0.39649334809E-01
 0.50937436157E-01 0.55567850149E-01 0.51521843879E-01 0.40007844854E-01 0.25076767891E-01
 0.11686430873E-01 0.33930840503E-02 0.10533162754E-02 0.30861134013E-02 0.67691638740E-02
 0.96090305584E-02 0.10166763157E-01 0.82870564190E-02 0.49513594087E-02 0.19277260343E-02
 0.27619927356E-02 0.61110652140E-02 0.14807381651E-01 0.26610781570E-01 0.37636442095E-01
 0.43894586015E-01 0.43075497859E-01 0.35574195799E-01 0.24206795459E-01 0.12896337015E-01
 0.51058226421E-02 0.26923819050E-02 0.54610689165E-02 0.11417592686E-01 0.17602775627E-01
 0.21250371917E-01 0.20834231344E-01 0.16580949620E-01 0.10309052770E-01 0.47727993593E-02
 0.27268570470E-02 0.51771719181E-02 0.12732249399E-01 0.21992994511E-01 0.28946365915E-01
 0.30860376059E-01 0.27366397700E-01 0.20211515249E-01 0.12181186302E-01 0.60701875946E-02
 0.40569875660E-02 0.72124310866E-02 0.14954431218E-01 0.24834938367E-01 0.33213409608E-01
 0.36758232056E-01 0.33967066859E-01 0.25833233401E-01 0.15406863068E-01 0.66007344377E-02
 0.16386682463E-02 0.29706403880E-02 0.82165351675E-02 0.14065474585E-01 0.17653063727E-01
 0.17644434540E-01 0.14415777411E-01 0.95563111733E-02 0.52667010603E-02 0.39136840702E-02
 0.74690381118E-02 0.16577653857E-01 0.29649460788E-01 0.42859824598E-01 0.51529342319E-01
 0.52286824305E-01 0.44718842521E-01 0.31538152747E-01 0.17296043334E-01 0.64404724218E-02
 0.88461454786E-03 0.11341218028E-02 0.38305441038E-02 0.68108592404E-02 0.84763335386E-02
 0.80121433992E-02 0.56067898594E-02 0.26517583772E-02 0.15993632355E-02 0.51741724104E-02
 0.15013823299E-01 0.30337507986E-01 0.47524672907E-01 0.61193869192E-01 0.66508300273E-01
 0.61519359777E-01 0.48137278498E-01 0.31107955922E-01 0.15662805191E-01 0.53027773468E-02
 0.56753423646E-03 0.26709817877E-03 0.13182642968E-02 0.25658639090E-02 0.30262932571E-02
 0.20497178689E-02 0.24471220556E-04 -.11368737515E-02 0.14941432368E-02 0.10362871474E-01
 0.25734680408E-01 0.44810225157E-01 0.62309539409E-01 0.72497319688E-01 0.71812498454E-01
 0.60686205087E-01 0.43341596551E-01 0.25562099480E-01 0.11849192311E-01 0.38136862890E-02
 0.21928432442E-03 0.42125253975E-03 0.10434428285E-02 0.13531347857E-02 0.84328133866E-03
 -.51970332393E-03 -.17204443974E-02 -.58281029205E-03 0.53983577303E-02 0.17571944818E-01
 0.34813747502E-01 0.53219667802E-01 0.67249541428E-01 0.72052327944E-01 0.65881840284E-01
 0.51124815108E-01 0.33100927192E-01 0.17285570035E-01 0.67928057967E-02 0.16965846101E-02
 0.78292908825E-03 0.21297804803E-02 0.28373341150E-02 0.25750621201E-02 0.15620796919E-02
 0.41668601213E-03 0.27552155329E-03 0.28142423656E-02 0.97221548426E-02 0.21593437400E-01
 0.36834266828E-01 0.51519507618E-01 0.60733876457E-01 0.60914348659E-01 0.51812864796E-01
 0.36741024609E-01 0.20857918236E-01 0.86047057642E-02 0.18989710235E-02 0.91216030569E-05
 0.37368103516E-02 0.57579567639E-02 0.62805499012E-02 0.55001820728E-02 0.41030547923E-02
 0.28199218133E-02 0.25361865807E-02 0.45462056902E-02 0.10190512228E-01 0.19739408319E-01
 0.31386563067E-01 0.41463091230E-01 0.46085675715E-01 0.43232919554E-01 0.33854612777E-01
 0.21349807026E-01 0.98599863288E-02 0.24258329641E-02 -.81872911636E-04 0.11167533953E-02
 0.87134481494E-02 0.10485531471E-01 0.10329969330E-01 0.86093034708E-02 0.60420596494E-02
 0.34684802348E-02 0.19918490355E-02 0.29477043341E-02 0.72234953390E-02 0.14288291637E-01
 0.21906666454E-01 0.27078599908E-01 0.27650966373E-01 0.23443712248E-01 0.16199749666E-01
 0.86065505994E-02 0.31111568392E-02 0.10551107594E-02 0.23128918646E-02 0.54989680383E-02
 0.13758739239E-01 0.14830617035E-01 0.13591996260E-01 0.10320694301E-01 0.59837471060E-02
 0.20126895431E-02 -.11772135461E-03 0.49880580269E-03 0.36299978563E-02 0.78197939224E-02
 0.11046738473E-01 0.11815542038E-01 0.99470769854E-02 0.65347522000E-02 0.32044953333E-02
 0.12937071656E-02 0.14355654529E-02 0.35572739388E-02 0.70296179283E-02 0.10826377333E-01
 0.17411229984E-01 0.17623063296E-01 0.15064315177E-01 0.10316607775E-01 0.49197299773E-02
 0.63440440240E-03 -.14520755090E-02 -.13811670220E-02 -.13040685132E-03 0.10039625824E-02
 0.10776075370E-02 -.67902280712E-04 -.17741522514E-02 -.29582414038E-02 -.27207332008E-02
 -.77986824395E-03 0.25434449043E-02 0.66666568853E-02 0.11000731758E-01 0.14882175535E-01
 0.80489974835E-02 0.80757975779E-02 0.65307741810E-02 0.41051255448E-02 0.20891086359E-02
 0.13282444806E-02 0.16791724422E-02 0.24446397073E-02 0.31183187578E-02 0.35694881973E-02
 0.36926483331E-02 0.32479601780E-02 0.22061226991E-02 0.10604374399E-02 0.53583329978E-03
 0.96318906361E-03 0.20894923312E-02 0.35180722113E-02 0.51136116506E-02 0.67911254138E-02
 0.75508229532E-02 0.66770645160E-02 0.50065321116E-02 0.32729323047E-02 0.20364492572E-02
 0.13765648125E-02 0.11263095083E-02 0.12990132029E-02 0.20884107220E-02 0.33951023998E-02
 0.45328051025E-02 0.46423005670E-02 0.34829522873E-02 0.17512173689E-02 0.56273829656E-03
 0.63270416736E-03 0.19199044734E-02 0.38785905948E-02 0.58501546739E-02 0.72315894511E-02
 0.52675975783E-02 0.39162150607E-02 0.27307479685E-02 0.18288967666E-02 0.11367338374E-02
 0.70707085240E-03 0.77772137605E-03 0.15342460753E-02 0.28375295136E-02 0.41719816031E-02
 0.48677045897E-02 0.44753267902E-02 0.30956510220E-02 0.14479221404E-02 0.53912231760E-03
 0.10455905202E-02 0.28136784184E-02 0.49080007130E-02 0.62358941179E-02 0.62671302180E-02
 0.27778883895E-02 0.17174866644E-02 0.10236381045E-02 0.63934558528E-03 0.70865357495E-03
 0.14617281786E-02 0.27433182635E-02 0.39136145748E-02 0.43599086036E-02 0.40136628203E-02
 0.32542189901E-02 0.24089388696E-02 0.15639492437E-02 0.87908196687E-03 0.80943204281E-03
 0.17278072937E-02 0.33328427109E-02 0.46712828922E-02 0.49126351210E-02 0.40535361991E-02
 0.17535808506E-02 0.93895298926E-03 0.33433167506E-03 0.39188365282E-03 0.14801402969E-02
 0.33482684462E-02 0.50082395919E-02 0.54252378251E-02 0.44207194344E-02 0.28052147401E-02
 0.15726198819E-02 0.10520540247E-02 0.90453808072E-03 0.79898888460E-03 0.84669843416E-03
 0.13160232495E-02 0.21196694611E-02 0.27872230632E-02 0.29167585405E-02 0.24934493714E-02
 0.14939228425E-02 0.63334620992E-03 0.16969370189E-03 0.66565940603E-03 0.20912390904E-02
 0.37862817632E-02 0.48940071025E-02 0.49435995501E-02 0.41197040334E-02 0.30223949540E-02
 0.21611960348E-02 0.16307136401E-02 0.12057947097E-02 0.69663973006E-03 0.19990055129E-03
 0.25529103269E-04 0.39068580000E-03 0.11626838188E-02 0.18765490852E-02 0.20358447765E-02
 0.69585865516E-03 0.27505686314E-03 0.35795605565E-03 0.91635284669E-03 0.17100130844E-02
 0.26461920344E-02 0.37280299853E-02 0.47234414215E-02 0.51318957212E-02 0.46195643223E-02
 0.34026537757E-02 0.20651996706E-02 0.10197640509E-02 0.27481970405E-03 -.26518863505E-03
 -.46858301513E-03 -.12741713954E-03 0.61448144820E-03 0.12066631904E-02 0.11937034489E-02
 -.27588816348E-04 0.56848299933E-03 0.11923327927E-02 0.15143609979E-02 0.17370570644E-02
 0.24565678893E-02 0.38664929093E-02 0.52602624872E-02 0.55641663390E-02 0.44022481669E-02
 0.24962392956E-02 0.95631202049E-03 0.29389454807E-03 0.21120399489E-03 0.20198456956E-03
 0.99424576916E-04 0.23565715992E-05 -.68617344262E-04 -.18716386054E-03 -.26047437578E-03
 0.24173622789E-03 0.14173494942E-02 0.22702605547E-02 0.27260483598E-02 0.30937517133E-02
 0.36599316314E-02 0.42539053315E-02 0.43099857832E-02 0.34359880640E-02 0.18999548317E-02
 0.48914086313E-03 -.13971370048E-03 0.29267128834E-04 0.45887334622E-03 0.56955259124E-03
 0.15514764431E-03 -.57668536700E-03 -.12120515372E-02 -.13588015740E-02 -.82741031986E-03
 0.45902181652E-03 0.13916086258E-02 0.24810019184E-02 0.35536734541E-02 0.41616842308E-02
 0.39615936378E-02 0.30713799684E-02 0.19742269808E-02 0.10902595862E-02 0.51365373832E-03
 0.14395053374E-03 -.72810702392E-04 -.14196007152E-03 -.18457616637E-03 -.42436776724E-03
 -.92557119538E-03 -.14251260946E-02 -.15384003682E-02 -.11280851860E-02 -.38563906953E-03
 -.45080069753E-03 0.14825050237E-03 0.15109683293E-02 0.29148645620E-02 0.33811023919E-02
 0.26936327106E-02 0.16307735007E-02 0.11138241945E-02 0.12576463521E-02 0.13855181461E-02
 0.88230869373E-03 -.17335657347E-03 -.12325945849E-02 -.18921547991E-02 -.21143771471E-02
 -.19790647515E-02 -.15220070921E-02 -.90190019076E-03 -.47632700726E-03 -.44292106233E-03
 -.11777528624E-02 -.73053895428E-03 0.32866508047E-03 0.13477590926E-02 0.17653023268E-02
 0.16695575239E-02 0.15948871971E-02 0.18178026595E-02 0.19969464201E-02 0.15568344521E-02
 0.33070297894E-03 -.12573273966E-02 -.25747576057E-02 -.32202822999E-02 -.31243315559E-02
 -.24376820774E-02 -.14886380993E-02 -.75447054273E-03 -.60882352175E-03 -.94945209900E-03
 -.22370844788E-03 -.27337016610E-03 -.15632402713E-03 0.29351988885E-03 0.94627476980E-03
 0.14484485126E-02 0.15086444190E-02 0.11163033331E-02 0.47505785044E-03 -.24615076902E-03
 -.10434863838E-02 -.19547162447E-02 -.28628970119E-02 -.34861880024E-02 -.35761160432E-02
 -.31075687182E-02 -.22823516700E-02 -.13903640852E-02 -.68034247454E-03 -.29516276868E-03
 0.12065180418E-02 0.51978053901E-03 0.12225061433E-04 0.22338077168E-03 0.76951697035E-03
 0.80429266485E-03 0.84793291251E-05 -.10478749965E-02 -.15758872208E-02 -.14465181425E-02
 -.12641905853E-02 -.16422024992E-02 -.25826571931E-02 -.35795573605E-02 -.41258164652E-02
 -.39767333739E-02 -.30783984243E-02 -.15589055274E-02 0.10839483352E-03 0.11825222716E-02
 0.12654336066E-02 0.78872583209E-03 0.53095684295E-03 0.63313053948E-03 0.61349278181E-03
 0.42264739214E-04 -.84554092447E-03 -.13771773136E-02 -.12372286181E-02 -.85525324741E-03
 -.93539263907E-03 -.17218589796E-02 -.28305664430E-02 -.36984239010E-02 -.40039791600E-02
 -.36552136467E-02 -.26349147588E-02 -.11010968547E-02 0.43017244880E-03 0.12973359687E-02
 0.79784534653E-03 0.12979273670E-02 0.14631292936E-02 0.13142988728E-02 0.10183575478E-02
 0.77153909420E-03 0.64370464820E-03 0.50168498203E-03 0.10536774876E-03 -.66781186449E-03
 -.16588286129E-02 -.24942432786E-02 -.28512651382E-02 -.26897577951E-02 -.22432208538E-02
 -.17912808963E-02 -.14364012790E-02 -.10779925760E-02 -.57088024926E-03 0.10344454596E-03
 0.18260189881E-02 0.28009469764E-02 0.28232969190E-02 0.23935834229E-02 0.21912434903E-02
 0.22859181706E-02 0.21271693137E-02 0.12466145032E-02 -.18532608274E-03 -.15206788703E-02
 -.22055217964E-02 -.21097061488E-02 -.14388399689E-02 -.55601718526E-03 0.86112349891E-04
 0.94843989817E-04 -.51458535384E-03 -.11316580188E-02 -.95254571362E-03 0.25317530555E-03
 0.41465462670E-02 0.47225346855E-02 0.43058557103E-02 0.35272411379E-02 0.28675683890E-02
 0.22146002827E-02 0.12630297954E-02 0.12010568932E-03 -.70721455613E-03 -.87429422640E-03
 -.53175263344E-03 -.46582866450E-04 0.41028906184E-03 0.83394075711E-03 0.10807916030E-02
 0.90426649101E-03 0.40558538883E-03 0.22599305152E-03 0.10048500756E-02 0.26177440987E-02
 0.60972917559E-02 0.63572390263E-02 0.56502972641E-02 0.41707744521E-02 0.23649756058E-02
 0.79050661714E-03 -.35785817516E-04 0.11945328310E-03 0.98565494269E-03 0.18764629086E-02
 0.21581547960E-02 0.17294688762E-02 0.10420846374E-02 0.64184698473E-03 0.72108053133E-03
 0.11250444618E-02 0.17047577398E-02 0.25287091437E-02 0.37010179072E-02 0.50500236081E-02
 0.72947820222E-02 0.76474715031E-02 0.66001919889E-02 0.43155284129E-02 0.18510081553E-02
 0.44775234788E-03 0.62072049690E-03 0.18741336825E-02 0.31985942594E-02 0.37908295648E-02
 0.34164890097E-02 0.23455595388E-02 0.11262897676E-02 0.35219441617E-03 0.40162811743E-03
 0.12309447079E-02 0.24468255221E-02 0.36792518947E-02 0.48784701136E-02 0.61513333852E-02
 -.18821373751E-01 -.16521592075E-01 -.12682081012E-01 -.82587944285E-02 -.36613939149E-02
 0.61834521728E-03 0.37061070899E-02 0.49751000580E-02 0.47715385726E-02 0.41654222799E-02
 0.39371100073E-02 0.40105811675E-02 0.38928142351E-02 0.33262198093E-02 0.22142785049E-02
 0.10700665288E-03 -.36772666248E-02 -.90840767160E-02 -.14671096073E-01 -.18329574933E-01
 -.17184979880E-01 -.14306162181E-01 -.98959381992E-02 -.50105306800E-02 -.74601250269E-03