    5    5    1    1
  0.3477306E+02  0.2573869E-09  0.2573869E-09  0.3030466E-08  0.5000000E-15
  1.000000000000000E-004
  CAR 
 unknown system                          
     45     31     28
 
  0.0000000E+00  0.0000000E+00  0.0000000E+00  0.1000000E-01
    1      -11.434144   1.000000
    2      -10.598921   1.000000
    3       -9.014597   1.000000
    4       -7.599867   1.000000
    5       -6.325510   1.000000
    6       -5.634116   1.000000
    7       -5.449820   1.000000
    8       -5.446415   1.000000
    9       -5.366458   1.000000
   10       -5.341928   1.000000
   11       -5.329490   1.000000
   12       -5.318038   1.000000
   13       -5.313570   1.000000
   14       -5.064655   1.000000
   15       -5.063514   1.000000
   16       -4.906201   1.000000
   17       -4.818387   1.000000
   18       -4.674334   1.000000
   19       -4.562238   1.000000
   20       -4.552049   1.000000
   21       -4.343160   1.000000
   22       -4.323147   1.000000
   23       -4.061810   1.000000
   24       -4.056025   1.000000
   25       -2.975170   1.000000
   26        1.534938   0.000000
   27        1.899334   0.000000
   28        2.338677   0.000000
 
  0.1000000E+00  0.6938894E-17  0.0000000E+00  0.4000000E-01
    1      -11.122638   1.000000
    2      -10.303264   1.000000
    3       -8.753029   1.000000
    4       -7.381094   1.000000
    5       -6.322780   1.000000
    6       -5.707494   1.000000
    7       -5.573952   1.000000
    8       -5.458749   1.000000
    9       -5.414746   1.000000
   10       -5.359314   1.000000
   11       -5.336861   1.000000
   12       -5.246664   1.000000
   13       -5.222363   1.000000
   14       -5.164937   1.000000
   15       -5.077933   1.000000
   16       -4.974073   1.000000
   17       -4.759322   1.000000
   18       -4.714531   1.000000
   19       -4.559462   1.000000
   20       -4.525198   1.000000
   21       -4.361771   1.000000
   22       -4.322637   1.000000
   23       -4.052139   1.000000
   24       -3.823296   1.000000
   25       -2.292324   0.048840
   26        1.771842   0.000000
   27        2.203869   0.000000
   28        2.641540   0.000000
 
  0.2000000E+00 -0.1387779E-16  0.0000000E+00  0.4000000E-01
    1      -10.222685   1.000000
    2       -9.468613   1.000000
    3       -8.076923   1.000000
    4       -6.868318   1.000000
    5       -6.387173   1.000000
    6       -5.959590   1.000000
    7       -5.768349   1.000000
    8       -5.705132   1.000000
    9       -5.545339   1.000000
   10       -5.331006   1.000000
   11       -5.283821   1.000000
   12       -5.172465   1.000000
   13       -5.077072   1.000000
   14       -5.047250   1.000000
   15       -4.942766   1.000000
   16       -4.871291   1.000000
   17       -4.849430   1.000000
   18       -4.661710   1.000000
   19       -4.619490   1.000000
   20       -4.502043   1.000000
   21       -4.323712   1.000000
   22       -4.123893   1.000000
   23       -4.044309   1.000000
   24       -2.948033   1.000000
   25       -0.979443   0.000000
   26        2.478301   0.000000
   27        3.116364   0.000000
   28        3.550704   0.000000
 
  0.3000000E+00 -0.2775558E-16  0.0000000E+00  0.4000000E-01
    1       -8.880667   1.000000
    2       -8.333784   1.000000
    3       -7.429869   1.000000
    4       -6.677835   1.000000
    5       -6.423477   1.000000
    6       -6.231428   1.000000
    7       -5.920122   1.000000
    8       -5.711960   1.000000
    9       -5.572806   1.000000
   10       -5.336113   1.000000
   11       -5.189416   1.000000
   12       -5.118951   1.000000
   13       -4.911453   1.000000
   14       -4.904465   1.000000
   15       -4.721361   1.000000
   16       -4.646488   1.000000
   17       -4.583392   1.000000
   18       -4.428322   1.000000
   19       -4.390451   1.000000
   20       -4.316866   1.000000
   21       -4.210309   1.000000
   22       -4.029291   1.000000
   23       -3.623523   1.000000
   24       -1.761763   0.000000
   25        0.669279   0.000000
   26        3.640038   0.000000
   27        4.610027   0.000000
   28        5.043098   0.000000
 
  0.4000000E+00 -0.2775558E-16  0.0000000E+00  0.4000000E-01
    1       -7.704215   1.000000
    2       -7.463188   1.000000
    3       -7.148830   1.000000
    4       -6.776162   1.000000
    5       -6.566547   1.000000
    6       -6.413061   1.000000
    7       -6.060882   1.000000
    8       -5.527251   1.000000
    9       -5.362639   1.000000
   10       -5.323074   1.000000
   11       -5.250567   1.000000
   12       -4.950228   1.000000
   13       -4.821470   1.000000
   14       -4.509462   1.000000
   15       -4.398760   1.000000
   16       -4.324998   1.000000
   17       -4.176563   1.000000
   18       -4.143215   1.000000
   19       -4.119595   1.000000
   20       -4.033007   1.000000
   21       -3.895179   1.000000
   22       -3.598377   1.000000
   23       -2.557091   0.981608
   24       -0.340619   0.000000
   25        2.015222   0.000000
   26        2.863605   0.000000
   27        3.198640   0.000000
   28        4.272171   0.000000
 
  0.5000000E+00 -0.2775558E-16  0.0000000E+00  0.2000000E-01
    1       -7.521767   1.000000
    2       -7.156702   1.000000
    3       -6.953469   1.000000
    4       -6.807656   1.000000
    5       -6.641276   1.000000
    6       -6.488315   1.000000
    7       -6.087645   1.000000
    8       -5.466221   1.000000
    9       -5.370081   1.000000
   10       -5.271055   1.000000
   11       -5.164209   1.000000
   12       -4.939496   1.000000
   13       -4.599590   1.000000
   14       -4.464801   1.000000
   15       -4.241652   1.000000
   16       -4.220189   1.000000
   17       -4.110366   1.000000
   18       -4.024619   1.000000
   19       -3.964115   1.000000
   20       -3.780636   1.000000
   21       -3.621041   1.000000
   22       -2.276743   0.030289
   23       -1.409757   0.000000
   24       -0.884083   0.000000
   25        1.265798   0.000000
   26        2.192409   0.000000
   27        2.692662   0.000000
   28        3.533983   0.000000
 
  0.0000000E+00  0.1000000E+00  0.0000000E+00  0.2000000E-01
    1      -11.131361   1.000000
    2      -10.306045   1.000000
    3       -8.744525   1.000000
    4       -7.376627   1.000000
    5       -6.258948   1.000000
    6       -5.720226   1.000000
    7       -5.541114   1.000000
    8       -5.429976   1.000000
    9       -5.399787   1.000000
   10       -5.347131   1.000000
   11       -5.334080   1.000000
   12       -5.264590   1.000000
   13       -5.215814   1.000000
   14       -5.172957   1.000000
   15       -5.077723   1.000000
   16       -4.981283   1.000000
   17       -4.833673   1.000000
   18       -4.728222   1.000000
   19       -4.573260   1.000000
   20       -4.515634   1.000000
   21       -4.362925   1.000000
   22       -4.337775   1.000000
   23       -4.056481   1.000000
   24       -3.844107   1.000000
   25       -2.300384   0.061509
   26        1.773026   0.000000
   27        2.203768   0.000000
   28        2.641360   0.000000
 
  0.2000000E+00  0.1000000E+00  0.0000000E+00  0.2000000E-01
    1      -10.509473   1.000000
    2       -9.736460   1.000000
    3       -8.290451   1.000000
    4       -7.007340   1.000000
    5       -6.373679   1.000000
    6       -5.849030   1.000000
    7       -5.753795   1.000000
    8       -5.621900   1.000000
    9       -5.539246   1.000000
   10       -5.399999   1.000000
   11       -5.277298   1.000000
   12       -5.206497   1.000000
   13       -5.154842   1.000000
   14       -5.100509   1.000000
   15       -5.009663   1.000000
   16       -4.872614   1.000000
   17       -4.773249   1.000000
   18       -4.673988   1.000000
   19       -4.605750   1.000000
   20       -4.489740   1.000000
   21       -4.408392   1.000000
   22       -4.137581   1.000000
   23       -4.083375   1.000000
   24       -3.175831   1.000000
   25       -1.355395   0.000000
   26        2.243467   0.000000
   27        2.812826   0.000000
   28        3.247661   0.000000
 
  0.3000000E+00  0.1000000E+00  0.0000000E+00  0.4000000E-01
    1       -9.375718   1.000000
    2       -8.738850   1.000000
    3       -7.612586   1.000000
    4       -6.619904   1.000000
    5       -6.338534   1.000000
    6       -6.073208   1.000000
    7       -5.878753   1.000000
    8       -5.820972   1.000000
    9       -5.647718   1.000000
   10       -5.380877   1.000000
   11       -5.341058   1.000000
   12       -5.198613   1.000000
   13       -5.083493   1.000000
   14       -4.965954   1.000000
   15       -4.853311   1.000000
   16       -4.792114   1.000000
   17       -4.660582   1.000000
   18       -4.519982   1.000000
   19       -4.397377   1.000000
   20       -4.366455   1.000000
   21       -4.222226   1.000000
   22       -4.105906   1.000000
   23       -3.736849   1.000000
   24       -2.159610   0.000205
   25        0.080554   0.000000
   26        3.197497   0.000000
   27        4.025924   0.000000
   28        4.512534   0.000000
 
  0.4000000E+00  0.1000000E+00  0.0000000E+00  0.4000000E-01
    1       -8.061692   1.000000
    2       -7.724879   1.000000
    3       -7.158549   1.000000
    4       -6.647006   1.000000
    5       -6.413441   1.000000
    6       -6.233784   1.000000
    7       -5.978544   1.000000
    8       -5.682678   1.000000
    9       -5.580281   1.000000
   10       -5.330157   1.000000
   11       -5.266162   1.000000
   12       -5.123847   1.000000
   13       -4.946648   1.000000
   14       -4.803906   1.000000
   15       -4.681779   1.000000
   16       -4.543063   1.000000
   17       -4.407302   1.000000
   18       -4.305021   1.000000
   19       -4.234597   1.000000
   20       -4.051054   1.000000
   21       -3.998059   1.000000
   22       -3.697231   1.000000
   23       -2.843646   1.000000
   24       -0.743741   0.000000
   25        1.827418   0.000000
   26        3.999002   0.000000
   27        4.440902   0.000000
   28        4.992347   0.000000
 
  0.5000000E+00  0.1000000E+00  0.0000000E+00  0.4000000E-01
    1       -7.526357   1.000000
    2       -7.077174   1.000000
    3       -6.912987   1.000000
    4       -6.679388   1.000000
    5       -6.543657   1.000000
    6       -6.360776   1.000000
    7       -6.059125   1.000000
    8       -5.546113   1.000000
    9       -5.445408   1.000000
   10       -5.330116   1.000000
   11       -5.220388   1.000000
   12       -5.022102   1.000000
   13       -4.808176   1.000000
   14       -4.578904   1.000000
   15       -4.436727   1.000000
   16       -4.295241   1.000000
   17       -4.189443   1.000000
   18       -4.147044   1.000000
   19       -4.086877   1.000000
   20       -3.941852   1.000000
   21       -3.414229   1.000000
   22       -2.403303   0.465441
   23       -1.378814   0.000000
   24        0.060303   0.000000
   25        1.557121   0.000000
   26        2.549141   0.000000
   27        2.918096   0.000000
   28        3.995019   0.000000
 
 -0.4000000E+00  0.1000000E+00  0.0000000E+00  0.4000000E-01
    1       -7.444783   1.000000
    2       -7.076150   1.000000
    3       -6.899805   1.000000
    4       -6.694620   1.000000
    5       -6.541976   1.000000
    6       -6.388795   1.000000
    7       -6.077649   1.000000
    8       -5.601834   1.000000
    9       -5.431641   1.000000
   10       -5.333123   1.000000
   11       -5.263485   1.000000
   12       -5.027956   1.000000
   13       -4.829530   1.000000
   14       -4.559233   1.000000
   15       -4.452958   1.000000
   16       -4.297036   1.000000
   17       -4.194398   1.000000
   18       -4.129751   1.000000
   19       -4.085694   1.000000
   20       -3.937934   1.000000
   21       -3.342184   1.000000
   22       -2.404572   0.472582
   23       -1.406120   0.000000
   24        0.047730   0.000000
   25        1.539288   0.000000
   26        2.503800   0.000000
   27        2.986430   0.000000
   28        3.981840   0.000000
 
 -0.3000000E+00  0.1000000E+00  0.0000000E+00  0.4000000E-01
    1       -8.032590   1.000000
    2       -7.670531   1.000000
    3       -7.126311   1.000000
    4       -6.651812   1.000000
    5       -6.412790   1.000000
    6       -6.268499   1.000000
    7       -6.012113   1.000000
    8       -5.720876   1.000000
    9       -5.603152   1.000000
   10       -5.343570   1.000000
   11       -5.308001   1.000000
   12       -5.139078   1.000000
   13       -4.953278   1.000000
   14       -4.809583   1.000000
   15       -4.650395   1.000000
   16       -4.549542   1.000000
   17       -4.420923   1.000000
   18       -4.257557   1.000000
   19       -4.192189   1.000000
   20       -4.041110   1.000000
   21       -3.954388   1.000000
   22       -3.691709   1.000000
   23       -2.901742   1.000000
   24       -0.844133   0.000000
   25        1.760968   0.000000
   26        4.023137   0.000000
   27        4.522948   0.000000
   28        5.032794   0.000000
 
 -0.2000000E+00  0.1000000E+00  0.0000000E+00  0.4000000E-01
    1       -9.410024   1.000000
    2       -8.721669   1.000000
    3       -7.533826   1.000000
    4       -6.579268   1.000000
    5       -6.318852   1.000000
    6       -6.089576   1.000000
    7       -5.897677   1.000000
    8       -5.837446   1.000000
    9       -5.647061   1.000000
   10       -5.382691   1.000000
   11       -5.341935   1.000000
   12       -5.221452   1.000000
   13       -5.063169   1.000000
   14       -4.975625   1.000000
   15       -4.833313   1.000000
   16       -4.763507   1.000000
   17       -4.616642   1.000000
   18       -4.565176   1.000000
   19       -4.414980   1.000000
   20       -4.361409   1.000000
   21       -4.218811   1.000000
   22       -4.113531   1.000000
   23       -3.788752   1.000000
   24       -2.269740   0.024100
   25        0.031066   0.000000
   26        3.195342   0.000000
   27        4.025715   0.000000
   28        4.497459   0.000000
 
 -0.1000000E+00  0.1000000E+00  0.0000000E+00  0.4000000E-01
    1      -10.534838   1.000000
    2       -9.739937   1.000000
    3       -8.255904   1.000000
    4       -6.990342   1.000000
    5       -6.255461   1.000000
    6       -5.850031   1.000000
    7       -5.750109   1.000000
    8       -5.617140   1.000000
    9       -5.527021   1.000000
   10       -5.391619   1.000000
   11       -5.244597   1.000000
   12       -5.195766   1.000000
   13       -5.150995   1.000000
   14       -5.101543   1.000000
   15       -5.009610   1.000000
   16       -4.906044   1.000000
   17       -4.775996   1.000000
   18       -4.681060   1.000000
   19       -4.671433   1.000000
   20       -4.527868   1.000000
   21       -4.420227   1.000000
   22       -4.142853   1.000000
   23       -4.100077   1.000000
   24       -3.256292   1.000000
   25       -1.382518   0.000000
   26        2.245616   0.000000
   27        2.812566   0.000000
   28        3.248579   0.000000
 
  0.0000000E+00  0.2000000E+00  0.0000000E+00  0.2000000E-01
    1      -10.270967   1.000000
    2       -9.480174   1.000000
    3       -8.029276   1.000000
    4       -6.840596   1.000000
    5       -6.184049   1.000000
    6       -5.916699   1.000000
    7       -5.749649   1.000000
    8       -5.601927   1.000000
    9       -5.559762   1.000000
   10       -5.358163   1.000000
   11       -5.277737   1.000000
   12       -5.195267   1.000000
   13       -5.103600   1.000000
   14       -5.048671   1.000000
   15       -4.953393   1.000000
   16       -4.910356   1.000000
   17       -4.886108   1.000000
   18       -4.682406   1.000000
   19       -4.648335   1.000000
   20       -4.518682   1.000000
   21       -4.334985   1.000000
   22       -4.192072   1.000000
   23       -4.049069   1.000000
   24       -3.072344   1.000000
   25       -1.024209   0.000000
   26        2.476622   0.000000
   27        3.116051   0.000000
   28        3.551993   0.000000
 
  0.4000000E+00  0.2000000E+00  0.0000000E+00  0.2000000E-01
    1       -8.219981   1.000000
    2       -7.809417   1.000000
    3       -7.108539   1.000000
    4       -6.532262   1.000000
    5       -6.168822   1.000000
    6       -6.107909   1.000000
    7       -5.970804   1.000000
    8       -5.879639   1.000000
    9       -5.643949   1.000000
   10       -5.497481   1.000000
   11       -5.392172   1.000000
   12       -5.262259   1.000000
   13       -5.044405   1.000000
   14       -4.982517   1.000000
   15       -4.773881   1.000000
   16       -4.688411   1.000000
   17       -4.465882   1.000000
   18       -4.317697   1.000000
   19       -4.271574   1.000000
   20       -4.048838   1.000000
   21       -3.985508   1.000000
   22       -3.644657   1.000000
   23       -2.848392   1.000000
   24       -0.875467   0.000000
   25        1.619198   0.000000
   26        4.400516   0.000000
   27        5.340986   0.000000
   28        5.582781   0.000000
 
  0.5000000E+00  0.2000000E+00  0.0000000E+00  0.4000000E-01
    1       -7.540364   1.000000
    2       -6.926428   1.000000
    3       -6.719050   1.000000
    4       -6.498392   1.000000
    5       -6.310287   1.000000
    6       -6.147467   1.000000
    7       -5.974807   1.000000
    8       -5.815256   1.000000
    9       -5.627085   1.000000
   10       -5.516288   1.000000
   11       -5.339575   1.000000
   12       -5.126893   1.000000
   13       -5.019002   1.000000
   14       -4.870191   1.000000
   15       -4.681114   1.000000
   16       -4.578605   1.000000
   17       -4.441642   1.000000
   18       -4.243541   1.000000
   19       -4.107403   1.000000
   20       -3.957936   1.000000
   21       -3.252350   1.000000
   22       -2.424211   0.582757
   23       -1.243893   0.000000
   24        0.791585   0.000000
   25        2.694181   0.000000
   26        3.616587   0.000000
   27        3.774191   0.000000
   28        4.870062   0.000000
 
 -0.4000000E+00  0.2000000E+00  0.0000000E+00  0.4000000E-01
    1       -7.309404   1.000000
    2       -6.698388   1.000000
    3       -6.629829   1.000000
    4       -6.405555   1.000000
    5       -6.333938   1.000000
    6       -6.186641   1.000000
    7       -6.006300   1.000000
    8       -5.857742   1.000000
    9       -5.575470   1.000000
   10       -5.513083   1.000000
   11       -5.320184   1.000000
   12       -5.158300   1.000000
   13       -4.924728   1.000000
   14       -4.776552   1.000000
   15       -4.613217   1.000000
   16       -4.484086   1.000000
   17       -4.344766   1.000000
   18       -4.171307   1.000000
   19       -4.129987   1.000000
   20       -4.023772   1.000000
   21       -2.439062   0.662385
   22       -0.771522   0.000000
   23       -0.194949   0.000000
   24        0.572620   0.000000
   25        1.650142   0.000000
   26        2.827361   0.000000
   27        3.265676   0.000000
   28        4.207674   0.000000
 
 -0.3000000E+00  0.2000000E+00  0.0000000E+00  0.4000000E-01
    1       -7.370885   1.000000
    2       -6.936369   1.000000
    3       -6.728319   1.000000
    4       -6.498980   1.000000
    5       -6.306241   1.000000
    6       -6.190008   1.000000
    7       -5.990457   1.000000
    8       -5.858683   1.000000
    9       -5.627632   1.000000
   10       -5.548300   1.000000
   11       -5.400954   1.000000
   12       -5.131701   1.000000
   13       -5.025035   1.000000
   14       -4.872150   1.000000
   15       -4.697963   1.000000
   16       -4.586958   1.000000
   17       -4.442497   1.000000
   18       -4.249980   1.000000
   19       -4.080984   1.000000
   20       -3.957938   1.000000
   21       -3.108784   1.000000
   22       -2.439388   0.664066
   23       -1.351527   0.000000
   24        0.620748   0.000000
   25        2.658263   0.000000
   26        3.532616   0.000000
   27        3.873944   0.000000
   28        4.829406   0.000000
 
 -0.2000000E+00  0.2000000E+00  0.0000000E+00  0.4000000E-01
    1       -8.307687   1.000000
    2       -7.724318   1.000000
    3       -6.972560   1.000000
    4       -6.490583   1.000000
    5       -6.158191   1.000000
    6       -6.107953   1.000000
    7       -5.963398   1.000000
    8       -5.879029   1.000000
    9       -5.646005   1.000000
   10       -5.500616   1.000000
   11       -5.398427   1.000000
   12       -5.350423   1.000000
   13       -5.049323   1.000000
   14       -5.000121   1.000000
   15       -4.821897   1.000000
   16       -4.661252   1.000000
   17       -4.491518   1.000000
   18       -4.328438   1.000000
   19       -4.173834   1.000000
   20       -4.052908   1.000000
   21       -3.911006   1.000000
   22       -3.653248   1.000000
   23       -2.976143   1.000000
   24       -1.114996   0.000000
   25        1.450400   0.000000
   26        4.301167   0.000000
   27        5.488463   0.000000
   28        5.589393   0.000000
 
 -0.1000000E+00  0.2000000E+00  0.0000000E+00  0.4000000E-01
    1       -9.471767   1.000000
    2       -8.734792   1.000000
    3       -7.486827   1.000000
    4       -6.514774   1.000000
    5       -6.250424   1.000000
    6       -6.018883   1.000000
    7       -5.858606   1.000000
    8       -5.754289   1.000000
    9       -5.653114   1.000000
   10       -5.373528   1.000000
   11       -5.340835   1.000000
   12       -5.211984   1.000000
   13       -5.163685   1.000000
   14       -5.001275   1.000000
   15       -4.829797   1.000000
   16       -4.782265   1.000000
   17       -4.616977   1.000000
   18       -4.578215   1.000000
   19       -4.452874   1.000000
   20       -4.364221   1.000000
   21       -4.219032   1.000000
   22       -4.114788   1.000000
   23       -3.849133   1.000000
   24       -2.374073   0.308498
   25       -0.020376   0.000000
   26        3.177415   0.000000
   27        4.026192   0.000000
   28        4.476471   0.000000
 
  0.0000000E+00  0.3000000E+00  0.0000000E+00  0.2000000E-01
    1       -9.074107   1.000000
    2       -8.343392   1.000000
    3       -7.292307   1.000000
    4       -6.520994   1.000000
    5       -6.363652   1.000000
    6       -6.058300   1.000000
    7       -5.766100   1.000000
    8       -5.675543   1.000000
    9       -5.422946   1.000000
   10       -5.333230   1.000000
   11       -5.237632   1.000000
   12       -5.151769   1.000000
   13       -4.973549   1.000000
   14       -4.921962   1.000000
   15       -4.795626   1.000000
   16       -4.688068   1.000000
   17       -4.579679   1.000000
   18       -4.447607   1.000000
   19       -4.405249   1.000000
   20       -4.323107   1.000000
   21       -4.210648   1.000000
   22       -4.033517   1.000000
   23       -3.823033   1.000000
   24       -2.060324   0.000000
   25        0.485672   0.000000
   26        3.520886   0.000000
   27        4.620313   0.000000
   28        4.899310   0.000000
 
 -0.4000000E+00  0.3000000E+00  0.0000000E+00  0.2000000E-01
    1       -7.259983   1.000000
    2       -6.453219   1.000000
    3       -6.380245   1.000000
    4       -6.330823   1.000000
    5       -6.190369   1.000000
    6       -6.095903   1.000000
    7       -6.047026   1.000000
    8       -5.933990   1.000000
    9       -5.724449   1.000000
   10       -5.540224   1.000000
   11       -5.477131   1.000000
   12       -5.122102   1.000000
   13       -5.075173   1.000000
   14       -4.840253   1.000000
   15       -4.701613   1.000000
   16       -4.540425   1.000000
   17       -4.509116   1.000000
   18       -4.217791   1.000000
   19       -4.140722   1.000000
   20       -4.048385   1.000000
   21       -2.064213   0.000001
   22       -0.451374   0.000000
   23        0.745884   0.000000
   24        2.172010   0.000000
   25        2.264256   0.000000
   26        2.484862   0.000000
   27        3.340377   0.000000
   28        3.955920   0.000000
 
 -0.3000000E+00  0.3000000E+00  0.0000000E+00  0.4000000E-01
    1       -7.188139   1.000000
    2       -6.460411   1.000000
    3       -6.408108   1.000000
    4       -6.333664   1.000000
    5       -6.197151   1.000000
    6       -6.098155   1.000000
    7       -6.049170   1.000000
    8       -5.923326   1.000000
    9       -5.687241   1.000000
   10       -5.553954   1.000000
   11       -5.491840   1.000000
   12       -5.124522   1.000000
   13       -5.074552   1.000000
   14       -4.862552   1.000000
   15       -4.710436   1.000000
   16       -4.558159   1.000000
   17       -4.511307   1.000000
   18       -4.208603   1.000000
   19       -4.135727   1.000000
   20       -4.049458   1.000000
   21       -1.947081   0.000000
   22       -0.483427   0.000000
   23        0.593392   0.000000
   24        1.786095   0.000000
   25        2.315188   0.000000
   26        2.474555   0.000000
   27        3.248089   0.000000
   28        3.771519   0.000000
 
 -0.2000000E+00  0.3000000E+00  0.0000000E+00  0.4000000E-01
    1       -7.598255   1.000000
    2       -6.899912   1.000000
    3       -6.691502   1.000000
    4       -6.429393   1.000000
    5       -6.304648   1.000000
    6       -6.051573   1.000000
    7       -5.945824   1.000000
    8       -5.771351   1.000000
    9       -5.629092   1.000000
   10       -5.507184   1.000000
   11       -5.369115   1.000000
   12       -5.134783   1.000000
   13       -5.056078   1.000000
   14       -4.920060   1.000000
   15       -4.683649   1.000000
   16       -4.626388   1.000000
   17       -4.443833   1.000000
   18       -4.263832   1.000000
   19       -4.076261   1.000000
   20       -3.957615   1.000000
   21       -3.007701   1.000000
   22       -2.462748   0.774560
   23       -1.468682   0.000000
   24        0.311424   0.000000
   25        2.140685   0.000000
   26        3.237290   0.000000
   27        4.268882   0.000000
   28        5.636511   0.000000
 
 -0.1000000E+00  0.3000000E+00  0.0000000E+00  0.4000000E-01
    1       -8.353326   1.000000
    2       -7.649203   1.000000
    3       -7.000593   1.000000
    4       -6.478129   1.000000
    5       -6.404694   1.000000
    6       -6.095502   1.000000
    7       -5.839677   1.000000
    8       -5.648763   1.000000
    9       -5.484008   1.000000
   10       -5.373373   1.000000
   11       -5.227732   1.000000
   12       -5.175933   1.000000
   13       -5.028728   1.000000
   14       -4.819516   1.000000
   15       -4.729933   1.000000
   16       -4.565983   1.000000
   17       -4.431963   1.000000
   18       -4.260914   1.000000
   19       -4.190265   1.000000
   20       -4.049180   1.000000
   21       -3.947123   1.000000
   22       -3.714971   1.000000
   23       -3.077469   1.000000
   24       -1.169318   0.000000
   25        1.399833   0.000000
   26        3.623808   0.000000
   27        4.543851   0.000000
   28        5.428864   0.000000
 
  0.0000000E+00  0.4000000E+00  0.0000000E+00  0.2000000E-01
    1       -8.184640   1.000000
    2       -7.409499   1.000000
    3       -7.042874   1.000000
    4       -6.578304   1.000000
    5       -6.536763   1.000000
    6       -6.198875   1.000000
    7       -5.789074   1.000000
    8       -5.475354   1.000000
    9       -5.374804   1.000000
   10       -5.323097   1.000000
   11       -5.122549   1.000000
   12       -5.018507   1.000000
   13       -4.680663   1.000000
   14       -4.536901   1.000000
   15       -4.422945   1.000000
   16       -4.322019   1.000000
   17       -4.178363   1.000000
   18       -4.118672   1.000000
   19       -4.037470   1.000000
   20       -4.036948   1.000000
   21       -3.895506   1.000000
   22       -3.592245   1.000000
   23       -2.899599   1.000000
   24       -0.973503   0.000000
   25        1.013051   0.000000
   26        2.596167   0.000000
   27        3.505068   0.000000
   28        4.976250   0.000000
 
 -0.2000000E+00  0.4000000E+00  0.0000000E+00  0.2000000E-01
    1       -7.457142   1.000000
    2       -6.682534   1.000000
    3       -6.646445   1.000000
    4       -6.373743   1.000000
    5       -6.280105   1.000000
    6       -6.040807   1.000000
    7       -5.931840   1.000000
    8       -5.922994   1.000000
    9       -5.539096   1.000000
   10       -5.463835   1.000000
   11       -5.241655   1.000000
   12       -5.125162   1.000000
   13       -5.002796   1.000000
   14       -4.778703   1.000000
   15       -4.655585   1.000000
   16       -4.520548   1.000000
   17       -4.349844   1.000000
   18       -4.162658   1.000000
   19       -4.127483   1.000000
   20       -4.023480   1.000000
   21       -1.964622   0.000000
   22       -0.840709   0.000000
   23       -0.458095   0.000000
   24        0.098831   0.000000
   25        0.749193   0.000000
   26        2.402640   0.000000
   27        3.719185   0.000000
   28        5.010695   0.000000
 
 -0.1000000E+00  0.4000000E+00  0.0000000E+00  0.4000000E-01
    1       -7.857914   1.000000
    2       -7.049117   1.000000
    3       -6.919678   1.000000
    4       -6.547547   1.000000
    5       -6.472911   1.000000
    6       -6.188151   1.000000
    7       -5.821337   1.000000
    8       -5.577465   1.000000
    9       -5.430762   1.000000
   10       -5.298729   1.000000
   11       -5.251914   1.000000
   12       -4.936831   1.000000
   13       -4.726141   1.000000
   14       -4.676519   1.000000
   15       -4.456358   1.000000
   16       -4.324378   1.000000
   17       -4.197376   1.000000
   18       -4.135448   1.000000
   19       -4.073299   1.000000
   20       -3.941130   1.000000
   21       -2.885254   1.000000
   22       -2.474810   0.822393
   23       -1.722222   0.000000
   24       -0.538794   0.000000
   25        0.293543   0.000000
   26        2.170748   0.000000
   27        3.322831   0.000000
   28        4.856629   0.000000
 
  0.0000000E+00  0.5000000E+00  0.0000000E+00  0.1000000E-01
    1       -7.958736   1.000000
    2       -7.117911   1.000000
    3       -7.027922   1.000000
    4       -6.642827   1.000000