unknown system                          
   1.00000000000000     
     2.573869    0.000000    0.000000
     1.286934    2.229036    0.000000
     0.000000    0.000000   30.304665
   Cu   H 
     4     1
Direct
  0.999706  0.000588  0.396567
  0.333186  0.333624  0.465140
  0.665829  0.668343  0.533594
  0.000801  0.998398  0.604216
  0.500476  0.999044  0.640803
 
   10   10  120
 0.13045E-14 0.72858E-16 0.51840E-13 0.97930E-12 0.31919E-14 0.16501E-13 0.28311E-13 0.23102E-12 0.59012E-13 0.16348E-13
 0.13853E-13 0.44052E-12 0.30966E-12 0.18052E-12 0.76189E-14 0.25382E-13 0.40218E-13 0.29294E-11 0.26368E-14 0.13288E-14
 0.40669E-13 0.10740E-12 0.18743E-12 0.22633E-12 0.62450E-14 0.10672E-13 0.78423E-13 0.24337E-11 0.67595E-13 0.57326E-13
 0.16230E-10 0.13415E-10 0.85904E-13 0.21455E-13 0.42633E-13 0.29725E-12 0.62311E-14 0.17285E-11 0.50674E-12 0.15885E-10
 0.16390E-13 0.22787E-13 0.10075E-13 0.24675E-13 0.16570E-13 0.17417E-13 0.63560E-14 0.24578E-13 0.52486E-13 0.46352E-13
 0.82796E-11 0.13422E-09 0.17558E-12 0.54104E-12 0.15210E-13 0.52363E-11 0.39163E-13 0.63657E-13 0.10852E-13 0.89900E-12
 0.41148E-13 0.24980E-15 0.60299E-13 0.12688E-12 0.42466E-14 0.68417E-14 0.30531E-14 0.17764E-14 0.37609E-14 0.79964E-13
 0.15852E-10 0.11820E-10 0.11538E-12 0.15239E-11 0.89984E-13 0.68515E-13 0.18319E-14 0.30809E-14 0.36360E-14 0.14975E-11
 0.50352E-13 0.41319E-13 0.21084E-13 0.39431E-12 0.11963E-13 0.61895E-14 0.38164E-14 0.85418E-13 0.31683E-12 0.15130E-12
 0.25258E-14 0.95271E-14 0.54845E-13 0.11161E-10 0.52985E-13 0.85720E-12 0.13503E-13 0.37011E-11 0.29735E-12 0.37538E-13
 0.13531E-14 0.77195E-15 0.38955E-13 0.11229E-12 0.15959E-14 0.97838E-14 0.35832E-13 0.18152E-13 0.13836E-13 0.94889E-14
 0.11081E-13 0.26386E-12 0.30961E-12 0.15722E-12 0.45935E-14 0.23426E-13 0.12074E-12 0.28991E-11 0.10089E-13 0.28241E-14
 0.66398E-13 0.21370E-12 0.22539E-12 0.16902E-12 0.32058E-14 0.63699E-14 0.13893E-12 0.18539E-11 0.62370E-13 0.57732E-13
 0.22042E-11 0.48184E-11 0.46560E-13 0.27617E-14 0.15377E-13 0.20724E-12 0.47573E-13 0.22546E-11 0.43254E-12 0.21662E-10
 0.47462E-14 0.15002E-13 0.57870E-14 0.66752E-14 0.53568E-14 0.90483E-14 0.75079E-14 0.16417E-13 0.35263E-13 0.26160E-13
 0.29285E-12 0.26138E-10 0.13524E-12 0.13882E-12 0.97838E-14 0.92761E-11 0.86667E-13 0.31908E-12 0.30531E-13 0.52785E-10
 0.23766E-12 0.38303E-14 0.13894E-12 0.38172E-12 0.57454E-14 0.29532E-13 0.12254E-13 0.55650E-14 0.92287E-14 0.17249E-12
 0.36333E-11 0.10221E-10 0.14096E-12 0.19333E-11 0.41689E-13 0.24894E-12 0.58287E-14 0.13087E-13 0.15557E-13 0.26767E-10
 0.15352E-13 0.44929E-13 0.28980E-13 0.51552E-12 0.13781E-13 0.15321E-13 0.10630E-13 0.20325E-12 0.41465E-12 0.79034E-13
 0.34851E-14 0.91455E-14 0.42154E-13 0.11128E-10 0.26923E-13 0.10078E-11 0.24758E-13 0.13131E-10 0.28030E-12 0.72997E-13
 0.57246E-15 0.49266E-15 0.13385E-13 0.23384E-13 0.72164E-15 0.54401E-14 0.13767E-13 0.97145E-15 0.31780E-14 0.29421E-14
 0.41078E-14 0.13059E-12 0.23817E-12 0.65462E-13 0.27756E-14 0.21802E-13 0.28075E-12 0.28543E-11 0.13586E-13 0.21094E-14
 0.18249E-13 0.50894E-12 0.18195E-12 0.78548E-13 0.18874E-14 0.88818E-15 0.14561E-12 0.13001E-11 0.47511E-13 0.50453E-13
 0.44437E-13 0.17973E-11 0.11921E-13 0.61062E-15 0.61895E-14 0.79811E-13 0.19208E-12 0.25515E-11 0.35645E-12 0.25498E-10
 0.11657E-14 0.91316E-14 0.32890E-14 0.24564E-14 0.20262E-14 0.44131E-14 0.62589E-14 0.74940E-14 0.18402E-13 0.12927E-13
 0.23356E-13 0.17386E-11 0.54901E-13 0.25771E-13 0.56205E-14 0.26374E-10 0.19144E-12 0.18068E-11 0.43715E-13 0.10124E-10
 0.53652E-13 0.52736E-14 0.18692E-12 0.11352E-11 0.52319E-14 0.10844E-12 0.64559E-13 0.27756E-13 0.20844E-13 0.35819E-12
 0.11047E-12 0.76495E-11 0.15793E-12 0.14280E-11 0.16750E-13 0.71168E-12 0.27700E-13 0.86472E-13 0.34653E-13 0.14668E-09
 0.33307E-14 0.33827E-13 0.31523E-13 0.68312E-12 0.10450E-13 0.22024E-13 0.22149E-13 0.19955E-12 0.37241E-12 0.40565E-13
 0.17070E-14 0.49405E-14 0.27617E-13 0.62049E-11 0.10117E-13 0.90242E-12 0.43965E-13 0.81275E-10 0.25148E-12 0.12092E-12
 0.43021E-15 0.66613E-15 0.54678E-14 0.94647E-14 0.33307E-15 0.21649E-14 0.45797E-14 0.24980E-15 0.90206E-15 0.13184E-14
 0.21927E-14 0.86292E-13 0.16767E-12 0.66697E-13 0.21094E-14 0.22982E-13 0.96773E-12 0.25994E-11 0.22773E-13 0.33862E-14
 0.52042E-14 0.12531E-11 0.17715E-12 0.67835E-13 0.11935E-14 0.15266E-14 0.16401E-12 0.91877E-12 0.37914E-13 0.44867E-13
 0.85071E-14 0.10964E-11 0.98671E-14 0.22204E-15 0.33307E-14 0.61950E-13 0.36960E-11 0.28244E-11 0.25349E-12 0.33134E-10
 0.52736E-15 0.74662E-14 0.22898E-14 0.12629E-14 0.97145E-15 0.26784E-14 0.59813E-14 0.61756E-14 0.10936E-13 0.82781E-14
 0.42188E-14 0.66377E-12 0.42091E-13 0.21982E-13 0.46074E-14 0.53336E-10 0.79545E-12 0.20551E-10 0.12748E-12 0.17696E-11
 0.85904E-14 0.91649E-13 0.28316E-12 0.12156E-10 0.54401E-14 0.58346E-12 0.27738E-11 0.58081E-12 0.71859E-13 0.10735E-11
 0.23218E-13 0.65104E-11 0.19805E-12 0.19805E-11 0.93536E-14 0.24308E-10 0.79503E-12 0.11905E-10 0.13181E-12 0.62729E-11
 0.86042E-15 0.35125E-13 0.35472E-13 0.72692E-12 0.85348E-14 0.45020E-13 0.61312E-13 0.29515E-12 0.33483E-12 0.13614E-13
 0.15127E-14 0.43160E-14 0.17333E-13 0.23669E-11 0.59536E-14 0.11573E-11 0.76772E-13 0.96148E-10 0.20599E-12 0.17183E-12
 0.23592E-15 0.52736E-15 0.27339E-14 0.43854E-14 0.22204E-15 0.99920E-15 0.13045E-14 -.55511E-16 0.27756E-15 0.43021E-15
 0.92981E-15 0.46574E-13 0.94563E-13 0.23509E-13 0.11102E-14 0.20373E-13 0.24525E-11 0.24674E-11 0.28103E-13 0.32613E-14
 0.18874E-14 0.52218E-11 0.14783E-12 0.33862E-13 0.49960E-15 0.13878E-15 0.78049E-13 0.54773E-12 0.28713E-13 0.41744E-13
 0.21372E-14 0.55961E-12 0.19984E-14  0.0000     0.16653E-14 0.28061E-13 0.72540E-08 0.30206E-11 0.25069E-12 0.48079E-10
 0.18041E-15 0.53013E-14 0.13461E-14 0.48572E-15 0.36082E-15 0.14433E-14 0.43160E-14 0.31919E-14 0.59813E-14 0.43160E-14
 0.14155E-14 0.21787E-12 0.17722E-13 0.62450E-14 0.32752E-14 0.13992E-09 0.23825E-11 0.26104E-10 0.88554E-13 0.14695E-11
 0.17347E-14 0.20689E-12 0.18663E-12 0.16284E-07 0.41495E-14 0.91732E-12 0.54572E-10 0.15626E-11 0.11491E-12 0.14831E-11
 0.74107E-14 0.51673E-11 0.20065E-12 0.19256E-11 0.39135E-14 0.13719E-10 0.12761E-11 0.49153E-11 0.99226E-13 0.29792E-11
 0.26368E-15 0.27200E-13 0.38775E-13 0.96728E-12 0.62450E-14 0.33751E-13 0.58481E-13 0.10655E-12 0.23326E-12 0.62311E-14
 0.90206E-15 0.26507E-14 0.11907E-13 0.11011E-11 0.25813E-14 0.58012E-12 0.68417E-13 0.16938E-10 0.20017E-12 0.32468E-12
 0.11102E-15 0.43021E-15 0.17486E-14 0.23315E-14 0.55511E-16 0.55511E-15 0.38858E-15 0.55511E-16  0.0000     0.13878E-15
 0.34694E-15 0.33140E-13 0.33917E-13 0.15904E-13 0.86042E-15 0.19207E-13 0.45864E-11 0.22020E-11 0.42563E-13 0.35111E-14
 0.10825E-14 0.68277E-09 0.13317E-12 0.26396E-13 0.47184E-15 0.83267E-16 0.40468E-13 0.34939E-12 0.26146E-13 0.36124E-13
 0.73552E-15 0.37685E-12 0.14710E-14  0.0000     0.99920E-15 0.20650E-13 0.38094E-10 0.30088E-11 0.19931E-12 0.67085E-10
 0.97145E-16 0.41356E-14 0.10825E-14 0.29143E-15 0.23592E-15 0.84655E-15 0.35805E-14 0.23037E-14 0.44964E-14 0.29074E-14
 0.51348E-15 0.11000E-12 0.12754E-13 0.46768E-14 0.24980E-14 0.11434E-08 0.42640E-11 0.10431E-08 0.72997E-13 0.10897E-11
 0.66613E-15 0.84496E-12 0.13468E-12 0.48100E-10 0.37054E-14 0.92648E-12 0.25164E-11 0.14450E-12 0.11956E-12 0.12114E-11
 0.32196E-14 0.44161E-11 0.28720E-12 0.16222E-11 0.21372E-14 0.56091E-11 0.54623E-13 0.26831E-12 0.97006E-13 0.15302E-11
 0.83267E-16 0.31503E-13 0.48378E-13 0.11047E-11 0.55234E-14 0.35583E-13 0.47351E-13 0.58037E-13 0.20187E-12 -.41633E-16
 0.54123E-15 0.18041E-14 0.42188E-14 0.40024E-13 0.12768E-14 0.70519E-12 0.71027E-13 0.54687E-11 0.16825E-12 0.50429E-12
 0.16653E-15 0.44409E-15 0.91593E-15 0.13878E-14 0.83267E-16 0.33307E-15 0.13878E-15 0.11102E-15 0.55511E-16 0.55511E-16
 0.20817E-15 0.12504E-13 0.15821E-14 0.29143E-14 0.49960E-15 0.16015E-13 0.32097E-11 0.20074E-11 0.38913E-13 0.40107E-14
 0.51348E-15 0.12996E-10 0.11302E-12 0.16404E-13 0.30531E-15 0.16653E-15 0.12490E-13 0.15175E-12 0.15252E-13 0.28630E-13
 0.29143E-15 0.21445E-12 0.27756E-15 0.83267E-16 0.72164E-15 0.12462E-13 0.12683E-09 0.29910E-11 0.17224E-12 0.98671E-10
 0.55511E-16 0.31780E-14 0.73552E-15 0.23592E-15 0.55511E-16 0.45797E-15 0.25396E-14 0.15821E-14 0.27062E-14 0.18666E-14
 0.33307E-15 0.49807E-13 0.68209E-14 0.21441E-14 0.19013E-14 0.30116E-07 0.62682E-12 0.71823E-12 0.27423E-13 0.15286E-11
 0.22204E-15 0.25052E-12 0.67606E-13 0.27719E-08 0.27825E-14 0.30494E-12 0.93731E-13 0.13184E-13 0.24203E-13 0.30931E-12
 0.15821E-14 0.35013E-11 0.25441E-12 0.67127E-13 0.90206E-15 0.27625E-12 0.42744E-14 0.26784E-13 0.36443E-13 0.11065E-11
 0.55511E-16 0.20817E-13 0.45769E-13 0.13217E-11 0.41356E-14 0.20539E-13 0.14988E-13 0.18568E-13 0.11952E-12 0.25951E-14
 0.45797E-15 0.12629E-14 0.45797E-15 0.16764E-13 0.72164E-15 0.29884E-12 0.34278E-13 0.30548E-11 0.15218E-12 0.85901E-12
 0.83267E-16 0.36082E-15 0.63838E-15 0.14433E-14  0.0000     0.30531E-15 0.22204E-15 0.83267E-16  0.0000     0.27756E-16
 0.69389E-16 0.79936E-14 0.49960E-15 0.55511E-15 0.49960E-15 0.14655E-13 0.18514E-11 0.17922E-11 0.51917E-13 0.44548E-14
 0.34694E-15 0.26973E-11 0.99323E-13 0.12490E-13 0.16653E-15 0.11102E-15 0.37192E-14 0.79950E-13 0.13253E-13 0.27908E-13
 0.16653E-15 0.14780E-12 0.13878E-15 0.27756E-16 0.49960E-15 0.90344E-14 0.56585E-11 0.28105E-11 0.16785E-12 0.18548E-09
 0.83267E-16 0.25535E-14 0.52736E-15 0.19429E-15 0.90206E-16 0.33307E-15 0.19706E-14 0.11796E-14 0.19082E-14 0.13323E-14
 0.13878E-15 0.27908E-13 0.46560E-14 0.14502E-14 0.15404E-14 0.16317E-09 0.14269E-12 0.16008E-12 0.14738E-13 0.17094E-11
 0.24286E-15 0.11907E-12 0.37734E-13 0.93869E-11 0.24702E-14 0.15303E-12 0.23398E-13 0.34556E-14 0.72720E-14 0.96423E-13
 0.99920E-15 0.30059E-11 0.46128E-12 0.39336E-10 0.55511E-15 0.65364E-13 0.10825E-14 0.77993E-14 0.24231E-13 0.75789E-12
 0.55511E-16 0.23426E-13 0.54318E-13 0.19836E-11 0.32752E-14 0.15266E-13 0.63283E-14 0.78271E-14 0.67807E-13 0.14835E-13
 0.33307E-15 0.99920E-15 0.97145E-16 0.24258E-12 0.24980E-15 0.24489E-12 0.23870E-13 0.17474E-11 0.14003E-12 0.20370E-11
 0.11102E-15 0.30531E-15 0.44409E-15 0.10547E-14 0.55511E-16 0.16653E-15 0.16653E-15 0.83267E-16 0.55511E-16 0.27756E-16
 0.41633E-16 0.14155E-14 0.20650E-13 0.63838E-15 0.22204E-15 0.12851E-13 0.80097E-12 0.16728E-11 0.52361E-13 0.41356E-14
 0.18041E-15 0.13285E-11 0.83995E-13 0.10880E-13 0.83267E-16 0.24980E-15 0.13739E-14 0.11102E-14 0.81879E-14 0.23731E-13
 0.13878E-16 0.82635E-13 0.19429E-15 -.13878E-16 0.38858E-15 0.63838E-14 0.93949E-12 0.26343E-11 0.10385E-12 0.18066E-09
 0.76328E-16 0.20817E-14 0.44062E-15 0.12490E-15 0.31225E-16 0.15959E-15 0.15613E-14 0.77716E-15 0.12698E-14 0.77716E-15
 0.97145E-16 0.14166E-13 0.31572E-14 0.99573E-15 0.12837E-14 0.90501E-09 0.28526E-13 0.44929E-13 0.81393E-14 0.40776E-11
 0.12490E-15 0.35680E-13 0.21441E-13 0.10063E-11 0.20678E-14 0.71262E-13 0.79659E-14 0.12212E-14 0.20817E-14 0.25126E-13
 0.56205E-15 0.23745E-11 0.44288E-12 0.86288E-11 0.26368E-15 0.17986E-13 0.37470E-15 0.31641E-14 0.13933E-13 0.61623E-12
 0.83267E-16 0.17514E-13 0.53263E-13 0.22153E-11 0.29976E-14 0.10575E-13 0.27756E-14 0.37886E-14 0.34001E-13 0.71991E-13
 0.18735E-15 0.33307E-15 0.12490E-14 0.70577E-12 0.19429E-15 0.14638E-12 0.12795E-13 0.12306E-11 0.13799E-12 0.64482E-11
 0.41633E-16 0.26368E-15 0.45103E-15 0.11935E-14  0.0000     0.16653E-15 0.11102E-15 0.83267E-16 0.27756E-16 -.69389E-17
 0.41633E-16 0.11310E-14 0.31850E-13 0.80005E-14 0.27756E-15 0.13073E-13 0.41248E-12 0.20951E-11 0.68487E-13 0.48850E-14
 0.11102E-15 0.76053E-12 0.74864E-13 0.95479E-14 0.11102E-15 0.24980E-15 0.34694E-15 0.44270E-14 0.80561E-14 0.27631E-13
 0.55511E-16 0.51729E-13 0.41633E-16 0.83267E-16 0.28449E-15 0.50723E-14 0.33385E-12 0.24235E-11 0.10773E-12 0.20441E-08
 0.97145E-16 0.18874E-14 0.37123E-15 0.55511E-16 -.34694E-16 0.17347E-15 0.12004E-14 0.70083E-15 0.95757E-15 0.66613E-15
 0.12490E-15 0.10006E-13 0.23315E-14 0.79971E-15 0.11935E-14 0.78520E-10 0.10859E-13 0.19429E-13 0.44548E-14 0.68615E-11
 0.11796E-15 0.14870E-13 0.12910E-13 0.28672E-12 0.18041E-14 0.43951E-13 0.41911E-14 0.56899E-15 0.11380E-14 0.10866E-13
 0.54123E-15 0.20521E-11 0.59162E-12 0.11728E-10 0.18041E-15 0.68001E-14 0.15266E-15 0.15127E-14 0.83267E-14 0.46808E-12
 0.27756E-16 0.21788E-13 0.63713E-13 0.37400E-11 0.23870E-14 0.70499E-14 0.16098E-14 0.15682E-14 0.16265E-13 0.10029E-12
 0.20817E-15 0.40246E-15 0.15751E-14 0.73902E-12 0.41633E-16 0.13045E-12 0.95202E-14 0.83003E-12 0.18022E-12 0.11576E-08
 0.27756E-16 0.24286E-15 0.33307E-15 0.98532E-15 0.97145E-16 -.27756E-16 0.41633E-16 0.62450E-16 -.69389E-17 0.13878E-16
 0.27756E-16 0.14433E-14 0.54609E-13 0.12414E-13 0.13184E-15 0.10124E-13 0.29128E-12 0.22182E-11 0.62061E-13 0.47184E-14
 0.15266E-15 0.66656E-12 0.60396E-13 0.85140E-14 0.90206E-16 0.19429E-15 0.12490E-15 0.68362E-13 0.39135E-14 0.17222E-13
 0.13878E-16 0.24480E-13 0.72858E-16 0.45103E-16 0.29143E-15 0.37435E-14 0.16709E-12 0.21932E-11 0.72581E-13 0.62309E-09
 0.48572E-16 0.14988E-14 0.23592E-15 0.13878E-15 -.65919E-16 0.13878E-15 0.80491E-15 0.45797E-15 0.62450E-15 0.50654E-15
 0.11102E-15 0.41148E-14 0.15613E-14 0.61409E-15 0.89512E-15 0.32156E-08 0.26437E-14 0.82157E-14 0.25327E-14 0.33648E-08
  0.0000     0.86320E-14 0.65642E-14 0.10925E-12 0.13253E-14 0.24661E-13 0.18874E-14 0.27756E-15 0.36082E-15 0.28588E-14
 0.38164E-15 0.16089E-11 0.58214E-12 0.86747E-11 0.90206E-16 0.23315E-14 0.13878E-15 0.83267E-15 0.53707E-14 0.40060E-12
 0.20817E-16 0.13191E-13 0.60910E-13 0.43934E-11 0.19706E-14 0.50238E-14 0.70777E-15 0.65919E-15 0.45866E-14 0.32910E-12
 0.69389E-16 0.97145E-16 0.87083E-14 0.93509E-12 -.27756E-16 0.63546E-13 0.55442E-14 0.64366E-12 0.18294E-12 0.68581E-10
 0.55511E-16 0.35388E-15 0.43715E-15 0.88124E-15 0.27756E-16 0.22204E-15 0.27756E-16 0.27756E-16 -.34694E-16 0.11796E-15
 0.69389E-17 0.39552E-14 0.61430E-13 0.36825E-13 0.22204E-15 0.10499E-13 0.19720E-12 0.24556E-11 0.11081E-12 0.50099E-14
 0.55511E-16 0.64432E-12 0.54165E-13 0.92495E-14 0.55511E-16 0.19429E-15 0.69389E-17 0.13869E-12 0.38303E-14 0.18201E-13
 0.41633E-16 0.79381E-14 0.20817E-16 0.34694E-16 0.24286E-15 0.38997E-14 0.91802E-13 0.19672E-11 0.71845E-13 0.63926E-07
 0.18041E-15 0.13947E-14 0.22898E-15 0.41633E-16 -.69389E-17 0.15266E-15 0.66613E-15 0.49960E-15 0.53429E-15 0.38858E-15
 0.90206E-16 0.28866E-14 0.13739E-14 0.52736E-15 0.86042E-15 0.66859E-09 0.15127E-14 0.55997E-14 0.21511E-14 0.25782E-10
 0.83267E-16 0.45797E-14 0.47809E-14 0.51070E-13 0.12212E-14 0.17916E-13 0.15543E-14 0.22898E-15 0.28449E-15 0.16168E-14
 0.35388E-15 0.13697E-11 0.68202E-12 0.82896E-11 0.69389E-16 0.16653E-14 0.14572E-15 0.68695E-15 0.43923E-14 0.32218E-12
 -.69389E-17 0.14197E-13 0.72699E-13 0.65375E-11 0.18319E-14 0.40593E-14 0.63144E-15 0.61062E-15 0.24772E-14 0.60175E-12
 0.10408E-15 0.48572E-16 0.11012E-13 0.93862E-12 -.76328E-16 0.59286E-13 0.45103E-14 0.48778E-12 0.22669E-12 0.95833E-11
 -.13878E-16 0.36776E-15 0.46491E-15 0.97838E-15 -.55511E-16 -.48572E-16 0.55511E-16 0.13878E-16 -.13878E-16 0.41633E-16
 0.34694E-16 0.10367E-13 0.68785E-13 0.50432E-13 0.11102E-15 0.87430E-14 0.15352E-12 0.26999E-11 0.15112E-12 0.54123E-14
 0.34694E-16 0.61101E-12 0.57634E-13 0.80352E-14 0.11796E-15 0.17347E-15 0.13878E-15 0.24591E-12 0.23870E-14 0.16723E-13
 0.55511E-16 0.29421E-14 0.48572E-16 0.20817E-16 0.19429E-15 0.37401E-14 0.58065E-13 0.18103E-11 0.49051E-13 0.71547E-08
 0.69389E-17 0.11588E-14 0.15266E-15 0.69389E-16 0.13878E-16 0.97145E-16 0.63144E-15 0.38164E-15 0.45103E-15 0.29143E-15
 0.11796E-15 0.16515E-14 0.90206E-15 0.37470E-15 0.71471E-15 0.11357E-08 0.59674E-15 0.29907E-14 0.12768E-14 0.30952E-11
 0.97145E-16 0.38095E-14 0.31503E-14 0.27672E-13 0.10547E-14 0.12143E-13 0.88818E-15 0.11796E-15 0.10408E-15 0.58981E-15
 0.34694E-15 0.11252E-11 0.68721E-12 0.14822E-10 0.13184E-15 0.70083E-15 0.41633E-16 0.41633E-15 0.28380E-14 0.32676E-12
 0.13878E-16 0.12892E-13 0.89262E-13 0.72180E-11 0.16445E-14 0.28103E-14 0.31919E-15 0.34001E-15 0.51348E-15 0.22249E-11
 0.55511E-16 -.27756E-16 0.17659E-13 0.92873E-12 0.48572E-16 0.37706E-13 0.27894E-14 0.38357E-12 0.22473E-12 0.46410E-11
 0.69389E-17 0.35388E-15 0.40246E-15 0.72858E-15 -.90206E-16 0.69389E-16 -.20817E-16 -.83267E-16 0.27756E-16 0.55511E-16
 0.41633E-16 0.19873E-13 0.72789E-13 0.12439E-12 0.12490E-15 0.82642E-14 0.10653E-12 0.29775E-11 0.19352E-12 0.53985E-14
 0.48572E-16 0.59965E-12 0.64324E-13 0.76467E-14 0.27756E-16 0.55511E-16 0.23592E-15 0.35286E-12 0.12004E-14 0.17188E-13
 0.41633E-16 0.65919E-15 -.27756E-16 0.11102E-15 0.13878E-15 0.35805E-14 0.44659E-13 0.15393E-11 0.40287E-13 0.98917E-09
 0.76328E-16 0.12629E-14 0.15959E-15  0.0000     0.27756E-16 0.62450E-16 0.47184E-15 0.28449E-15 0.43021E-15 0.20817E-15
 0.55511E-16 0.83961E-15 0.70777E-15 0.26368E-15 0.69389E-15 0.31062E-09 0.30531E-15 0.19776E-14 0.10547E-14 0.13354E-11
 0.11102E-15 0.21580E-14 0.23453E-14 0.15161E-13 0.83267E-15 0.90622E-14 0.58287E-15 0.10408E-15 0.83267E-16 0.33307E-15
 0.20817E-15 0.95120E-12 0.72319E-12 0.99519E-11 0.10408E-15 0.41633E-15 0.13184E-15 0.28449E-15 0.22066E-14 0.32409E-12
  0.0000     0.11893E-13 0.96187E-13 0.92806E-11 0.14017E-14 0.22482E-14 0.30531E-15 0.13878E-15 0.24286E-15 0.54918E-10
 0.83267E-16 0.13878E-16 0.22725E-13 0.90033E-12 0.69389E-17 0.29712E-13 0.21580E-14 0.33105E-12 0.24662E-12 0.31820E-11
 -.41633E-16 0.45797E-15 0.48572E-15 0.88818E-15 0.76328E-16 0.20817E-16 0.27756E-16 0.13878E-16 0.41633E-16 0.48572E-16
 0.41633E-16 0.39253E-13 0.67162E-13 0.26289E-12 0.41633E-16 0.73969E-14 0.10135E-12 0.33697E-11 0.28064E-12 0.55511E-14
 0.55511E-16 0.62322E-12 0.68313E-13 0.79034E-14 0.69389E-17 0.19429E-15 0.31919E-15 0.43468E-12 0.11588E-14 0.16313E-13
 0.34694E-16 0.11421E-13 0.20817E-16 0.27756E-16 0.22204E-15 0.34833E-14 0.43410E-13 0.14135E-11 0.41647E-13 0.31356E-09
 0.34694E-16 0.15057E-14 0.16653E-15 0.69389E-16 0.27756E-16 0.15266E-15 0.32613E-15 0.25674E-15 0.33307E-15 0.19429E-15
 0.83267E-16 0.49266E-15 0.60368E-15 0.22204E-15 0.58287E-15 0.15114E-09 0.17347E-15 0.13184E-14 0.74940E-15 0.62735E-12
 0.34694E-16 0.16029E-14 0.16792E-14 0.96520E-14 0.72164E-15 0.67654E-14 0.48225E-15 -.10408E-16 0.11623E-15 0.12490E-15
 0.29837E-15 0.79727E-12 0.11737E-11 0.13811E-10 0.10408E-15 0.26368E-15 0.64185E-16 0.17868E-15 0.18041E-14 0.35111E-12
 0.83267E-16 0.11026E-13 0.13987E-12 0.11804E-10 0.14086E-14 0.18145E-14 0.13184E-15 0.18041E-15 0.27756E-16 0.26645E-10
 0.90206E-16  0.0000     0.27298E-13 0.82516E-12 0.48572E-16 0.21538E-13 0.18596E-14 0.33964E-12 0.28736E-12 0.24900E-11
 -.55511E-16 0.45797E-15 0.34001E-15 0.66613E-15 -.69389E-16  0.0000     -.62450E-16 0.55511E-16 0.27756E-16 0.27756E-16
 -.69389E-17 0.91802E-13 0.63977E-13 0.38492E-12 0.13878E-16 0.58564E-14 0.80047E-13 0.39174E-11 0.31503E-12 0.67585E-14
 0.41633E-16 0.69240E-12 0.68591E-13 0.58564E-14 0.55511E-16 0.11102E-15 0.21511E-15 0.49980E-12 0.24980E-15 0.13149E-13
 -.69389E-17 0.24661E-13 -.20817E-16 -.69389E-17 0.11796E-15 0.27062E-14 0.39017E-13 0.12239E-11 0.33605E-13 0.15639E-09
 0.48572E-16 0.12212E-14 0.11102E-15 -.41633E-16 0.13878E-16 0.11102E-15 0.28449E-15 0.20817E-15 0.23245E-15 0.16653E-15
 -.62450E-16 0.11102E-15 0.44409E-15 0.12490E-15 0.47878E-15 0.49889E-10  0.0000     0.82573E-15 0.56552E-15 0.38010E-12
 0.69389E-16 0.11657E-14 0.11657E-14 0.61617E-14 0.63838E-15 0.56587E-14 0.25240E-15 0.53776E-16 0.31225E-16 0.83267E-16
 0.15266E-15 0.70938E-12 0.15300E-11 0.12559E-10 0.97145E-16 0.26021E-16 0.58981E-16 0.12577E-15 0.12663E-14 0.38558E-12
 0.69389E-17 0.90761E-14 0.13604E-12 0.13807E-10 0.13774E-14 0.12837E-14 0.12230E-15 -.32960E-16 0.36776E-15 0.39053E-11
 0.55511E-16 0.55511E-16 0.42494E-13 0.75294E-12 -.45103E-16 0.14402E-13 0.12074E-14 0.34560E-12 0.30374E-12 0.20786E-11
 0.13878E-16 0.68001E-15 0.51348E-15 0.83267E-15 0.11102E-15 0.19429E-15 0.97145E-16 0.11102E-15 0.83267E-16 0.13878E-16
 0.10408E-15 0.13289E-12 0.61548E-13 0.17168E-11 0.41633E-16 0.61062E-14 0.55553E-13 0.38259E-11 0.43155E-12 0.90622E-14
 0.97145E-16 0.64218E-12 0.63283E-13 0.70360E-14 0.13878E-16 0.33307E-15 0.38858E-15 0.65356E-12 0.30531E-15 0.13267E-13
 0.27756E-16 0.15324E-12 0.83267E-16 -.41633E-16 0.22204E-15 0.33584E-14 0.27173E-13 0.11288E-11 0.23433E-13 0.96884E-10
  0.0000     0.14919E-14 0.15959E-15 0.83267E-16 -.13878E-16 0.10408E-15 0.24980E-15 0.22204E-15 0.20817E-15 0.14919E-15
 0.55511E-16 0.13878E-15 0.34694E-15 0.13878E-15 0.45797E-15 0.19738E-10 0.27756E-16 0.79537E-15 0.47878E-15 0.39147E-12
 0.62450E-16 0.67307E-15 0.83267E-15 0.36290E-14 0.51348E-15 0.66058E-14 0.29490E-15 0.13878E-15 0.73292E-16 0.48572E-16
 0.19429E-15 0.55034E-12 0.10758E-11 0.14922E-10 0.19429E-15 0.13444E-15 0.11102E-15 -.23419E-16 0.12351E-14 0.44029E-12
 0.69389E-16 0.92149E-14 0.18986E-12 0.15260E-10 0.15300E-14 0.13045E-14 0.20426E-15 0.55511E-16 0.98532E-15 0.14165E-11
 0.20123E-15 0.16653E-15 0.49821E-13 0.68993E-12 -.13878E-16 0.14731E-13 0.10339E-14 0.37894E-12 0.31405E-12 0.18463E-11
 -.13878E-16 0.68695E-15 0.43021E-15 0.68001E-15 -.69389E-16 0.41633E-16 -.90206E-16 -.27756E-16 0.20817E-16  0.0000    
 0.27756E-16 0.28764E-12 0.55012E-13 0.18571E-11 0.55511E-16 0.52458E-14 0.69264E-13 0.45091E-11 0.66192E-12 0.11852E-13
 0.55511E-16 0.75047E-12 0.94993E-13 0.73760E-14 -.41633E-16 -.27756E-16 0.19429E-15 0.65233E-12 0.97145E-16 0.15044E-13
 0.69389E-17 0.13001E-12 -.62450E-16 0.13878E-16 0.13878E-15 0.33307E-14 0.36769E-13 0.13050E-11 0.25063E-13 0.46806E-10
 0.55511E-16 0.17070E-14 0.15266E-15 -.41633E-16 0.13878E-15 0.55511E-16 0.18041E-15 0.22898E-15 0.21511E-15 0.11102E-15
 0.41633E-16 0.83267E-16 0.27756E-15 0.13878E-15 0.61062E-15 0.22174E-10 0.11102E-15 0.49960E-15 0.49960E-15 0.29654E-12
 0.90206E-16 0.68695E-15 0.86042E-15 0.29976E-14 0.52042E-15 0.57593E-14 0.19082E-15 0.55511E-16 0.52042E-16 -.13878E-16
 0.20817E-15 0.49521E-12 0.19602E-11 0.20351E-10 0.69389E-16 0.32960E-16 0.41633E-16 0.34694E-17 0.99226E-15 0.46472E-12
 0.20817E-16 0.97145E-14 0.22628E-12 0.18766E-10 0.21406E-14 0.11380E-14 0.43368E-16 0.41633E-16 0.45797E-15 0.90164E-12
 0.83267E-16 0.15266E-15 0.50654E-13 0.61857E-12 -.13878E-15 0.86910E-14 0.71124E-15 0.38299E-12 0.38041E-12 0.17489E-11
 -.13878E-16 0.72164E-15 0.58287E-15 0.88818E-15 0.11102E-15 0.11102E-15 0.83267E-16 0.55511E-16 0.27756E-16  0.0000    
 0.13878E-16 0.79747E-12 0.50626E-13 0.43696E-10 0.69389E-17 0.44409E-14 0.57648E-13 0.44807E-11 0.78383E-12 0.13073E-13
 0.11102E-15 0.72128E-12 0.76272E-13 0.63560E-14  0.0000     0.23592E-15 0.47184E-15 0.72711E-12 0.13878E-15 0.13767E-13
 0.27756E-16 0.36349E-12 0.41633E-16 0.83267E-16 0.27756E-16 0.29560E-14 0.32002E-13 0.13635E-11 0.21746E-13 0.35971E-10
  0.0000     0.16515E-14 0.19429E-15  0.0000     0.27756E-16 0.83267E-16 0.12490E-15 0.13878E-15 0.15266E-15 0.55511E-16
  0.0000     -.27756E-16 0.16653E-15 0.11102E-15 0.51348E-15 0.58485E-11 0.55511E-16 0.35388E-15 0.36082E-15 0.27156E-12
 0.69389E-16 0.49266E-15 0.48572E-15 0.19290E-14 0.44409E-15 0.60230E-14 0.29143E-15 0.69389E-16 0.65919E-16 0.83267E-16
 0.18041E-15 0.39599E-12 0.20353E-11 0.25322E-10 0.18041E-15 0.17347E-15 0.11102E-15 0.34694E-17 0.11935E-14 0.50048E-12
 0.41633E-16 0.82712E-14 0.30781E-12 0.21699E-10 0.18874E-14 0.11657E-14 0.72858E-16 0.11102E-15 0.82573E-15 0.56755E-12
 0.83267E-16 0.27756E-15 0.61673E-13 0.55392E-12 0.22204E-15 0.81601E-14 0.77716E-15 0.38129E-12 0.39474E-12 0.16561E-11
 -.97145E-16 0.95757E-15 0.52736E-15 0.69389E-15 -.11102E-15 -.27756E-16 -.69389E-16 -.55511E-16 0.41633E-16 -.69389E-16
 0.27756E-16 0.40723E-11 0.45908E-13 0.18035E-09 -.48572E-16 0.41633E-14 0.56566E-13 0.51391E-11 0.95098E-12 0.26618E-13
 -.13878E-16 0.79749E-12 0.99476E-13 0.67724E-14 -.69389E-16 0.23592E-15 0.22204E-15 0.73500E-12 -.13878E-16 0.13239E-13
  0.0000     0.46746E-12 -.13878E-16 -.83267E-16 0.11102E-15 0.32613E-14 0.33404E-13 0.14100E-11 0.17097E-13 0.23187E-10
 0.27756E-16 0.17764E-14 0.16653E-15 -.27756E-16 0.27756E-16  0.0000     0.12490E-15 0.12490E-15 0.18041E-15 0.55511E-16
 -.27756E-16 -.27756E-16 0.19429E-15 0.55511E-16 0.52736E-15 0.69132E-11 0.11102E-15 0.27756E-15 0.29143E-15 0.24993E-12
 0.83267E-16 0.48572E-15 0.52736E-15 0.14572E-14 0.34694E-15 0.56205E-14 0.19429E-15 -.27756E-16 0.55511E-16 0.27756E-16
 0.19429E-15 0.35469E-12 0.29731E-11 0.28849E-10 0.69389E-16 0.27756E-16 -.13878E-16 0.69389E-16 0.86042E-15 0.55445E-12
 -.27756E-16 0.79381E-14 0.30501E-12 0.24122E-10 0.20678E-14 0.10547E-14 -.13878E-16 0.27756E-16 0.76328E-15 0.38405E-12
 0.15266E-15 0.13878E-15 0.80574E-13 0.49167E-12 -.55511E-16 0.62242E-14 0.41633E-15 0.40729E-12 0.40740E-12 0.16230E-11
 0.41633E-16 0.10408E-14 0.72164E-15 0.95757E-15  0.0000     0.13878E-15 -.97145E-16 0.97145E-16  0.0000     0.41633E-16
 0.13878E-16 0.25194E-09 0.41384E-13 0.15983E-10 -.41633E-16 0.37470E-14 0.59563E-13 0.58233E-11 0.12600E-11 0.28366E-13
 0.97145E-16 0.88415E-12 0.96187E-13 0.70499E-14 -.69389E-16 -.41633E-16 0.29143E-15 0.74045E-12 0.97145E-16 0.13045E-13
 0.13878E-16 0.45194E-12 0.27756E-16 -.55511E-16 0.55511E-16 0.34694E-14 0.36332E-13 0.18298E-11 0.16084E-13 0.15251E-10
 0.27756E-16 0.19568E-14 0.15266E-15 -.83267E-16 0.55511E-16 0.55511E-16 0.83267E-16 0.83267E-16 0.16653E-15 0.11102E-15
  0.0000     -.27756E-16 0.13878E-15 0.69389E-16 0.56899E-15 0.23465E-11 0.69389E-16 0.16653E-15 0.22204E-15 0.24779E-12
 0.83267E-16 0.45797E-15 0.34694E-15 0.12629E-14 0.34694E-15 0.67446E-14 0.27756E-15 -.55511E-16 0.41633E-16  0.0000    
 0.27756E-15 0.30990E-12 0.41806E-11 0.97316E-10 0.11102E-15 0.13878E-16 0.27756E-16 0.27756E-16 0.10963E-14 0.60929E-12
  0.0000     0.76467E-14 0.49141E-12 0.27496E-10 0.25258E-14 0.12212E-14 0.27756E-16 0.55511E-16 0.91593E-15 0.31859E-12
 0.15266E-15 0.27756E-15 0.90775E-13 0.44061E-12 0.27756E-16 0.57870E-14 0.52736E-15 0.42022E-12 0.46756E-12 0.15525E-11
 0.13878E-16 0.12143E-14 0.66613E-15 0.10547E-14 0.55511E-16 0.83267E-16 0.12490E-15 -.55511E-16 0.69389E-16 -.27756E-16
 0.34694E-16 0.25258E-11 0.37526E-13 0.16302E-11 0.13878E-15 0.34972E-14 0.53749E-13 0.57968E-11 0.15918E-11 0.41675E-13
 0.13878E-16 0.90304E-12 0.11245E-12 0.68695E-14  0.0000     0.15266E-15 0.22204E-15 0.75701E-12  0.0000     0.13808E-13
 0.55511E-16 0.45477E-11 0.12490E-15 0.27756E-16 0.15266E-15 0.29698E-14 0.35291E-13 0.16651E-11 0.12518E-13 0.11097E-10
 0.27756E-16 0.21511E-14 0.83267E-16 0.27756E-16 0.27756E-16 0.41633E-16 0.55511E-16 0.12490E-15 0.15266E-15 -.13878E-16
 -.27756E-16  0.0000     0.20817E-15 0.13878E-16 0.72164E-15 0.28106E-11 0.55511E-16 0.12490E-15 0.18041E-15 0.22866E-12
 0.83267E-16 0.29143E-15 0.34694E-15 0.94369E-15 0.22204E-15 0.65781E-14 0.22204E-15 -.55511E-16 0.41633E-16 0.27756E-16
 0.20817E-15 0.26057E-12 0.52094E-11 0.52771E-10 0.69389E-16 0.83267E-16 0.55511E-16 0.69389E-16 0.10131E-14 0.63038E-12
  0.0000     0.75773E-14 0.52321E-12 0.28125E-10 0.27617E-14 0.11935E-14 0.22204E-15 0.69389E-16 0.97145E-15 0.25661E-12
 0.12490E-15 0.22204E-15 0.99226E-13 0.39328E-12 0.55511E-16 0.45242E-14 0.38858E-15 0.44245E-12 0.48136E-12 0.15635E-11
 0.83267E-16 0.12768E-14 0.67307E-15 0.10131E-14 0.55511E-16 -.83267E-16 -.27756E-16 -.27756E-16 0.55511E-16 0.58981E-16
 -.24286E-16 0.72674E-12 0.33834E-13 0.19738E-11  0.0000     0.36637E-14 0.59980E-13 0.65379E-11 0.20009E-11 0.55192E-13
 0.76328E-16 0.99182E-12 0.12965E-12 0.97977E-14 -.27756E-16 0.13878E-16 0.16653E-15 0.75237E-12 0.13878E-16 0.13906E-13
 0.69389E-16 0.12102E-11 0.41633E-16 -.41633E-16 0.83267E-16 0.51348E-14 0.40384E-13 0.19442E-11 0.84516E-14 0.88061E-11
  0.0000     0.25535E-14 0.18041E-15 0.97145E-16 0.27756E-16 0.27756E-16 0.55511E-16 0.55511E-16 0.12490E-15  0.0000    
 0.83267E-16 0.13878E-16 0.13878E-15 -.13878E-16 0.83267E-15 0.15923E-11 0.27756E-16 0.13878E-15 0.16653E-15 0.25827E-12
 0.27756E-16 0.31919E-15 0.31919E-15 0.76328E-15 0.22204E-15 0.76605E-14 0.23592E-15  0.0000     0.27756E-16 0.55511E-16
 0.15266E-15 0.22862E-12 0.55699E-11 0.10262E-09 0.97145E-16 0.13878E-16 0.27756E-16 0.27756E-16 0.13878E-14 0.71061E-12
 -.13878E-16 0.75565E-14 0.57408E-12 0.28406E-10 0.34001E-14 0.15127E-14 0.27756E-16 0.97145E-16 0.68001E-15 0.20270E-12
 0.10408E-15 0.33654E-15 0.12070E-12 0.35219E-12 0.55511E-16 0.44409E-14 0.47184E-15 0.47273E-12 0.50621E-12 0.15373E-11
 0.36429E-16 0.12837E-14 0.91246E-15 0.11935E-14 -.55511E-16 0.83267E-16 0.55511E-16 -.83267E-16 0.27756E-16 -.38164E-16
 -.69389E-17 0.39484E-12 0.29879E-13 0.24404E-11 0.69389E-16 0.48850E-14 0.63047E-13 0.76035E-11 0.27138E-11 0.71762E-13
 0.55511E-16 0.11194E-11 0.14369E-12 0.83544E-14 0.27756E-16 0.97145E-16 0.20817E-15 0.67436E-12 -.13878E-16 0.16390E-13
 0.27756E-16 0.64462E-12 0.97145E-16 -.27756E-16 0.16653E-15 0.41495E-14 0.43007E-13 0.24262E-11 0.13059E-13 0.69337E-11
  0.0000     0.29698E-14 0.13878E-15  0.0000     0.41633E-16 0.83267E-16 0.20817E-15 0.55511E-16 0.15266E-15 0.27756E-16
 -.27756E-16 -.13878E-16 0.13878E-15 0.41633E-16 0.99920E-15 0.33196E-11 0.27756E-16 0.12490E-15 0.11102E-15 0.30864E-12
 0.27756E-16 0.26368E-15 0.30531E-15 0.66613E-15 0.38858E-15 0.89789E-14 0.26368E-15 -.27756E-16 0.27756E-16 -.13878E-16
 0.23592E-15 0.20757E-12 0.14598E-10 0.87317E-06 0.55511E-16 0.55511E-16 0.55511E-16 0.55511E-16 0.12768E-14 0.82090E-12
 -.17347E-16 0.80214E-14 0.93315E-12 0.36983E-10 0.38441E-14 0.13878E-14 0.55511E-16 -.41633E-16 0.77716E-15 0.20398E-12
 0.58981E-16 0.40246E-15 0.12605E-12 0.29918E-12 0.27756E-16 0.44409E-14 0.30531E-15 0.54311E-12 0.61758E-12 0.16716E-11
 0.34261E-16 0.15991E-14 0.95459E-15 0.13390E-14 0.65919E-16 0.37297E-16 0.83267E-16 -.19841E-16 0.42148E-16 0.14047E-16
 0.10679E-16 0.19070E-12 0.26759E-13 0.40528E-11 0.96277E-16 0.64011E-14 0.83747E-13 0.81134E-11 0.34379E-11 0.11120E-12
 0.29057E-16 0.12236E-11 0.18223E-12 0.12799E-13 0.36429E-16 0.97145E-16 0.18708E-15 0.65122E-12 0.17347E-16 0.15378E-13
 0.52042E-17 0.46174E-12 0.20383E-16 0.17347E-16 0.24069E-15 0.61774E-14 0.60863E-13 0.26915E-11 0.10982E-13 0.63990E-11