 vasp.5.4.4.18Apr17-6-g9f103f2a35 (build Jun 30 2017 11:15:00) complex          
  
 executed on    STALLO_VASP_5.4.4 date 2019.10.11  11:54:39
 running on    4 total cores
 distrk:  each k-point on    4 cores,    1 groups
 distr:  one band on NCORES_PER_BAND=   2 cores,    2 groups


--------------------------------------------------------------------------------------------------------


 INCAR:
 POTCAR:   PAW_PBE Cu 05Jan2001                   
 POTCAR:   PAW_PBE H 15Jun2001                    
 POTCAR:   PAW_PBE Cu 05Jan2001                   
   VRHFIN =Cu: d10 p1                                                           
   LEXCH  = PE                                                                  
   EATOM  =  1390.9800 eV,  102.2341 Ry                                         
                                                                                
   TITEL  = PAW_PBE Cu 05Jan2001                                                
   LULTRA =        F    use ultrasoft PP ?                                      
   IUNSCR =        1    unscreen: 0-lin 1-nonlin 2-no                           
   RPACOR =    2.000    partial core radius                                     
   POMASS =   63.546; ZVAL   =   11.000    mass and valenz                      
   RCORE  =    2.300    outmost cutoff radius                                   
   RWIGS  =    2.480; RWIGS  =    1.312    wigner-seitz radius (au A)           
   ENMAX  =  273.214; ENMIN  =  204.910 eV                                      
   RCLOC  =    1.712    cutoff for local pot                                    
   LCOR   =        T    correct aug charges                                     
   LPAW   =        T    paw PP                                                  
   EAUG   =  516.456                                                            
   DEXC   =    -.008                                                            
   RMAX   =    2.789    core radius for proj-oper                               
   RAUG   =    1.300    factor for augmentation sphere                          
   RDEP   =    2.302    radius for radial grids                                 
   QCUT   =   -4.481; QGAM   =    8.962    optimization parameters              
                                                                                
   Description                                                                  
     l     E      TYP  RCUT    TYP  RCUT                                        
     2   .000     23  2.300                                                     
     2   .000     23  2.300                                                     
     0   .000     23  2.300                                                     
     0   .000     23  2.300                                                     
     1  -.200     23  2.300                                                     
     1   .000     23  2.300                                                     
     3   .000      7   .000                                                     
  local pseudopotential read in
  partial core-charges read in
  atomic valenz-charges read in
  non local Contribution for L=           2  read in
    real space projection operators read in
  non local Contribution for L=           2  read in
    real space projection operators read in
  non local Contribution for L=           0  read in
    real space projection operators read in
  non local Contribution for L=           0  read in
    real space projection operators read in
  non local Contribution for L=           1  read in
    real space projection operators read in
  non local Contribution for L=           1  read in
    real space projection operators read in
    PAW grid and wavefunctions read in
 
   number of l-projection  operators is LMAX  =           6
   number of lm-projection operators is LMMAX =          18
 
 POTCAR:   PAW_PBE H 15Jun2001                    
   VRHFIN =H: ultrasoft test                                                    
   LEXCH  = PE                                                                  
   EATOM  =    12.4884 eV,     .9179 Ry                                         
                                                                                
   TITEL  = PAW_PBE H 15Jun2001                                                 
   LULTRA =        F    use ultrasoft PP ?                                      
   IUNSCR =        0    unscreen: 0-lin 1-nonlin 2-no                           
   RPACOR =     .000    partial core radius                                     
   POMASS =    1.000; ZVAL   =    1.000    mass and valenz                      
   RCORE  =    1.100    outmost cutoff radius                                   
   RWIGS  =     .700; RWIGS  =     .370    wigner-seitz radius (au A)           
   ENMAX  =  250.000; ENMIN  =  200.000 eV                                      
   RCLOC  =     .701    cutoff for local pot                                    
   LCOR   =        T    correct aug charges                                     
   LPAW   =        T    paw PP                                                  
   EAUG   =  400.000                                                            
   RMAX   =    2.174    core radius for proj-oper                               
   RAUG   =    1.200    factor for augmentation sphere                          
   RDEP   =    1.112    radius for radial grids                                 
   QCUT   =   -5.749; QGAM   =   11.498    optimization parameters              
                                                                                
   Description                                                                  
     l     E      TYP  RCUT    TYP  RCUT                                        
     0   .000     23  1.100                                                     
     0   .500     23  1.100                                                     
     1  -.300     23  1.100                                                     
  local pseudopotential read in
  atomic valenz-charges read in
  non local Contribution for L=           0  read in
    real space projection operators read in
  non local Contribution for L=           0  read in
    real space projection operators read in
  non local Contribution for L=           1  read in
    real space projection operators read in
    PAW grid and wavefunctions read in
 
   number of l-projection  operators is LMAX  =           3
   number of lm-projection operators is LMMAX =           5
 

 ----------------------------------------------------------------------------- 
|                                                                             |
|  ADVICE TO THIS USER RUNNING 'VASP/VAMP'   (HEAR YOUR MASTER'S VOICE ...):  |
|                                                                             |
|      You have a (more or less) 'small supercell' and for smaller cells      |
|      it is recommended  to use the reciprocal-space projection scheme!      |
|      The real space optimization is not  efficient for small cells and it   |
|      is also less accurate ...                                              |
|      Therefore set LREAL=.FALSE. in the  INCAR file                         |
|                                                                             |
 ----------------------------------------------------------------------------- 

 Optimization of the real space projectors (new method)

 maximal supplied QI-value         = 16.25
 optimisation between [QCUT,QGAM] = [  7.96, 16.09] = [ 17.76, 72.49] Ry 
 Optimized for a Real-space Cutoff    1.70 Angstroem

   l    n(q)    QCUT    max X(q) W(low)/X(q) W(high)/X(q)  e(spline) 
   2      7     7.963     4.977    0.65E-04    0.90E-04    0.59E-07
   2      7     7.963    13.467    0.48E-03    0.73E-03    0.12E-06
   0      8     7.963    13.303    0.22E-04    0.12E-04    0.51E-08
   0      8     7.963    44.613    0.10E-03    0.16E-03    0.47E-07
   1      8     7.963     5.276    0.66E-04    0.10E-04    0.22E-07
   1      8     7.963     7.322    0.38E-03    0.18E-03    0.17E-06
 Optimization of the real space projectors (new method)

 maximal supplied QI-value         = 34.20
 optimisation between [QCUT,QGAM] = [  7.87, 16.08] = [ 17.33, 72.37] Ry 
 Optimized for a Real-space Cutoff    1.85 Angstroem

   l    n(q)    QCUT    max X(q) W(low)/X(q) W(high)/X(q)  e(spline) 
   0      9     7.867     4.436    0.44E-04    0.71E-04    0.23E-06
   0      9     7.867    15.341    0.29E-03    0.73E-03    0.99E-06
   1      8     7.867     4.196    0.27E-03    0.13E-02    0.91E-06
 PAW_PBE Cu 05Jan2001                   :
 energy of atom  1       EATOM=-1390.9800
 kinetic energy error for atom=    0.0930 (will be added to EATOM!!)
 PAW_PBE H 15Jun2001                    :
 energy of atom  2       EATOM=  -12.4884
 kinetic energy error for atom=    0.0868 (will be added to EATOM!!)
 
 
 POSCAR: Cu  H                                   
  positions in cartesian coordinates
  velocities in cartesian coordinates
 exchange correlation table for  LEXCH =        8
   RHO(1)=    0.500       N(1)  =     2000
   RHO(2)=  100.500       N(2)  =     4000
 


--------------------------------------------------------------------------------------------------------


 ion  position               nearest neighbor table
   1  1.000  0.001  0.397-   2 2.55   2 2.55   2 2.56
   2  0.333  0.334  0.465-   3 2.55   3 2.55   3 2.55   1 2.55   1 2.55   1 2.56
   3  0.666  0.668  0.534-   2 2.55   2 2.55   2 2.55   4 2.60   4 2.60   4 2.61
   4  0.001  0.998  0.604-   5 1.70   5 1.70   3 2.60   3 2.60   3 2.61
   5  0.500  0.999  0.641-   4 1.70   4 1.70
 
  LATTYP: Found a hexagonal cell.
 ALAT       =     2.5738686835
 C/A-ratio  =    11.7739747694
  
  Lattice vectors:
  
 A1 = (   1.2869343418,  -2.2290356659,   0.0000000000)
 A2 = (  -2.5738686835,   0.0000000000,   0.0000000000)
 A3 = (   0.0000000000,   0.0000000000, -30.3046649396)


Analysis of symmetry for initial positions (statically):
=====================================================================
 Subroutine PRICEL returns:
 Original cell was already a primitive cell.
 

 Routine SETGRP: Setting up the symmetry group for a 
 hexagonal supercell.


 Subroutine GETGRP returns: Found  2 space group operations
 (whereof  2 operations were pure point group operations)
 out of a pool of 24 trial point group operations.


The static configuration has the point symmetry C_1h.


Analysis of symmetry for dynamics (positions and initial velocities):
=====================================================================
 Subroutine PRICEL returns:
 Original cell was already a primitive cell.
 

 Routine SETGRP: Setting up the symmetry group for a 
 hexagonal supercell.


 Subroutine GETGRP returns: Found  2 space group operations
 (whereof  2 operations were pure point group operations)
 out of a pool of 24 trial point group operations.


The dynamic configuration has the point symmetry C_1h.


 Subroutine INISYM returns: Found  2 space group operations
 (whereof  2 operations are pure point group operations),
 and found     1 'primitive' translations

 
 
 KPOINTS: k-density: 4.0                          

Automatic generation of k-mesh.
Space group operators:
 irot       det(A)        alpha          n_x          n_y          n_z        tau_x        tau_y        tau_z
    1     1.000000     0.000001     1.000000     0.000000     0.000000     0.000000     0.000000     0.000000
    2    -1.000000   180.000000     1.000000     0.000000     0.000000     0.000000     0.000000     0.000000
 
 Subroutine IBZKPT returns following result:
 ===========================================
 
 Found     31 irreducible k-points:
 
 Following reciprocal coordinates:
            Coordinates               Weight
  0.000000  0.000000  0.000000      1.000000
  0.100000  0.000000  0.000000      4.000000
  0.200000 -0.000000  0.000000      4.000000
  0.300000 -0.000000  0.000000      4.000000
  0.400000 -0.000000  0.000000      4.000000
  0.500000 -0.000000  0.000000      2.000000
  0.000000  0.100000  0.000000      2.000000
  0.200000  0.100000  0.000000      2.000000
  0.300000  0.100000  0.000000      4.000000
  0.400000  0.100000  0.000000      4.000000
  0.500000  0.100000  0.000000      4.000000
 -0.400000  0.100000  0.000000      4.000000
 -0.300000  0.100000  0.000000      4.000000
 -0.200000  0.100000  0.000000      4.000000
 -0.100000  0.100000  0.000000      4.000000
  0.000000  0.200000  0.000000      2.000000
  0.400000  0.200000  0.000000      2.000000
  0.500000  0.200000  0.000000      4.000000
 -0.400000  0.200000  0.000000      4.000000
 -0.300000  0.200000  0.000000      4.000000
 -0.200000  0.200000  0.000000      4.000000
 -0.100000  0.200000  0.000000      4.000000
  0.000000  0.300000  0.000000      2.000000
 -0.400000  0.300000  0.000000      2.000000
 -0.300000  0.300000  0.000000      4.000000
 -0.200000  0.300000  0.000000      4.000000
 -0.100000  0.300000  0.000000      4.000000
  0.000000  0.400000  0.000000      2.000000
 -0.200000  0.400000  0.000000      2.000000
 -0.100000  0.400000  0.000000      4.000000
  0.000000  0.500000  0.000000      1.000000
 
 Following cartesian coordinates:
            Coordinates               Weight
  0.000000  0.000000  0.000000      1.000000
  0.038852 -0.022431  0.000000      4.000000
  0.077704 -0.044862  0.000000      4.000000
  0.116556 -0.067294  0.000000      4.000000
  0.155408 -0.089725  0.000000      4.000000
  0.194260 -0.112156  0.000000      2.000000
  0.000000  0.044862  0.000000      2.000000
  0.077704 -0.000000  0.000000      2.000000
  0.116556 -0.022431  0.000000      4.000000
  0.155408 -0.044862  0.000000      4.000000
  0.194260 -0.067294  0.000000      4.000000
 -0.155408  0.134587  0.000000      4.000000
 -0.116556  0.112156  0.000000      4.000000
 -0.077704  0.089725  0.000000      4.000000
 -0.038852  0.067294  0.000000      4.000000
  0.000000  0.089725  0.000000      2.000000
  0.155408  0.000000  0.000000      2.000000
  0.194260 -0.022431  0.000000      4.000000
 -0.155408  0.179450  0.000000      4.000000
 -0.116556  0.157019  0.000000      4.000000
 -0.077704  0.134587  0.000000      4.000000
 -0.038852  0.112156  0.000000      4.000000
  0.000000  0.134587  0.000000      2.000000
 -0.155408  0.224312  0.000000      2.000000
 -0.116556  0.201881  0.000000      4.000000
 -0.077704  0.179450  0.000000      4.000000
 -0.038852  0.157019  0.000000      4.000000
  0.000000  0.179450  0.000000      2.000000
 -0.077704  0.224312  0.000000      2.000000
 -0.038852  0.201881  0.000000      4.000000
  0.000000  0.224312  0.000000      1.000000
 


--------------------------------------------------------------------------------------------------------




 Dimension of arrays:
   k-points           NKPTS =     31   k-points in BZ     NKDIM =     31   number of bands    NBANDS=     28
   number of dos      NEDOS =   2401   number of ions     NIONS =      5
   non local maximal  LDIM  =      6   non local SUM 2l+1 LMDIM =     18
   total plane-waves  NPLWV =  12000
   max r-space proj   IRMAX =   1888   max aug-charges    IRDMAX=   2622
   dimension x,y,z NGX =    10 NGY =   10 NGZ =  120
   dimension x,y,z NGXF=    20 NGYF=   20 NGZF=  240
   support grid    NGXF=    20 NGYF=   20 NGZF=  240
   ions per type =               4   1
   NGX,Y,Z   is equivalent  to a cutoff of   6.46,  6.46,  6.58 a.u.
   NGXF,Y,Z  is equivalent  to a cutoff of  12.92, 12.92, 13.17 a.u.

 SYSTEM =  unknown system                          
 POSCAR =  Cu  H                                   

 Startparameter for this run:
   NWRITE =      2    write-flag & timer
   PREC   = normal    normal or accurate (medium, high low for compatibility)
   ISTART =      0    job   : 0-new  1-cont  2-samecut
   ICHARG =      2    charge: 1-file 2-atom 10-const
   ISPIN  =      1    spin polarized calculation?
   LNONCOLLINEAR =      F non collinear calculations
   LSORBIT =      F    spin-orbit coupling
   INIWAV =      1    electr: 0-lowe 1-rand  2-diag
   LASPH  =      F    aspherical Exc in radial PAW
   METAGGA=      F    non-selfconsistent MetaGGA calc.

 Electronic Relaxation 1
   ENCUT  =  250.0 eV  18.37 Ry    4.29 a.u.   3.32  3.32 39.07*2*pi/ulx,y,z
   ENINI  =  250.0     initial cutoff
   ENAUG  =  516.5 eV  augmentation charge cutoff
   NELM   =     60;   NELMIN=  4; NELMDL=  0     # of ELM steps 
   EDIFF  = 0.1E-05   stopping-criterion for ELM
   LREAL  =      T    real-space projection
   NLSPLINE    = F    spline interpolate recip. space projectors
   LCOMPAT=      F    compatible to vasp.4.4
   GGA_COMPAT  = T    GGA compatible to vasp.4.4-vasp.4.6
   LMAXPAW     = -100 max onsite density
   LMAXMIX     =    2 max onsite mixed and CHGCAR
   VOSKOWN=      0    Vosko Wilk Nusair interpolation
   ROPT   =   -0.00050  -0.00050
 Ionic relaxation
   EDIFFG = 0.1E-04   stopping-criterion for IOM
   NSW    =      0    number of steps for IOM
   NBLOCK =      1;   KBLOCK =      1    inner block; outer block 
   IBRION =     -1    ionic relax: 0-MD 1-quasi-New 2-CG
   NFREE  =      0    steps in history (QN), initial steepest desc. (CG)
   ISIF   =      2    stress and relaxation
   IWAVPR =     10    prediction:  0-non 1-charg 2-wave 3-comb
   ISYM   =      2    0-nonsym 1-usesym 2-fastsym
   LCORR  =      T    Harris-Foulkes like correction to forces

   POTIM  = 0.5000    time-step for ionic-motion
   TEIN   =    0.0    initial temperature
   TEBEG  =    0.0;   TEEND  =   0.0 temperature during run
   SMASS  =  -3.00    Nose mass-parameter (am)
   estimated Nose-frequenzy (Omega)   =  0.10E-29 period in steps =****** mass=  -0.151E-27a.u.
   SCALEE = 1.0000    scale energy and forces
   NPACO  =    256;   APACO  = 16.0  distance and # of slots for P.C.
   PSTRESS=    0.0 pullay stress

  Mass of Ions in am
   POMASS =  63.55  1.00
  Ionic Valenz
   ZVAL   =  11.00  1.00
  Atomic Wigner-Seitz radii
   RWIGS  =  -1.00 -1.00
  virtual crystal weights 
   VCA    =   1.00  1.00
   NELECT =      45.0000    total number of electrons
   NUPDOWN=      -1.0000    fix difference up-down

 DOS related values:
   EMIN   = -17.00;   EMAX   =  7.00  energy-range for DOS
   EFERMI =   0.00
   ISMEAR =     0;   SIGMA  =   0.10  broadening in eV -4-tet -1-fermi 0-gaus

 Electronic relaxation 2 (details)
   IALGO  =     68    algorithm
   LDIAG  =      T    sub-space diagonalisation (order eigenvalues)
   LSUBROT=      F    optimize rotation matrix (better conditioning)
   TURBO    =      0    0=normal 1=particle mesh
   IRESTART =      0    0=no restart 2=restart with 2 vectors
   NREBOOT  =      0    no. of reboots
   NMIN     =      0    reboot dimension
   EREF     =   0.00    reference energy to select bands
   IMIX   =      4    mixing-type and parameters
     AMIX     =   0.40;   BMIX     =  1.00
     AMIX_MAG =   1.60;   BMIX_MAG =  1.00
     AMIN     =   0.10
     WC   =   100.;   INIMIX=   1;  MIXPRE=   1;  MAXMIX= -45

 Intra band minimization:
   WEIMIN = 0.0000     energy-eigenvalue tresh-hold
   EBREAK =  0.89E-08  absolut break condition
   DEPER  =   0.30     relativ break condition  

   TIME   =   0.40     timestep for ELM

  volume/ion in A,a.u.               =      34.77       234.66
  Fermi-wavevector in a.u.,A,eV,Ry     =   1.043297  1.971546 14.809520  1.088469
  Thomas-Fermi vector in A             =   2.178000
 
 Write flags
   LWAVE        =      F    write WAVECAR
   LDOWNSAMPLE  =      F    k-point downsampling of WAVECAR
   LCHARG       =      T    write CHGCAR
   LVTOT        =      F    write LOCPOT, total local potential
   LVHAR        =      F    write LOCPOT, Hartree potential only
   LELF         =      T    write electronic localiz. function (ELF)
   LORBIT       =     11    0 simple, 1 ext, 2 COOP (PROOUT), +10 PAW based schemes


 Dipole corrections
   LMONO  =      F    monopole corrections only (constant potential shift)
   LDIPOL =      F    correct potential (dipole corrections)
   IDIPOL =      0    1-x, 2-y, 3-z, 4-all directions 
   EPSILON=  1.0000000 bulk dielectric constant

 Exchange correlation treatment:
   GGA     =    --    GGA type
   LEXCH   =     8    internal setting for exchange type
   VOSKOWN=      0    Vosko Wilk Nusair interpolation
   LHFCALC =     F    Hartree Fock is set to
   LHFONE  =     F    Hartree Fock one center treatment
   AEXX    =    0.0000 exact exchange contribution

 Linear response parameters
   LEPSILON=     F    determine dielectric tensor
   LRPA    =     F    only Hartree local field effects (RPA)
   LNABLA  =     F    use nabla operator in PAW spheres
   LVEL    =     F    velocity operator in full k-point grid
   LINTERFAST=   F  fast interpolation
   KINTER  =     0    interpolate to denser k-point grid
   CSHIFT  =0.1000    complex shift for real part using Kramers Kronig
   OMEGAMAX=  -1.0    maximum frequency
   DEG_THRESHOLD= 0.2000000E-02 threshold for treating states as degnerate
   RTIME   =   -0.100 relaxation time in fs
  (WPLASMAI=    0.000 imaginary part of plasma frequency in eV, 0.658/RTIME)
   DFIELD  = 0.0000000 0.0000000 0.0000000 field for delta impulse in time
 
 Orbital magnetization related:
   ORBITALMAG=     F  switch on orbital magnetization
   LCHIMAG   =     F  perturbation theory with respect to B field
   DQ        =  0.001000  dq finite difference perturbation B field
   LLRAUG    =     F  two centre corrections for induced B field



--------------------------------------------------------------------------------------------------------


 Static calculation
 charge density and potential will be updated during run
 non-spin polarized calculation
 RMM-DIIS sequential band-by-band and
  variant of blocked Davidson during initial phase
 perform sub-space diagonalisation
    before iterative eigenvector-optimisation
 modified Broyden-mixing scheme, WC =      100.0
 initial mixing is a Kerker type mixing with AMIX =  0.4000 and BMIX =      1.0000
 Hartree-type preconditioning will be used
 using additional bands            5
 real space projection scheme for non local part
 use partial core corrections
 calculate Harris-corrections to forces 
   (improved forces if not selfconsistent)
 use gradient corrections 
 use of overlap-Matrix (Vanderbilt PP)
 Gauss-broadening in eV      SIGMA  =   0.10


--------------------------------------------------------------------------------------------------------


  energy-cutoff  :      250.00
  volume of cell :      173.87
      direct lattice vectors                 reciprocal lattice vectors
     2.573868684  0.000000000  0.000000000     0.388520209 -0.224312248  0.000000000
     1.286934342  2.229035666  0.000000000     0.000000000  0.448624495  0.000000000
     0.000000000  0.000000000 30.304664940     0.000000000  0.000000000  0.032998220

  length of vectors
     2.573868684  2.573868684 30.304664940     0.448624495  0.448624495  0.032998220


 
 k-points in units of 2pi/SCALE and weight: k-density: 4.0                          
   0.00000000  0.00000000  0.00000000       0.010
   0.03885202 -0.02243122  0.00000000       0.040
   0.07770404 -0.04486245  0.00000000       0.040
   0.11655606 -0.06729367  0.00000000       0.040
   0.15540808 -0.08972490  0.00000000       0.040
   0.19426010 -0.11215612  0.00000000       0.020
   0.00000000  0.04486245  0.00000000       0.020
   0.07770404 -0.00000000  0.00000000       0.020
   0.11655606 -0.02243122  0.00000000       0.040
   0.15540808 -0.04486245  0.00000000       0.040
   0.19426010 -0.06729367  0.00000000       0.040
  -0.15540808  0.13458735  0.00000000       0.040
  -0.11655606  0.11215612  0.00000000       0.040
  -0.07770404  0.08972490  0.00000000       0.040
  -0.03885202  0.06729367  0.00000000       0.040
   0.00000000  0.08972490  0.00000000       0.020
   0.15540808  0.00000000  0.00000000       0.020
   0.19426010 -0.02243122  0.00000000       0.040
  -0.15540808  0.17944980  0.00000000       0.040
  -0.11655606  0.15701857  0.00000000       0.040
  -0.07770404  0.13458735  0.00000000       0.040
  -0.03885202  0.11215612  0.00000000       0.040
   0.00000000  0.13458735  0.00000000       0.020
  -0.15540808  0.22431225  0.00000000       0.020
  -0.11655606  0.20188102  0.00000000       0.040
  -0.07770404  0.17944980  0.00000000       0.040
  -0.03885202  0.15701857  0.00000000       0.040
   0.00000000  0.17944980  0.00000000       0.020
  -0.07770404  0.22431225  0.00000000       0.020
  -0.03885202  0.20188102  0.00000000       0.040
   0.00000000  0.22431225  0.00000000       0.010
 
 k-points in reciprocal lattice and weights: k-density: 4.0                          
   0.00000000  0.00000000  0.00000000       0.010
   0.10000000  0.00000000  0.00000000       0.040
   0.20000000 -0.00000000  0.00000000       0.040
   0.30000000 -0.00000000  0.00000000       0.040
   0.40000000 -0.00000000  0.00000000       0.040
   0.50000000 -0.00000000  0.00000000       0.020
   0.00000000  0.10000000  0.00000000       0.020
   0.20000000  0.10000000  0.00000000       0.020
   0.30000000  0.10000000  0.00000000       0.040
   0.40000000  0.10000000  0.00000000       0.040
   0.50000000  0.10000000  0.00000000       0.040
  -0.40000000  0.10000000  0.00000000       0.040
  -0.30000000  0.10000000  0.00000000       0.040
  -0.20000000  0.10000000  0.00000000       0.040
  -0.10000000  0.10000000  0.00000000       0.040
   0.00000000  0.20000000  0.00000000       0.020
   0.40000000  0.20000000  0.00000000       0.020
   0.50000000  0.20000000  0.00000000       0.040
  -0.40000000  0.20000000  0.00000000       0.040
  -0.30000000  0.20000000  0.00000000       0.040
  -0.20000000  0.20000000  0.00000000       0.040
  -0.10000000  0.20000000  0.00000000       0.040
   0.00000000  0.30000000  0.00000000       0.020
  -0.40000000  0.30000000  0.00000000       0.020
  -0.30000000  0.30000000  0.00000000       0.040
  -0.20000000  0.30000000  0.00000000       0.040
  -0.10000000  0.30000000  0.00000000       0.040
   0.00000000  0.40000000  0.00000000       0.020
  -0.20000000  0.40000000  0.00000000       0.020
  -0.10000000  0.40000000  0.00000000       0.040
   0.00000000  0.50000000  0.00000000       0.010
 
 position of ions in fractional coordinates (direct lattice) 
   0.99970615  0.00058770  0.39656700
   0.33318627  0.33362409  0.46513961
   0.66582910  0.66834283  0.53359442
   0.00080079  0.99839841  0.60421589
   0.50047610  0.99904443  0.64080266
 
 position of ions in cartesian coordinates  (Angst):
   2.57386868  0.00131000 12.01783000
   1.28693000  0.74366000 14.09590000
   2.57387000  1.48976000 16.17040000
   1.28693434  2.22546567 18.31056000
   2.57386434  2.22690567 19.41931000
 


--------------------------------------------------------------------------------------------------------


 k-point  1 :   0.0000 0.0000 0.0000  plane waves:    1609
 k-point  2 :   0.1000 0.0000 0.0000  plane waves:    1589
 k-point  3 :   0.2000-0.0000 0.0000  plane waves:    1586
 k-point  4 :   0.3000-0.0000 0.0000  plane waves:    1542
 k-point  5 :   0.4000-0.0000 0.0000  plane waves:    1568
 k-point  6 :   0.5000-0.0000 0.0000  plane waves:    1570
 k-point  7 :   0.0000 0.1000 0.0000  plane waves:    1589
 k-point  8 :   0.2000 0.1000 0.0000  plane waves:    1579
 k-point  9 :   0.3000 0.1000 0.0000  plane waves:    1569
 k-point 10 :   0.4000 0.1000 0.0000  plane waves:    1552
 k-point 11 :   0.5000 0.1000 0.0000  plane waves:    1549
 k-point 12 :  -0.4000 0.1000 0.0000  plane waves:    1549
 k-point 13 :  -0.3000 0.1000 0.0000  plane waves:    1552
 k-point 14 :  -0.2000 0.1000 0.0000  plane waves:    1569
 k-point 15 :  -0.1000 0.1000 0.0000  plane waves:    1579
 k-point 16 :   0.0000 0.2000 0.0000  plane waves:    1586
 k-point 17 :   0.4000 0.2000 0.0000  plane waves:    1545
 k-point 18 :   0.5000 0.2000 0.0000  plane waves:    1549
 k-point 19 :  -0.4000 0.2000 0.0000  plane waves:    1546
 k-point 20 :  -0.3000 0.2000 0.0000  plane waves:    1549
 k-point 21 :  -0.2000 0.2000 0.0000  plane waves:    1545
 k-point 22 :  -0.1000 0.2000 0.0000  plane waves:    1569
 k-point 23 :   0.0000 0.3000 0.0000  plane waves:    1542
 k-point 24 :  -0.4000 0.3000 0.0000  plane waves:    1547
 k-point 25 :  -0.3000 0.3000 0.0000  plane waves:    1547
 k-point 26 :  -0.2000 0.3000 0.0000  plane waves:    1549
 k-point 27 :  -0.1000 0.3000 0.0000  plane waves:    1552
 k-point 28 :   0.0000 0.4000 0.0000  plane waves:    1568
 k-point 29 :  -0.2000 0.4000 0.0000  plane waves:    1546
 k-point 30 :  -0.1000 0.4000 0.0000  plane waves:    1549
 k-point 31 :   0.0000 0.5000 0.0000  plane waves:    1570

 maximum and minimum number of plane-waves per node :       808      767

 maximum number of plane-waves:      1609
 maximum index in each direction: 
   IXMAX=    3   IYMAX=    3   IZMAX=   39
   IXMIN=   -3   IYMIN=   -3   IZMIN=  -39


 real space projection operators:
  total allocation   :        839.93 KBytes
  max/ min on nodes  :        424.25        415.68


 parallel 3D FFT for wavefunctions:
    minimum data exchange during FFTs selected (reduces bandwidth)
 parallel 3D FFT for charge:
    minimum data exchange during FFTs selected (reduces bandwidth)


 total amount of memory used by VASP MPI-rank0    39169. kBytes
=======================================================================

   base      :      30000. kBytes
   nonlr-proj:        676. kBytes
   fftplans  :        995. kBytes
   grid      :       1592. kBytes
   one-center:         46. kBytes
   wavefun   :       5860. kBytes
 
     INWAV:  cpu time    0.0000: real time    0.0000
 Broyden mixing: mesh for mixing (old mesh)
   NGX =  7   NGY =  7   NGZ = 79
  (NGX  = 20   NGY  = 20   NGZ  =240)
  gives a total of   3871 points

 initial charge density was supplied:
 charge density of overlapping atoms calculated
 number of electron      45.0000000 magnetization 
 keeping initial charge density in first step


--------------------------------------------------------------------------------------------------------


 Maximum index for non-local projection operator          896
 Maximum index for augmentation-charges          589 (set IRDMAX)


--------------------------------------------------------------------------------------------------------


 First call to EWALD:  gamma=   0.318
 Maximum number of real-space cells 6x 6x 1
 Maximum number of reciprocal cells 2x 2x13

    FEWALD:  cpu time    0.0020: real time    0.0015


--------------------------------------- Iteration      1(   1)  ---------------------------------------


    POTLOK:  cpu time    0.0150: real time    0.0204
    SETDIJ:  cpu time    0.0040: real time    0.0043
     EDDAV:  cpu time    0.6269: real time    0.6331
       DOS:  cpu time    0.0060: real time    0.0053
    --------------------------------------------
      LOOP:  cpu time    0.6519: real time    0.6632

 eigenvalue-minimisations  :  1808
 total energy-change (2. order) : 0.1959094E+03  (-0.1393302E+04)
 number of electron      45.0000000 magnetization 
 augmentation part       45.0000000 magnetization 

 Free energy of the ion-electron system (eV)
  ---------------------------------------------------
  alpha Z        PSCENC =       120.87645803
  Ewald energy   TEWEN  =     38036.01830727
  -Hartree energ DENC   =    -43157.97859493
  -exchange      EXHF   =         0.00000000
  -V(xc)+E(xc)   XCENC  =       177.34140632
  PAW double counting   =      4328.99049516    -4905.09836044
  entropy T*S    EENTRO =        -0.01267975
  eigenvalues    EBANDS =        19.82280001
  atomic energy  EATOM  =      5575.94961827
  Solvation  Ediel_sol  =         0.00000000
  ---------------------------------------------------
  free energy    TOTEN  =       195.90944995 eV

  energy without entropy =      195.92212969  energy(sigma->0) =      195.91578982


--------------------------------------------------------------------------------------------------------




--------------------------------------- Iteration      1(   2)  ---------------------------------------


     EDDAV:  cpu time    0.6279: real time    0.6315
       DOS:  cpu time    0.0050: real time    0.0057
    --------------------------------------------
      LOOP:  cpu time    0.6329: real time    0.6372

 eigenvalue-minimisations  :  1832
 total energy-change (2. order) :-0.2066299E+03  (-0.2005404E+03)
 number of electron      45.0000000 magnetization 
 augmentation part       45.0000000 magnetization 

 Free energy of the ion-electron system (eV)
  ---------------------------------------------------
  alpha Z        PSCENC =       120.87645803
  Ewald energy   TEWEN  =     38036.01830727
  -Hartree energ DENC   =    -43157.97859493
  -exchange      EXHF   =         0.00000000
  -V(xc)+E(xc)   XCENC  =       177.34140632
  PAW double counting   =      4328.99049516    -4905.09836044
  entropy T*S    EENTRO =        -0.02033540
  eigenvalues    EBANDS =      -186.79948629
  atomic energy  EATOM  =      5575.94961827
  Solvation  Ediel_sol  =         0.00000000
  ---------------------------------------------------
  free energy    TOTEN  =       -10.72049201 eV

  energy without entropy =      -10.70015661  energy(sigma->0) =      -10.71032431


--------------------------------------------------------------------------------------------------------




--------------------------------------- Iteration      1(   3)  ---------------------------------------


     EDDAV:  cpu time    0.6439: real time    0.6436
       DOS:  cpu time    0.0060: real time    0.0057
    --------------------------------------------
      LOOP:  cpu time    0.6499: real time    0.6493

 eigenvalue-minimisations  :  1888
 total energy-change (2. order) :-0.1013604E+02  (-0.9951937E+01)
 number of electron      45.0000000 magnetization 
 augmentation part       45.0000000 magnetization 

 Free energy of the ion-electron system (eV)
  ---------------------------------------------------
  alpha Z        PSCENC =       120.87645803
  Ewald energy   TEWEN  =     38036.01830727
  -Hartree energ DENC   =    -43157.97859493
  -exchange      EXHF   =         0.00000000
  -V(xc)+E(xc)   XCENC  =       177.34140632
  PAW double counting   =      4328.99049516    -4905.09836044
  entropy T*S    EENTRO =        -0.01266799
  eigenvalues    EBANDS =      -196.94318886
  atomic energy  EATOM  =      5575.94961827
  Solvation  Ediel_sol  =         0.00000000
  ---------------------------------------------------
  free energy    TOTEN  =       -20.85652718 eV

  energy without entropy =      -20.84385918  energy(sigma->0) =      -20.85019318


--------------------------------------------------------------------------------------------------------




--------------------------------------- Iteration      1(   4)  ---------------------------------------


     EDDAV:  cpu time    0.6469: real time    0.6502
       DOS:  cpu time    0.0060: real time    0.0057
    --------------------------------------------
      LOOP:  cpu time    0.6529: real time    0.6560

 eigenvalue-minimisations  :  1904
 total energy-change (2. order) :-0.1232068E+00  (-0.1225552E+00)
 number of electron      45.0000000 magnetization 
 augmentation part       45.0000000 magnetization 

 Free energy of the ion-electron system (eV)
  ---------------------------------------------------
  alpha Z        PSCENC =       120.87645803
  Ewald energy   TEWEN  =     38036.01830727
  -Hartree energ DENC   =    -43157.97859493
  -exchange      EXHF   =         0.00000000
  -V(xc)+E(xc)   XCENC  =       177.34140632
  PAW double counting   =      4328.99049516    -4905.09836044
  entropy T*S    EENTRO =        -0.01208293
  eigenvalues    EBANDS =      -197.06698070
  atomic energy  EATOM  =      5575.94961827
  Solvation  Ediel_sol  =         0.00000000
  ---------------------------------------------------
  free energy    TOTEN  =       -20.97973395 eV

  energy without entropy =      -20.96765102  energy(sigma->0) =      -20.97369248


--------------------------------------------------------------------------------------------------------




--------------------------------------- Iteration      1(   5)  ---------------------------------------


     EDDAV:  cpu time    0.6669: real time    0.6672
       DOS:  cpu time    0.0060: real time    0.0057
    CHARGE:  cpu time    0.0360: real time    0.0367
    MIXING:  cpu time    0.0010: real time    0.0011
    --------------------------------------------
      LOOP:  cpu time    0.7099: real time    0.7106

 eigenvalue-minimisations  :  1968
 total energy-change (2. order) :-0.1239633E-02  (-0.1239534E-02)
 number of electron      44.9999936 magnetization 
 augmentation part       26.6632615 magnetization 

 Broyden mixing:
  rms(total) = 0.14771E+01    rms(broyden)= 0.14768E+01
  rms(prec ) = 0.15300E+01
  weight for this iteration     100.00

 Free energy of the ion-electron system (eV)
  ---------------------------------------------------
  alpha Z        PSCENC =       120.87645803
  Ewald energy   TEWEN  =     38036.01830727
  -Hartree energ DENC   =    -43157.97859493
  -exchange      EXHF   =         0.00000000
  -V(xc)+E(xc)   XCENC  =       177.34140632
  PAW double counting   =      4328.99049516    -4905.09836044
  entropy T*S    EENTRO =        -0.01208067
  eigenvalues    EBANDS =      -197.06822259
  atomic energy  EATOM  =      5575.94961827
  Solvation  Ediel_sol  =         0.00000000
  ---------------------------------------------------
  free energy    TOTEN  =       -20.98097358 eV

  energy without entropy =      -20.96889292  energy(sigma->0) =      -20.97493325


--------------------------------------------------------------------------------------------------------




--------------------------------------- Iteration      1(   6)  ---------------------------------------


    POTLOK:  cpu time    0.0120: real time    0.0146
    SETDIJ:  cpu time    0.0030: real time    0.0032
    EDDIAG:  cpu time    0.1280: real time    0.1289
  RMM-DIIS:  cpu time    0.3709: real time    0.3713
    ORTHCH:  cpu time    0.0160: real time    0.0162
       DOS:  cpu time    0.0060: real time    0.0058
    CHARGE:  cpu time    0.0360: real time    0.0358
    MIXING:  cpu time    0.0010: real time    0.0007
    --------------------------------------------
      LOOP:  cpu time    0.5729: real time    0.5765

 eigenvalue-minimisations  :  1911
 total energy-change (2. order) : 0.1998235E+01  (-0.4431480E+01)
 number of electron      44.9999934 magnetization 
 augmentation part       30.0468905 magnetization 

 Broyden mixing:
  rms(total) = 0.75549E+00    rms(broyden)= 0.75520E+00
  rms(prec ) = 0.78952E+00
  weight for this iteration     100.00

 eigenvalues of (default mixing * dielectric matrix)
  average eigenvalue GAMMA=   0.6644
  0.6644

 Free energy of the ion-electron system (eV)
  ---------------------------------------------------
  alpha Z        PSCENC =       120.87645803
  Ewald energy   TEWEN  =     38036.01830727
  -Hartree energ DENC   =    -43034.51686569
  -exchange      EXHF   =         0.00000000
  -V(xc)+E(xc)   XCENC  =       172.14822029
  PAW double counting   =      4211.47427594    -4751.97889734
  entropy T*S    EENTRO =        -0.00515773
  eigenvalues    EBANDS =      -348.94869756
  atomic energy  EATOM  =      5575.94961827
  Solvation  Ediel_sol  =         0.00000000
  ---------------------------------------------------
  free energy    TOTEN  =       -18.98273852 eV

  energy without entropy =      -18.97758079  energy(sigma->0) =      -18.98015965


--------------------------------------------------------------------------------------------------------




--------------------------------------- Iteration      1(   7)  ---------------------------------------


    POTLOK:  cpu time    0.0120: real time    0.0115
    SETDIJ:  cpu time    0.0030: real time    0.0032
    EDDIAG:  cpu time    0.1280: real time    0.1287
  RMM-DIIS:  cpu time    0.3469: real time    0.3472
    ORTHCH:  cpu time    0.0160: real time    0.0162
       DOS:  cpu time    0.0060: real time    0.0057
    CHARGE:  cpu time    0.0360: real time    0.0361
    MIXING:  cpu time    0.0010: real time    0.0005
    --------------------------------------------
      LOOP:  cpu time    0.5489: real time    0.5493

 eigenvalue-minimisations  :  1791
 total energy-change (2. order) : 0.1869382E+01  (-0.7422430E+00)
 number of electron      44.9999935 magnetization 
 augmentation part       28.7375101 magnetization 

 Broyden mixing:
  rms(total) = 0.16969E+00    rms(broyden)= 0.16955E+00
  rms(prec ) = 0.21510E+00
  weight for this iteration     100.00

 eigenvalues of (default mixing * dielectric matrix)
  average eigenvalue GAMMA=   0.6269
  0.7536  0.5002

 Free energy of the ion-electron system (eV)
  ---------------------------------------------------
  alpha Z        PSCENC =       120.87645803
  Ewald energy   TEWEN  =     38036.01830727
  -Hartree energ DENC   =    -43090.18849326
  -exchange      EXHF   =         0.00000000
  -V(xc)+E(xc)   XCENC  =       173.83216136
  PAW double counting   =      4313.11168972    -4878.64409354
  entropy T*S    EENTRO =        -0.01735169
  eigenvalues    EBANDS =      -268.05165270
  atomic energy  EATOM  =      5575.94961827
  Solvation  Ediel_sol  =         0.00000000
  ---------------------------------------------------
  free energy    TOTEN  =       -17.11335654 eV

  energy without entropy =      -17.09600484  energy(sigma->0) =      -17.10468069


--------------------------------------------------------------------------------------------------------




--------------------------------------- Iteration      1(   8)  ---------------------------------------


    POTLOK:  cpu time    0.0120: real time    0.0144
    SETDIJ:  cpu time    0.0030: real time    0.0032
    EDDIAG:  cpu time    0.1280: real time    0.1285
  RMM-DIIS:  cpu time    0.3759: real time    0.3764
    ORTHCH:  cpu time    0.0160: real time    0.0162
       DOS:  cpu time    0.0060: real time    0.0057
    CHARGE:  cpu time    0.0360: real time    0.0357
    MIXING:  cpu time    0.0010: real time    0.0005
    --------------------------------------------
      LOOP:  cpu time    0.5779: real time    0.5806

 eigenvalue-minimisations  :  1935
 total energy-change (2. order) : 0.1381980E-01  (-0.1126009E-01)
 number of electron      44.9999936 magnetization 
 augmentation part       28.7166486 magnetization 

 Broyden mixing:
  rms(total) = 0.16645E+00    rms(broyden)= 0.16625E+00
  rms(prec ) = 0.21490E+00
  weight for this iteration     100.00

 eigenvalues of (default mixing * dielectric matrix)
  average eigenvalue GAMMA=   0.9094
  1.8977  0.6217  0.2086

 Free energy of the ion-electron system (eV)
  ---------------------------------------------------
  alpha Z        PSCENC =       120.87645803
  Ewald energy   TEWEN  =     38036.01830727
  -Hartree energ DENC   =    -43089.27880997
  -exchange      EXHF   =         0.00000000
  -V(xc)+E(xc)   XCENC  =       173.75941271
  PAW double counting   =      4327.74004048    -4895.57713880
  entropy T*S    EENTRO =        -0.01104780
  eigenvalues    EBANDS =      -266.57637694
  atomic energy  EATOM  =      5575.94961827
  Solvation  Ediel_sol  =         0.00000000
  ---------------------------------------------------
  free energy    TOTEN  =       -17.09953674 eV

  energy without entropy =      -17.08848894  energy(sigma->0) =      -17.09401284


--------------------------------------------------------------------------------------------------------




--------------------------------------- Iteration      1(   9)  ---------------------------------------


    POTLOK:  cpu time    0.0110: real time    0.0116
    SETDIJ:  cpu time    0.0040: real time    0.0032
    EDDIAG:  cpu time    0.1270: real time    0.1285
  RMM-DIIS:  cpu time    0.3649: real time    0.3639
    ORTHCH:  cpu time    0.0150: real time    0.0162
       DOS:  cpu time    0.0060: real time    0.0057
    CHARGE:  cpu time    0.0360: real time    0.0360
    MIXING:  cpu time    0.0010: real time    0.0006
    --------------------------------------------
      LOOP:  cpu time    0.5649: real time    0.5658

 eigenvalue-minimisations  :  1893
 total energy-change (2. order) : 0.8302859E-01  (-0.5546524E-02)
 number of electron      44.9999936 magnetization 
 augmentation part       28.7061880 magnetization 

 Broyden mixing:
  rms(total) = 0.78690E-01    rms(broyden)= 0.78627E-01
  rms(prec ) = 0.83602E-01
  weight for this iteration     100.00

 eigenvalues of (default mixing * dielectric matrix)
  average eigenvalue GAMMA=   0.7795
  1.8741  0.5895  0.4491  0.2053

 Free energy of the ion-electron system (eV)
  ---------------------------------------------------
  alpha Z        PSCENC =       120.87645803
  Ewald energy   TEWEN  =     38036.01830727
  -Hartree energ DENC   =    -43091.79895478
  -exchange      EXHF   =         0.00000000
  -V(xc)+E(xc)   XCENC  =       173.50094039
  PAW double counting   =      4370.96988650    -4945.12109249
  entropy T*S    EENTRO =        -0.01760135
  eigenvalues    EBANDS =      -257.39406999
  atomic energy  EATOM  =      5575.94961827
  Solvation  Ediel_sol  =         0.00000000
  ---------------------------------------------------
  free energy    TOTEN  =       -17.01650815 eV

  energy without entropy =      -16.99890680  energy(sigma->0) =      -17.00770747


--------------------------------------------------------------------------------------------------------




--------------------------------------- Iteration      1(  10)  ---------------------------------------


    POTLOK:  cpu time    0.0120: real time    0.0142
    SETDIJ:  cpu time    0.0030: real time    0.0032
    EDDIAG:  cpu time    0.1280: real time    0.1284
  RMM-DIIS:  cpu time    0.3729: real time    0.3739
    ORTHCH:  cpu time    0.0170: real time    0.0163
       DOS:  cpu time    0.0050: real time    0.0057
    CHARGE:  cpu time    0.0370: real time    0.0359
    MIXING:  cpu time    0.0000: real time    0.0006
    --------------------------------------------
      LOOP:  cpu time    0.5749: real time    0.5782

 eigenvalue-minimisations  :  1936
 total energy-change (2. order) : 0.8726408E-02  (-0.1845181E-02)
 number of electron      44.9999936 magnetization 
 augmentation part       28.7337285 magnetization 

 Broyden mixing:
  rms(total) = 0.44539E-01    rms(broyden)= 0.44530E-01
  rms(prec ) = 0.47377E-01
  weight for this iteration     100.00

 eigenvalues of (default mixing * dielectric matrix)
  average eigenvalue GAMMA=   0.8891
  2.1954  1.0047  0.6542  0.2063  0.3850

 Free energy of the ion-electron system (eV)
  ---------------------------------------------------
  alpha Z        PSCENC =       120.87645803
  Ewald energy   TEWEN  =     38036.01830727
  -Hartree energ DENC   =    -43092.77555714
  -exchange      EXHF   =         0.00000000
  -V(xc)+E(xc)   XCENC  =       173.41903314
  PAW double counting   =      4376.17843047    -4950.75519780
  entropy T*S    EENTRO =        -0.01847907
  eigenvalues    EBANDS =      -255.90039490
  atomic energy  EATOM  =      5575.94961827
  Solvation  Ediel_sol  =         0.00000000
  ---------------------------------------------------
  free energy    TOTEN  =       -17.00778174 eV

  energy without entropy =      -16.98930267  energy(sigma->0) =      -16.99854221


--------------------------------------------------------------------------------------------------------




--------------------------------------- Iteration      1(  11)  ---------------------------------------


    POTLOK:  cpu time    0.0120: real time    0.0118
    SETDIJ:  cpu time    0.0030: real time    0.0032
    EDDIAG:  cpu time    0.1280: real time    0.1285
  RMM-DIIS:  cpu time    0.3629: real time    0.3622
    ORTHCH:  cpu time    0.0160: real time    0.0162
       DOS:  cpu time    0.0060: real time    0.0057
    CHARGE:  cpu time    0.0350: real time    0.0359
    MIXING:  cpu time    0.0010: real time    0.0006
    --------------------------------------------
      LOOP:  cpu time    0.5639: real time    0.5642

 eigenvalue-minimisations  :  1885
 total energy-change (2. order) : 0.5376965E-02  (-0.8911912E-03)
 number of electron      44.9999936 magnetization 
 augmentation part       28.7788818 magnetization 

 Broyden mixing:
  rms(total) = 0.93544E-02    rms(broyden)= 0.93298E-02
  rms(prec ) = 0.12224E-01
  weight for this iteration     100.00

 eigenvalues of (default mixing * dielectric matrix)
  average eigenvalue GAMMA=   0.9499
  2.3869  1.2367  0.8418  0.6546  0.2057  0.3741

 Free energy of the ion-electron system (eV)
  ---------------------------------------------------
  alpha Z        PSCENC =       120.87645803
  Ewald energy   TEWEN  =     38036.01830727
  -Hartree energ DENC   =    -43092.98850708
  -exchange      EXHF   =         0.00000000
  -V(xc)+E(xc)   XCENC  =       173.29058002
  PAW double counting   =      4385.86474070    -4961.28176111
  entropy T*S    EENTRO =        -0.01759106
  eigenvalues    EBANDS =      -254.71424983
  atomic energy  EATOM  =      5575.94961827
  Solvation  Ediel_sol  =         0.00000000
  ---------------------------------------------------
  free energy    TOTEN  =       -17.00240478 eV

  energy without entropy =      -16.98481372  energy(sigma->0) =      -16.99360925


--------------------------------------------------------------------------------------------------------




--------------------------------------- Iteration      1(  12)  ---------------------------------------


    POTLOK:  cpu time    0.0110: real time    0.0129
    SETDIJ:  cpu time    0.0040: real time    0.0032
    EDDIAG:  cpu time    0.1280: real time    0.1285
  RMM-DIIS:  cpu time    0.3669: real time    0.3670
    ORTHCH:  cpu time    0.0160: real time    0.0162
       DOS:  cpu time    0.0060: real time    0.0058
    CHARGE:  cpu time    0.0360: real time    0.0359
    MIXING:  cpu time    0.0000: real time    0.0007
    --------------------------------------------
      LOOP:  cpu time    0.5679: real time    0.5701

 eigenvalue-minimisations  :  1905
 total energy-change (2. order) : 0.7513280E-03  (-0.7248409E-04)
 number of electron      44.9999936 magnetization 
 augmentation part       28.7782093 magnetization 

 Broyden mixing:
  rms(total) = 0.78662E-02    rms(broyden)= 0.78422E-02
  rms(prec ) = 0.12061E-01
  weight for this iteration     100.00

 eigenvalues of (default mixing * dielectric matrix)
  average eigenvalue GAMMA=   0.9744
  2.3746  1.7239  0.8976  0.6508  0.6075  0.2053  0.3614

 Free energy of the ion-electron system (eV)
  ---------------------------------------------------
  alpha Z        PSCENC =       120.87645803
  Ewald energy   TEWEN  =     38036.01830727
  -Hartree energ DENC   =    -43094.86147491
  -exchange      EXHF   =         0.00000000
  -V(xc)+E(xc)   XCENC  =       173.27318774
  PAW double counting   =      4389.63408109    -4965.42512191
  entropy T*S    EENTRO =        -0.01800624
  eigenvalues    EBANDS =      -252.44870281
  atomic energy  EATOM  =      5575.94961827
  Solvation  Ediel_sol  =         0.00000000
  ---------------------------------------------------
  free energy    TOTEN  =       -17.00165345 eV

  energy without entropy =      -16.98364721  energy(sigma->0) =      -16.99265033


--------------------------------------------------------------------------------------------------------




--------------------------------------- Iteration      1(  13)  ---------------------------------------


    POTLOK:  cpu time    0.0120: real time    0.0116
    SETDIJ:  cpu time    0.0030: real time    0.0032
    EDDIAG:  cpu time    0.1280: real time    0.1285
  RMM-DIIS:  cpu time    0.3629: real time    0.3628
    ORTHCH:  cpu time    0.0160: real time    0.0162
       DOS:  cpu time    0.0050: real time    0.0057
    CHARGE:  cpu time    0.0370: real time    0.0359
    MIXING:  cpu time    0.0000: real time    0.0007
    --------------------------------------------
      LOOP:  cpu time    0.5639: real time    0.5647

 eigenvalue-minimisations  :  1876
 total energy-change (2. order) : 0.4353436E-03  (-0.4022000E-04)
 number of electron      44.9999936 magnetization 
 augmentation part       28.7783073 magnetization 

 Broyden mixing:
  rms(total) = 0.57210E-02    rms(broyden)= 0.56857E-02
  rms(prec ) = 0.75560E-02
  weight for this iteration     100.00

 eigenvalues of (default mixing * dielectric matrix)
  average eigenvalue GAMMA=   1.0137
  2.3474  2.3474  0.9880  0.7985  0.6573  0.2053  0.3612  0.4046

 Free energy of the ion-electron system (eV)
  ---------------------------------------------------
  alpha Z        PSCENC =       120.87645803
  Ewald energy   TEWEN  =     38036.01830727
  -Hartree energ DENC   =    -43097.20010786
  -exchange      EXHF   =         0.00000000
  -V(xc)+E(xc)   XCENC  =       173.27366524
  PAW double counting   =      4391.04690685    -4966.88881744
  entropy T*S    EENTRO =        -0.01799051
  eigenvalues    EBANDS =      -250.05925796
  atomic energy  EATOM  =      5575.94961827
  Solvation  Ediel_sol  =         0.00000000
  ---------------------------------------------------
  free energy    TOTEN  =       -17.00121811 eV

  energy without entropy =      -16.98322760  energy(sigma->0) =      -16.99222285


--------------------------------------------------------------------------------------------------------




--------------------------------------- Iteration      1(  14)  ---------------------------------------


    POTLOK:  cpu time    0.0120: real time    0.0135
    SETDIJ:  cpu time    0.0030: real time    0.0032
    EDDIAG:  cpu time    0.1280: real time    0.1285
  RMM-DIIS:  cpu time    0.3579: real time    0.3585
    ORTHCH:  cpu time    0.0170: real time    0.0162
       DOS:  cpu time    0.0050: real time    0.0057
    CHARGE:  cpu time    0.0370: real time    0.0359
    MIXING:  cpu time    0.0000: real time    0.0014
    --------------------------------------------
      LOOP:  cpu time    0.5599: real time    0.5628

 eigenvalue-minimisations  :  1867
 total energy-change (2. order) : 0.5129209E-04  (-0.1629223E-04)
 number of electron      44.9999936 magnetization 
 augmentation part       28.7785555 magnetization 

 Broyden mixing:
  rms(total) = 0.38684E-02    rms(broyden)= 0.38304E-02
  rms(prec ) = 0.57043E-02
  weight for this iteration     100.00

 eigenvalues of (default mixing * dielectric matrix)
  average eigenvalue GAMMA=   1.1020
  2.7743  2.6273  1.2465  1.0027  0.6381  0.6381  0.2053  0.3683  0.4172

 Free energy of the ion-electron system (eV)
  ---------------------------------------------------
  alpha Z        PSCENC =       120.87645803
  Ewald energy   TEWEN  =     38036.01830727
  -Hartree energ DENC   =    -43098.55354194
  -exchange      EXHF   =         0.00000000
  -V(xc)+E(xc)   XCENC  =       173.27694431
  PAW double counting   =      4391.23146295    -4967.04074253
  entropy T*S    EENTRO =        -0.01796814
  eigenvalues    EBANDS =      -248.74170504
  atomic energy  EATOM  =      5575.94961827
  Solvation  Ediel_sol  =         0.00000000
  ---------------------------------------------------
  free energy    TOTEN  =       -17.00116681 eV

  energy without entropy =      -16.98319868  energy(sigma->0) =      -16.99218274


--------------------------------------------------------------------------------------------------------




--------------------------------------- Iteration      1(  15)  ---------------------------------------


    POTLOK:  cpu time    0.0120: real time    0.0117
    SETDIJ:  cpu time    0.0030: real time    0.0032
    EDDIAG:  cpu time    0.1280: real time    0.1284
  RMM-DIIS:  cpu time    0.3419: real time    0.3422
    ORTHCH:  cpu time    0.0160: real time    0.0162
       DOS:  cpu time    0.0060: real time    0.0058
    CHARGE:  cpu time    0.0360: real time    0.0359
    MIXING:  cpu time    0.0010: real time    0.0008
    --------------------------------------------
      LOOP:  cpu time    0.5439: real time    0.5442

 eigenvalue-minimisations  :  1779
 total energy-change (2. order) :-0.2353249E-03  (-0.1897823E-04)
 number of electron      44.9999936 magnetization 
 augmentation part       28.7789915 magnetization 

 Broyden mixing:
  rms(total) = 0.36933E-02    rms(broyden)= 0.36439E-02
  rms(prec ) = 0.56665E-02
  weight for this iteration     100.00

 eigenvalues of (default mixing * dielectric matrix)
  average eigenvalue GAMMA=   1.1566
  2.8610  2.8610  1.6651  0.9735  0.9735  0.2053  0.6388  0.6080  0.3661  0.4137

 Free energy of the ion-electron system (eV)
  ---------------------------------------------------
  alpha Z        PSCENC =       120.87645803
  Ewald energy   TEWEN  =     38036.01830727
  -Hartree energ DENC   =    -43100.93642585
  -exchange      EXHF   =         0.00000000
  -V(xc)+E(xc)   XCENC  =       173.28329041
  PAW double counting   =      4391.01440273    -4966.74492041
  entropy T*S    EENTRO =        -0.01820940
  eigenvalues    EBANDS =      -246.44392318
  atomic energy  EATOM  =      5575.94961827
  Solvation  Ediel_sol  =         0.00000000
  ---------------------------------------------------
  free energy    TOTEN  =       -17.00140214 eV

  energy without entropy =      -16.98319273  energy(sigma->0) =      -16.99229744


--------------------------------------------------------------------------------------------------------




--------------------------------------- Iteration      1(  16)  ---------------------------------------


    POTLOK:  cpu time    0.0120: real time    0.0138
    SETDIJ:  cpu time    0.0030: real time    0.0032
    EDDIAG:  cpu time    0.1280: real time    0.1287
  RMM-DIIS:  cpu time    0.3469: real time    0.3479
    ORTHCH:  cpu time    0.0170: real time    0.0162
       DOS:  cpu time    0.0050: real time    0.0057
    CHARGE:  cpu time    0.0370: real time    0.0358
    MIXING:  cpu time    0.0000: real time    0.0008
    --------------------------------------------
      LOOP:  cpu time    0.5489: real time    0.5523

 eigenvalue-minimisations  :  1808
 total energy-change (2. order) :-0.1429698E-03  (-0.6112588E-05)
 number of electron      44.9999936 magnetization 
 augmentation part       28.7769504 magnetization 

 Broyden mixing:
  rms(total) = 0.18429E-02    rms(broyden)= 0.17569E-02
  rms(prec ) = 0.22884E-02
  weight for this iteration     100.00

 eigenvalues of (default mixing * dielectric matrix)
  average eigenvalue GAMMA=   1.3458
  4.5302  2.7524  2.3153  1.2599  0.9563  0.2053  0.7804  0.6555  0.5786  0.3651
  0.4048

 Free energy of the ion-electron system (eV)
  ---------------------------------------------------
  alpha Z        PSCENC =       120.87645803
  Ewald energy   TEWEN  =     38036.01830727
  -Hartree energ DENC   =    -43102.09730657
  -exchange      EXHF   =         0.00000000
  -V(xc)+E(xc)   XCENC  =       173.28786479
  PAW double counting   =      4390.88127068    -4966.63014984
  entropy T*S    EENTRO =        -0.01820909
  eigenvalues    EBANDS =      -245.26939865
  atomic energy  EATOM  =      5575.94961827
  Solvation  Ediel_sol  =         0.00000000
  ---------------------------------------------------
  free energy    TOTEN  =       -17.00154511 eV

  energy without entropy =      -16.98333602  energy(sigma->0) =      -16.99244056


--------------------------------------------------------------------------------------------------------




--------------------------------------- Iteration      1(  17)  ---------------------------------------


    POTLOK:  cpu time    0.0120: real time    0.0115
    SETDIJ:  cpu time    0.0030: real time    0.0032
    EDDIAG:  cpu time    0.1280: real time    0.1284
  RMM-DIIS:  cpu time    0.3439: real time    0.3438
    ORTHCH:  cpu time    0.0160: real time    0.0162
       DOS:  cpu time    0.0060: real time    0.0057
    CHARGE:  cpu time    0.0360: real time    0.0360
    MIXING:  cpu time    0.0010: real time    0.0009
    --------------------------------------------
      LOOP:  cpu time    0.5459: real time    0.5457

 eigenvalue-minimisations  :  1765
 total energy-change (2. order) :-0.2116996E-03  (-0.6842650E-05)
 number of electron      44.9999936 magnetization 
 augmentation part       28.7781157 magnetization 

 Broyden mixing:
  rms(total) = 0.12819E-02    rms(broyden)= 0.11640E-02
  rms(prec ) = 0.19395E-02
  weight for this iteration     100.00

 eigenvalues of (default mixing * dielectric matrix)
  average eigenvalue GAMMA=   1.3791
  4.5879  2.8873  2.3262  1.5800  1.2298  0.2053  0.9112  0.8121  0.6544  0.5855
  0.3650  0.4048

 Free energy of the ion-electron system (eV)
  ---------------------------------------------------
  alpha Z        PSCENC =       120.87645803
  Ewald energy   TEWEN  =     38036.01830727
  -Hartree energ DENC   =    -43103.35804606
  -exchange      EXHF   =         0.00000000
  -V(xc)+E(xc)   XCENC  =       173.28815683
  PAW double counting   =      4390.36087629    -4966.09706011
  entropy T*S    EENTRO =        -0.01818901
  eigenvalues    EBANDS =      -244.02187832
  atomic energy  EATOM  =      5575.94961827
  Solvation  Ediel_sol  =         0.00000000
  ---------------------------------------------------
  free energy    TOTEN  =       -17.00175681 eV

  energy without entropy =      -16.98356780  energy(sigma->0) =      -16.99266230


--------------------------------------------------------------------------------------------------------




--------------------------------------- Iteration      1(  18)  ---------------------------------------


    POTLOK:  cpu time    0.0110: real time    0.0129
    SETDIJ:  cpu time    0.0040: real time    0.0032
    EDDIAG:  cpu time    0.1270: real time    0.1286
  RMM-DIIS:  cpu time    0.3070: real time    0.3061
    ORTHCH:  cpu time    0.0160: real time    0.0162
       DOS:  cpu time    0.0060: real time    0.0057
    CHARGE:  cpu time    0.0360: real time    0.0359
    MIXING:  cpu time    0.0000: real time    0.0009
    --------------------------------------------
      LOOP:  cpu time    0.5069: real time    0.5095

 eigenvalue-minimisations  :  1525
 total energy-change (2. order) :-0.5178699E-04  (-0.1054783E-05)
 number of electron      44.9999936 magnetization 
 augmentation part       28.7775673 magnetization 

 Broyden mixing:
  rms(total) = 0.98426E-03    rms(broyden)= 0.82188E-03
  rms(prec ) = 0.12623E-02
  weight for this iteration     100.00
  WARNING: grid for Broyden might be to small

 eigenvalues of (default mixing * dielectric matrix)
  average eigenvalue GAMMA=   1.5500
  5.7945  3.5634  2.3007  2.3007  1.2292  0.9776  0.9776  0.2053  0.7839  0.6568
  0.5905  0.3650  0.4050

 Free energy of the ion-electron system (eV)
  ---------------------------------------------------
  alpha Z        PSCENC =       120.87645803
  Ewald energy   TEWEN  =     38036.01830727
  -Hartree energ DENC   =    -43103.80353105
  -exchange      EXHF   =         0.00000000
  -V(xc)+E(xc)   XCENC  =       173.28857160
  PAW double counting   =      4390.45560330    -4966.20887440
  entropy T*S    EENTRO =        -0.01825766
  eigenvalues    EBANDS =      -243.55970397
  atomic energy  EATOM  =      5575.94961827
  Solvation  Ediel_sol  =         0.00000000
  ---------------------------------------------------
  free energy    TOTEN  =       -17.00180859 eV

  energy without entropy =      -16.98355094  energy(sigma->0) =      -16.99267977


--------------------------------------------------------------------------------------------------------




--------------------------------------- Iteration      1(  19)  ---------------------------------------


    POTLOK:  cpu time    0.0120: real time    0.0115
    SETDIJ:  cpu time    0.0030: real time    0.0032
    EDDIAG:  cpu time    0.1280: real time    0.1285
  RMM-DIIS:  cpu time    0.2600: real time    0.2609
    ORTHCH:  cpu time    0.0170: real time    0.0162
       DOS:  cpu time    0.0050: real time    0.0056
    CHARGE:  cpu time    0.0370: real time    0.0359
    MIXING:  cpu time    0.0000: real time    0.0009
    --------------------------------------------
      LOOP:  cpu time    0.4619: real time    0.4627

 eigenvalue-minimisations  :  1263
 total energy-change (2. order) :-0.5581477E-04  (-0.4409646E-06)
 number of electron      44.9999936 magnetization 
 augmentation part       28.7779715 magnetization 

 Broyden mixing:
  rms(total) = 0.59577E-03    rms(broyden)= 0.25995E-03
  rms(prec ) = 0.32502E-03
  weight for this iteration     100.00
  WARNING: grid for Broyden might be to small

 eigenvalues of (default mixing * dielectric matrix)
  average eigenvalue GAMMA=   1.6303
  6.2062  3.7825  2.5663  2.3662  1.7578  1.2134  0.9613  0.9613  0.2053  0.7866
  0.6567  0.5909  0.3650  0.4050

 Free energy of the ion-electron system (eV)
  ---------------------------------------------------
  alpha Z        PSCENC =       120.87645803
  Ewald energy   TEWEN  =     38036.01830727
  -Hartree energ DENC   =    -43104.20319323
  -exchange      EXHF   =         0.00000000
  -V(xc)+E(xc)   XCENC  =       173.28788121
  PAW double counting   =      4390.46364502    -4966.21414683
  entropy T*S    EENTRO =        -0.01823017
  eigenvalues    EBANDS =      -243.16220399
  atomic energy  EATOM  =      5575.94961827
  Solvation  Ediel_sol  =         0.00000000
  ---------------------------------------------------
  free energy    TOTEN  =       -17.00186441 eV

  energy without entropy =      -16.98363424  energy(sigma->0) =      -16.99274932


--------------------------------------------------------------------------------------------------------




--------------------------------------- Iteration      1(  20)  ---------------------------------------


    POTLOK:  cpu time    0.0120: real time    0.0115
    SETDIJ:  cpu time    0.0030: real time    0.0032
    EDDIAG:  cpu time    0.1280: real time    0.1287
  RMM-DIIS:  cpu time    0.2400: real time    0.2392
    ORTHCH:  cpu time    0.0160: real time    0.0162
       DOS:  cpu time    0.0060: real time    0.0057
    CHARGE:  cpu time    0.0350: real time    0.0359
    MIXING:  cpu time    0.0010: real time    0.0010
    --------------------------------------------
      LOOP:  cpu time    0.4409: real time    0.4415

 eigenvalue-minimisations  :  1136
 total energy-change (2. order) :-0.2822678E-04  (-0.9322466E-07)
 number of electron      44.9999936 magnetization 
 augmentation part       28.7779227 magnetization 

 Broyden mixing:
  rms(total) = 0.59106E-03    rms(broyden)= 0.24982E-03
  rms(prec ) = 0.31885E-03
  weight for this iteration     100.00
  WARNING: grid for Broyden might be to small

 eigenvalues of (default mixing * dielectric matrix)
  average eigenvalue GAMMA=   1.7344
  6.7329  4.7838  2.6046  2.6046  2.0722  0.2053  1.2037  1.1183  0.9464  0.9464
  0.7797  0.6568  0.5908  0.3650  0.4050

 Free energy of the ion-electron system (eV)
  ---------------------------------------------------
  alpha Z        PSCENC =       120.87645803
  Ewald energy   TEWEN  =     38036.01830727
  -Hartree energ DENC   =    -43104.33732017
  -exchange      EXHF   =         0.00000000
  -V(xc)+E(xc)   XCENC  =       173.28787364
  PAW double counting   =      4390.51504532    -4966.26608878
  entropy T*S    EENTRO =        -0.01823749
  eigenvalues    EBANDS =      -243.02754874
  atomic energy  EATOM  =      5575.94961827
  Solvation  Ediel_sol  =         0.00000000
  ---------------------------------------------------
  free energy    TOTEN  =       -17.00189264 eV

  energy without entropy =      -16.98365515  energy(sigma->0) =      -16.99277389


--------------------------------------------------------------------------------------------------------




--------------------------------------- Iteration      1(  21)  ---------------------------------------


    POTLOK:  cpu time    0.0120: real time    0.0129
    SETDIJ:  cpu time    0.0030: real time    0.0032
    EDDIAG:  cpu time    0.1280: real time    0.1287
  RMM-DIIS:  cpu time    0.2300: real time    0.2299
    ORTHCH:  cpu time    0.0160: real time    0.0162
       DOS:  cpu time    0.0060: real time    0.0058
    CHARGE:  cpu time    0.0360: real time    0.0360
    MIXING:  cpu time    0.0010: real time    0.0010
    --------------------------------------------
      LOOP:  cpu time    0.4319: real time    0.4337

 eigenvalue-minimisations  :  1070
 total energy-change (2. order) :-0.1802721E-04  (-0.7068141E-07)
 number of electron      44.9999936 magnetization 
 augmentation part       28.7778906 magnetization 

 Broyden mixing:
  rms(total) = 0.56222E-03    rms(broyden)= 0.17080E-03
  rms(prec ) = 0.17862E-03
  weight for this iteration     100.00
  WARNING: grid for Broyden might be to small

 eigenvalues of (default mixing * dielectric matrix)
  average eigenvalue GAMMA=   1.8960
  7.7231  5.4247  3.2695  2.5635  2.1016  2.1016  0.2053  1.2151  0.9803  0.9803
  0.9702  0.7826  0.6568  0.5907  0.3650  0.4050

 Free energy of the ion-electron system (eV)
  ---------------------------------------------------
  alpha Z        PSCENC =       120.87645803
  Ewald energy   TEWEN  =     38036.01830727
  -Hartree energ DENC   =    -43104.42918543
  -exchange      EXHF   =         0.00000000
  -V(xc)+E(xc)   XCENC  =       173.28807854
  PAW double counting   =      4390.51112848    -4966.25973163
  entropy T*S    EENTRO =        -0.01824146
  eigenvalues    EBANDS =      -242.93834274
  atomic energy  EATOM  =      5575.94961827
  Solvation  Ediel_sol  =         0.00000000
  ---------------------------------------------------
  free energy    TOTEN  =       -17.00191066 eV

  energy without entropy =      -16.98366920  energy(sigma->0) =      -16.99278993


--------------------------------------------------------------------------------------------------------




--------------------------------------- Iteration      1(  22)  ---------------------------------------


    POTLOK:  cpu time    0.0120: real time    0.0115
    SETDIJ:  cpu time    0.0030: real time    0.0032
    EDDIAG:  cpu time    0.1280: real time    0.1286
  RMM-DIIS:  cpu time    0.2220: real time    0.2215
    ORTHCH:  cpu time    0.0150: real time    0.0162
       DOS:  cpu time    0.0060: real time    0.0058
    CHARGE:  cpu time    0.0360: real time    0.0360
    MIXING:  cpu time    0.0010: real time    0.0011
    --------------------------------------------
      LOOP:  cpu time    0.4229: real time    0.4239

 eigenvalue-minimisations  :   947
 total energy-change (2. order) :-0.7238884E-05  (-0.2372371E-07)
 number of electron      44.9999936 magnetization 
 augmentation part       28.7778283 magnetization 

 Broyden mixing:
  rms(total) = 0.56284E-03    rms(broyden)= 0.17292E-03
  rms(prec ) = 0.17686E-03
  weight for this iteration     100.00
  WARNING: grid for Broyden might be to small

 eigenvalues of (default mixing * dielectric matrix)
  average eigenvalue GAMMA=   1.9487
  8.2998  5.5964  3.5137  2.6061  2.6061  1.9943  1.4275  0.2053  1.1503  0.9665
  0.9665  0.9953  0.7819  0.6568  0.5907  0.3650  0.4050

 Free energy of the ion-electron system (eV)
  ---------------------------------------------------
  alpha Z        PSCENC =       120.87645803
  Ewald energy   TEWEN  =     38036.01830727
  -Hartree energ DENC   =    -43104.47104248
  -exchange      EXHF   =         0.00000000
  -V(xc)+E(xc)   XCENC  =       173.28818411
  PAW double counting   =      4390.50259749    -4966.25205944
  entropy T*S    EENTRO =        -0.01824269
  eigenvalues    EBANDS =      -242.89573847
  atomic energy  EATOM  =      5575.94961827
  Solvation  Ediel_sol  =         0.00000000
  ---------------------------------------------------
  free energy    TOTEN  =       -17.00191790 eV

  energy without entropy =      -16.98367521  energy(sigma->0) =      -16.99279656


--------------------------------------------------------------------------------------------------------




--------------------------------------- Iteration      1(  23)  ---------------------------------------


    POTLOK:  cpu time    0.0120: real time    0.0115
    SETDIJ:  cpu time    0.0030: real time    0.0032
    EDDIAG:  cpu time    0.1290: real time    0.1290
  RMM-DIIS:  cpu time    0.2220: real time    0.2223
    ORTHCH:  cpu time    0.0160: real time    0.0162
       DOS:  cpu time    0.0060: real time    0.0057
    --------------------------------------------
      LOOP:  cpu time    0.3879: real time    0.3878

 eigenvalue-minimisations  :   906
 total energy-change (2. order) :-0.8949983E-06  (-0.5655954E-08)
 number of electron      44.9999936 magnetization 
 augmentation part       28.7778283 magnetization 

 Free energy of the ion-electron system (eV)
  ---------------------------------------------------
  alpha Z        PSCENC =       120.87645803
  Ewald energy   TEWEN  =     38036.01830727
  -Hartree energ DENC   =    -43104.47669053
  -exchange      EXHF   =         0.00000000
  -V(xc)+E(xc)   XCENC  =       173.28801315
  PAW double counting   =      4390.49554152    -4966.24493977
  entropy T*S    EENTRO =        -0.01824080
  eigenvalues    EBANDS =      -242.88998593
  atomic energy  EATOM  =      5575.94961827
  Solvation  Ediel_sol  =         0.00000000
  ---------------------------------------------------
  free energy    TOTEN  =       -17.00191880 eV

  energy without entropy =      -16.98367799  energy(sigma->0) =      -16.99279839


--------------------------------------------------------------------------------------------------------




 average (electrostatic) potential at core
  the test charge radii are     1.0053  0.5201
  (the norm of the test charge is              1.0000)
       1 -45.8525       2 -46.0836       3 -46.0781       4 -46.2827       5 -38.7975
 
 
 
 E-fermi :  -2.4094     XC(G=0):  -4.4245     alpha+bet : -2.7756


 k-point     1 :       0.0000    0.0000    0.0000
  band No.  band energies     occupation 
      1     -11.4341      2.00000
      2     -10.5989      2.00000
      3      -9.0146      2.00000
      4      -7.5999      2.00000
      5      -6.3255      2.00000
      6      -5.6341      2.00000
      7      -5.4498      2.00000
      8      -5.4464      2.00000
      9      -5.3665      2.00000
     10      -5.3419      2.00000
     11      -5.3295      2.00000
     12      -5.3180      2.00000
     13      -5.3136      2.00000
     14      -5.0647      2.00000
     15      -5.0635      2.00000
     16      -4.9062      2.00000
     17      -4.8184      2.00000
     18      -4.6743      2.00000
     19      -4.5622      2.00000
     20      -4.5520      2.00000
     21      -4.3432      2.00000
     22      -4.3231      2.00000
     23      -4.0618      2.00000
     24      -4.0560      2.00000
     25      -2.9752      2.00000
     26       1.5349      0.00000
     27       1.8993      0.00000
     28       2.3387      0.00000

 k-point     2 :       0.1000    0.0000    0.0000
  band No.  band energies     occupation 
      1     -11.1226      2.00000
      2     -10.3033      2.00000
      3      -8.7530      2.00000
      4      -7.3811      2.00000
      5      -6.3228      2.00000
      6      -5.7075      2.00000
      7      -5.5740      2.00000
      8      -5.4587      2.00000
      9      -5.4147      2.00000
     10      -5.3593      2.00000
     11      -5.3369      2.00000
     12      -5.2467      2.00000
     13      -5.2224      2.00000
     14      -5.1649      2.00000
     15      -5.0779      2.00000
     16      -4.9741      2.00000
     17      -4.7593      2.00000
     18      -4.7145      2.00000
     19      -4.5595      2.00000
     20      -4.5252      2.00000
     21      -4.3618      2.00000
     22      -4.3226      2.00000
     23      -4.0521      2.00000
     24      -3.8233      2.00000
     25      -2.2923      0.09768
     26       1.7718      0.00000
     27       2.2039      0.00000
     28       2.6415      0.00000

 k-point     3 :       0.2000   -0.0000    0.0000
  band No.  band energies     occupation 
      1     -10.2227      2.00000
      2      -9.4686      2.00000
      3      -8.0769      2.00000
      4      -6.8683      2.00000
      5      -6.3872      2.00000
      6      -5.9596      2.00000
      7      -5.7683      2.00000
      8      -5.7051      2.00000
      9      -5.5453      2.00000
     10      -5.3310      2.00000
     11      -5.2838      2.00000
     12      -5.1725      2.00000
     13      -5.0771      2.00000
     14      -5.0472      2.00000
     15      -4.9428      2.00000
     16      -4.8713      2.00000
     17      -4.8494      2.00000
     18      -4.6617      2.00000
     19      -4.6195      2.00000
     20      -4.5020      2.00000
     21      -4.3237      2.00000
     22      -4.1239      2.00000
     23      -4.0443      2.00000
     24      -2.9480      2.00000
     25      -0.9794      0.00000
     26       2.4783      0.00000
     27       3.1164      0.00000
     28       3.5507      0.00000

 k-point     4 :       0.3000   -0.0000    0.0000
  band No.  band energies     occupation 
      1      -8.8807      2.00000
      2      -8.3338      2.00000
      3      -7.4299      2.00000
      4      -6.6778      2.00000
      5      -6.4235      2.00000
      6      -6.2314      2.00000
      7      -5.9201      2.00000
      8      -5.7120      2.00000
      9      -5.5728      2.00000
     10      -5.3361      2.00000
     11      -5.1894      2.00000
     12      -5.1190      2.00000
     13      -4.9115      2.00000
     14      -4.9045      2.00000
     15      -4.7214      2.00000
     16      -4.6465      2.00000
     17      -4.5834      2.00000
     18      -4.4283      2.00000
     19      -4.3905      2.00000
     20      -4.3169      2.00000
     21      -4.2103      2.00000
     22      -4.0293      2.00000
     23      -3.6235      2.00000
     24      -1.7618      0.00000
     25       0.6693      0.00000
     26       3.6400      0.00000
     27       4.6100      0.00000
     28       5.0431      0.00000

 k-point     5 :       0.4000   -0.0000    0.0000
  band No.  band energies     occupation 
      1      -7.7042      2.00000
      2      -7.4632      2.00000
      3      -7.1488      2.00000
      4      -6.7762      2.00000
      5      -6.5665      2.00000
      6      -6.4131      2.00000
      7      -6.0609      2.00000
      8      -5.5273      2.00000
      9      -5.3626      2.00000
     10      -5.3231      2.00000
     11      -5.2506      2.00000
     12      -4.9502      2.00000
     13      -4.8215      2.00000
     14      -4.5095      2.00000
     15      -4.3988      2.00000
     16      -4.3250      2.00000
     17      -4.1766      2.00000
     18      -4.1432      2.00000
     19      -4.1196      2.00000
     20      -4.0330      2.00000
     21      -3.8952      2.00000
     22      -3.5984      2.00000
     23      -2.5571      1.96322
     24      -0.3406      0.00000
     25       2.0152      0.00000
     26       2.8636      0.00000
     27       3.1986      0.00000
     28       4.2722      0.00000

 k-point     6 :       0.5000   -0.0000    0.0000
  band No.  band energies     occupation 
      1      -7.5218      2.00000
      2      -7.1567      2.00000
      3      -6.9535      2.00000
      4      -6.8077      2.00000
      5      -6.6413      2.00000
      6      -6.4883      2.00000
      7      -6.0876      2.00000
      8      -5.4662      2.00000
      9      -5.3701      2.00000
     10      -5.2711      2.00000
     11      -5.1642      2.00000
     12      -4.9395      2.00000
     13      -4.5996      2.00000
     14      -4.4648      2.00000
     15      -4.2417      2.00000
     16      -4.2202      2.00000
     17      -4.1104      2.00000
     18      -4.0246      2.00000
[...]
      3      -7.2923      2.00000
      4      -6.5210      2.00000
      5      -6.3637      2.00000
      6      -6.0583      2.00000
      7      -5.7661      2.00000
      8      -5.6755      2.00000
      9      -5.4229      2.00000
     10      -5.3332      2.00000
     11      -5.2376      2.00000
     12      -5.1518      2.00000
     13      -4.9735      2.00000
     14      -4.9220      2.00000
     15      -4.7956      2.00000
     16      -4.6881      2.00000
     17      -4.5797      2.00000
     18      -4.4476      2.00000
     19      -4.4052      2.00000
     20      -4.3231      2.00000
     21      -4.2106      2.00000
     22      -4.0335      2.00000
     23      -3.8230      2.00000
     24      -2.0603      0.00000
     25       0.4857      0.00000
     26       3.5209      0.00000
     27       4.6203      0.00000
     28       4.8993      0.00000

 k-point    24 :      -0.4000    0.3000    0.0000
  band No.  band energies     occupation 
      1      -7.2600      2.00000
      2      -6.4532      2.00000
      3      -6.3802      2.00000
      4      -6.3308      2.00000
      5      -6.1904      2.00000
      6      -6.0959      2.00000
      7      -6.0470      2.00000
      8      -5.9340      2.00000
      9      -5.7244      2.00000
     10      -5.5402      2.00000
     11      -5.4771      2.00000
     12      -5.1221      2.00000
     13      -5.0752      2.00000
     14      -4.8403      2.00000
     15      -4.7016      2.00000
     16      -4.5404      2.00000
     17      -4.5091      2.00000
     18      -4.2178      2.00000
     19      -4.1407      2.00000
     20      -4.0484      2.00000
     21      -2.0642      0.00000
     22      -0.4514      0.00000
     23       0.7459      0.00000
     24       2.1720      0.00000
     25       2.2643      0.00000
     26       2.4849      0.00000
     27       3.3404      0.00000
     28       3.9559      0.00000

 k-point    25 :      -0.3000    0.3000    0.0000
  band No.  band energies     occupation 
      1      -7.1881      2.00000
      2      -6.4604      2.00000
      3      -6.4081      2.00000
      4      -6.3337      2.00000
      5      -6.1972      2.00000
      6      -6.0982      2.00000
      7      -6.0492      2.00000
      8      -5.9233      2.00000
      9      -5.6872      2.00000
     10      -5.5540      2.00000
     11      -5.4918      2.00000
     12      -5.1245      2.00000
     13      -5.0746      2.00000
     14      -4.8626      2.00000
     15      -4.7104      2.00000
     16      -4.5582      2.00000
     17      -4.5113      2.00000
     18      -4.2086      2.00000
     19      -4.1357      2.00000
     20      -4.0495      2.00000
     21      -1.9471      0.00000
     22      -0.4834      0.00000
     23       0.5934      0.00000
     24       1.7861      0.00000
     25       2.3152      0.00000
     26       2.4746      0.00000
     27       3.2481      0.00000
     28       3.7715      0.00000

 k-point    26 :      -0.2000    0.3000    0.0000
  band No.  band energies     occupation 
      1      -7.5983      2.00000
      2      -6.8999      2.00000
      3      -6.6915      2.00000
      4      -6.4294      2.00000
      5      -6.3046      2.00000
      6      -6.0516      2.00000
      7      -5.9458      2.00000
      8      -5.7714      2.00000
      9      -5.6291      2.00000
     10      -5.5072      2.00000
     11      -5.3691      2.00000
     12      -5.1348      2.00000
     13      -5.0561      2.00000
     14      -4.9201      2.00000
     15      -4.6836      2.00000
     16      -4.6264      2.00000
     17      -4.4438      2.00000
     18      -4.2638      2.00000
     19      -4.0763      2.00000
     20      -3.9576      2.00000
     21      -3.0077      2.00000
     22      -2.4627      1.54912
     23      -1.4687      0.00000
     24       0.3114      0.00000
     25       2.1407      0.00000
     26       3.2373      0.00000
     27       4.2689      0.00000
     28       5.6365      0.00000

 k-point    27 :      -0.1000    0.3000    0.0000
  band No.  band energies     occupation 
      1      -8.3533      2.00000
      2      -7.6492      2.00000
      3      -7.0006      2.00000
      4      -6.4781      2.00000
      5      -6.4047      2.00000
      6      -6.0955      2.00000
      7      -5.8397      2.00000
      8      -5.6488      2.00000
      9      -5.4840      2.00000
     10      -5.3734      2.00000
     11      -5.2277      2.00000
     12      -5.1759      2.00000
     13      -5.0287      2.00000
     14      -4.8195      2.00000
     15      -4.7299      2.00000
     16      -4.5660      2.00000
     17      -4.4320      2.00000
     18      -4.2609      2.00000
     19      -4.1903      2.00000
     20      -4.0492      2.00000
     21      -3.9471      2.00000
     22      -3.7150      2.00000
     23      -3.0775      2.00000
     24      -1.1693      0.00000
     25       1.3998      0.00000
     26       3.6238      0.00000
     27       4.5439      0.00000
     28       5.4289      0.00000

 k-point    28 :       0.0000    0.4000    0.0000
  band No.  band energies     occupation 
      1      -8.1846      2.00000
      2      -7.4095      2.00000
      3      -7.0429      2.00000
      4      -6.5783      2.00000
      5      -6.5368      2.00000
      6      -6.1989      2.00000
      7      -5.7891      2.00000
      8      -5.4754      2.00000
      9      -5.3748      2.00000
     10      -5.3231      2.00000
     11      -5.1225      2.00000
     12      -5.0185      2.00000
     13      -4.6807      2.00000
     14      -4.5369      2.00000
     15      -4.4229      2.00000
     16      -4.3220      2.00000
     17      -4.1784      2.00000
     18      -4.1187      2.00000
     19      -4.0375      2.00000
     20      -4.0369      2.00000
     21      -3.8955      2.00000
     22      -3.5922      2.00000
     23      -2.8996      2.00000
     24      -0.9735      0.00000
     25       1.0131      0.00000
     26       2.5962      0.00000
     27       3.5051      0.00000
     28       4.9762      0.00000

 k-point    29 :      -0.2000    0.4000    0.0000
  band No.  band energies     occupation 
      1      -7.4571      2.00000
      2      -6.6825      2.00000
      3      -6.6464      2.00000
      4      -6.3737      2.00000
      5      -6.2801      2.00000
      6      -6.0408      2.00000
      7      -5.9318      2.00000
      8      -5.9230      2.00000
      9      -5.5391      2.00000
     10      -5.4638      2.00000
     11      -5.2417      2.00000
     12      -5.1252      2.00000
     13      -5.0028      2.00000
     14      -4.7787      2.00000
     15      -4.6556      2.00000
     16      -4.5205      2.00000
     17      -4.3498      2.00000
     18      -4.1627      2.00000
     19      -4.1275      2.00000
     20      -4.0235      2.00000
     21      -1.9646      0.00000
     22      -0.8407      0.00000
     23      -0.4581      0.00000
     24       0.0988      0.00000
     25       0.7492      0.00000
     26       2.4026      0.00000
     27       3.7192      0.00000
     28       5.0107      0.00000

 k-point    30 :      -0.1000    0.4000    0.0000
  band No.  band energies     occupation 
      1      -7.8579      2.00000
      2      -7.0491      2.00000
      3      -6.9197      2.00000
      4      -6.5475      2.00000
      5      -6.4729      2.00000
      6      -6.1882      2.00000
      7      -5.8213      2.00000
      8      -5.5775      2.00000
      9      -5.4308      2.00000
     10      -5.2987      2.00000
     11      -5.2519      2.00000
     12      -4.9368      2.00000
     13      -4.7261      2.00000
     14      -4.6765      2.00000
     15      -4.4564      2.00000
     16      -4.3244      2.00000
     17      -4.1974      2.00000
     18      -4.1354      2.00000
     19      -4.0733      2.00000
     20      -3.9411      2.00000
     21      -2.8853      2.00000
     22      -2.4748      1.64479
     23      -1.7222      0.00000
     24      -0.5388      0.00000
     25       0.2935      0.00000
     26       2.1707      0.00000
     27       3.3228      0.00000
     28       4.8566      0.00000

 k-point    31 :       0.0000    0.5000    0.0000
  band No.  band energies     occupation 
      1      -7.9587      2.00000
      2      -7.1179      2.00000
      3      -7.0279      2.00000
      4      -6.6428      2.00000
      5      -6.5642      2.00000
      6      -6.2607      2.00000
      7      -5.7862      2.00000
      8      -5.4713      2.00000
      9      -5.3571      2.00000
     10      -5.3236      2.00000
     11      -5.0380      2.00000
     12      -4.9971      2.00000
     13      -4.5263      2.00000
     14      -4.5062      2.00000
     15      -4.2040      2.00000
     16      -4.1668      2.00000
     17      -4.1152      2.00000
     18      -4.0242      2.00000
     19      -3.9641      2.00000
     20      -3.7804      2.00000
     21      -2.7483      2.00000
     22      -2.4249      1.17332
     23      -1.7452      0.00000
     24      -1.2099      0.00000
     25      -0.8559      0.00000
     26       1.8687      0.00000
     27       2.9987      0.00000
     28       4.4793      0.00000


--------------------------------------------------------------------------------------------------------


 soft charge-density along one line, spin component           1
         0         1         2         3         4         5         6         7         8         9
 total charge-density along one line
 
 pseudopotential strength for first ion, spin component:           1
-10.874   0.000   0.000  -0.005   0.000   1.755  -0.000  -0.000
  0.000 -10.850  -0.001   0.000  -0.004  -0.000   1.744   0.000
  0.000  -0.001 -10.852  -0.000   0.003  -0.000   0.000   1.744
 -0.005   0.000  -0.000 -10.854  -0.000   0.002  -0.000   0.000
  0.000  -0.004   0.003  -0.000 -10.874  -0.000   0.002  -0.001
  1.755  -0.000  -0.000   0.002  -0.000   0.769   0.000   0.000
 -0.000   1.744   0.000  -0.000   0.002   0.000   0.774  -0.000
 -0.000   0.000   1.744   0.000  -0.001   0.000  -0.000   0.775
  0.002  -0.000   0.000   1.745   0.000  -0.001   0.000  -0.000
 -0.000   0.002  -0.001   0.000   1.756   0.000  -0.001   0.001
 -0.000   0.000  -0.005   0.000   0.001  -0.000  -0.000   0.002
  0.000  -0.000   0.000  -0.000  -0.000  -0.000   0.000  -0.000
  0.000  -0.011   0.000  -0.000   0.000  -0.000   0.006  -0.000
 -0.000  -0.000  -0.011   0.000   0.000  -0.000   0.000   0.006
  0.000  -0.000  -0.000  -0.011   0.000   0.000  -0.000  -0.000
 -0.000   0.006  -0.000   0.000  -0.000   0.000  -0.003   0.000
  0.000  -0.000   0.006   0.000  -0.000  -0.000   0.000  -0.003
 -0.000   0.000   0.000   0.006  -0.000   0.000  -0.000  -0.000
 total augmentation occupancy for first ion, spin component:           1
  1.928   0.000   0.000  -0.002   0.000  -0.003   0.000   0.000   0.010   0.000   0.000   0.000   0.000   0.000   0.006   0.000
  0.000   1.933  -0.000   0.000  -0.002   0.000  -0.034   0.000   0.000   0.010   0.001   0.000  -0.003   0.000   0.000  -0.005
  0.000  -0.000   1.935   0.000   0.001   0.000   0.000  -0.025   0.000  -0.000   0.016   0.039   0.002   0.036   0.000  -0.000
 -0.002   0.000   0.000   1.932   0.000   0.010   0.000   0.000  -0.034   0.000   0.000   0.000   0.000   0.000  -0.001   0.000
  0.000  -0.002   0.001   0.000   1.927   0.000   0.010  -0.000   0.000  -0.003   0.000   0.000   0.006  -0.001   0.000  -0.001
 -0.003   0.000   0.000   0.010   0.000   0.060   0.000   0.000   0.001   0.000   0.000   0.000   0.000   0.000   0.006   0.000
  0.000  -0.034   0.000   0.000   0.010   0.000   0.040  -0.000   0.000   0.001  -0.001  -0.000   0.032  -0.000   0.000  -0.003
  0.000   0.000  -0.025   0.000  -0.000   0.000  -0.000   0.056   0.000   0.000  -0.074   0.013  -0.001   0.043   0.000   0.000
  0.010   0.000   0.000  -0.034   0.000   0.001   0.000   0.000   0.039   0.000   0.000   0.000   0.000   0.000   0.031   0.000
  0.000   0.010  -0.000   0.000  -0.003   0.000   0.001   0.000   0.000   0.060  -0.000  -0.000   0.005   0.000   0.000  -0.000
  0.000   0.001   0.016   0.000   0.000   0.000  -0.001  -0.074   0.000  -0.000   1.243  -0.282  -0.001   0.072   0.000   0.000
  0.000   0.000   0.039   0.000   0.000   0.000  -0.000   0.013   0.000  -0.000  -0.282   0.110  -0.000  -0.045   0.000  -0.000
  0.000  -0.003   0.002   0.000   0.006   0.000   0.032  -0.001   0.000   0.005  -0.001  -0.000   0.170  -0.001   0.000  -0.010
  0.000   0.000   0.036   0.000  -0.001   0.000  -0.000   0.043   0.000   0.000   0.072  -0.045  -0.001   0.092   0.000   0.000
  0.006   0.000   0.000  -0.001   0.000   0.006   0.000   0.000   0.031   0.000   0.000   0.000   0.000   0.000   0.171   0.000
  0.000  -0.005  -0.000   0.000  -0.001   0.000  -0.003   0.000   0.000  -0.000   0.000  -0.000  -0.010   0.000   0.000   0.001
  0.000   0.000  -0.009   0.000  -0.000   0.000  -0.000  -0.002   0.000  -0.000  -0.013   0.006   0.000  -0.007   0.000  -0.000
 -0.001   0.000   0.000  -0.005   0.000  -0.000   0.000   0.000  -0.003   0.000   0.000   0.000   0.000   0.000  -0.010   0.000


------------------------ aborting loop because EDIFF is reached ----------------------------------------


 


 total charge     
 
# of ion       s       p       d       tot
------------------------------------------
    1        0.456   0.286   9.220   9.962
    2        0.445   0.372   9.221  10.038
    3        0.452   0.370   9.207  10.029
    4        0.435   0.427   9.193  10.054
    5        0.489   0.013   0.000   0.502
--------------------------------------------------
tot          2.277   1.468  36.841  40.586
 
    CHARGE:  cpu time    0.0370: real time    0.0369
    FORLOC:  cpu time    0.0010: real time    0.0014
    FORNL :  cpu time    0.1850: real time    0.1844
    STRESS:  cpu time    0.5609: real time    0.5612
    FORCOR:  cpu time    0.0120: real time    0.0117
    FORHAR:  cpu time    0.0030: real time    0.0031
    MIXING:  cpu time    0.0010: real time    0.0011
    OFIELD:  cpu time    0.0000: real time    0.0000

  FORCE on cell =-STRESS in cart. coord.  units (eV):
  Direction    XX          YY          ZZ          XY          YZ          ZX
  --------------------------------------------------------------------------------------
  Alpha Z   120.87646   120.87646   120.87646
  Ewald   40981.61420 40940.71416-43886.31355    -0.00001     0.40592     0.00026
  Hartree 42283.34514 42267.17634-41446.03403     0.00003     0.15138    -0.00001
  E(xc)    -252.90013  -253.06426  -253.43471    -0.00255     0.00012     0.00022
  Local  -83530.82625-83477.54978 85063.79267     0.00520    -0.47338    -0.00114
  n-local  -155.81256  -155.79067  -156.45073     2.27529    -0.02583     0.17906
  augment   225.22055   226.58415   226.22176    -0.01274    -0.03446     0.00328
  Kinetic   322.95498   326.26846   325.74174   -10.97505    -0.14730     0.61433
  Fock        0.00000     0.00000     0.00000     0.00000     0.00000     0.00000
  -------------------------------------------------------------------------------------
  Total      -5.52761    -4.78515    -5.60039     0.00000    -0.12355     0.00000
  in kB     -50.93720   -44.09541   -51.60791     0.00000    -1.13852     0.00000
  external pressure =      -48.88 kB  Pullay stress =        0.00 kB


 VOLUME and BASIS-vectors are now :
 -----------------------------------------------------------------------------
  energy-cutoff  :      250.00
  volume of cell :      173.87
      direct lattice vectors                 reciprocal lattice vectors
     2.573868684  0.000000000  0.000000000     0.388520209 -0.224312248  0.000000000
     1.286934342  2.229035666  0.000000000     0.000000000  0.448624495  0.000000000
     0.000000000  0.000000000 30.304664940     0.000000000  0.000000000  0.032998220

  length of vectors
     2.573868684  2.573868684 30.304664940     0.448624495  0.448624495  0.032998220


 FORCES acting on ions
    electron-ion (+dipol)            ewald-force                    non-local-force                 convergence-correction
 -----------------------------------------------------------------------------------------------
   -.185E-03 -.708E-01 0.422E+04   -.960E-04 -.145E-01 -.422E+04   0.000E+00 0.970E-01 -.150E+01   -.973E-09 0.804E-05 -.548E-03
   0.134E-03 -.137E+00 0.149E+04   0.222E-03 0.837E-01 -.149E+04   0.000E+00 0.596E-01 -.812E+00   0.169E-08 -.126E-04 -.505E-03
   0.485E-04 0.423E+00 -.125E+04   -.150E-03 -.268E+00 0.125E+04   0.694E-17 -.155E+00 0.298E-01   -.456E-08 -.179E-04 -.201E-02
   0.201E-03 -.368E-01 -.397E+04   -.219E-03 0.113E+00 0.397E+04   0.694E-17 -.838E-01 -.954E+00   0.147E-09 -.256E-05 -.193E-02
   -.116E-04 -.951E-01 -.482E+03   0.243E-03 0.856E-01 0.483E+03   -.813E-18 -.163E-02 -.147E+01   0.251E-09 -.515E-06 0.553E-05
 -----------------------------------------------------------------------------------------------
   0.187E-03 0.832E-01 0.473E+01   -.150E-12 0.336E-13 -.682E-12   0.131E-16 -.843E-01 -.471E+01   -.345E-08 -.256E-04 -.499E-02
 
 
 POSITION                                       TOTAL-FORCE (eV/Angst)
 -----------------------------------------------------------------------------------
      2.57387      0.00131     12.01783        -0.000000      0.011919      0.073814
      1.28693      0.74366     14.09590         0.000000      0.006776     -0.037542
      2.57387      1.48976     16.17040         0.000000     -0.000337      0.007750
      1.28693      2.22547     18.31056         0.000000     -0.007423      0.487758
      2.57386      2.22691     19.41931        -0.000000     -0.010936     -0.531780
 -----------------------------------------------------------------------------------
    total drift:                                0.000187     -0.001094      0.022887


--------------------------------------------------------------------------------------------------------



  FREE ENERGIE OF THE ION-ELECTRON SYSTEM (eV)
  ---------------------------------------------------
  free  energy   TOTEN  =       -17.00191880 eV

  energy  without entropy=      -16.98367799  energy(sigma->0) =      -16.99279839
 


--------------------------------------------------------------------------------------------------------


    POTLOK:  cpu time    0.0150: real time    0.0146


--------------------------------------------------------------------------------------------------------


     LOOP+:  cpu time   13.6079: real time   13.6623
    4ORBIT:  cpu time    0.0000: real time    0.0000
 


 total charge     
 
# of ion       s       p       d       tot
------------------------------------------
    1        0.456   0.286   9.220   9.962
    2        0.445   0.372   9.221  10.038
    3        0.452   0.370   9.207  10.029
    4        0.435   0.427   9.193  10.054
    5        0.489   0.013   0.000   0.502
--------------------------------------------------
tot          2.277   1.468  36.841  40.586
 

 total amount of memory used by VASP MPI-rank0    39169. kBytes
=======================================================================

   base      :      30000. kBytes
   nonlr-proj:        676. kBytes
   fftplans  :        995. kBytes
   grid      :       1592. kBytes
   one-center:         46. kBytes
   wavefun   :       5860. kBytes
 
  
  
 General timing and accounting informations for this job:
 ========================================================
  
                  Total CPU time used (sec):       14.973
                            User time (sec):       14.773
                          System time (sec):        0.200
                         Elapsed time (sec):       15.203
  
                   Maximum memory used (kb):       39404.
                   Average memory used (kb):           0.
  
                          Minor page faults:        16524
                          Major page faults:          198
                 Voluntary context switches:         3027
