PROCAR lm decomposed
# of k-points:   31         # of bands:   28         # of ions:    5

 k-point     1 :    0.00000000 0.00000000 0.00000000     weight = 0.01000000

band     1 # energy  -11.43414446 # occ.  2.00000000
 
ion      s     py     pz     px    dxy    dyz    dz2    dxz  x2-y2    tot
    1  0.020  0.000  0.003  0.000  0.000  0.000  0.000  0.000  0.000  0.022
    2  0.095  0.000  0.002  0.000  0.000  0.000  0.000  0.000  0.000  0.097
    3  0.173  0.000  0.000  0.000  0.000  0.000  0.000  0.000  0.000  0.174
    4  0.231  0.000  0.000  0.000  0.000  0.000  0.003  0.000  0.003  0.236
    5  0.056  0.000  0.001  0.000  0.000  0.000  0.000  0.000  0.000  0.056
tot    0.574  0.000  0.006  0.000  0.000  0.000  0.003  0.000  0.003  0.585
 
band     2 # energy  -10.59892131 # occ.  2.00000000
 
ion      s     py     pz     px    dxy    dyz    dz2    dxz  x2-y2    tot
    1  0.115  0.000  0.009  0.000  0.000  0.000  0.001  0.000  0.000  0.125
    2  0.218  0.000  0.001  0.000  0.000  0.000  0.003  0.000  0.000  0.222
    3  0.015  0.000  0.021  0.000  0.000  0.000  0.000  0.000  0.000  0.036
    4  0.130  0.000  0.007  0.000  0.000  0.000  0.009  0.000  0.003  0.149
    5  0.057  0.000  0.001  0.000  0.000  0.000  0.000  0.000  0.000  0.057
tot    0.534  0.000  0.039  0.000  0.000  0.000  0.013  0.000  0.003  0.589
 
band     3 # energy   -9.01459666 # occ.  2.00000000
 
ion      s     py     pz     px    dxy    dyz    dz2    dxz  x2-y2    tot
    1  0.187  0.000  0.002  0.000  0.000  0.000  0.022  0.000  0.000  0.210
    2  0.001  0.000  0.047  0.000  0.000  0.000  0.000  0.000  0.000  0.049
    3  0.195  0.000  0.000  0.000  0.000  0.000  0.039  0.000  0.000  0.234
    4  0.016  0.000  0.031  0.000  0.000  0.000  0.019  0.000  0.004  0.070
    5  0.038  0.000  0.000  0.000  0.000  0.000  0.000  0.000  0.000  0.039
tot    0.437  0.000  0.081  0.000  0.000  0.000  0.080  0.000  0.004  0.602
 
band     4 # energy   -7.59986674 # occ.  2.00000000
 
ion      s     py     pz     px    dxy    dyz    dz2    dxz  x2-y2    tot
    1  0.101  0.000  0.005  0.000  0.000  0.000  0.132  0.000  0.000  0.238
    2  0.097  0.000  0.002  0.000  0.000  0.000  0.237  0.000  0.000  0.336
    3  0.034  0.000  0.014  0.000  0.000  0.000  0.093  0.000  0.000  0.141
    4  0.000  0.000  0.013  0.000  0.000  0.000  0.009  0.000  0.002  0.024
    5  0.008  0.000  0.000  0.000  0.000  0.000  0.000  0.000  0.000  0.008
tot    0.240  0.000  0.034  0.000  0.000  0.000  0.470  0.000  0.002  0.746
 
band     5 # energy   -6.32550996 # occ.  2.00000000
 
ion      s     py     pz     px    dxy    dyz    dz2    dxz  x2-y2    tot
    1  0.000  0.000  0.000  0.000  0.000  0.000  0.002  0.000  0.000  0.003
    2  0.001  0.000  0.000  0.000  0.000  0.000  0.000  0.000  0.000  0.001
    3  0.000  0.000  0.005  0.000  0.000  0.001  0.095  0.000  0.000  0.101
    4  0.015  0.000  0.042  0.000  0.000  0.000  0.500  0.000  0.076  0.633
    5  0.061  0.000  0.000  0.000  0.000  0.000  0.000  0.000  0.000  0.061
tot    0.076  0.000  0.048  0.000  0.000  0.001  0.598  0.000  0.076  0.799
 
band     6 # energy   -5.63411575 # occ.  2.00000000
 
ion      s     py     pz     px    dxy    dyz    dz2    dxz  x2-y2    tot
    1  0.000  0.000  0.001  0.000  0.000  0.000  0.044  0.000  0.000  0.045
    2  0.002  0.000  0.001  0.000  0.000  0.000  0.010  0.000  0.002  0.014
    3  0.001  0.000  0.012  0.000  0.000  0.004  0.354  0.000  0.002  0.373
    4  0.004  0.000  0.011  0.000  0.000  0.000  0.302  0.000  0.181  0.498
    5  0.002  0.000  0.000  0.000  0.000  0.000  0.000  0.000  0.000  0.002
tot    0.009  0.000  0.025  0.000  0.000  0.004  0.710  0.000  0.185  0.933
 
band     7 # energy   -5.44982024 # occ.  2.00000000
 
ion      s     py     pz     px    dxy    dyz    dz2    dxz  x2-y2    tot
    1  0.002  0.000  0.000  0.000  0.000  0.001  0.000  0.000  0.000  0.003
    2  0.000  0.000  0.006  0.000  0.000  0.000  0.188  0.000  0.029  0.225
    3  0.002  0.000  0.003  0.000  0.000  0.020  0.280  0.000  0.018  0.323
    4  0.002  0.000  0.002  0.000  0.001  0.000  0.001  0.000  0.387  0.394
    5  0.000  0.000  0.000  0.000  0.000  0.000  0.000  0.000  0.000  0.000
tot    0.006  0.000  0.013  0.000  0.001  0.021  0.469  0.000  0.434  0.945
 
band     8 # energy   -5.44641545 # occ.  2.00000000
 
ion      s     py     pz     px    dxy    dyz    dz2    dxz  x2-y2    tot
    1  0.000  0.000  0.000  0.000  0.001  0.000  0.000  0.002  0.000  0.003
    2  0.000  0.000  0.000  0.000  0.074  0.000  0.000  0.000  0.000  0.075
    3  0.000  0.000  0.000  0.000  0.038  0.000  0.000  0.044  0.000  0.083
    4  0.000  0.000  0.000  0.000  0.805  0.000  0.000  0.001  0.000  0.806
    5  0.000  0.000  0.000  0.000  0.000  0.000  0.000  0.000  0.000  0.000
tot    0.000  0.000  0.000  0.000  0.919  0.000  0.001  0.047  0.000  0.967
 
band     9 # energy   -5.36645791 # occ.  2.00000000
 
ion      s     py     pz     px    dxy    dyz    dz2    dxz  x2-y2    tot
    1  0.000  0.000  0.004  0.000  0.000  0.004  0.242  0.000  0.004  0.255
    2  0.003  0.000  0.001  0.000  0.000  0.000  0.331  0.000  0.176  0.511
    3  0.001  0.000  0.006  0.000  0.000  0.016  0.009  0.000  0.071  0.103
    4  0.000  0.000  0.005  0.000  0.000  0.001  0.000  0.000  0.064  0.071
    5  0.002  0.000  0.000  0.000  0.000  0.000  0.000  0.000  0.000  0.002
tot    0.006  0.000  0.016  0.000  0.000  0.022  0.582  0.000  0.316  0.942
 
band    10 # energy   -5.34192836 # occ.  2.00000000
 
ion      s     py     pz     px    dxy    dyz    dz2    dxz  x2-y2    tot
    1  0.000  0.000  0.000  0.000  0.027  0.000  0.000  0.001  0.000  0.028
    2  0.000  0.000  0.000  0.000  0.020  0.000  0.000  0.071  0.000  0.091
    3  0.000  0.000  0.000  0.000  0.695  0.000  0.000  0.022  0.000  0.717
    4  0.000  0.000  0.000  0.000  0.034  0.000  0.000  0.097  0.000  0.131
    5  0.000  0.000  0.000  0.000  0.000  0.000  0.000  0.000  0.000  0.000
tot    0.000  0.000  0.000  0.000  0.776  0.000  0.000  0.190  0.000  0.967
 
band    11 # energy   -5.32949048 # occ.  2.00000000
 
ion      s     py     pz     px    dxy    dyz    dz2    dxz  x2-y2    tot
    1  0.000  0.000  0.001  0.000  0.000  0.000  0.067  0.000  0.031  0.099
    2  0.000  0.000  0.001  0.000  0.000  0.050  0.037  0.000  0.094  0.183
    3  0.001  0.000  0.000  0.000  0.000  0.010  0.001  0.000  0.532  0.543
    4  0.000  0.000  0.001  0.000  0.000  0.039  0.001  0.000  0.093  0.134
    5  0.000  0.000  0.000  0.000  0.000  0.000  0.000  0.000  0.000  0.000
tot    0.001  0.000  0.004  0.000  0.000  0.098  0.106  0.000  0.749  0.959
 
band    12 # energy   -5.31803776 # occ.  2.00000000
 
ion      s     py     pz     px    dxy    dyz    dz2    dxz  x2-y2    tot
    1  0.000  0.000  0.000  0.000  0.005  0.000  0.000  0.031  0.000  0.036
    2  0.000  0.000  0.000  0.000  0.760  0.000  0.000  0.016  0.001  0.777
    3  0.000  0.000  0.000  0.000  0.013  0.000  0.000  0.040  0.000  0.054
    4  0.000  0.000  0.000  0.000  0.092  0.000  0.000  0.009  0.000  0.101
    5  0.000  0.000  0.000  0.000  0.000  0.000  0.000  0.000  0.000  0.000
tot    0.000  0.000  0.000  0.000  0.870  0.000  0.000  0.096  0.001  0.967
 
band    13 # energy   -5.31357041 # occ.  2.00000000
 
ion      s     py     pz     px    dxy    dyz    dz2    dxz  x2-y2    tot
    1  0.000  0.000  0.000  0.000  0.000  0.029  0.037  0.000  0.000  0.066
    2  0.000  0.000  0.001  0.000  0.001  0.043  0.017  0.000  0.554  0.616
    3  0.000  0.000  0.000  0.000  0.000  0.049  0.001  0.000  0.158  0.208
    4  0.000  0.000  0.001  0.000  0.000  0.021  0.000  0.000  0.051  0.073
    5  0.000  0.000  0.000  0.000  0.000  0.000  0.000  0.000  0.000  0.000
tot    0.001  0.000  0.002  0.000  0.001  0.141  0.055  0.000  0.763  0.964
 
band    14 # energy   -5.06465526 # occ.  2.00000000
 
ion      s     py     pz     px    dxy    dyz    dz2    dxz  x2-y2    tot
    1  0.000  0.000  0.000  0.000  0.794  0.000  0.000  0.007  0.018  0.819
    2  0.000  0.000  0.000  0.000  0.001  0.002  0.000  0.079  0.000  0.082
    3  0.000  0.000  0.000  0.000  0.047  0.000  0.000  0.002  0.001  0.050
    4  0.000  0.000  0.000  0.000  0.002  0.000  0.000  0.015  0.000  0.017
    5  0.000  0.000  0.000  0.000  0.000  0.000  0.000  0.000  0.000  0.000
tot    0.000  0.000  0.000  0.000  0.844  0.002  0.000  0.103  0.019  0.969
 
band    15 # energy   -5.06351384 # occ.  2.00000000
 
ion      s     py     pz     px    dxy    dyz    dz2    dxz  x2-y2    tot
    1  0.000  0.000  0.000  0.000  0.018  0.006  0.001  0.000  0.794  0.819
    2  0.000  0.000  0.000  0.000  0.000  0.074  0.000  0.002  0.000  0.076
    3  0.000  0.000  0.000  0.000  0.001  0.003  0.000  0.000  0.061  0.065
    4  0.000  0.000  0.000  0.000  0.000  0.006  0.000  0.000  0.002  0.008
    5  0.000  0.000  0.000  0.000  0.000  0.000  0.000  0.000  0.000  0.000
tot    0.000  0.000  0.000  0.000  0.019  0.089  0.001  0.002  0.856  0.968
 
band    16 # energy   -4.90620149 # occ.  2.00000000
 
ion      s     py     pz     px    dxy    dyz    dz2    dxz  x2-y2    tot
    1  0.026  0.000  0.001  0.000  0.000  0.000  0.331  0.000  0.001  0.360
    2  0.014  0.000  0.038  0.000  0.000  0.000  0.056  0.000  0.004  0.113
    3  0.000  0.000  0.076  0.000  0.000  0.011  0.000  0.000  0.001  0.088
    4  0.010  0.000  0.046  0.000  0.000  0.003  0.036  0.000  0.060  0.155
    5  0.016  0.000  0.000  0.000  0.000  0.000  0.000  0.000  0.000  0.016
tot    0.066  0.000  0.161  0.000  0.000  0.015  0.424  0.000  0.066  0.732
 
band    17 # energy   -4.81838670 # occ.  2.00000000
 
ion      s     py     pz     px    dxy    dyz    dz2    dxz  x2-y2    tot
    1  0.000  0.000  0.000  0.000  0.002  0.000  0.000  0.004  0.000  0.007
    2  0.000  0.000  0.000  0.000  0.014  0.000  0.000  0.006  0.000  0.021
    3  0.000  0.000  0.000  0.000  0.120  0.000  0.000  0.066  0.000  0.186
    4  0.000  0.000  0.000  0.000  0.013  0.000  0.000  0.756  0.000  0.770
    5  0.000  0.000  0.000  0.002  0.000  0.000  0.000  0.000  0.000  0.002
tot    0.000  0.000  0.000  0.002  0.150  0.000  0.000  0.833  0.000  0.985
 
band    18 # energy   -4.67433375 # occ.  2.00000000
 
ion      s     py     pz     px    dxy    dyz    dz2    dxz  x2-y2    tot
    1  0.000  0.000  0.000  0.000  0.000  0.003  0.002  0.000  0.003  0.008
    2  0.000  0.000  0.000  0.000  0.000  0.002  0.001  0.000  0.029  0.033
    3  0.000  0.000  0.001  0.000  0.000  0.213  0.000  0.000  0.086  0.300
    4  0.000  0.000  0.001  0.000  0.000  0.619  0.000  0.000  0.020  0.640
    5  0.000  0.000  0.000  0.000  0.000  0.000  0.000  0.000  0.000  0.000
tot    0.001  0.000  0.002  0.000  0.000  0.837  0.003  0.000  0.139  0.981
 
band    19 # energy   -4.56223799 # occ.  2.00000000
 
ion      s     py     pz     px    dxy    dyz    dz2    dxz  x2-y2    tot
    1  0.000  0.000  0.000  0.000  0.104  0.000  0.000  0.050  0.000  0.154
    2  0.000  0.000  0.000  0.000  0.072  0.000  0.000  0.437  0.000  0.508
    3  0.000  0.000  0.000  0.000  0.039  0.000  0.000  0.241  0.000  0.280
    4  0.000  0.000  0.000  0.000  0.010  0.000  0.000  0.032  0.000  0.042
    5  0.000  0.000  0.000  0.000  0.000  0.000  0.000  0.000  0.000  0.000
tot    0.000  0.000  0.000  0.000  0.225  0.000  0.000  0.759  0.000  0.984
 
band    20 # energy   -4.55204885 # occ.  2.00000000
 
ion      s     py     pz     px    dxy    dyz    dz2    dxz  x2-y2    tot
    1  0.000  0.000  0.000  0.000  0.000  0.069  0.000  0.000  0.103  0.172
    2  0.000  0.000  0.000  0.000  0.000  0.467  0.000  0.000  0.053  0.520
    3  0.000  0.000  0.000  0.000  0.000  0.127  0.000  0.000  0.020  0.147
    4  0.000  0.000  0.000  0.000  0.000  0.139  0.000  0.000  0.005  0.144
    5  0.000  0.000  0.000  0.000  0.000  0.000  0.000  0.000  0.000  0.000
tot    0.000  0.000  0.000  0.000  0.000  0.802  0.000  0.000  0.181  0.984
 
band    21 # energy   -4.34316034 # occ.  2.00000000
 
ion      s     py     pz     px    dxy    dyz    dz2    dxz  x2-y2    tot
    1  0.000  0.000  0.000  0.000  0.010  0.000  0.000  0.346  0.000  0.356
    2  0.000  0.000  0.000  0.000  0.000  0.000  0.000  0.095  0.000  0.095
    3  0.000  0.000  0.000  0.000  0.008  0.000  0.000  0.453  0.000  0.461
    4  0.000  0.000  0.000  0.000  0.009  0.000  0.000  0.065  0.000  0.074
    5  0.000  0.000  0.000  0.000  0.000  0.000  0.000  0.000  0.000  0.000
tot    0.000  0.000  0.000  0.001  0.028  0.000  0.000  0.958  0.000  0.986
 
band    22 # energy   -4.32314707 # occ.  2.00000000
 
ion      s     py     pz     px    dxy    dyz    dz2    dxz  x2-y2    tot
    1  0.000  0.000  0.000  0.000  0.000  0.339  0.000  0.000  0.007  0.347
    2  0.000  0.000  0.000  0.000  0.000  0.069  0.000  0.000  0.000  0.069
    3  0.000  0.000  0.000  0.000  0.000  0.410  0.000  0.000  0.011  0.421
    4  0.000  0.000  0.000  0.000  0.000  0.141  0.000  0.000  0.008  0.150
    5  0.000  0.000  0.000  0.000  0.000  0.000  0.000  0.000  0.000  0.000
tot    0.000  0.000  0.000  0.000  0.000  0.959  0.000  0.000  0.026  0.986
 
band    23 # energy   -4.06180970 # occ.  2.00000000
 
ion      s     py     pz     px    dxy    dyz    dz2    dxz  x2-y2    tot
    1  0.000  0.000  0.000  0.000  0.008  0.000  0.000  0.544  0.000  0.552
    2  0.000  0.000  0.000  0.000  0.026  0.000  0.000  0.279  0.000  0.304
    3  0.000  0.000  0.000  0.000  0.007  0.000  0.000  0.116  0.000  0.123
    4  0.000  0.000  0.000  0.000  0.001  0.000  0.000  0.009  0.000  0.010
    5  0.000  0.000  0.000  0.000  0.000  0.000  0.000  0.000  0.000  0.000
tot    0.000  0.000  0.000  0.000  0.043  0.000  0.000  0.947  0.000  0.990
 
band    24 # energy   -4.05602504 # occ.  2.00000000
 
ion      s     py     pz     px    dxy    dyz    dz2    dxz  x2-y2    tot
    1  0.000  0.000  0.000  0.000  0.000  0.533  0.000  0.000  0.008  0.541
    2  0.000  0.000  0.000  0.000  0.000  0.278  0.000  0.000  0.025  0.303
    3  0.000  0.000  0.000  0.000  0.000  0.121  0.000  0.000  0.008  0.129
    4  0.000  0.000  0.000  0.000  0.000  0.015  0.000  0.000  0.002  0.017
    5  0.000  0.000  0.000  0.000  0.000  0.000  0.000  0.000  0.000  0.000
tot    0.000  0.000  0.000  0.000  0.000  0.946  0.000  0.000  0.043  0.990
 
band    25 # energy   -2.97517023 # occ.  2.00000000
 
ion      s     py     pz     px    dxy    dyz    dz2    dxz  x2-y2    tot
    1  0.019  0.000  0.154  0.000  0.000  0.000  0.028  0.000  0.000  0.201
    2  0.015  0.000  0.080  0.000  0.000  0.000  0.023  0.000  0.000  0.118
    3  0.013  0.000  0.035  0.000  0.000  0.000  0.020  0.000  0.000  0.068
    4  0.009  0.000  0.012  0.000  0.000  0.000  0.011  0.000  0.001  0.033
    5  0.005  0.000  0.000  0.000  0.000  0.000  0.000  0.000  0.000  0.005
tot    0.060  0.000  0.281  0.000  0.000  0.000  0.082  0.000  0.001  0.424
 
band    26 # energy    1.53493752 # occ.  0.00000000
 
ion      s     py     pz     px    dxy    dyz    dz2    dxz  x2-y2    tot
    1  0.019  0.000  0.002  0.000  0.000  0.000  0.019  0.000  0.000  0.040
    2  0.027  0.000  0.002  0.000  0.000  0.000  0.024  0.000  0.000  0.054
    3  0.038  0.000  0.002  0.000  0.000  0.000  0.034  0.000  0.000  0.074
    4  0.045  0.000  0.000  0.000  0.000  0.000  0.043  0.000  0.000  0.088
    5  0.002  0.000  0.003  0.000  0.000  0.000  0.000  0.000  0.000  0.004
tot    0.130  0.000  0.009  0.000  0.000  0.000  0.120  0.000  0.000  0.260
 
band    27 # energy    1.89933424 # occ.  0.00000000
 
ion      s     py     pz     px    dxy    dyz    dz2    dxz  x2-y2    tot
    1  0.004  0.000  0.005  0.000  0.000  0.000  0.004  0.000  0.000  0.013
    2  0.000  0.000  0.006  0.000  0.000  0.000  0.000  0.000  0.000  0.006
    3  0.001  0.000  0.005  0.000  0.000  0.000  0.001  0.000  0.000  0.008
    4  0.007  0.000  0.003  0.000  0.000  0.000  0.008  0.000  0.000  0.018
    5  0.000  0.000  0.001  0.000  0.000  0.000  0.000  0.000  0.000  0.001
tot    0.012  0.000  0.020  0.000  0.000  0.000  0.013  0.000  0.000  0.046
 
band    28 # energy    2.33867675 # occ.  0.00000000
 
ion      s     py     pz     px    dxy    dyz    dz2    dxz  x2-y2    tot
    1  0.004  0.000  0.003  0.000  0.000  0.000  0.004  0.000  0.000  0.011
    2  0.000  0.000  0.004  0.000  0.000  0.000  0.000  0.000  0.000  0.005
    3  0.000  0.000  0.004  0.000  0.000  0.000  0.000  0.000  0.000  0.004
    4  0.004  0.000  0.002  0.000  0.000  0.000  0.004  0.000  0.000  0.010
    5  0.000  0.000  0.001  0.000  0.000  0.000  0.000  0.000  0.000  0.001
tot    0.009  0.000  0.013  0.000  0.000  0.000  0.009  0.000  0.000  0.030
 

 k-point     2 :    0.10000000 0.00000000 0.00000000     weight = 0.04000000

band     1 # energy  -11.12263763 # occ.  2.00000000
 
ion      s     py     pz     px    dxy    dyz    dz2    dxz  x2-y2    tot
    1  0.019  0.000  0.002  0.000  0.000  0.000  0.000  0.000  0.000  0.022
    2  0.090  0.001  0.002  0.002  0.000  0.000  0.000  0.000  0.000  0.094
    3  0.166  0.001  0.001  0.004  0.000  0.000  0.000  0.000  0.000  0.172
    4  0.225  0.001  0.000  0.006  0.000  0.000  0.002  0.000  0.002  0.238
    5  0.058  0.000  0.001  0.000  0.000  0.000  0.000  0.000  0.000  0.059
tot    0.559  0.003  0.005  0.012  0.000  0.000  0.002  0.001  0.002  0.585
 
band     2 # energy  -10.30326396 # occ.  2.00000000
 
ion      s     py     pz     px    dxy    dyz    dz2    dxz  x2-y2    tot
    1  0.110  0.001  0.009  0.002  0.000  0.000  0.000  0.001  0.000  0.123
    2  0.212  0.002  0.001  0.005  0.000  0.000  0.002  0.000  0.000  0.222
    3  0.016  0.000  0.020  0.000  0.000  0.000  0.000  0.001  0.000  0.039
    4  0.121  0.001  0.007  0.004  0.000  0.000  0.009  0.002  0.003  0.147
    5  0.058  0.000  0.001  0.000  0.000  0.000  0.000  0.000  0.000  0.059
tot    0.518  0.003  0.038  0.012  0.000  0.001  0.011  0.004  0.003  0.590
 
band     3 # energy   -8.75302867 # occ.  2.00000000
 
ion      s     py     pz     px    dxy    dyz    dz2    dxz  x2-y2    tot
    1  0.176  0.001  0.002  0.004  0.000  0.000  0.019  0.000  0.000  0.204
    2  0.002  0.000  0.046  0.000  0.000  0.002  0.001  0.005  0.000  0.056
    3  0.187  0.002  0.000  0.005  0.000  0.000  0.036  0.000  0.000  0.230
    4  0.012  0.000  0.031  0.001  0.000  0.001  0.018  0.008  0.004  0.076
    5  0.039  0.000  0.000  0.000  0.000  0.000  0.000  0.000  0.000  0.040
tot    0.417  0.003  0.080  0.010  0.001  0.003  0.073  0.013  0.005  0.605
 
band     4 # energy   -7.38109428 # occ.  2.00000000
 
ion      s     py     pz     px    dxy    dyz    dz2    dxz  x2-y2    tot
    1  0.097  0.001  0.005  0.003  0.001  0.000  0.134  0.000  0.000  0.242
    2  0.087  0.001  0.003  0.004  0.001  0.000  0.241  0.001  0.000  0.337
    3  0.028  0.000  0.014  0.001  0.000  0.001  0.089  0.002  0.000  0.137
    4  0.000  0.000  0.012  0.000  0.000  0.001  0.008  0.005  0.003  0.029
    5  0.007  0.000  0.000  0.000  0.000  0.000  0.000  0.000  0.000  0.007
tot    0.220  0.003  0.034  0.009  0.002  0.002  0.473  0.008  0.003  0.752
 
band     5 # energy   -6.32278031 # occ.  2.00000000
 
ion      s     py     pz     px    dxy    dyz    dz2    dxz  x2-y2    tot
    1  0.000  0.000  0.000  0.000  0.000  0.000  0.002  0.000  0.000  0.003
    2  0.001  0.000  0.000  0.000  0.001  0.000  0.001  0.000  0.000  0.004
    3  0.000  0.000  0.008  0.000  0.005  0.001  0.132  0.001  0.001  0.148
    4  0.016  0.001  0.038  0.000  0.005  0.009  0.392  0.074  0.070  0.607
    5  0.054  0.000  0.000  0.000  0.000  0.000  0.000  0.000  0.000  0.054
tot    0.071  0.001  0.046  0.001  0.011  0.010  0.528  0.075  0.072  0.815
 
band     6 # energy   -5.70749390 # occ.  2.00000000
 
ion      s     py     pz     px    dxy    dyz    dz2    dxz  x2-y2    tot
    1  0.001  0.000  0.001  0.000  0.001  0.000  0.051  0.000  0.000  0.054
    2  0.002  0.000  0.000  0.000  0.048  0.004  0.056  0.009  0.017  0.136
    3  0.000  0.000  0.015  0.000  0.015  0.019  0.225  0.052  0.006  0.332
    4  0.003  0.000  0.010  0.000  0.001  0.003  0.340  0.021  0.026  0.403
    5  0.001  0.000  0.000  0.000  0.000  0.000  0.000  0.000  0.000  0.001
tot    0.007  0.000  0.026  0.001  0.064  0.025  0.672  0.082  0.049  0.927
 
band     7 # energy   -5.57395234 # occ.  2.00000000
 
ion      s     py     pz     px    dxy    dyz    dz2    dxz  x2-y2    tot
    1  0.001  0.000  0.000  0.000  0.009  0.000  0.011  0.001  0.003  0.026
    2  0.000  0.000  0.006  0.000  0.013  0.007  0.091  0.022  0.005  0.144
    3  0.001  0.000  0.005  0.000  0.013  0.019  0.109  0.046  0.005  0.199
    4  0.001  0.000  0.001  0.000  0.364  0.002  0.006  0.010  0.187  0.573
    5  0.001  0.000  0.000  0.000  0.000  0.000  0.000  0.000  0.000  0.001
tot    0.004  0.000  0.013  0.001  0.400  0.028  0.218  0.079  0.201  0.943
 
band     8 # energy   -5.45874866 # occ.  2.00000000
 
ion      s     py     pz     px    dxy    dyz    dz2    dxz  x2-y2    tot
    1  0.003  0.000  0.001  0.000  0.020  0.006  0.013  0.019  0.006  0.068
    2  0.002  0.000  0.004  0.000  0.136  0.010  0.146  0.028  0.041  0.367
    3  0.000  0.000  0.008  0.000  0.219  0.001  0.053  0.008  0.061  0.352
    4  0.002  0.000  0.002  0.000  0.077  0.004  0.006  0.015  0.050  0.154
    5  0.001  0.000  0.000  0.000  0.000  0.000  0.000  0.000  0.000  0.001
tot    0.008  0.000  0.015  0.001  0.453  0.021  0.217  0.070  0.159  0.942
 
band     9 # energy   -5.41474648 # occ.  2.00000000
 
ion      s     py     pz     px    dxy    dyz    dz2    dxz  x2-y2    tot
    1  0.001  0.000  0.001  0.000  0.011  0.002  0.090  0.008  0.003  0.115
    2  0.001  0.000  0.005  0.000  0.101  0.025  0.022  0.100  0.022  0.276
    3  0.000  0.000  0.010  0.000  0.175  0.000  0.012  0.014  0.063  0.274
    4  0.002  0.000  0.001  0.000  0.112  0.008  0.069  0.063  0.021  0.277
    5  0.000  0.000  0.000  0.000  0.000  0.000  0.000  0.000  0.000  0.001
tot    0.005  0.000  0.017  0.001  0.399  0.035  0.192  0.185  0.109  0.943
 
band    10 # energy   -5.35931442 # occ.  2.00000000
 
ion      s     py     pz     px    dxy    dyz    dz2    dxz  x2-y2    tot
    1  0.000  0.000  0.000  0.000  0.045  0.002  0.026  0.001  0.017  0.091
    2  0.000  0.000  0.000  0.000  0.146  0.002  0.100  0.009  0.123  0.381
    3  0.000  0.000  0.001  0.000  0.007  0.020  0.108  0.001  0.006  0.142
    4  0.000  0.000  0.000  0.000  0.281  0.001  0.020  0.002  0.043  0.347
    5  0.000  0.000  0.000  0.000  0.000  0.000  0.000  0.000  0.000  0.000
tot    0.001  0.000  0.001  0.001  0.479  0.025  0.254  0.013  0.188  0.962
 
band    11 # energy   -5.33686060 # occ.  2.00000000
 
ion      s     py     pz     px    dxy    dyz    dz2    dxz  x2-y2    tot
    1  0.001  0.000  0.001  0.000  0.006  0.007  0.039  0.015  0.001  0.070
    2  0.001  0.000  0.000  0.000  0.170  0.006  0.078  0.001  0.054  0.311
    3  0.000  0.000  0.004  0.000  0.020  0.030  0.017  0.010  0.009  0.090
    4  0.000  0.000  0.005  0.000  0.045  0.003  0.000  0.066  0.357  0.476
    5  0.001  0.000  0.000  0.000  0.000  0.000  0.000  0.000  0.000  0.001
tot    0.003  0.000  0.010  0.000  0.240  0.045  0.135  0.092  0.421  0.948
 
band    12 # energy   -5.24666401 # occ.  2.00000000
 
ion      s     py     pz     px    dxy    dyz    dz2    dxz  x2-y2    tot
    1  0.000  0.000  0.000  0.000  0.004  0.009  0.005  0.001  0.022  0.042
    2  0.000  0.000  0.000  0.000  0.000  0.091  0.003  0.028  0.019  0.142
    3  0.000  0.000  0.000  0.000  0.122  0.036  0.000  0.010  0.527  0.697
    4  0.000  0.000  0.000  0.000  0.001  0.069  0.000  0.014  0.002  0.087
    5  0.000  0.000  0.000  0.000  0.000  0.000  0.000  0.000  0.000  0.000
tot    0.000  0.001  0.000  0.000  0.128  0.205  0.009  0.053  0.571  0.968
 
band    13 # energy   -5.22236260 # occ.  2.00000000
 
ion      s     py     pz     px    dxy    dyz    dz2    dxz  x2-y2    tot
    1  0.000  0.000  0.000  0.000  0.007  0.020  0.036  0.010  0.004  0.078
    2  0.000  0.001  0.001  0.000  0.203  0.003  0.013  0.001  0.500  0.721
    3  0.000  0.000  0.000  0.000  0.021  0.021  0.000  0.012  0.035  0.090
    4  0.000  0.000  0.000  0.000  0.031  0.001  0.000  0.002  0.042  0.077
    5  0.000  0.000  0.000  0.000  0.000  0.000  0.000  0.000  0.000  0.000
tot    0.001  0.001  0.002  0.000  0.261  0.045  0.049  0.025  0.581  0.965
 
band    14 # energy   -5.16493738 # occ.  2.00000000
 
ion      s     py     pz     px    dxy    dyz    dz2    dxz  x2-y2    tot
    1  0.003  0.000  0.002  0.000  0.031  0.003  0.282  0.006  0.022  0.350
    2  0.001  0.000  0.015  0.000  0.012  0.016  0.053  0.016  0.050  0.163
    3  0.000  0.000  0.009  0.000  0.217  0.008  0.002  0.032  0.036  0.306
    4  0.001  0.000  0.007  0.000  0.003  0.001  0.001  0.014  0.078  0.105
    5  0.002  0.000  0.000  0.000  0.000  0.000  0.000  0.000  0.000  0.003
tot    0.007  0.000  0.034  0.000  0.263  0.028  0.337  0.068  0.187  0.925
 
band    15 # energy   -5.07793261 # occ.  2.00000000
 
ion      s     py     pz     px    dxy    dyz    dz2    dxz  x2-y2    tot
    1  0.002  0.000  0.000  0.001  0.526  0.001  0.049  0.004  0.158  0.740
    2  0.000  0.000  0.009  0.000  0.007  0.001  0.021  0.009  0.003  0.049
    3  0.001  0.000  0.005  0.000  0.010  0.014  0.038  0.045  0.006  0.120
    4  0.000  0.000  0.001  0.000  0.014  0.001  0.001  0.011  0.013  0.041
    5  0.000  0.000  0.000  0.000  0.000  0.000  0.000  0.000  0.000  0.000
tot    0.004  0.000  0.015  0.001  0.557  0.018  0.108  0.069  0.179  0.950
 
band    16 # energy   -4.97407327 # occ.  2.00000000
 
ion      s     py     pz     px    dxy    dyz    dz2    dxz  x2-y2    tot
    1  0.000  0.001  0.000  0.000  0.175  0.009  0.000  0.004  0.547  0.735
    2  0.000  0.000  0.000  0.000  0.000  0.081  0.000  0.029  0.001  0.112
    3  0.000  0.000  0.000  0.000  0.022  0.007  0.000  0.002  0.060  0.091
    4  0.000  0.000  0.000  0.000  0.001  0.021  0.000  0.004  0.005  0.032
    5  0.000  0.000  0.000  0.000  0.000  0.000  0.000  0.000  0.000  0.000
tot    0.000  0.001  0.000  0.000  0.198  0.118  0.000  0.039  0.612  0.970
 
band    17 # energy   -4.75932184 # occ.  2.00000000
 
ion      s     py     pz     px    dxy    dyz    dz2    dxz  x2-y2    tot
    1  0.000  0.000  0.000  0.000  0.002  0.002  0.005  0.023  0.040  0.072
    2  0.000  0.000  0.000  0.000  0.030  0.030  0.002  0.005  0.007  0.073
    3  0.001  0.000  0.000  0.000  0.069  0.013  0.012  0.216  0.019  0.331
    4  0.000  0.000  0.004  0.000  0.018  0.122  0.002  0.327  0.013  0.487
    5  0.002  0.000  0.000  0.001  0.000  0.000  0.000  0.000  0.000  0.003
tot    0.004  0.000  0.005  0.001  0.118  0.167  0.021  0.571  0.079  0.966
 
band    18 # energy   -4.71453071 # occ.  2.00000000
 
ion      s     py     pz     px    dxy    dyz    dz2    dxz  x2-y2    tot
    1  0.000  0.000  0.000  0.000  0.049  0.017  0.002  0.016  0.012  0.096
    2  0.000  0.000  0.000  0.000  0.018  0.003  0.003  0.074  0.028  0.127
    3  0.001  0.000  0.000  0.000  0.011  0.199  0.007  0.063  0.063  0.345
    4  0.000  0.000  0.001  0.000  0.004  0.352  0.002  0.027  0.020  0.406
    5  0.001  0.000  0.000  0.000  0.000  0.000  0.000  0.000  0.000  0.001
tot    0.002  0.000  0.002  0.000  0.081  0.572  0.015  0.179  0.123  0.975
 
band    19 # energy   -4.55946237 # occ.  2.00000000
 
ion      s     py     pz     px    dxy    dyz    dz2    dxz  x2-y2    tot
    1  0.000  0.000  0.000  0.000  0.022  0.105  0.000  0.004  0.104  0.236
    2  0.000  0.000  0.001  0.000  0.003  0.283  0.000  0.056  0.060  0.401
    3  0.000  0.000  0.000  0.000  0.006  0.103  0.003  0.013  0.052  0.178
    4  0.000  0.000  0.001  0.000  0.000  0.089  0.000  0.072  0.003  0.165
    5  0.000  0.000  0.000  0.000  0.000  0.000  0.000  0.000  0.000  0.000
tot    0.001  0.000  0.002  0.000  0.031  0.579  0.004  0.145  0.219  0.981
 
band    20 # energy   -4.52519753 # occ.  2.00000000
 
ion      s     py     pz     px    dxy    dyz    dz2    dxz  x2-y2    tot
    1  0.000  0.000  0.004  0.000  0.034  0.042  0.002  0.336  0.009  0.427
    2  0.000  0.000  0.004  0.000  0.054  0.034  0.000  0.147  0.002  0.242
    3  0.003  0.000  0.001  0.000  0.017  0.003  0.022  0.060  0.003  0.109
    4  0.000  0.000  0.002  0.000  0.003  0.120  0.000  0.053  0.002  0.180
    5  0.001  0.000  0.000  0.000  0.000  0.000  0.000  0.000  0.000  0.002
tot    0.005  0.000  0.012  0.000  0.109  0.199  0.024  0.596  0.016  0.960
 
band    21 # energy   -4.36177138 # occ.  2.00000000
 
ion      s     py     pz     px    dxy    dyz    dz2    dxz  x2-y2    tot
    1  0.011  0.000  0.013  0.000  0.017  0.132  0.079  0.170  0.003  0.425
    2  0.001  0.000  0.001  0.000  0.009  0.057  0.002  0.275  0.005  0.350
    3  0.001  0.000  0.003  0.000  0.007  0.009  0.011  0.007  0.000  0.039
    4  0.000  0.000  0.005  0.000  0.000  0.017  0.000  0.063  0.002  0.088
    5  0.002  0.000  0.000  0.000  0.000  0.000  0.000  0.000  0.000  0.003
tot    0.016  0.000  0.023  0.001  0.033  0.216  0.092  0.515  0.010  0.905
 
band    22 # energy   -4.32263652 # occ.  2.00000000
 
ion      s     py     pz     px    dxy    dyz    dz2    dxz  x2-y2    tot
    1  0.000  0.000  0.000  0.000  0.001  0.206  0.003  0.122  0.009  0.342
    2  0.000  0.000  0.000  0.000  0.005  0.069  0.000  0.004  0.012  0.090
    3  0.000  0.000  0.000  0.000  0.000  0.305  0.001  0.109  0.005  0.420
    4  0.000  0.000  0.000  0.000  0.003  0.109  0.000  0.013  0.009  0.133
    5  0.000  0.000  0.000  0.000  0.000  0.000  0.000  0.000  0.000  0.000
tot    0.001  0.000  0.001  0.000  0.009  0.688  0.004  0.247  0.035  0.984
 
band    23 # energy   -4.05213934 # occ.  2.00000000
 
ion      s     py     pz     px    dxy    dyz    dz2    dxz  x2-y2    tot
    1  0.000  0.000  0.000  0.000  0.003  0.380  0.000  0.125  0.008  0.516
    2  0.000  0.000  0.000  0.000  0.006  0.230  0.000  0.071  0.018  0.325
    3  0.000  0.000  0.000  0.000  0.002  0.093  0.000  0.031  0.007  0.133