Starting job 28338148 ("jobname") on c15-33 at Fri Oct 11 11:54:38 CEST 2019
 running on    4 total cores
 distrk:  each k-point on    4 cores,    1 groups
 distr:  one band on    2 cores,    2 groups
 using from now: INCAR     
 vasp.5.4.4.18Apr17-6-g9f103f2a35 (build Jun 30 2017 11:15:00) complex          
  
 POSCAR found type information on POSCAR  Cu H 
 POSCAR found :  2 types and       5 ions
 scaLAPACK will be used

 ----------------------------------------------------------------------------- 
|                                                                             |
|  ADVICE TO THIS USER RUNNING 'VASP/VAMP'   (HEAR YOUR MASTER'S VOICE ...):  |
|                                                                             |
|      You have a (more or less) 'small supercell' and for smaller cells      |
|      it is recommended  to use the reciprocal-space projection scheme!      |
|      The real space optimization is not  efficient for small cells and it   |
|      is also less accurate ...                                              |
|      Therefore set LREAL=.FALSE. in the  INCAR file                         |
|                                                                             |
 ----------------------------------------------------------------------------- 

 LDA part: xc-table for Pade appr. of Perdew
 POSCAR, INCAR and KPOINTS ok, starting setup
 FFT: planning ...
 WAVECAR not read
 WARNING: random wavefunctions but no delay for mixing, default for NELMDL
 entering main loop
       N       E                     dE             d eps       ncg     rms          rms(c)
DAV:   1     0.195909449945E+03    0.19591E+03   -0.13933E+04  1808   0.922E+02
DAV:   2    -0.107204920148E+02   -0.20663E+03   -0.20054E+03  1832   0.264E+02
DAV:   3    -0.208565271776E+02   -0.10136E+02   -0.99519E+01  1888   0.780E+01
DAV:   4    -0.209797339485E+02   -0.12321E+00   -0.12256E+00  1904   0.774E+00
DAV:   5    -0.209809735817E+02   -0.12396E-02   -0.12395E-02  1968   0.541E-01    0.148E+01
RMM:   6    -0.189827385163E+02    0.19982E+01   -0.44315E+01  1911   0.650E+01    0.755E+00
RMM:   7    -0.171133565368E+02    0.18694E+01   -0.74224E+00  1791   0.275E+01    0.170E+00
RMM:   8    -0.170995367362E+02    0.13820E-01   -0.11260E-01  1935   0.270E+00    0.166E+00
RMM:   9    -0.170165081499E+02    0.83029E-01   -0.55465E-02  1893   0.184E+00    0.787E-01
RMM:  10    -0.170077817420E+02    0.87264E-02   -0.18452E-02  1936   0.118E+00    0.445E-01
RMM:  11    -0.170024047769E+02    0.53770E-02   -0.89119E-03  1885   0.785E-01    0.935E-02
RMM:  12    -0.170016534489E+02    0.75133E-03   -0.72484E-04  1905   0.189E-01    0.787E-02
RMM:  13    -0.170012181054E+02    0.43534E-03   -0.40220E-04  1876   0.144E-01    0.572E-02
RMM:  14    -0.170011668133E+02    0.51292E-04   -0.16292E-04  1867   0.102E-01    0.387E-02
RMM:  15    -0.170014021382E+02   -0.23532E-03   -0.18978E-04  1779   0.730E-02    0.369E-02
RMM:  16    -0.170015451080E+02   -0.14297E-03   -0.61126E-05  1808   0.476E-02    0.184E-02
RMM:  17    -0.170017568076E+02   -0.21170E-03   -0.68426E-05  1765   0.431E-02    0.128E-02
RMM:  18    -0.170018085946E+02   -0.51787E-04   -0.10548E-05  1525   0.139E-02    0.984E-03
RMM:  19    -0.170018644094E+02   -0.55815E-04   -0.44096E-06  1263   0.121E-02    0.596E-03
RMM:  20    -0.170018926362E+02   -0.28227E-04   -0.93225E-07  1136   0.528E-03    0.591E-03
RMM:  21    -0.170019106634E+02   -0.18027E-04   -0.70681E-07  1070   0.317E-03    0.562E-03
RMM:  22    -0.170019179023E+02   -0.72389E-05   -0.23724E-07   947   0.210E-03    0.563E-03
RMM:  23    -0.170019187973E+02   -0.89500E-06   -0.56560E-08   906   0.223E-03
   1 F= -.17001919E+02 E0= -.16992798E+02  d E =-.182408E-01

Currently Loaded Modulefiles:
  1) intel/2017.4         2) perf-reports/7.0.6

Job script resource usage:
       JobID  MaxVMSize     MaxRSS 
------------ ---------- ---------- 
28338148.ba+    216884K      2323K 

Job step resource usage:
       JobID    JobName  AllocCPUS  MaxVMSize     MaxRSS    Elapsed ExitCode 
------------ ---------- ---------- ---------- ---------- ---------- -------- 
28338148        jobname          4                         00:00:18      0:0 
28338148.0    pmi_proxy          1    279832K       505K   00:00:16      0:0 

Job 28338148 ("jobname") completed on c15-33 at Fri Oct 11 11:54:54 CEST 2019
