unknown system                          
   1.00000000000000     
     4.913700    0.000000    0.000000
    -2.456850    4.255389    0.000000
     0.000000    0.000000    5.405130
   Si   O 
     3     6
Direct
  0.469800  0.000000  0.666670
  0.000000  0.469800  0.333330
  0.530200  0.530200  0.000000
  0.414500  0.266200  0.785600
  0.733800  0.148300  0.452270
  0.851700  0.585500  0.118930
  0.148300  0.733800  0.547730
  0.266200  0.414500  0.214400
  0.585500  0.851700  0.881070
 
   48   48   56
  1.4509      1.3806      1.3831      1.4380      1.5287      1.6443      1.7784      1.9282      2.0923      2.2673    
  2.4454      2.6166      2.7739      2.9172      3.0556      3.2070      3.3949      3.6447      3.9899      4.4895    
  5.2450      6.3995      8.1137      10.529      13.742      17.786      22.627      28.125      33.966      39.594    
  44.223      47.010      47.347      45.122      40.780      35.128      29.031      23.162      17.924      13.499    
  9.9355      7.2035      5.2158      3.8393      2.9173      2.3031      1.8889      1.6143      1.3806      1.3059    
  1.3126      1.3827      1.4992      1.6506      1.8302      2.0339      2.2584      2.4988      2.7462      2.9871    
  3.2058      3.3911      3.5399      3.6609      3.7733      3.9045      4.0857      4.3554      4.7722      5.4275    
  6.4426      7.9438      10.030      12.745      16.064      19.880      23.982      28.031      31.568      34.072    
  35.095      34.417      32.137      28.643      24.468      20.122      15.993      12.331      9.2689      6.8515    
  5.0454      3.7579      2.8670      2.2555      1.8349      1.5520      1.3831      1.3126      1.3276      1.4132    
  1.5538      1.7375      1.9578      2.2114      2.4951      2.8041      3.1288      3.4525      3.7531      4.0081    
  4.2010      4.3269      4.3954      4.4308      4.4674      4.5438      4.7032      5.0019      5.5171      6.3430    
  7.5717      9.2665      11.436      14.016      16.859      19.741      22.369      24.419      25.589      25.673    
  24.636      22.624      19.924      16.872      13.780      10.893      8.3832      6.3398      4.7728      3.6259    
  2.8090      2.2318      1.8262      1.5504      1.4380      1.3827      1.4132      1.5176      1.6828      1.8979    
  2.1565      2.4569      2.7993      3.1816      3.5940      4.0176      4.4244      4.7814      5.0571      5.2298    
  5.2945      5.2664      5.1789      5.0770      5.0092      5.0232      5.1701      5.5115      6.1180      7.0532    
  8.3473      9.9761      11.854      13.837      15.737      17.334      18.415      18.815      18.460      17.387    
  15.731      13.692      11.490      9.3304      7.3743      5.7249      4.4198      3.4388      2.7242      2.2091    
  1.8406      1.5881      1.5287      1.4992      1.5538      1.6828      1.8754      2.1224      2.4189      2.7655    
  3.1667      3.6256      4.1360      4.6786      5.2196      5.7149      6.1168      6.3844      6.4938      6.4451    
  6.2645      6.0003      5.7127      5.4613      5.2984      5.2714      5.4272      5.8103      6.4515      7.3536    
  8.4806      9.7529      11.049      12.219      13.106      13.582      13.568      13.053      12.093      10.797    
  9.3072      7.7736      6.3261      5.0582      4.0191      3.2141      2.6148      2.1770      1.8622      1.6486    
  1.6443      1.6506      1.7375      1.8979      2.1224      2.4037      2.7390      3.1321      3.5921      4.1290    
  4.7443      5.4222      6.1250      6.7967      7.3722      7.7888      7.9990      7.9825      7.7524      7.3543    
  6.8573      6.3401      5.8764      5.5228      5.3175      5.2861      5.4479      5.8138      6.3745      7.0884    
  7.8811      8.6537      9.2993      9.7196      9.8429      9.6376      9.1173      8.3363      7.3778      6.3394    
  5.3169      4.3884      3.6021      2.9734      2.4923      2.1365      1.8842      1.7218      1.7784      1.8302    
  1.9578      2.1565      2.4189      2.7390      3.1157      3.5556      4.0733      4.6872      5.4090      6.2308    
  7.1158      7.9993      8.7974      9.4217      9.7964      9.8750      9.6514      9.1620      8.4799      7.7011    
  6.9260      6.2384      5.6926      5.3147      5.1132      5.0877      5.2284      5.5109      5.8937      6.3195    
  6.7185      7.0178      7.1553      7.0943      6.8292      6.3815      5.7924      5.1186      4.4251      3.7723    
  3.2020      2.7327      2.3653      2.0930      1.9079      1.8041      1.9282      2.0339      2.2114      2.4569    
  2.7655      3.1321      3.5556      4.0444      4.6183      5.3051      6.1281      7.0917      8.1670      9.2868    
  10.351      11.243      11.853      12.101      11.953      11.430      10.602      9.5792      8.4860      7.4407    
  6.5342      5.8167      5.2988      4.9635      4.7847      4.7387      4.8026      4.9451      5.1203      5.2741    
  5.3566      5.3337      5.1915      4.9336      4.5783      4.1549      3.7003      3.2533      2.8480      2.5074    
  2.2418      2.0524      1.9374      1.8959      2.0923      2.2584      2.4951      2.7993      3.1667      3.5921    
  4.0733      4.6183      5.2500      6.0038      6.9163      8.0084      9.2659      10.628      11.985      13.196    
  14.115      14.618      14.631      14.148      13.231      11.998      10.595      9.1777      7.8773      6.7831    
  5.9278      5.2963      4.8505      4.5530      4.3760      4.2937      4.2750      4.2826      4.2789      4.2329    
  4.1255      3.9523      3.7212      3.4465      3.1455      2.8390      2.5526      2.3114      2.1318      2.0195    
  1.9747      1.9981      2.2673      2.4988      2.8041      3.1816      3.6256      4.1290      4.6872      5.3051    
  6.0038      6.8228      7.8114      9.0096      10.424      12.008      13.659      15.220      16.509      17.353    
  17.626      17.278      16.351      14.962      13.281      11.495      9.7760      8.2556      7.0064      6.0414    
  5.3273      4.8095      4.4361      4.1695      3.9840      3.8555      3.7557      3.6555      3.5332      3.3786    
  3.1920      2.9795      2.7521      2.5255      2.3193      2.1536      2.0436      1.9979      2.0191      2.1083    
  2.4454      2.7462      3.1288      3.5940      4.1360      4.7443      5.4090      6.1281      6.9163      7.8114    
  8.8699      10.149      11.681      13.444      15.354      17.256      18.945      20.201      20.835      20.737    
  19.905      18.443      16.537      14.408      12.267      10.291      8.5988      7.2444      6.2145      5.4502    
  4.8794      4.4454      4.1130      3.8585      3.6577      3.4856      3.3206      3.1474      2.9574      2.7506    
  2.5378      2.3369      2.1676      2.0460      1.9844      1.9912      2.0701      2.2213      2.6166      2.9871    
  3.4525      4.0176      4.6786      5.4222      6.2308      7.0917      8.0084      9.0096      10.149      11.495    
  13.101      14.982      17.082      19.268      21.335      23.030      24.105      24.374      23.766      22.350    
  20.307      17.888      15.349      12.917      10.760      8.9693      7.5624      6.4959      5.6960      5.0879    
  4.6137      4.2347      3.9248      3.6631      3.4305      3.2095      2.9873      2.7592      2.5305      2.3163    
  2.1383      2.0184      1.9733      2.0109      2.1316      2.3333      2.7739      3.2058      3.7531      4.4244    
  5.2196      6.1250      7.1158      8.1670      9.2659      10.424      11.681      13.101      14.756      16.689    
  18.887      21.258      23.619      25.716      27.256      27.980      27.731      26.507      24.461      21.852    
  18.978      16.120      13.496      11.245      9.4225      8.0125      6.9501      6.1471      5.5205      5.0100    
  4.5797      4.2072      3.8754      3.5703      3.2822      3.0054      2.7377      2.4853      2.2673      2.1127    
  2.0469      2.0817      2.2161      2.4465      2.9172      3.3911      4.0081      4.7814      5.7149      6.7967    
  7.9993      9.2868      10.628      12.008      13.444      14.982      16.689      18.629      20.833      23.262    
  25.784      28.173      30.126      31.330      31.539      30.659      28.778      26.134      23.046      19.838    
  16.785      14.086      11.846      10.082      8.7399      7.7233      6.9317      6.2834      5.7237      5.2200    
  4.7545      4.3188      3.9105      3.5291      3.1747      2.8511      2.5718      2.3603      2.2424      2.2355    
  2.3453      2.5718      3.0556      3.5399      4.2010      5.0571      6.1168      7.3722      8.7974      10.351    
  11.985      13.659      15.354      17.082      18.887      20.833      22.980      25.344      27.865      30.378    
  32.613      34.235      34.931      34.506      32.955      30.463      27.339      23.931      20.566      17.498    
  14.890      12.796      11.180      9.9501      8.9951      8.2123      7.5222      6.8741      6.2440      5.6266    
  5.0270      4.4572      3.9328      3.4700      3.0818      2.7805      2.5804      2.4978      2.5447      2.7283    
  3.2070      3.6609      4.3269      5.2298      6.3844      7.7888      9.4217      11.243      13.196      15.220    
  17.256      19.268      21.258      23.262      25.344      27.563      29.930      32.370      34.682      36.561    
  37.671      37.740      36.653      34.497      31.541      28.150      24.677      21.417      18.569      16.230    
  14.395      12.989      11.895      10.993      10.182      9.3881      8.5728      7.7260      6.8609      6.0076    
  5.2049      4.4898      3.8890      3.4170      3.0810      2.8858      2.8361      2.9390      3.3949      3.7733    
  4.3954      5.2945      6.4938      7.9990      9.7964      11.853      14.115      16.509      18.945      21.335    
  23.619      25.784      27.865      29.930      32.044      34.189      36.248      38.038      39.305      39.774    
  39.244      37.677      35.214      32.143      28.831      25.634      22.779      20.384      18.473      16.988    
  15.817      14.835      13.926      12.999      11.994      10.885      9.6893      8.4562      7.2498      6.1348    
  5.1672      4.3866      3.8100      3.4330      3.2411      3.2258      3.6447      3.9045      4.4308      5.2664    
  6.4451      7.9825      9.8750      12.101      14.618      17.353      20.201      23.030      25.716      28.173    
  30.378      32.370      34.189      35.801      37.207      38.416      39.365      39.895      39.810      38.975    
  37.385      35.173      32.562      29.830      27.286      25.130      23.388      22.007      20.890      19.918    
  18.974      17.953      16.773      15.390      13.814      12.105      10.358      8.6780      7.1642      5.8951    
  4.9145      4.2261      3.8041      3.6155      3.9899      4.0857      4.4674      5.1789      6.2645      7.7524    
  9.6514      11.953      14.631      17.626      20.835      24.105      27.256      30.126      32.613      34.682    
  36.248      37.207      37.630      37.725      37.713      37.703      37.651      37.423      36.901      36.031    
  34.830      33.363      31.759      30.229      28.972      27.969      27.134      26.361      25.530      24.517    
  23.220      21.574      19.574      17.292      14.860      12.438      10.182      8.2155      6.6197      5.4275    
  4.6243      4.1621      4.4895      4.3554      4.5438      5.0770      6.0003      7.3543      9.1620      11.430    
  14.148      17.278      20.737      24.374      27.980      31.330      34.235      36.561      38.038      38.416    
  37.725      36.302      34.676      33.348      32.608      32.503      32.907      33.626      34.433      35.084    
  35.386      35.291      34.963      34.671      34.441      34.178      33.748      32.987      31.740      29.896    
  27.439      24.465      21.169      17.790      14.557      11.650      9.1955      7.2643      5.8706      4.9715    
  5.2450      4.7722      4.7032      5.0092      5.7127      6.8573      8.4799      10.602      13.231      16.351    
  19.905      23.766      27.731      31.539      34.931      37.671      39.305      39.365      37.713      34.676    
  31.003      27.619      25.306      24.497      25.263      27.394      30.469      33.897      37.036      39.412    
  40.916      41.825      42.568      43.226      43.651      43.600      42.787      40.984      38.117      34.319    
  29.896      25.231      20.682      16.520      12.924      9.9917      7.7609      6.2057      6.3995      5.4275    
  5.0019      5.0232      5.4613      6.3401      7.7011      9.5792      11.998      14.962      18.443      22.350    
  26.507      30.659      34.506      37.740      39.774      39.895      37.703      33.348      27.619      21.771    
  17.120      14.654      14.853      17.704      22.756      29.153      35.771      41.555      45.913      48.910    
  51.114      53.130      54.975      56.307      56.625      55.438      52.476      47.836      41.969      35.520    
  29.118      23.225      18.103      13.859      10.518      8.0558      8.1137      6.4426      5.5171      5.1701    
  5.2984      5.8764      6.9260      8.4860      10.595      13.281      16.537      20.307      24.461      28.778    
  32.955      36.653      39.244      39.810      37.651      32.608      25.306      17.120      9.7989      4.9209    
  3.5252      6.0135      12.153      21.045      31.200      40.926      48.964      54.947      59.390      63.212    
  67.009      70.485      72.883      73.301      71.042      65.947      58.518      49.747      40.741      32.371    
  25.117      19.119      14.341      10.704      10.529      7.9438      6.3430      5.5115      5.2714      5.5228    
  6.2384      7.4407      9.1777      11.495      14.408      17.888      21.852      26.134      30.463      34.497    
  37.677      38.975      37.423      32.503      24.497      14.654      4.9209     -2.6460     -6.4181     -5.4408    
 0.49622      10.741      23.716      37.238      49.303      58.896      66.258      72.449      78.554      84.774    
  90.197      93.451      93.201      88.708      80.222      68.955      56.626      44.816      34.523      26.086    
  19.418      14.297      13.742      10.030      7.5717      6.1180      5.4272      5.3175      5.6926      6.5342    
  7.8773      9.7760      12.267      15.349      18.978      23.046      27.339      31.541      35.214      37.385    
  36.901      32.907      25.263      14.853      3.5252     -6.4181     -12.860     -14.274     -9.8871     0.14271    
  14.507      30.867      46.608      59.934      70.550      79.458      88.075      97.218      106.23      113.39    
  116.64      114.41      106.25      93.187      77.395      61.356      46.980      35.170      25.956      18.950    
  17.786      12.745      9.2665      7.0532      5.8103      5.2861      5.3147      5.8167      6.7831      8.2556    
  10.291      12.917      16.120      19.838      23.931      28.150      32.143      35.173      36.031      33.626    
  27.394      17.704      6.0135     -5.4408     -14.274     -18.490     -16.745     -8.5611      5.3398      22.881    
  41.166      57.681      71.392      82.966      93.980      105.74      118.24      129.72      137.60      139.41    
  133.60      120.49      102.22      81.992      62.854      46.734      34.169      24.747      22.627      16.064    
  11.436      8.3473      6.4515      5.4479      5.1132      5.2988      5.9278      7.0064      8.5988      10.760    
  13.496      16.785      20.566      24.677      28.831      32.562      34.830      34.433      30.469      22.756    
  12.153     0.49622     -9.8871     -16.745     -18.251     -13.257     -1.7161      14.929      33.952      52.410    
  68.498      82.256      95.134      108.81      123.94      139.25      152.02      159.19      157.86      146.96    
  128.20      105.12      81.544      60.699      44.104      31.693      28.125      19.880      14.016      9.9761    
  7.3536      5.8138      5.0877      4.9635      5.2963      6.0414      7.2444      8.9693      11.245      14.086    
  17.498      21.417      25.634      29.830      33.363      35.084      33.897      29.153      21.045      10.741    
 0.14271     -8.5611     -13.257     -12.225     -4.6094      9.0282      26.590      45.165      62.365      77.429    
  91.337      105.88      122.29      140.09      156.80      169.31      173.86      167.69      151.03      127.31    
  100.98      76.060      55.350      39.594      33.966      23.982      16.859      11.854      8.4806      6.3745    
  5.2284      4.7847      4.8505      5.3273      6.2145      7.5624      9.4225      11.846      14.890      18.569    
  22.779      27.286      31.759      35.386      37.036      35.771      31.200      23.716      14.507      5.3398    
 -1.7161     -4.6094     -1.7927      7.1513      21.099      37.668      54.281      69.444      83.400      97.681    
  113.87      132.26      151.06      167.37      177.47      177.48      165.74      144.29      117.76      90.680    
  66.762      47.882      39.594      28.031      19.741      13.837      9.7529      7.0884      5.5109      4.7387    
  4.5530      4.8095      5.4502      6.4959      8.0125      10.082      12.796      16.230      20.384      25.130    
  30.229      35.291      39.412      41.555      40.926      37.238      30.867      22.881      14.929      9.0282    
  7.1513      10.589      19.330      31.912      46.067      59.903      72.882      85.924      100.57      117.71    
  136.45      154.27      167.99      173.65      168.27      151.98      128.24      101.70      76.501      55.530    
  44.223      31.568      22.369      15.737      11.049      7.8811      5.8937      4.8026      4.3760      4.4361    
  4.8794      5.6960      6.9501      8.7399      11.180      14.395      18.473      23.388      28.972      34.963    
  40.916      45.913      48.964      49.303      46.608      41.166      33.952      26.590      21.099      19.330    
  22.252      29.499      39.561      50.636      61.631      72.697      84.936      99.473      116.23      133.47    
  148.35      157.63      158.05      148.22      129.80      106.54      82.521      61.195      47.010      34.072    
  24.419      17.334      12.219      8.6537      6.3195      4.9451      4.2937      4.1695      4.4454      5.0879    
  6.1471      7.7233      9.9501      12.989      16.988      22.007      27.969      34.671      41.825      48.910    
  54.947      58.896      59.934      57.681      52.410      45.165      37.668      31.912      29.499      31.054    
  36.051      43.216      51.319      59.881      69.364      80.694      94.237      109.11      123.26      133.88    
  138.19      134.22      122.07      103.97      83.357      63.645      47.347      35.095      25.589      18.415    
  13.106      9.2993      6.7185      5.1203      4.2750      3.9840      4.1130      4.6137      5.5205      6.9317    
  8.9951      11.895      15.817      20.890      27.134      34.441      42.568      51.114      59.390      66.258    
  70.550      71.392      68.498      62.365      54.281      46.067      39.561      36.051      35.896      38.572    
  43.125      48.807      55.505      63.677      73.686      85.205      97.064      107.28      113.47      113.65    
  107.06      94.647      78.773      62.265      45.122      34.417      25.673      18.815      13.582      9.7196    
  7.0178      5.2741      4.2826      3.8555      3.8585      4.2347      5.0100      6.2834      8.2123      10.993    
  14.835      19.918      26.361      34.178      43.226      53.130      63.212      72.449      79.458      82.966    
  82.256      77.429      69.444      59.903      50.636      43.216      38.572      36.853      37.607      40.193    
  44.190      49.571      56.402      64.550      73.446      81.900      88.217      90.670      88.173      80.809    
  69.872      57.347      40.780      32.137      24.636      18.460      13.568      9.8429      7.1553      5.3566    
  4.2789      3.7557      3.6577      3.9248      4.5797      5.7237      7.5222      10.182      13.926      18.974    
  25.530      33.748      43.651      54.975      67.009      78.554      88.075      93.980      95.134      91.337    
  83.400      72.882      61.631      51.319      43.125      37.607      34.770      34.262      35.650      38.604    
  42.855      48.197      54.306      60.538      65.851      68.999      68.945      65.313      58.595      49.962    
  35.128      28.643      22.624      17.387      13.053      9.6376      7.0943      5.3337      4.2329      3.6555    
  3.4856      3.6631      4.2072      5.2200      6.8741      9.3881      12.999      17.953      24.517      32.987    
  43.600      56.307      70.485      84.774      97.218      105.74      108.81      105.88      97.681      85.924    
  72.697      59.881      48.807      40.193      34.262      30.901      29.809      30.557      32.707      35.896    
  39.805      44.031      47.981      50.871      51.906      50.584      46.930      41.497      29.031      24.468    
  19.924      15.731      12.093      9.1173      6.8292      5.1915      4.1255      3.5332      3.3206      3.4305    
  3.8754      4.7545      6.2440      8.5728      11.994      16.773      23.220      31.740      42.787      56.625    
  72.883      90.197      106.23      118.24      123.94      122.29      113.87      100.57      84.936      69.364    
  55.505      44.190      35.650      29.809      26.418      25.104      25.416      26.902      29.169      31.860    
  34.584      36.858      38.148      38.017      36.293      33.151      23.162      20.122      16.872      13.692    
  10.797      8.3363      6.3815      4.9336      3.9523      3.3786      3.1474      3.2095      3.5703      4.3188    
  5.6266      7.7260      10.885      15.390      21.574      29.896      40.984      55.438      73.301      93.451    
  113.39      129.72      139.25      140.09      132.26      117.71      99.473      80.694      63.677      49.571    
  38.604      30.557      25.104      21.895      20.525      20.545      21.519      23.062      24.826      26.467    
  27.630      27.992      27.344      25.672      17.924      15.993      13.780      11.490      9.3072      7.3778    
  5.7924      4.5783      3.7212      3.1920      2.9574      2.9873      3.2822      3.9105      5.0270      6.8609    
  9.6893      13.814      19.574      27.439      38.117      52.476      71.042      93.201      116.64      137.60    
  152.02      156.80      151.06      136.45      116.23      94.237      73.686      56.402      42.855      32.707    
  25.416      20.525      17.640      16.349      16.210      16.812      17.805      18.889      19.795      20.283    
  20.168      19.367      13.499      12.331      10.893      9.3304      7.7736      6.3394      5.1186      4.1549    
  3.4465      2.9795      2.7506      2.7592      3.0054      3.5291      4.4572      6.0076      8.4562      12.105    
  17.292      24.465      34.319      47.836      65.947      88.708      114.41      139.41      159.19      169.31    
  167.37      154.27      133.47      109.11      85.205      64.550      48.197      35.896      26.902      20.545    
  16.349      13.900      12.769      12.542      12.868      13.456      14.062      14.491      14.594      14.273    
  9.9355      9.2689      8.3832      7.3743      6.3261      5.3169      4.4251      3.7003      3.1455      2.7521    
  2.5378      2.5305      2.7377      3.1747      3.9328      5.2049      7.2498      10.358      14.860      21.169    
  29.896      41.969      58.518      80.222      106.25      133.60      157.86      173.86      177.47      167.99    
  148.35      123.26      97.064      73.446      54.306      39.805      29.169      21.519      16.210      12.769    
  10.771      9.8183      9.5596      9.6970      9.9886      10.261      10.400      10.312      7.2035      6.8515    
  6.3398      5.7249      5.0582      4.3884      3.7723      3.2533      2.8390      2.5255      2.3369      2.3163    
  2.4853      2.8511      3.4700      4.4898      6.1348      8.6780      12.438      17.790      25.231      35.520    
  49.747      68.955      93.187      120.49      146.96      167.69      177.48      173.65      157.63      133.88    
  107.28      81.900      60.538      44.031      31.860      23.062      16.812      12.542      9.8183      8.2549    
  7.4974      7.2360      7.2265      7.3070      7.3802      7.3691      5.2158      5.0454      4.7728      4.4198    
  4.0191      3.6021      3.2020      2.8480      2.5526      2.3193      2.1676      2.1383      2.2673      2.5718    
  3.0818      3.8890      5.1672      7.1642      10.182      14.557      20.682      29.118      40.741      56.626    
  77.395      102.22      128.20      151.03      165.74      168.27      158.05      138.19      113.47      88.217    
  65.851      47.981      34.584      24.826      17.805      12.868      9.5596      7.4974      6.3234      5.7233    
  5.4537      5.3516      5.3196      5.2931      3.8393      3.7579      3.6259      3.4388      3.2141      2.9734    
  2.7327      2.5074      2.3114      2.1536      2.0460      2.0184      2.1127      2.3603      2.7805      3.4170    
  4.3866      5.8951      8.2155      11.650      16.520      23.225      32.371      44.816      61.356      81.992    
  105.12      127.31      144.29      151.98      148.22      134.22      113.65      90.670      68.999      50.871    
  36.858      26.467      18.889      13.456      9.6970      7.2360      5.7233      4.8497      4.3715      4.1170    
  3.9795      3.9002      2.9173      2.8670      2.8090      2.7242      2.6148      2.4923      2.3653      2.2418    
  2.1318      2.0436      1.9844      1.9733      2.0469      2.2424      2.5804      3.0810      3.8100      4.9145    
  6.6197      9.1955      12.924      18.103      25.117      34.523      46.980      62.854      81.544      100.98    
  117.76      128.24      129.80      122.07      107.06      88.173      68.945      51.906      38.148      27.630    
  19.795      14.062      9.9886      7.2265      5.4537      4.3715      3.7320      3.3552      3.1287      2.9938    
  2.3031      2.2555      2.2318      2.2091      2.1770      2.1365      2.0930      2.0524      2.0195      1.9979    
  1.9912      2.0109      2.0817      2.2355      2.4978      2.8858      3.4330      4.2261      5.4275      7.2643    
  9.9917      13.859      19.119      26.086      35.170      46.734      60.699      76.060      90.680      101.70    
  106.54      103.97      94.647      80.809      65.313      50.584      38.017      27.992      20.283      14.491    
  10.261      7.3070      5.3516      4.1170      3.3552      2.8822      2.5851      2.4035      1.8889      1.8349    
  1.8262      1.8406      1.8622      1.8842      1.9079      1.9374      1.9747      2.0191      2.0701      2.1316    
  2.2161      2.3453      2.5447      2.8361      3.2411      3.8041      4.6243      5.8706      7.7609      10.518    
  14.341      19.418      25.956      34.169      44.104      55.350      66.762      76.501      82.521      83.357    
  78.773      69.872      58.595      46.930      36.293      27.344      20.168      14.594      10.400      7.3802    
  5.3196      3.9795      3.1287      2.5851      2.2337      2.0131      1.6143      1.5520      1.5504      1.5881    
  1.6486      1.7218      1.8041      1.8959      1.9981      2.1083      2.2213      2.3333      2.4465      2.5718    
  2.7283      2.9390      3.2258      3.6155      4.1621      4.9715      6.2057      8.0558      10.704      14.297    
  18.950      24.747      31.693      39.594      47.882      55.530      61.195      63.645      62.265      57.347    
  49.962      41.497      33.151      25.672      19.367      14.273      10.312      7.3691      5.2931      3.9002    
  2.9938      2.4035      2.0131      1.7604      1.4622      1.4127      1.4146      1.4492      1.5046      1.5746    
  1.6556      1.7455      1.8440      1.9495      2.0574      2.1615      2.2571      2.3450      2.4331      2.5379    
  2.6810      2.8849      3.1734      3.5832      4.1795      5.0624      6.3537      8.1677      10.577      13.590    
  17.133      21.050      25.085      28.860      31.895      33.695      33.913      32.487      29.668      25.920    
  21.759      17.627      13.838      10.577      7.9251      5.8775      4.3741      3.3194      2.6028      2.1206    
  1.7957      1.5838      1.3765      1.3235      1.3291      1.3772      1.4550      1.5558      1.6759      1.8121    
  1.9608      2.1179      2.2784      2.4341      2.5748      2.6928      2.7872      2.8663      2.9476      3.0540    
  3.2112      3.4465      3.7968      4.3202      5.1002      6.2343      7.8055      9.8503      12.337      15.158    
  18.130      21.001      23.459      25.176      25.875      25.423      23.879      21.476      18.546      15.426    
  12.401      9.6791      7.3902      5.5814      4.2253      3.2453      2.5506      2.0628      1.7261      1.5050    
  1.3853      1.3382      1.3525      1.4147      1.5137      1.6422      1.7960      1.9718      2.1651      2.3707    
  2.5824      2.7906      2.9820      3.1429      3.2634      3.3415      3.3861      3.4167      3.4611      3.5489    
  3.7089      3.9750      4.3961      5.0380      5.9725      7.2539      8.8927      10.836      12.961      15.089    