unknown system                          
   1.00000000000000     
     4.913700    0.000000    0.000000
    -2.456850    4.255389    0.000000
     0.000000    0.000000    5.405130
   Si   O 
     3     6
Direct
  0.469800  0.000000  0.666670
  0.000000  0.469800  0.333330
  0.530200  0.530200  0.000000
  0.414500  0.266200  0.785600
  0.733800  0.148300  0.452270
  0.851700  0.585500  0.118930
  0.148300  0.733800  0.547730
  0.266200  0.414500  0.214400
  0.585500  0.851700  0.881070
 
   48   48   56
 0.14509479219E+01 0.13805745493E+01 0.13831111763E+01 0.14379542538E+01 0.15286740583E+01
 0.16443087941E+01 0.17784141294E+01 0.19281712141E+01 0.20923080818E+01 0.22673314937E+01
 0.24454086018E+01 0.26166363522E+01 0.27739227533E+01 0.29171793970E+01 0.30555538553E+01
 0.32070469642E+01 0.33949267573E+01 0.36446948464E+01 0.39899115477E+01 0.44895093129E+01
 0.52449611674E+01 0.63995241970E+01 0.81136774586E+01 0.10529331579E+02 0.13741657946E+02
 0.17785958360E+02 0.22626934831E+02 0.28124818995E+02 0.33966122669E+02 0.39594047118E+02
 0.44223188599E+02 0.47010014905E+02 0.47346524689E+02 0.45121838121E+02 0.40779583790E+02
 0.35128310105E+02 0.29031371729E+02 0.23162204776E+02 0.17923823786E+02 0.13498898243E+02
 0.99354977185E+01 0.72035027883E+01 0.52157586466E+01 0.38392839543E+01 0.29173478095E+01
 0.23030988589E+01 0.18888968780E+01 0.16142874206E+01 0.13805745493E+01 0.13058520264E+01
 0.13126139425E+01 0.13826566883E+01 0.14991665095E+01 0.16505693507E+01 0.18301922145E+01
 0.20339359833E+01 0.22583978916E+01 0.24987874867E+01 0.27462465271E+01 0.29870579893E+01
 0.32058324123E+01 0.33910648923E+01 0.35399300844E+01 0.36608591724E+01 0.37733408937E+01
 0.39045398699E+01 0.40857055850E+01 0.43553808395E+01 0.47721842938E+01 0.54275386289E+01
 0.64425522401E+01 0.79437903319E+01 0.10029812297E+02 0.12744879603E+02 0.16064056262E+02
 0.19879973742E+02 0.23981568671E+02 0.28031280838E+02 0.31568333086E+02 0.34072303495E+02
 0.35095189142E+02 0.34416574408E+02 0.32136612721E+02 0.28642965488E+02 0.24467647073E+02
 0.20121559149E+02 0.15993104720E+02 0.12330798903E+02 0.92689237345E+01 0.68514942170E+01
 0.50453902854E+01 0.37578864440E+01 0.28669707153E+01 0.22554677116E+01 0.18348705148E+01
 0.15519991072E+01 0.13831111763E+01 0.13126139425E+01 0.13275933337E+01 0.14132023116E+01
 0.15537857333E+01 0.17375219651E+01 0.19578473180E+01 0.22113638194E+01 0.24951019561E+01
 0.28041453748E+01 0.31288118794E+01 0.34525143978E+01 0.37530976424E+01 0.40080601165E+01
 0.42009856943E+01 0.43268513307E+01 0.43953540329E+01 0.44307951921E+01 0.44674265520E+01
 0.45437997251E+01 0.47031827905E+01 0.50018909085E+01 0.55171333371E+01 0.63430295709E+01
 0.75717298630E+01 0.92664904323E+01 0.11435965472E+02 0.14015655631E+02 0.16859224842E+02
 0.19740722708E+02 0.22368967659E+02 0.24419096887E+02 0.25588530397E+02 0.25673235643E+02
 0.24635756509E+02 0.22624098590E+02 0.19924041168E+02 0.16872293948E+02 0.13779925629E+02
 0.10893388412E+02 0.83832402456E+01 0.63397939673E+01 0.47727572155E+01 0.36259291582E+01
 0.28089521789E+01 0.22317878289E+01 0.18261814264E+01 0.15504221922E+01 0.14379542538E+01
 0.13826566883E+01 0.14132023116E+01 0.15175665428E+01 0.16827668196E+01 0.18979085490E+01
 0.21565308102E+01 0.24568943887E+01 0.27993428456E+01 0.31815596678E+01 0.35940155161E+01
 0.40176254028E+01 0.44244276489E+01 0.47814034393E+01 0.50571190632E+01 0.52298261942E+01
 0.52945245079E+01 0.52663757394E+01 0.51788582183E+01 0.50770097533E+01 0.50091833722E+01
 0.50231649900E+01 0.51700898141E+01 0.55114572930E+01 0.61179891938E+01 0.70531719254E+01
 0.83472781461E+01 0.99761467290E+01 0.11853901377E+02 0.13837385842E+02 0.15736794007E+02
 0.17334047939E+02 0.18415185344E+02 0.18815221812E+02 0.18460203662E+02 0.17386833226E+02
 0.15730859075E+02 0.13691789467E+02 0.11490137475E+02 0.93303656321E+01 0.73743445652E+01
 0.57249162539E+01 0.44198399216E+01 0.34387994049E+01 0.27241719644E+01 0.22090965915E+01
 0.18405820219E+01 0.15880784612E+01 0.15286740583E+01 0.14991665095E+01 0.15537857333E+01
 0.16827668196E+01 0.18753644887E+01 0.21224464681E+01 0.24189443704E+01 0.27654830947E+01
 0.31667221193E+01 0.36255590401E+01 0.41360169723E+01 0.46785801698E+01 0.52196177748E+01
 0.57148721513E+01 0.61167603928E+01 0.63844184862E+01 0.64938391116E+01 0.64450849386E+01
 0.62644654987E+01 0.60003265765E+01 0.57127184321E+01 0.54612535358E+01 0.52984033508E+01
 0.52714448342E+01 0.54272308535E+01 0.58102879166E+01 0.64515099395E+01 0.73536391154E+01
 0.84806121691E+01 0.97528602946E+01 0.11049208896E+02 0.12218932881E+02 0.13106252074E+02
 0.13581519877E+02 0.13567571267E+02 0.13053200781E+02 0.12093157449E+02 0.10796841497E+02
 0.93072161845E+01 0.77736182719E+01 0.63261177280E+01 0.50582023267E+01 0.40190609336E+01
 0.32141482515E+01 0.26148150177E+01 0.21770267203E+01 0.18621777357E+01 0.16485619948E+01
 0.16443087941E+01 0.16505693507E+01 0.17375219651E+01 0.18979085490E+01 0.21224464681E+01
 0.24036900646E+01 0.27390178622E+01 0.31320872230E+01 0.35920870421E+01 0.41289514961E+01
 0.47443196643E+01 0.54222096404E+01 0.61249669648E+01 0.67966950218E+01 0.73722096230E+01
 0.77887896303E+01 0.79990371724E+01 0.79825223661E+01 0.77524204580E+01 0.73542914995E+01
 0.68572537955E+01 0.63401349720E+01 0.58763620376E+01 0.55228001830E+01 0.53175255281E+01
 0.52860674675E+01 0.54478854403E+01 0.58138453471E+01 0.63744545448E+01 0.70884252830E+01
 0.78810747832E+01 0.86537337243E+01 0.92992674294E+01 0.97195689146E+01 0.98429015986E+01
 0.96375965646E+01 0.91173238940E+01 0.83363385355E+01 0.73778483474E+01 0.63394174066E+01
 0.53169217326E+01 0.43884082144E+01 0.36020679304E+01 0.29733545136E+01 0.24922591660E+01
 0.21364808453E+01 0.18842228224E+01 0.17218182510E+01 0.17784141294E+01 0.18301922145E+01
 0.19578473180E+01 0.21565308102E+01 0.24189443704E+01 0.27390178622E+01 0.31157316326E+01
 0.35556492704E+01 0.40733300862E+01 0.46871801408E+01 0.54090201278E+01 0.62308034380E+01
 0.71158352552E+01 0.79993087983E+01 0.87973842895E+01 0.94216546164E+01 0.97963644437E+01
 0.98750001011E+01 0.96513913170E+01 0.91620291151E+01 0.84798752932E+01 0.77011169199E+01
 0.69260441744E+01 0.62384442282E+01 0.56926406309E+01 0.53146924993E+01 0.51131978427E+01
 0.50877284014E+01 0.52284064627E+01 0.55109016984E+01 0.58937441557E+01 0.63194540603E+01
 0.67184761339E+01 0.70177734435E+01 0.71552621585E+01 0.70942680259E+01 0.68292211950E+01
 0.63814527015E+01 0.57923701088E+01 0.51186063025E+01 0.44251398565E+01 0.37723223238E+01
 0.32020442324E+01 0.27327315843E+01 0.23653155837E+01 0.20930047378E+01 0.19079260836E+01
 0.18040635883E+01 0.19281712141E+01 0.20339359833E+01 0.22113638194E+01 0.24568943887E+01
 0.27654830947E+01 0.31320872230E+01 0.35556492704E+01 0.40443970373E+01 0.46183479826E+01
 0.53050606835E+01 0.61281019346E+01 0.70916505013E+01 0.81669839499E+01 0.92867552586E+01
 0.10350758366E+02 0.11242638283E+02 0.11852781842E+02 0.12100943219E+02 0.11953218363E+02
 0.11429877990E+02 0.10602272063E+02 0.95792120236E+01 0.84859569992E+01 0.74407461904E+01
 0.65341847509E+01 0.58167469469E+01 0.52988283311E+01 0.49635177972E+01 0.47847028918E+01
 0.47386813908E+01 0.48026347408E+01 0.49450776916E+01 0.51203171187E+01 0.52740737876E+01
 0.53565525277E+01 0.53337469043E+01 0.51914933938E+01 0.49336182029E+01 0.45783156915E+01
 0.41549104143E+01 0.37002573291E+01 0.32533068947E+01 0.28480450827E+01 0.25074459270E+01
 0.22418039580E+01 0.20523779737E+01 0.19373744614E+01 0.18958964637E+01 0.20923080818E+01
 0.22583978916E+01 0.24951019561E+01 0.27993428456E+01 0.31667221193E+01 0.35920870421E+01
 0.40733300862E+01 0.46183479826E+01 0.52500180370E+01 0.60037562206E+01 0.69163138653E+01
 0.80083617294E+01 0.92658928012E+01 0.10627529724E+02 0.11984602115E+02 0.13196195840E+02
 0.14115126247E+02 0.14617759399E+02 0.14630718837E+02 0.14147723606E+02 0.13231068933E+02
 0.11997595031E+02 0.10595344247E+02 0.91776631078E+01 0.78772978979E+01 0.67830807114E+01
 0.59278025387E+01 0.52963318985E+01 0.48504620880E+01 0.45530246887E+01 0.43759512234E+01
 0.42936557904E+01 0.42749532783E+01 0.42825850347E+01 0.42789340140E+01 0.42329143396E+01
 0.41255090708E+01 0.39523247606E+01 0.37212247765E+01 0.34465490876E+01 0.31454666271E+01
 0.28389828414E+01 0.25526401661E+01 0.23114149258E+01 0.21318171443E+01 0.20195189780E+01
 0.19746784979E+01 0.19981411718E+01 0.22673314937E+01 0.24987874867E+01 0.28041453748E+01
 0.31815596678E+01 0.36255590401E+01 0.41289514961E+01 0.46871801408E+01 0.53050606835E+01
 0.60037562206E+01 0.68227511717E+01 0.78113941631E+01 0.90095504367E+01 0.10423756773E+02
 0.12008339044E+02 0.13658673670E+02 0.15219622829E+02 0.16509073851E+02 0.17353306386E+02
 0.17625976297E+02 0.17278469159E+02 0.16351036630E+02 0.14961993014E+02 0.13280840692E+02
 0.11494746508E+02 0.97760382406E+01 0.82556025683E+01 0.70063928224E+01 0.60413504205E+01
 0.53272722273E+01 0.48095170728E+01 0.44360544584E+01 0.41694705273E+01 0.39840199284E+01
 0.38555456977E+01 0.37557201169E+01 0.36555210486E+01 0.35331693947E+01 0.33786185979E+01
 0.31919510582E+01 0.29795001853E+01 0.27521054999E+01 0.25254621395E+01 0.23192919966E+01
 0.21535542361E+01 0.20436220151E+01 0.19978666422E+01 0.20191205287E+01 0.21083356152E+01
 0.24454086018E+01 0.27462465271E+01 0.31288118794E+01 0.35940155161E+01 0.41360169723E+01
 0.47443196643E+01 0.54090201278E+01 0.61281019346E+01 0.69163138653E+01 0.78113941631E+01
 0.88699471353E+01 0.10149303609E+02 0.11680746633E+02 0.13444403400E+02 0.15353949467E+02
 0.17255632393E+02 0.18944804210E+02 0.20200887176E+02 0.20835077699E+02 0.20737137503E+02
 0.19904608776E+02 0.18442990913E+02 0.16537244833E+02 0.14407522915E+02 0.12266761318E+02
 0.10290622375E+02 0.85988394122E+01 0.72444074908E+01 0.62145306093E+01 0.54501755111E+01
 0.48794011323E+01 0.44453630234E+01 0.41130497158E+01 0.38584988899E+01 0.36577108714E+01
 0.34855983460E+01 0.33206098888E+01 0.31473856577E+01 0.29573533534E+01 0.27506394957E+01
 0.25377709262E+01 0.23369282667E+01 0.21676044426E+01 0.20460305326E+01 0.19844469595E+01
 0.19912159312E+01 0.20701081246E+01 0.22213157192E+01 0.26166363522E+01 0.29870579893E+01
 0.34525143978E+01 0.40176254028E+01 0.46785801698E+01 0.54222096404E+01 0.62308034380E+01
 0.70916505013E+01 0.80083617294E+01 0.90095504367E+01 0.10149303609E+02 0.11494809621E+02
 0.13101379275E+02 0.14981998636E+02 0.17082150762E+02 0.19268378607E+02 0.21334799936E+02
 0.23030017981E+02 0.24104937997E+02 0.24373554699E+02 0.23766034014E+02 0.22349639414E+02
 0.20307407846E+02 0.17887594312E+02 0.15348679232E+02 0.12917042276E+02 0.10759713680E+02
 0.89692560878E+01 0.75623899090E+01 0.64959049774E+01 0.56959627166E+01 0.50878716486E+01
 0.46137072684E+01 0.42347252005E+01 0.39248077965E+01 0.36631329586E+01 0.34304768268E+01
 0.32094711133E+01 0.29873271658E+01 0.27592112970E+01 0.25304829057E+01 0.23163399237E+01
 0.21383153124E+01 0.20184456900E+01 0.19733324005E+01 0.20109024316E+01 0.21316152979E+01
 0.23333291952E+01 0.27739227533E+01 0.32058324123E+01 0.37530976424E+01 0.44244276489E+01
 0.52196177748E+01 0.61249669648E+01 0.71158352552E+01 0.81669839499E+01 0.92658928012E+01
 0.10423756773E+02 0.11680746633E+02 0.13101379275E+02 0.14755747018E+02 0.16688651807E+02
 0.18887100446E+02 0.21257576126E+02 0.23619011438E+02 0.25715601192E+02 0.27256038808E+02
 0.27979634474E+02 0.27730627565E+02 0.26507252725E+02 0.24461283558E+02 0.21851706755E+02
 0.18978103774E+02 0.16120106364E+02 0.13496442838E+02 0.11245302964E+02 0.94224504409E+01
 0.80125405932E+01 0.69501134442E+01 0.61470941427E+01 0.55204723162E+01 0.50100385869E+01
 0.45796714051E+01 0.42072264870E+01 0.38754415419E+01 0.35702567430E+01 0.32821589117E+01
 0.30053882528E+01 0.27377430396E+01 0.24852637584E+01 0.22672955578E+01 0.21126736240E+01
 0.20468894632E+01 0.20816520082E+01 0.22161354290E+01 0.24465262252E+01 0.29171793970E+01
 0.33910648923E+01 0.40080601165E+01 0.47814034393E+01 0.57148721513E+01 0.67966950218E+01
 0.79993087983E+01 0.92867552587E+01 0.10627529724E+02 0.12008339044E+02 0.13444403400E+02
 0.14981998636E+02 0.16688651807E+02 0.18629315284E+02 0.20833348329E+02 0.23261784409E+02
 0.25784054105E+02 0.28172658552E+02 0.30126409817E+02 0.31329838008E+02 0.31538858156E+02
 0.30659148285E+02 0.28777907853E+02 0.26133802564E+02 0.23045720273E+02 0.19837710947E+02
 0.16785285664E+02 0.14085841230E+02 0.11845887567E+02 0.10082307281E+02 0.87399214058E+01
 0.77232843532E+01 0.69316518187E+01 0.62834104265E+01 0.57237283672E+01 0.52200196488E+01
 0.47544592469E+01 0.43187763530E+01 0.39104957323E+01 0.35291440732E+01 0.31747010912E+01
 0.28510791205E+01 0.25717800520E+01 0.23603463971E+01 0.22424241435E+01 0.22354842748E+01
 0.23453399500E+01 0.25717714673E+01 0.30555538553E+01 0.35399300844E+01 0.42009856943E+01
 0.50571190632E+01 0.61167603928E+01 0.73722096230E+01 0.87973842895E+01 0.10350758366E+02
 0.11984602115E+02 0.13658673670E+02 0.15353949468E+02 0.17082150762E+02 0.18887100446E+02
 0.20833348329E+02 0.22980005643E+02 0.25344384471E+02 0.27865373864E+02 0.30377979259E+02
 0.32612717248E+02 0.34235425125E+02 0.34931189500E+02 0.34505981987E+02 0.32955449832E+02
 0.30463489761E+02 0.27338663604E+02 0.23931046300E+02 0.20565528156E+02 0.17498402947E+02
 0.14890201247E+02 0.12796008034E+02 0.11180033551E+02 0.99500626231E+01 0.89950506586E+01
 0.82122669047E+01 0.75221644220E+01 0.68740912255E+01 0.62440362440E+01 0.56266051804E+01
 0.50270417593E+01 0.44571595184E+01 0.39328260354E+01 0.34700001791E+01 0.30818398094E+01
 0.27804666648E+01 0.25804462145E+01 0.24977546261E+01 0.25447043043E+01 0.27282936491E+01
 0.32070469642E+01 0.36608591724E+01 0.43268513307E+01 0.52298261943E+01 0.63844184862E+01
 0.77887896304E+01 0.94216546164E+01 0.11242638283E+02 0.13196195840E+02 0.15219622829E+02
 0.17255632393E+02 0.19268378607E+02 0.21257576126E+02 0.23261784409E+02 0.25344384471E+02
 0.27563238256E+02 0.29930321869E+02 0.32369550595E+02 0.34682358122E+02 0.36561416187E+02
 0.37671014945E+02 0.37739759771E+02 0.36652778117E+02 0.34497225390E+02 0.31541307036E+02
 0.28149737220E+02 0.24677354240E+02 0.21417081083E+02 0.18569389631E+02 0.16229834564E+02
 0.14395272582E+02 0.12988778967E+02 0.11895008121E+02 0.10993476026E+02 0.10181874264E+02
 0.93880971554E+01 0.85728448634E+01 0.77260430185E+01 0.68609320052E+01 0.60076383196E+01
 0.52049375388E+01 0.44898202079E+01 0.38889536644E+01 0.34169806829E+01 0.30810094914E+01
 0.28857567514E+01 0.28360957210E+01 0.29390099336E+01 0.33949267574E+01 0.37733408937E+01
 0.43953540329E+01 0.52945245079E+01 0.64938391116E+01 0.79990371724E+01 0.97963644437E+01
 0.11852781842E+02 0.14115126247E+02 0.16509073851E+02 0.18944804210E+02 0.21334799936E+02
 0.23619011438E+02 0.25784054105E+02 0.27865373864E+02 0.29930321869E+02 0.32043726172E+02
 0.34188570955E+02 0.36248152959E+02 0.38038495375E+02 0.39305097752E+02 0.39773500842E+02
 0.39244114603E+02 0.37676611408E+02 0.35213943352E+02 0.32143171016E+02 0.28830849494E+02
 0.25633843874E+02 0.22778531124E+02 0.20383818674E+02 0.18473235892E+02 0.16988054577E+02
 0.15817347216E+02 0.14834940211E+02 0.13926103063E+02 0.12999467100E+02 0.11993607875E+02
 0.10884650248E+02 0.96892847977E+01 0.84562383296E+01 0.72497611848E+01 0.61347521695E+01
 0.51671789831E+01 0.43865622656E+01 0.38099590616E+01 0.34329675112E+01 0.32411003167E+01
 0.32257793075E+01 0.36446948465E+01 0.39045398700E+01 0.44307951921E+01 0.52663757394E+01
 0.64450849386E+01 0.79825223661E+01 0.98750001011E+01 0.12100943219E+02 0.14617759399E+02
 0.17353306386E+02 0.20200887176E+02 0.23030017981E+02 0.25715601192E+02 0.28172658552E+02
 0.30377979259E+02 0.32369550595E+02 0.34188570955E+02 0.35800553154E+02 0.37207437622E+02
 0.38416321472E+02 0.39364703347E+02 0.39894887908E+02 0.39810054861E+02 0.38974683639E+02
 0.37385441520E+02 0.35173251161E+02 0.32561810303E+02 0.29830060201E+02 0.27285959026E+02
 0.25130188744E+02 0.23387814696E+02 0.22007467746E+02 0.20890429244E+02 0.19918431816E+02
 0.18974378714E+02 0.17953243260E+02 0.16772745900E+02 0.15389764864E+02 0.13813847957E+02
 0.12105366971E+02 0.10358188697E+02 0.86779745815E+01 0.71642048621E+01 0.58951209254E+01
 0.49144759754E+01 0.42261477107E+01 0.38040707064E+01 0.36154634993E+01 0.39899115477E+01
 0.40857055850E+01 0.44674265520E+01 0.51788582183E+01 0.62644654987E+01 0.77524204580E+01
 0.96513913170E+01 0.11953218363E+02 0.14630718837E+02 0.17625976297E+02 0.20835077699E+02
 0.24104937997E+02 0.27256038808E+02 0.30126409817E+02 0.32612717248E+02 0.34682358122E+02
 0.36248152958E+02 0.37207437621E+02 0.37630143598E+02 0.37724587918E+02 0.37712776663E+02
 0.37703130060E+02 0.37650931542E+02 0.37423466045E+02 0.36900696093E+02 0.36031275626E+02
 0.34829869888E+02 0.33362756256E+02 0.31759176800E+02 0.30229166439E+02 0.28971611765E+02
 0.27968567371E+02 0.27134242080E+02 0.26361429703E+02 0.25529563724E+02 0.24517365520E+02
 0.23220428335E+02 0.21573723268E+02 0.19574300787E+02 0.17292342808E+02 0.14859656823E+02
 0.12437786858E+02 0.10181810030E+02 0.82154736386E+01 0.66197142620E+01 0.54275214442E+01
 0.46242936421E+01 0.41620517123E+01 0.44895093129E+01 0.43553808395E+01 0.45437997251E+01
 0.50770097534E+01 0.60003265765E+01 0.73542914995E+01 0.91620291151E+01 0.11429877990E+02
 0.14147723606E+02 0.17278469159E+02 0.20737137503E+02 0.24373554699E+02 0.27979634474E+02
 0.31329838008E+02 0.34235425125E+02 0.36561416186E+02 0.38038495373E+02 0.38416321469E+02
 0.37724587916E+02 0.36301988899E+02 0.34676266639E+02 0.33347626895E+02 0.32608370716E+02
 0.32502645059E+02 0.32907128092E+02 0.33626256699E+02 0.34432673842E+02 0.35084488155E+02
 0.35386115478E+02 0.35290962947E+02 0.34962807281E+02 0.34670665563E+02 0.34440839840E+02
 0.34178172812E+02 0.33747864646E+02 0.32987499850E+02 0.31739590966E+02 0.29895606840E+02
 0.27438684364E+02 0.24465356572E+02 0.21169263477E+02 0.17790375996E+02 0.14557055712E+02
 0.11650282584E+02 0.91955400873E+01 0.72643102098E+01 0.58706341749E+01 0.49715240489E+01
 0.52449611674E+01 0.47721842938E+01 0.47031827905E+01 0.50091833722E+01 0.57127184321E+01
 0.68572537955E+01 0.84798752932E+01 0.10602272063E+02 0.13231068933E+02 0.16351036630E+02
 0.19904608776E+02 0.23766034014E+02 0.27730627565E+02 0.31538858156E+02 0.34931189500E+02
 0.37671014944E+02 0.39305097749E+02 0.39364703342E+02 0.37712776658E+02 0.34676266636E+02
 0.31003180597E+02 0.27618821784E+02 0.25305709307E+02 0.24497262120E+02 0.25263022782E+02
 0.27394389323E+02 0.30469305134E+02 0.33896875502E+02 0.37035956493E+02 0.39412378093E+02
 0.40916096416E+02 0.41824681092E+02 0.42568025606E+02 0.43226066537E+02 0.43651450432E+02
 0.43600168684E+02 0.42787219754E+02 0.40983745964E+02 0.38116863042E+02 0.34319157681E+02
 0.29896194864E+02 0.25231035778E+02 0.20681691459E+02 0.16520243058E+02 0.12923676826E+02
 0.99917217173E+01 0.77608682562E+01 0.62056853900E+01 0.63995241970E+01 0.54275386289E+01
 0.50018909085E+01 0.50231649901E+01 0.54612535359E+01 0.63401349720E+01 0.77011169199E+01
 0.95792120236E+01 0.11997595031E+02 0.14961993014E+02 0.18442990913E+02 0.22349639414E+02
 0.26507252725E+02 0.30659148285E+02 0.34505981987E+02 0.37739759770E+02 0.39773500838E+02
 0.39894887900E+02 0.37703130051E+02 0.33347626887E+02 0.27618821780E+02 0.21770699564E+02
 0.17120089708E+02 0.14654448168E+02 0.14853100534E+02 0.17704060081E+02 0.22756216380E+02
 0.29153153842E+02 0.35771405329E+02 0.41554950663E+02 0.45912564196E+02 0.48909798108E+02
 0.51114443046E+02 0.53130051070E+02 0.54975037438E+02 0.56306995627E+02 0.56624685933E+02
 0.55437713084E+02 0.52476265882E+02 0.47836164748E+02 0.41968793388E+02 0.35519876758E+02
 0.29117704338E+02 0.23224925876E+02 0.18102666026E+02 0.13859137179E+02 0.10518166340E+02
 0.80557919920E+01 0.81136774586E+01 0.64425522401E+01 0.55171333371E+01 0.51700898141E+01
 0.52984033508E+01 0.58763620376E+01 0.69260441744E+01 0.84859569992E+01 0.10595344247E+02
 0.13280840692E+02 0.16537244833E+02 0.20307407846E+02 0.24461283558E+02 0.28777907853E+02
 0.32955449832E+02 0.36652778117E+02 0.39244114599E+02 0.39810054853E+02 0.37650931531E+02
 0.32608370705E+02 0.25305709299E+02 0.17120089704E+02 0.97988844048E+01 0.49208608632E+01
 0.35252025748E+01 0.60135159431E+01 0.12152895891E+02 0.21044965131E+02 0.31199534889E+02
 0.40926375967E+02 0.48963549372E+02 0.54946897973E+02 0.59389752338E+02 0.63211827200E+02
 0.67009185217E+02 0.70485240450E+02 0.72883160329E+02 0.73301149444E+02 0.71042277541E+02
 0.65946939086E+02 0.58518208499E+02 0.49747342455E+02 0.40741128107E+02 0.32371384911E+02
 0.25117058200E+02 0.19119043573E+02 0.14341468963E+02 0.10703508784E+02 0.10529331579E+02
 0.79437903319E+01 0.63430295709E+01 0.55114572930E+01 0.52714448342E+01 0.55228001830E+01
 0.62384442282E+01 0.74407461904E+01 0.91776631078E+01 0.11494746508E+02 0.14407522915E+02
 0.17887594312E+02 0.21851706755E+02 0.26133802564E+02 0.30463489761E+02 0.34497225390E+02
 0.37676611405E+02 0.38974683631E+02 0.37423466033E+02 0.32502645046E+02 0.24497262109E+02
 0.14654448160E+02 0.49208608599E+01 -.26459654766E+01 -.64180535166E+01 -.54407505202E+01
 0.49621806943E+00 0.10741490105E+02 0.23716262750E+02 0.37237574390E+02 0.49302530738E+02
 0.58896465332E+02 0.66258354144E+02 0.72448953498E+02 0.78554481328E+02 0.84774143292E+02
 0.90197158475E+02 0.93451166215E+02 0.93201231770E+02 0.88708216331E+02 0.80221514391E+02
 0.68955103459E+02 0.56625510317E+02 0.44815657726E+02 0.34522933514E+02 0.26086314476E+02
 0.19417695465E+02 0.14296827218E+02 0.13741657946E+02 0.10029812297E+02 0.75717298630E+01
 0.61179891938E+01 0.54272308535E+01 0.53175255281E+01 0.56926406309E+01 0.65341847509E+01
 0.78772978979E+01 0.97760382406E+01 0.12266761318E+02 0.15348679232E+02 0.18978103774E+02
 0.23045720273E+02 0.27338663604E+02 0.31541307036E+02 0.35213943350E+02 0.37385441513E+02
 0.36900696082E+02 0.32907128078E+02 0.25263022770E+02 0.14853100525E+02 0.35252025692E+01
 -.64180535188E+01 -.12859777308E+02 -.14273874038E+02 -.98871138646E+01 0.14270965602E+00
 0.14507365028E+02 0.30867037009E+02 0.46607921419E+02 0.59933913281E+02 0.70549646462E+02
 0.79458141993E+02 0.88074817416E+02 0.97217754735E+02 0.10623329640E+03 0.11338514058E+03
 0.11664251329E+03 0.11441223434E+03 0.10625095154E+03 0.93186827494E+02 0.77394724346E+02
 0.61355812840E+02 0.46980321217E+02 0.35170483454E+02 0.25956343243E+02 0.18950436866E+02
 0.17785958360E+02 0.12744879603E+02 0.92664904323E+01 0.70531719254E+01 0.58102879166E+01
 0.52860674675E+01 0.53146924993E+01 0.58167469469E+01 0.67830807114E+01 0.82556025683E+01
 0.10290622375E+02 0.12917042276E+02 0.16120106364E+02 0.19837710947E+02 0.23931046300E+02
 0.28149737220E+02 0.32143171016E+02 0.35173251157E+02 0.36031275617E+02 0.33626256687E+02
 0.27394389310E+02 0.17704060071E+02 0.60135159363E+01 -.54407505237E+01 -.14273874040E+02
 -.18489885304E+02 -.16745268026E+02 -.85611412157E+01 0.53397846842E+01 0.22880556991E+02
 0.41166242682E+02 0.57680711237E+02 0.71392320532E+02 0.82965929988E+02 0.93980022119E+02
 0.10574435995E+03 0.11824322413E+03 0.12971996363E+03 0.13760368995E+03 0.13941150824E+03
 0.13360236126E+03 0.12048761018E+03 0.10222372924E+03 0.81992318312E+02 0.62853636290E+02
 0.46734094858E+02 0.34168708425E+02 0.24747124514E+02 0.22626934831E+02 0.16064056262E+02
 0.11435965472E+02 0.83472781461E+01 0.64515099395E+01 0.54478854403E+01 0.51131978427E+01
 0.52988283311E+01 0.59278025387E+01 0.70063928224E+01 0.85988394122E+01 0.10759713680E+02
 0.13496442838E+02 0.16785285664E+02 0.20565528156E+02 0.24677354241E+02 0.28830849494E+02
 0.32561810302E+02 0.34829869883E+02 0.34432673833E+02 0.30469305124E+02 0.22756216370E+02
 0.12152895885E+02 0.49621806591E+00 -.98871138658E+01 -.16745268026E+02 -.18250584150E+02
 -.13256886286E+02 -.17161144437E+01 0.14928606236E+02 0.33951807276E+02 0.52409679538E+02
 0.68498481674E+02 0.82255822889E+02 0.95134071719E+02 0.10880679205E+03 0.12394042551E+03
 0.13925484358E+03 0.15202114316E+03 0.15918652206E+03 0.15785958715E+03 0.14695689748E+03
 0.12820159662E+03 0.10511671064E+03 0.81544110541E+02 0.60699415545E+02 0.44104392356E+02
 0.31693199078E+02 0.28124818995E+02 0.19879973742E+02 0.14015655631E+02 0.99761467290E+01
 0.73536391154E+01 0.58138453471E+01 0.50877284014E+01 0.49635177972E+01 0.52963318985E+01
 0.60413504206E+01 0.72444074908E+01 0.89692560878E+01 0.11245302964E+02 0.14085841230E+02
 0.17498402947E+02 0.21417081083E+02 0.25633843874E+02 0.29830060201E+02 0.33362756253E+02
 0.35084488149E+02 0.33896875494E+02 0.29153153834E+02 0.21044965126E+02 0.10741490102E+02
 0.14270965600E+00 -.85611412146E+01 -.13256886285E+02 -.12224522549E+02 -.46094302098E+01
 0.90282138168E+01 0.26589898487E+02 0.45164633626E+02 0.62364656213E+02 0.77428862121E+02
 0.91337038406E+02 0.10587797436E+03 0.12229348279E+03 0.14008729531E+03 0.15680187558E+03
 0.16931026188E+03 0.17386277578E+03 0.16768872393E+03 0.15103455027E+03 0.12730742881E+03
 0.10097626792E+03 0.76060479207E+02 0.55350198021E+02 0.39593836582E+02 0.33966122669E+02
 0.23981568671E+02 0.16859224842E+02 0.11853901377E+02 0.84806121691E+01 0.63744545448E+01
 0.52284064627E+01 0.47847028918E+01 0.48504620880E+01 0.53272722273E+01 0.62145306093E+01
 0.75623899090E+01 0.94224504409E+01 0.11845887567E+02 0.14890201247E+02 0.18569389631E+02
 0.22778531124E+02 0.27285959026E+02 0.31759176799E+02 0.35386115476E+02 0.37035956489E+02
 0.35771405325E+02 0.31199534886E+02 0.23716262750E+02 0.14507365031E+02 0.53397846877E+01
 -.17161144403E+01 -.46094302075E+01 -.17926749935E+01 0.71513201514E+01 0.21098896095E+02
 0.37668331328E+02 0.54281031919E+02 0.69443765691E+02 0.83399622928E+02 0.97681250476E+02
 0.11386726954E+03 0.13226413474E+03 0.15106235626E+03 0.16736599928E+03 0.17747248710E+03
 0.17747822285E+03 0.16573755391E+03 0.14429298889E+03 0.11776367303E+03 0.90679818915E+02
 0.66762289718E+02 0.47882070548E+02 0.39594047118E+02 0.28031280838E+02 0.19740722708E+02
 0.13837385842E+02 0.97528602946E+01 0.70884252830E+01 0.55109016984E+01 0.47386813908E+01
 0.45530246887E+01 0.48095170728E+01 0.54501755111E+01 0.64959049774E+01 0.80125405932E+01
 0.10082307281E+02 0.12796008034E+02 0.16229834564E+02 0.20383818674E+02 0.25130188744E+02
 0.30229166439E+02 0.35290962947E+02 0.39412378091E+02 0.41554950662E+02 0.40926375967E+02
 0.37237574393E+02 0.30867037014E+02 0.22880556997E+02 0.14928606243E+02 0.90282138226E+01
 0.71513201548E+01 0.10589403554E+02 0.19329879944E+02 0.31911542229E+02 0.46066751895E+02
 0.59902619359E+02 0.72881588579E+02 0.85924064105E+02 0.10056547621E+03 0.11770698879E+03
 0.13645259379E+03 0.15426878818E+03 0.16798513158E+03 0.17365362188E+03 0.16827438618E+03
 0.15197682660E+03 0.12823786416E+03 0.10170238300E+03 0.76501040310E+02 0.55529540970E+02
 0.44223188599E+02 0.31568333086E+02 0.22368967659E+02 0.15736794007E+02 0.11049208896E+02
 0.78810747832E+01 0.58937441557E+01 0.48026347408E+01 0.43759512234E+01 0.44360544584E+01
 0.48794011323E+01 0.56959627166E+01 0.69501134442E+01 0.87399214058E+01 0.11180033551E+02
 0.14395272582E+02 0.18473235892E+02 0.23387814696E+02 0.28971611765E+02 0.34962807281E+02
 0.40916096416E+02 0.45912564196E+02 0.48963549374E+02 0.49302530743E+02 0.46607921427E+02
 0.41166242692E+02 0.33951807286E+02 0.26589898497E+02 0.21098896102E+02 0.19329879949E+02
 0.22252248555E+02 0.29498639074E+02 0.39561217294E+02 0.50635824945E+02 0.61630738524E+02
 0.72696652731E+02 0.84936471606E+02 0.99473413451E+02 0.11622903246E+03 0.13346835153E+03
 0.14835438138E+03 0.15763261975E+03 0.15804889674E+03 0.14821852730E+03 0.12980441096E+03
 0.10654446615E+03 0.82521028984E+02 0.61194919720E+02 0.47010014905E+02 0.34072303495E+02
 0.24419096887E+02 0.17334047939E+02 0.12218932881E+02 0.86537337243E+01 0.63194540603E+01
 0.49450776916E+01 0.42936557904E+01 0.41694705274E+01 0.44453630234E+01 0.50878716486E+01
 0.61470941427E+01 0.77232843532E+01 0.99500626231E+01 0.12988778967E+02 0.16988054577E+02
 0.22007467746E+02 0.27968567371E+02 0.34670665563E+02 0.41824681092E+02 0.48909798108E+02
 0.54946897974E+02 0.58896465337E+02 0.59933913289E+02 0.57680711248E+02 0.52409679551E+02
 0.45164633639E+02 0.37668331340E+02 0.31911542237E+02 0.29498639078E+02 0.31054032807E+02
 0.36050797496E+02 0.43216236447E+02 0.51319233900E+02 0.59881088564E+02 0.69363589041E+02
 0.80693787738E+02 0.94237499195E+02 0.10910536779E+03 0.12325692768E+03 0.13388324434E+03
 0.13818698058E+03 0.13422100714E+03 0.12207274944E+03 0.10397262702E+03 0.83356776243E+02
 0.63644966644E+02 0.47346524689E+02 0.35095189142E+02 0.25588530397E+02 0.18415185344E+02
 0.13106252074E+02 0.92992674294E+01 0.67184761339E+01 0.51203171187E+01 0.42749532783E+01
 0.39840199284E+01 0.41130497158E+01 0.46137072684E+01 0.55204723162E+01 0.69316518187E+01
 0.89950506586E+01 0.11895008121E+02 0.15817347216E+02 0.20890429244E+02 0.27134242080E+02
 0.34440839840E+02 0.42568025606E+02 0.51114443046E+02 0.59389752339E+02 0.66258354147E+02
 0.70549646468E+02 0.71392320541E+02 0.68498481687E+02 0.62364656227E+02 0.54281031932E+02
 0.46066751906E+02 0.39561217302E+02 0.36050797500E+02 0.35896427524E+02 0.38572266811E+02
 0.43124736770E+02 0.48807012081E+02 0.55505315788E+02 0.63676878663E+02 0.73685619400E+02
 0.85204997411E+02 0.97064305801E+02 0.10727749198E+03 0.11347032812E+03 0.11365128259E+03
 0.10706175252E+03 0.94647196865E+02 0.78772931011E+02 0.62264818316E+02 0.45121838121E+02
 0.34416574408E+02 0.25673235643E+02 0.18815221812E+02 0.13581519877E+02 0.97195689146E+01
 0.70177734435E+01 0.52740737877E+01 0.42825850347E+01 0.38555456977E+01 0.38584988899E+01
 0.42347252005E+01 0.50100385869E+01 0.62834104265E+01 0.82122669047E+01 0.10993476026E+02
 0.14834940211E+02 0.19918431816E+02 0.26361429703E+02 0.34178172812E+02 0.43226066537E+02
 0.53130051070E+02 0.63211827200E+02 0.72448953498E+02 0.79458141995E+02 0.82965929994E+02
 0.82255822898E+02 0.77428862132E+02 0.69443765703E+02 0.59902619370E+02 0.50635824953E+02
 0.43216236452E+02 0.38572266813E+02 0.36852913917E+02 0.37607475086E+02 0.40193190632E+02