   9   9   0   0
  0.1255774E+02  0.4913700E-09  0.4913700E-09  0.5405130E-09  0.5000000E-15
  1.000000000000000E-004
  CAR 
 unknown system                          
     13.63459637    -20.37612602  301      1.10731362      1.00000000
    -20.376  0.0000E+00  0.0000E+00
    -20.263  0.0000E+00  0.0000E+00
    -20.149  0.0000E+00  0.0000E+00
    -20.036  0.0000E+00  0.0000E+00
    -19.923  0.0000E+00  0.0000E+00
    -19.809  0.0000E+00  0.0000E+00
    -19.696  0.0000E+00  0.0000E+00
    -19.583  0.0000E+00  0.0000E+00
    -19.469  0.0000E+00  0.0000E+00
    -19.356  0.0000E+00  0.0000E+00
    -19.242  0.0000E+00  0.0000E+00
    -19.129  0.0000E+00  0.0000E+00
    -19.016  0.0000E+00  0.0000E+00
    -18.902  0.0000E+00  0.0000E+00
    -18.789  0.0000E+00  0.0000E+00
    -18.676  0.0000E+00  0.0000E+00
    -18.562  0.0000E+00  0.0000E+00
    -18.449  0.0000E+00  0.0000E+00
    -18.335  0.3742E-01  0.5070E-03
    -18.222  0.5374E+00  0.2759E-01
    -18.109  0.1620E+01  0.1444E+00
    -17.995  0.3284E+01  0.4168E+00
    -17.882  0.1906E+02  0.1040E+01
    -17.769  0.3167E+00  0.2015E+01
    -17.655  0.1033E+01  0.2087E+01
    -17.542  0.2160E+01  0.2265E+01
    -17.429  0.3699E+01  0.2593E+01
    -17.315  0.3037E+01  0.3519E+01
    -17.202  0.1761E+01  0.3788E+01
    -17.088  0.8301E+00  0.3931E+01
    -16.975  0.2452E+00  0.3989E+01
    -16.862  0.1034E+02  0.4456E+01
    -16.748  0.3236E+01  0.5407E+01
    -16.635  0.2039E+01  0.5704E+01
    -16.522  0.1116E+01  0.5880E+01
    -16.408  0.4697E+00  0.5967E+01
    -16.295  0.9870E-01  0.5997E+01
    -16.181  0.9421E+02  0.1084E+02
    -16.068  0.0000E+00  0.1200E+02
    -15.955  0.0000E+00  0.1200E+02
    -15.841  0.0000E+00  0.1200E+02
    -15.728  0.0000E+00  0.1200E+02
    -15.615  0.0000E+00  0.1200E+02
    -15.501  0.0000E+00  0.1200E+02
    -15.388  0.0000E+00  0.1200E+02
    -15.275  0.0000E+00  0.1200E+02
    -15.161  0.0000E+00  0.1200E+02
    -15.048  0.0000E+00  0.1200E+02
    -14.934  0.0000E+00  0.1200E+02
    -14.821  0.0000E+00  0.1200E+02
    -14.708  0.0000E+00  0.1200E+02
    -14.594  0.0000E+00  0.1200E+02
    -14.481  0.0000E+00  0.1200E+02
    -14.368  0.0000E+00  0.1200E+02
    -14.254  0.0000E+00  0.1200E+02
    -14.141  0.0000E+00  0.1200E+02
    -14.027  0.0000E+00  0.1200E+02
    -13.914  0.0000E+00  0.1200E+02
    -13.801  0.0000E+00  0.1200E+02
    -13.687  0.0000E+00  0.1200E+02
    -13.574  0.0000E+00  0.1200E+02
    -13.461  0.0000E+00  0.1200E+02
    -13.347  0.0000E+00  0.1200E+02
    -13.234  0.0000E+00  0.1200E+02
    -13.121  0.0000E+00  0.1200E+02
    -13.007  0.0000E+00  0.1200E+02
    -12.894  0.0000E+00  0.1200E+02
    -12.780  0.0000E+00  0.1200E+02
    -12.667  0.0000E+00  0.1200E+02
    -12.554  0.0000E+00  0.1200E+02
    -12.440  0.0000E+00  0.1200E+02
    -12.327  0.0000E+00  0.1200E+02
    -12.214  0.0000E+00  0.1200E+02
    -12.100  0.0000E+00  0.1200E+02
    -11.987  0.0000E+00  0.1200E+02
    -11.873  0.0000E+00  0.1200E+02
    -11.760  0.0000E+00  0.1200E+02
    -11.647  0.0000E+00  0.1200E+02
    -11.533  0.0000E+00  0.1200E+02
    -11.420  0.0000E+00  0.1200E+02
    -11.307  0.0000E+00  0.1200E+02
    -11.193  0.0000E+00  0.1200E+02
    -11.080  0.0000E+00  0.1200E+02
    -10.966  0.0000E+00  0.1200E+02
    -10.853  0.0000E+00  0.1200E+02
    -10.740  0.0000E+00  0.1200E+02
    -10.626  0.0000E+00  0.1200E+02
    -10.513  0.0000E+00  0.1200E+02
    -10.400  0.0000E+00  0.1200E+02
    -10.286  0.0000E+00  0.1200E+02
    -10.173  0.0000E+00  0.1200E+02
    -10.060  0.0000E+00  0.1200E+02
     -9.946  0.0000E+00  0.1200E+02
     -9.833  0.0000E+00  0.1200E+02
     -9.719  0.0000E+00  0.1200E+02
     -9.606  0.0000E+00  0.1200E+02
     -9.493  0.0000E+00  0.1200E+02
     -9.379  0.0000E+00  0.1200E+02
     -9.266  0.0000E+00  0.1200E+02
     -9.153  0.0000E+00  0.1200E+02
     -9.039  0.0000E+00  0.1200E+02
     -8.926  0.0000E+00  0.1200E+02
     -8.812  0.0000E+00  0.1200E+02
     -8.699  0.0000E+00  0.1200E+02
     -8.586  0.0000E+00  0.1200E+02
     -8.472  0.0000E+00  0.1200E+02
     -8.359  0.0000E+00  0.1200E+02
     -8.246  0.4217E-02  0.1200E+02
     -8.132  0.6207E-01  0.1200E+02
     -8.019  0.1878E+00  0.1202E+02
     -7.906  0.3813E+00  0.1205E+02
     -7.792  0.6428E+00  0.1211E+02
     -7.679  0.9720E+00  0.1220E+02
     -7.565  0.1369E+01  0.1233E+02
     -7.452  0.1834E+01  0.1251E+02
     -7.339  0.2367E+01  0.1275E+02
     -7.225  0.9201E+01  0.1363E+02
     -7.112  0.1430E-01  0.1400E+02
     -6.999  0.9716E-01  0.1401E+02
     -6.885  0.2539E+00  0.1403E+02
     -6.772  0.4844E+00  0.1407E+02
     -6.658  0.7888E+00  0.1414E+02
     -6.545  0.1167E+01  0.1425E+02
     -6.432  0.1619E+01  0.1441E+02
     -6.318  0.6426E+01  0.1462E+02
     -6.205  0.6247E+01  0.1533E+02
     -6.092  0.1546E+01  0.1553E+02
     -5.978  0.1184E+01  0.1569E+02
     -5.865  0.8702E+00  0.1580E+02
     -5.752  0.6046E+00  0.1589E+02
     -5.638  0.3872E+00  0.1594E+02
     -5.525  0.2181E+00  0.1598E+02
     -5.411  0.9718E-01  0.1599E+02
     -5.298  0.1982E+01  0.1604E+02
     -5.185  0.3611E+01  0.1639E+02
     -5.071  0.3527E+01  0.1680E+02
     -4.958  0.3429E+01  0.1719E+02
     -4.845  0.3317E+01  0.1757E+02
     -4.731  0.1475E+01  0.1781E+02
     -4.618  0.7413E+00  0.1793E+02
     -4.504  0.8075E+00  0.1799E+02
     -4.391  0.8671E+01  0.1844E+02
     -4.278  0.1445E+02  0.2049E+02
     -4.164  0.5824E+01  0.2130E+02
     -4.051  0.3992E+01  0.2186E+02
     -3.938  0.1907E+01  0.2216E+02
     -3.824  0.5517E+01  0.2256E+02
     -3.711  0.6096E+01  0.2324E+02
     -3.598  0.4564E+01  0.2386E+02
     -3.484  0.0000E+00  0.2400E+02
     -3.371  0.0000E+00  0.2400E+02
     -3.257  0.0000E+00  0.2400E+02
     -3.144  0.0000E+00  0.2400E+02
     -3.031  0.0000E+00  0.2400E+02
     -2.917  0.0000E+00  0.2400E+02
     -2.804  0.0000E+00  0.2400E+02
     -2.691  0.0000E+00  0.2400E+02
     -2.577  0.0000E+00  0.2400E+02
     -2.464  0.0000E+00  0.2400E+02
     -2.350  0.0000E+00  0.2400E+02
     -2.237  0.0000E+00  0.2400E+02
     -2.124  0.4187E+01  0.2402E+02
     -2.010  0.1682E+02  0.2528E+02
     -1.897  0.1192E+02  0.2679E+02
     -1.784  0.4242E+01  0.2779E+02
     -1.670  0.2129E+00  0.2800E+02
     -1.557  0.9402E+01  0.2858E+02
     -1.443  0.7168E+01  0.2956E+02
     -1.330  0.3133E+00  0.3000E+02
     -1.217  0.8085E+01  0.3029E+02
     -1.103  0.8055E+01  0.3120E+02
     -0.990  0.1331E+02  0.3288E+02
     -0.877  0.3173E+01  0.3351E+02
     -0.763  0.1809E+01  0.3379E+02
     -0.650  0.1082E+02  0.3428E+02
     -0.537  0.1509E+02  0.3586E+02
     -0.423  0.5600E+01  0.3710E+02
     -0.310  0.4897E+01  0.3769E+02
     -0.196  0.4126E+01  0.3821E+02
     -0.083  0.5354E+01  0.3865E+02
      0.030  0.9423E+01  0.4016E+02
      0.144  0.1070E+02  0.4158E+02
      0.257  0.0000E+00  0.4200E+02
      0.370  0.5082E+01  0.4328E+02
      0.484  0.2497E+01  0.4366E+02
      0.597  0.5931E+01  0.4422E+02
      0.711  0.7234E+01  0.4497E+02
      0.824  0.9194E+01  0.4586E+02
      0.937  0.1242E+02  0.4681E+02
      1.051  0.4028E+01  0.4798E+02
      1.164  0.0000E+00  0.4800E+02
      1.277  0.0000E+00  0.4800E+02
      1.391  0.0000E+00  0.4800E+02
      1.504  0.0000E+00  0.4800E+02
      1.617  0.0000E+00  0.4800E+02
      1.731  0.0000E+00  0.4800E+02
      1.844  0.0000E+00  0.4800E+02
      1.958  0.0000E+00  0.4800E+02
      2.071  0.0000E+00  0.4800E+02
      2.184  0.0000E+00  0.4800E+02
      2.298  0.0000E+00  0.4800E+02
      2.411  0.0000E+00  0.4800E+02
      2.524  0.0000E+00  0.4800E+02
      2.638  0.0000E+00  0.4800E+02
      2.751  0.0000E+00  0.4800E+02
      2.865  0.0000E+00  0.4800E+02
      2.978  0.0000E+00  0.4800E+02
      3.091  0.0000E+00  0.4800E+02
      3.205  0.0000E+00  0.4800E+02
      3.318  0.0000E+00  0.4800E+02
      3.431  0.0000E+00  0.4800E+02
      3.545  0.0000E+00  0.4800E+02
      3.658  0.0000E+00  0.4800E+02
      3.771  0.0000E+00  0.4800E+02
      3.885  0.0000E+00  0.4800E+02
      3.998  0.0000E+00  0.4800E+02
      4.112  0.0000E+00  0.4800E+02
      4.225  0.0000E+00  0.4800E+02
      4.338  0.0000E+00  0.4800E+02
      4.452  0.0000E+00  0.4800E+02
      4.565  0.0000E+00  0.4800E+02
      4.678  0.0000E+00  0.4800E+02
      4.792  0.0000E+00  0.4800E+02
      4.905  0.0000E+00  0.4800E+02
      5.019  0.0000E+00  0.4800E+02
      5.132  0.0000E+00  0.4800E+02
      5.245  0.0000E+00  0.4800E+02
      5.359  0.0000E+00  0.4800E+02
      5.472  0.0000E+00  0.4800E+02
      5.585  0.0000E+00  0.4800E+02
      5.699  0.0000E+00  0.4800E+02
      5.812  0.0000E+00  0.4800E+02
      5.925  0.0000E+00  0.4800E+02
      6.039  0.0000E+00  0.4800E+02
      6.152  0.0000E+00  0.4800E+02
      6.266  0.0000E+00  0.4800E+02
      6.379  0.0000E+00  0.4800E+02
      6.492  0.0000E+00  0.4800E+02
      6.606  0.0000E+00  0.4800E+02
      6.719  0.0000E+00  0.4800E+02
      6.832  0.0000E+00  0.4800E+02
      6.946  0.0000E+00  0.4800E+02
      7.059  0.0000E+00  0.4800E+02
      7.173  0.6820E-03  0.4800E+02
      7.286  0.6063E-02  0.4800E+02
      7.399  0.1680E-01  0.4800E+02
      7.513  0.3289E-01  0.4800E+02
      7.626  0.5434E-01  0.4801E+02
      7.739  0.8115E-01  0.4802E+02
      7.853  0.1133E+00  0.4803E+02
      7.966  0.1508E+00  0.4804E+02
      8.080  0.1937E+00  0.4806E+02
      8.193  0.2419E+00  0.4809E+02
      8.306  0.2955E+00  0.4812E+02
      8.420  0.3545E+00  0.4815E+02
      8.533  0.4188E+00  0.4820E+02
      8.646  0.4884E+00  0.4825E+02
      8.760  0.5634E+00  0.4831E+02
      8.873  0.6438E+00  0.4838E+02
      8.986  0.7295E+00  0.4846E+02
      9.100  0.8242E+00  0.4854E+02
      9.213  0.1039E+01  0.4865E+02
      9.327  0.1427E+01  0.4878E+02
      9.440  0.2383E+01  0.4901E+02
      9.553  0.2399E+01  0.4928E+02
      9.667  0.2400E+01  0.4956E+02
      9.780  0.2386E+01  0.4983E+02
      9.893  0.2355E+01  0.5010E+02
     10.007  0.2308E+01  0.5036E+02
     10.120  0.2972E+01  0.5060E+02
     10.234  0.4161E+01  0.5101E+02
     10.347  0.4720E+01  0.5152E+02
     10.460  0.4495E+01  0.5205E+02
     10.574  0.2938E+01  0.5244E+02
     10.687  0.4248E+01  0.5285E+02
     10.800  0.1263E+02  0.5352E+02
     10.914  0.2192E+02  0.5567E+02
     11.027  0.1252E+01  0.5610E+02
     11.140  0.2144E+01  0.5629E+02
     11.254  0.2989E+01  0.5658E+02
     11.367  0.4594E+01  0.5697E+02
     11.481  0.4215E+01  0.5753E+02
     11.594  0.2534E+01  0.5791E+02
     11.707  0.0000E+00  0.5800E+02
     11.821  0.0000E+00  0.5800E+02
     11.934  0.0000E+00  0.5800E+02
     12.047  0.0000E+00  0.5800E+02
     12.161  0.0000E+00  0.5800E+02
     12.274  0.0000E+00  0.5800E+02
     12.388  0.0000E+00  0.5800E+02
     12.501  0.0000E+00  0.5800E+02
     12.614  0.0000E+00  0.5800E+02
     12.728  0.0000E+00  0.5800E+02
     12.841  0.0000E+00  0.5800E+02
     12.954  0.0000E+00  0.5800E+02
     13.068  0.0000E+00  0.5800E+02
     13.181  0.0000E+00  0.5800E+02
     13.294  0.0000E+00  0.5800E+02
     13.408  0.0000E+00  0.5800E+02
     13.521  0.0000E+00  0.5800E+02
     13.635  0.0000E+00  0.5800E+02
