Automatically generated mesh
       6
Reciprocal lattice
    0.00000000000000    0.00000000000000    0.00000000000000             1
    0.50000000000000    0.00000000000000    0.00000000000000             2
    0.50000000000000    0.50000000000000    0.00000000000000             1
    0.00000000000000    0.00000000000000    0.50000000000000             1
    0.50000000000000    0.00000000000000    0.50000000000000             2
    0.50000000000000    0.50000000000000    0.50000000000000             1
Tetrahedra
        12    0.02083333333333
         4         2         2         3         5
         4         1         2         2         5
         4         1         2         4         5
         4         2         3         5         6
         4         2         5         5         6
         4         2         4         5         5
         4         1         2         3         6
         4         1         2         5         6
         4         1         4         5         6
         4         1         2         3         4
         4         2         3         4         5
         4         3         4         5         6
