       N       E                     dE             d eps       ncg     rms          rms(c)
DAV:   1     0.278851148801E+03    0.27885E+03   -0.22593E+04   348   0.125E+03
DAV:   2    -0.629432856983E+02   -0.34179E+03   -0.33520E+03   450   0.317E+02
DAV:   3    -0.803174687339E+02   -0.17374E+02   -0.17331E+02   408   0.827E+01
DAV:   4    -0.805438997440E+02   -0.22643E+00   -0.22584E+00   416   0.100E+01
DAV:   5    -0.805484111960E+02   -0.45115E-02   -0.45099E-02   388   0.139E+00    0.184E+01
RMM:   6    -0.711482874935E+02    0.94001E+01   -0.39838E+01   370   0.330E+01    0.516E+00
RMM:   7    -0.711251701705E+02    0.23117E-01   -0.17549E+00   400   0.604E+00    0.339E+00
RMM:   8    -0.711406586839E+02   -0.15489E-01   -0.26742E-01   389   0.402E+00    0.638E-01
RMM:   9    -0.711323523725E+02    0.83063E-02   -0.51279E-02   407   0.119E+00    0.138E-01
RMM:  10    -0.711358136571E+02   -0.34613E-02   -0.20832E-02   401   0.743E-01    0.249E-01
RMM:  11    -0.711342691670E+02    0.15445E-02   -0.30659E-03   406   0.318E-01    0.770E-02
RMM:  12    -0.711341822649E+02    0.86902E-04   -0.10134E-03   405   0.166E-01    0.455E-03
RMM:  13    -0.711341874640E+02   -0.51991E-05   -0.32930E-05   308   0.320E-02
   1 F= -.71134187E+02 E0= -.71134187E+02  d E =0.000000E+00
