<?xml version="1.0" encoding="ISO-8859-1"?>
<modeling>
 <generator>
  <i name="program" type="string">vasp </i>
  <i name="version" type="string">5.4.1  </i>
  <i name="subversion" type="string">05Feb16 (build Mar 02 2016 14:09:44) complex                          parallel </i>
  <i name="platform" type="string">Abel-impi-ifc-cuda </i>
  <i name="date" type="string">2019 09 13 </i>
  <i name="time" type="string">12:00:46 </i>
 </generator>
 <incar>
  <i type="string" name="PREC">normal    ! low/normal/accurate</i>
  <i type="string" name="ALGO"> Fast      ! Algorithm for electronic re</i>
  <i type="int" name="ISPIN">     1</i>
  <i type="int" name="NELMIN">     4</i>
  <i name="EDIFF">      0.00001000</i>
  <i type="int" name="NSW">     0</i>
  <i name="ENCUT">    400.00000000</i>
  <i type="string" name="LREAL"> Auto      ! Projection in reciprocal sp</i>
  <i type="int" name="ISMEAR">    -5</i>
  <i name="SIGMA">      0.20000000</i>
  <i type="logical" name="LWAVE"> F  </i>
  <v type="int" name="KPOINT_BSE">    -1     0     0     0</v>
 </incar>
 <kpoints>
  <generation param="Gamma">
   <v type="int" name="divisions">       2        2        2 </v>
   <v name="usershift">      0.00000000       0.00000000       0.00000000 </v>
   <v name="genvec1">      0.50000000      -0.00000000       0.00000000 </v>
   <v name="genvec2">      0.00000000       0.50000000       0.00000000 </v>
   <v name="genvec3">      0.00000000       0.00000000       0.50000000 </v>
   <v name="shift">      0.00000000       0.00000000       0.00000000 </v>
  </generation>
  <varray name="kpointlist" >
   <v>       0.00000000       0.00000000       0.00000000 </v>
   <v>       0.50000000       0.00000000       0.00000000 </v>
   <v>       0.50000000       0.50000000       0.00000000 </v>
   <v>       0.00000000       0.00000000       0.50000000 </v>
   <v>       0.50000000       0.00000000       0.50000000 </v>
   <v>       0.50000000       0.50000000       0.50000000 </v>
  </varray>
  <varray name="weights" >
   <v>       0.12500000 </v>
   <v>       0.25000000 </v>
   <v>       0.12500000 </v>
   <v>       0.12500000 </v>
   <v>       0.25000000 </v>
   <v>       0.12500000 </v>
  </varray>
  <varray name="tetrahedronlist"  type="int" >
   <v type="int" >        4        2        2        3        5 </v>
   <v type="int" >        4        1        2        2        5 </v>
   <v type="int" >        4        1        2        4        5 </v>
   <v type="int" >        4        2        3        5        6 </v>
   <v type="int" >        4        2        5        5        6 </v>
   <v type="int" >        4        2        4        5        5 </v>
   <v type="int" >        4        1        2        3        6 </v>
   <v type="int" >        4        1        2        5        6 </v>
   <v type="int" >        4        1        4        5        6 </v>
   <v type="int" >        4        1        2        3        4 </v>
   <v type="int" >        4        2        3        4        5 </v>
   <v type="int" >        4        3        4        5        6 </v>
  </varray>
  <i name="volumeweight">      0.02083333 </i>
 </kpoints>
 <parameters>
  <separator name="general" >
   <i type="string" name="SYSTEM">unknown system</i>
   <i type="logical" name="LCOMPAT"> F  </i>
  </separator>
  <separator name="electronic" >
   <i type="string" name="PREC">normal</i>
   <i name="ENMAX">    400.00000000</i>
   <i name="ENAUG">    605.39200000</i>
   <i name="EDIFF">      0.00001000</i>
   <i type="int" name="IALGO">    68</i>
   <i type="int" name="IWAVPR">    10</i>
   <i type="int" name="NBANDS">    29</i>
   <i name="NELECT">     48.00000000</i>
   <i type="int" name="TURBO">     0</i>
   <i type="int" name="IRESTART">     0</i>
   <i type="int" name="NREBOOT">     0</i>
   <i type="int" name="NMIN">     0</i>
   <i name="EREF">      0.00000000</i>
   <separator name="electronic smearing" >
    <i type="int" name="ISMEAR">    -5</i>
    <i name="SIGMA">      0.20000000</i>
    <i name="KSPACING">      0.50000000</i>
    <i type="logical" name="KGAMMA"> T  </i>
   </separator>
   <separator name="electronic projectors" >
    <i type="logical" name="LREAL"> T  </i>
    <v name="ROPT">     -0.00050000     -0.00050000</v>
    <i type="int" name="LMAXPAW">  -100</i>
    <i type="int" name="LMAXMIX">     2</i>
    <i type="logical" name="NLSPLINE"> F  </i>
   </separator>
   <separator name="electronic startup" >
    <i type="int" name="ISTART">     0</i>
    <i type="int" name="ICHARG">     2</i>
    <i type="int" name="INIWAV">     1</i>
   </separator>
   <separator name="electronic spin" >
    <i type="int" name="ISPIN">     1</i>
    <i type="logical" name="LNONCOLLINEAR"> F  </i>
    <v name="MAGMOM">      1.00000000      1.00000000      1.00000000      1.00000000      1.00000000      1.00000000      1.00000000      1.00000000      1.00000000</v>
    <i name="NUPDOWN">     -1.00000000</i>
    <i type="logical" name="LSORBIT"> F  </i>
    <v name="SAXIS">      0.00000000      0.00000000      1.00000000</v>
    <i type="logical" name="LSPIRAL"> F  </i>
    <v name="QSPIRAL">      0.00000000      0.00000000      0.00000000</v>
    <i type="logical" name="LZEROZ"> F  </i>
   </separator>
   <separator name="electronic exchange-correlation" >
    <i type="logical" name="LASPH"> F  </i>
    <i type="logical" name="LMETAGGA"> F  </i>
   </separator>
   <separator name="electronic convergence" >
    <i type="int" name="NELM">    60</i>
    <i type="int" name="NELMDL">    -5</i>
    <i type="int" name="NELMIN">     4</i>
    <i name="ENINI">    400.00000000</i>
    <separator name="electronic convergence detail" >
     <i type="logical" name="LDIAG"> T  </i>
     <i type="logical" name="LSUBROT"> F  </i>
     <i name="WEIMIN">      0.00000000</i>
     <i name="EBREAK">      0.00000009</i>
     <i name="DEPER">      0.30000000</i>
     <i type="int" name="NRMM">     4</i>
     <i name="TIME">      0.40000000</i>
    </separator>
   </separator>
   <separator name="electronic mixer" >
    <i name="AMIX">      0.40000000</i>
    <i name="BMIX">      1.00000000</i>
    <i name="AMIN">      0.10000000</i>
    <i name="AMIX_MAG">      1.60000000</i>
    <i name="BMIX_MAG">      1.00000000</i>
    <separator name="electronic mixer details" >
     <i type="int" name="IMIX">     4</i>
     <i type="logical" name="MIXFIRST"> F  </i>
     <i type="int" name="MAXMIX">   -45</i>
     <i name="WC">    100.00000000</i>
     <i type="int" name="INIMIX">     1</i>
     <i type="int" name="MIXPRE">     1</i>
     <i type="int" name="MREMOVE">     5</i>
    </separator>
   </separator>
   <separator name="electronic dipolcorrection" >
    <i type="logical" name="LDIPOL"> F  </i>
    <i type="logical" name="LMONO"> F  </i>
    <i type="int" name="IDIPOL">     0</i>
    <i name="EPSILON">      1.00000000</i>
    <v name="DIPOL">   -100.00000000   -100.00000000   -100.00000000</v>
    <i name="EFIELD">      0.00000000</i>
   </separator>
  </separator>
  <separator name="grids" >
   <i type="int" name="NGX">    24</i>
   <i type="int" name="NGY">    24</i>
   <i type="int" name="NGZ">    28</i>
   <i type="int" name="NGXF">    48</i>
   <i type="int" name="NGYF">    48</i>
   <i type="int" name="NGZF">    56</i>
   <i type="logical" name="ADDGRID"> F  </i>
  </separator>
  <separator name="ionic" >
   <i type="int" name="NSW">     0</i>
   <i type="int" name="IBRION">    -1</i>
   <i type="int" name="ISIF">     2</i>
   <i name="PSTRESS">      0.00000000</i>
   <i name="EDIFFG">      0.00010000</i>
   <i type="int" name="NFREE">     0</i>
   <i name="POTIM">      0.50000000</i>
   <i name="SMASS">     -3.00000000</i>
   <i name="SCALEE">      1.00000000</i>
  </separator>
  <separator name="ionic md" >
   <i name="TEBEG">      0.00010000</i>
   <i name="TEEND">      0.00010000</i>
   <i type="int" name="NBLOCK">     1</i>
   <i type="int" name="KBLOCK">     1</i>
   <i type="int" name="NPACO">   256</i>
   <i name="APACO">     16.00000000</i>
  </separator>
  <separator name="symmetry" >
   <i type="int" name="ISYM">     2</i>
   <i name="SYMPREC">      0.00001000</i>
  </separator>
  <separator name="dos" >
   <i type="logical" name="LORBIT"> F  </i>
   <v name="RWIGS">     -1.00000000     -1.00000000</v>
   <i type="int" name="NEDOS">   301</i>
   <i name="EMIN">     10.00000000</i>
   <i name="EMAX">    -10.00000000</i>
   <i name="EFERMI">      0.00000000</i>
  </separator>
  <separator name="writing" >
   <i type="int" name="NWRITE">     2</i>
   <i type="logical" name="LWAVE"> F  </i>
   <i type="logical" name="LCHARG"> T  </i>
   <i type="logical" name="LPARD"> F  </i>
   <i type="logical" name="LVTOT"> F  </i>
   <i type="logical" name="LVHAR"> F  </i>
   <i type="logical" name="LELF"> F  </i>
   <i type="logical" name="LOPTICS"> F  </i>
   <v name="STM">      0.00000000      0.00000000      0.00000000      0.00000000      0.00000000      0.00000000      0.00000000</v>
  </separator>
  <separator name="performance" >
   <i type="int" name="NPAR">     1</i>
   <i type="int" name="NSIM">     4</i>
   <i type="int" name="NBLK">    -1</i>
   <i type="logical" name="LPLANE"> T  </i>
   <i type="logical" name="LSCALAPACK"> F  </i>
   <i type="logical" name="LSCAAWARE"> F  </i>
   <i type="logical" name="LSCALU"> F  </i>
   <i type="logical" name="LASYNC"> F  </i>
   <i type="logical" name="LORBITALREAL"> F  </i>
  </separator>
  <separator name="miscellaneous" >
   <i type="int" name="IDIOT">     3</i>
   <i type="logical" name="LMUSIC"> F  </i>
   <v name="POMASS">     28.08500000     16.00000000</v>
   <v name="DARWINR">      0.00000000      0.00000000</v>
   <v name="DARWINV">      1.00000000      1.00000000</v>
   <i type="logical" name="LCORR"> T  </i>
  </separator>
  <i type="logical" name="GGA_COMPAT"> T  </i>
  <i type="logical" name="LBERRY"> F  </i>
  <i type="int" name="ICORELEVEL">     0</i>
  <i type="logical" name="LDAU"> F  </i>
  <i type="int" name="I_CONSTRAINED_M">     0</i>
  <separator name="electronic exchange-correlation" >
   <i type="string" name="GGA">--</i>
   <i type="int" name="VOSKOWN">     0</i>
   <i type="logical" name="LHFCALC"> F  </i>
   <i type="string" name="PRECFOCK"></i>
   <i type="logical" name="LSYMGRAD"> F  </i>
   <i type="logical" name="LHFONE"> F  </i>
   <i type="logical" name="LRHFCALC"> F  </i>
   <i type="logical" name="LTHOMAS"> F  </i>
   <i type="logical" name="LMODELHF"> F  </i>
   <i name="ENCUT4O">     -1.00000000</i>
   <i type="int" name="EXXOEP">     0</i>
   <i type="int" name="FOURORBIT">     0</i>
   <i name="AEXX">      0.00000000</i>
   <i name="HFALPHA">      0.00000000</i>
   <i name="MCALPHA">      0.00000000</i>
   <i name="ALDAX">      1.00000000</i>
   <i name="AGGAX">      1.00000000</i>
   <i name="ALDAC">      1.00000000</i>
   <i name="AGGAC">      1.00000000</i>
   <i type="int" name="NKREDX">     1</i>
   <i type="int" name="NKREDY">     1</i>
   <i type="int" name="NKREDZ">     1</i>
   <i type="logical" name="SHIFTRED"> F  </i>
   <i type="logical" name="ODDONLY"> F  </i>
   <i type="logical" name="EVENONLY"> F  </i>
   <i type="int" name="LMAXFOCK">     0</i>
   <i type="int" name="NMAXFOCKAE">     0</i>
   <i type="logical" name="LFOCKAEDFT"> F  </i>
   <i name="HFSCREEN">      0.00000000</i>
   <i name="HFSCREENC">      0.00000000</i>
   <i type="int" name="NBANDSGWLOW">     0</i>
  </separator>
  <separator name="vdW DFT" >
   <i type="logical" name="LUSE_VDW"> F  </i>
   <i name="Zab_VDW">     -0.84910000</i>
   <i name="PARAM1">      0.12340000</i>
   <i name="PARAM2">      1.00000000</i>
   <i name="PARAM3">      0.00000000</i>
  </separator>
  <separator name="model GW" >
   <i type="int" name="MODEL_GW">     0</i>
   <i name="MODEL_EPS0">      7.53464495</i>
   <i name="MODEL_ALPHA">      1.00000000</i>
  </separator>
  <separator name="linear response parameters" >
   <i type="logical" name="LEPSILON"> F  </i>
   <i type="logical" name="LRPA"> F  </i>
   <i type="logical" name="LNABLA"> F  </i>
   <i type="logical" name="LVEL"> F  </i>
   <i type="int" name="KINTER">     0</i>
   <i name="CSHIFT">      0.10000000</i>
   <i name="OMEGAMAX">     -1.00000000</i>
   <i name="DEG_THRESHOLD">      0.00200000</i>
  </separator>
  <separator name="orbital magnetization" >
   <i type="logical" name="NUCIND"> F  </i>
   <v name="MAGPOS">      0.00000000      0.00000000      0.00000000</v>
   <i type="logical" name="LNICSALL"> T  </i>
   <i type="logical" name="ORBITALMAG"> F  </i>
   <i type="logical" name="LMAGBLOCH"> F  </i>
   <i type="logical" name="LCHIMAG"> F  </i>
   <i type="logical" name="LGAUGE"> T  </i>
   <i type="int" name="MAGATOM">     0</i>
   <v name="MAGDIPOL">      0.00000000      0.00000000      0.00000000</v>
   <v name="AVECCONST">      0.00000000      0.00000000      0.00000000</v>
  </separator>
  <separator name="response functions" >
   <i type="logical" name="LADDER"> F  </i>
   <i type="logical" name="LFXC"> F  </i>
   <i type="logical" name="LHARTREE"> T  </i>
   <i type="int" name="IBSE">     0</i>
   <v type="int" name="KPOINT">    -1     0     0     0</v>
   <i type="logical" name="LTCTE"> F  </i>
   <i type="logical" name="LTETE"> F  </i>
   <i type="logical" name="LTRIPLET"> F  </i>
   <i type="logical" name="LFXCEPS"> F  </i>
   <i type="logical" name="LFXHEG"> F  </i>
   <i type="int" name="NATURALO">     0</i>
   <i type="logical" name="L2ORDER"> F  </i>
   <i type="logical" name="LUSEW"> F  </i>
   <i name="ENCUTGW">     -2.00000000</i>
   <i name="ENCUTGWSOFT">     -2.00000000</i>
   <i name="ENCUTLF">     -1.00000000</i>
   <i type="int" name="LMAXMP2">    -1</i>
   <i name="SCISSOR">      0.00000000</i>
   <i type="int" name="NOMEGA">     0</i>
   <i type="int" name="NOMEGAR">     0</i>
   <i type="int" name="NBANDSGW">    -1</i>
   <i type="int" name="NBANDSO">    -1</i>
   <i type="int" name="NBANDSV">    -1</i>
   <i type="int" name="NELM">     1</i>
   <i type="int" name="NELMHF">     1</i>
   <i type="int" name="DIM">     3</i>
   <i type="int" name="ANTIRES">     0</i>
   <i name="OMEGAMAX">    -30.00000000</i>
   <i name="OMEGAMIN">    -30.00000000</i>
   <i name="OMEGATL">   -200.00000000</i>
   <i type="int" name="OMEGAGRID">     0</i>
   <i name="CSHIFT">     -0.10000000</i>
   <i type="logical" name="SELFENERGY"> F  </i>
   <i type="logical" name="LSPECTRAL"> F  </i>
   <i type="logical" name="LSPECTRALGW"> F  </i>
   <i type="logical" name="LSINGLES"> F  </i>
   <i type="logical" name="LFERMIGW"> F  </i>
   <i type="logical" name="ODDONLYGW"> F  </i>
   <i type="logical" name="EVENONLYGW"> F  </i>
   <i type="int" name="NKREDLFX">     1</i>
   <i type="int" name="NKREDLFY">     1</i>
   <i type="int" name="NKREDLFZ">     1</i>
   <i type="int" name="MAXMEM">  1800</i>
   <i type="int" name="TELESCOPE">     0</i>
   <i type="int" name="TAUPAR">     1</i>
   <i type="int" name="OMEGAPAR">    -1</i>
   <i name="LAMBDA">      1.00000000</i>
  </separator>
  <separator name="External order field" >
   <i name="OFIELD_KAPPA">      0.00000000</i>
   <v name="OFIELD_K">      0.00000000      0.00000000      0.00000000</v>
   <i name="OFIELD_Q6_NEAR">      0.00000000</i>
   <i name="OFIELD_Q6_FAR">      0.00000000</i>
   <i name="OFIELD_A">      0.00000000</i>
  </separator>
 </parameters>
 <atominfo>
  <atoms>       9 </atoms>
  <types>       2 </types>
  <array name="atoms" >
   <dimension dim="1">ion</dimension>
   <field type="string">element</field>
   <field type="int">atomtype</field>
   <set>
    <rc><c>Si</c><c>   1</c></rc>
    <rc><c>Si</c><c>   1</c></rc>
    <rc><c>Si</c><c>   1</c></rc>
    <rc><c>O </c><c>   2</c></rc>
    <rc><c>O </c><c>   2</c></rc>
    <rc><c>O </c><c>   2</c></rc>
    <rc><c>O </c><c>   2</c></rc>
    <rc><c>O </c><c>   2</c></rc>
    <rc><c>O </c><c>   2</c></rc>
   </set>
  </array>
  <array name="atomtypes" >
   <dimension dim="1">type</dimension>
   <field type="int">atomspertype</field>
   <field type="string">element</field>
   <field>mass</field>
   <field>valence</field>
   <field type="string">pseudopotential</field>
   <set>
    <rc><c>   3</c><c>Si</c><c>     28.08500000</c><c>      4.00000000</c><c> PAW_PBE Si 05Jan2001                   </c></rc>
    <rc><c>   6</c><c>O </c><c>     16.00000000</c><c>      6.00000000</c><c> PAW_PBE O 08Apr2002                    </c></rc>
   </set>
  </array>
 </atominfo>
 <structure name="initialpos" >
  <crystal>
   <varray name="basis" >
    <v>       4.91370000       0.00000000       0.00000000 </v>
    <v>      -2.45685000       4.25538903       0.00000000 </v>
    <v>       0.00000000       0.00000000       5.40513000 </v>
   </varray>
   <i name="volume">    113.01967420 </i>
   <varray name="rec_basis" >
    <v>       0.20351263       0.11749807       0.00000000 </v>
    <v>       0.00000000       0.23499614       0.00000000 </v>
    <v>       0.00000000       0.00000000       0.18500943 </v>
   </varray>
  </crystal>
  <varray name="positions" >
   <v>       0.46980000       0.00000000       0.66667000 </v>
   <v>       0.00000000       0.46980000       0.33333000 </v>
   <v>       0.53020000       0.53020000       0.00000000 </v>
   <v>       0.41450000       0.26620000       0.78560000 </v>
   <v>       0.73380000       0.14830000       0.45227000 </v>
   <v>       0.85170000       0.58550000       0.11893000 </v>
   <v>       0.14830000       0.73380000       0.54773000 </v>
   <v>       0.26620000       0.41450000       0.21440000 </v>
   <v>       0.58550000       0.85170000       0.88107000 </v>
  </varray>
 </structure>
 <calculation>
  <scstep>
   <time name="dav">    0.47    0.47</time>
   <time name="total">    0.55    0.62</time>
   <energy>
    <i name="alphaZ">     69.72802778 </i>
    <i name="ewald">  -1887.20590689 </i>
    <i name="hartreedc">   -937.14514242 </i>
    <i name="XCdc">    142.01294050 </i>
    <i name="pawpsdc">   1574.92322788 </i>
    <i name="pawaedc">  -1533.24131965 </i>
    <i name="eentropy">      0.00000000 </i>
    <i name="bandstr">    -52.99709331 </i>
    <i name="atom">   2902.77641490 </i>
    <i name="e_fr_energy">    278.85114880 </i>
    <i name="e_wo_entrp">    278.85114880 </i>
    <i name="e_0_energy">    278.85114880 </i>
   </energy>
  </scstep>
  <scstep>
   <time name="dav">    0.57    0.57</time>
   <time name="total">    0.57    0.58</time>
   <energy>
    <i name="e_fr_energy">    -62.94328570 </i>
    <i name="e_wo_entrp">    -62.94328570 </i>
    <i name="e_0_energy">    -62.94328570 </i>
   </energy>
  </scstep>
  <scstep>
   <time name="dav">    0.53    0.53</time>
   <time name="total">    0.53    0.53</time>
   <energy>
    <i name="e_fr_energy">    -80.31746873 </i>
    <i name="e_wo_entrp">    -80.31746873 </i>
    <i name="e_0_energy">    -80.31746873 </i>
   </energy>
  </scstep>
  <scstep>
   <time name="dav">    0.53    0.53</time>
   <time name="total">    0.54    0.54</time>
   <energy>
    <i name="e_fr_energy">    -80.54389974 </i>
    <i name="e_wo_entrp">    -80.54389974 </i>
    <i name="e_0_energy">    -80.54389974 </i>
   </energy>
  </scstep>
  <scstep>
   <time name="dav">    0.50    0.50</time>
   <time name="total">    0.54    0.56</time>
   <energy>
    <i name="e_fr_energy">    -80.54841120 </i>
    <i name="e_wo_entrp">    -80.54841120 </i>
    <i name="e_0_energy">    -80.54841120 </i>
   </energy>
  </scstep>
  <scstep>
   <time name="diag">    0.08    0.08</time>
   <time name="diis">    0.32    0.32</time>
   <time name="orth">    0.01    0.01</time>
   <time name="total">    0.54    0.56</time>
   <energy>
    <i name="e_fr_energy">    -71.14828749 </i>
    <i name="e_wo_entrp">    -71.14828749 </i>
    <i name="e_0_energy">    -71.14828749 </i>
   </energy>
  </scstep>
  <scstep>
   <time name="diag">    0.08    0.08</time>
   <time name="diis">    0.35    0.35</time>
   <time name="orth">    0.01    0.01</time>
   <time name="total">    0.56    0.62</time>
   <energy>
    <i name="e_fr_energy">    -71.12517017 </i>
    <i name="e_wo_entrp">    -71.12517017 </i>
    <i name="e_0_energy">    -71.12517017 </i>
   </energy>
  </scstep>
  <scstep>
   <time name="diag">    0.08    0.08</time>
   <time name="diis">    0.34    0.34</time>
   <time name="orth">    0.01    0.01</time>
   <time name="total">    0.55    0.56</time>
   <energy>
    <i name="e_fr_energy">    -71.14065868 </i>
    <i name="e_wo_entrp">    -71.14065868 </i>
    <i name="e_0_energy">    -71.14065868 </i>
   </energy>
  </scstep>
  <scstep>
   <time name="diag">    0.08    0.08</time>
   <time name="diis">    0.36    0.36</time>
   <time name="orth">    0.01    0.01</time>
   <time name="total">    0.57    0.58</time>
   <energy>
    <i name="e_fr_energy">    -71.13235237 </i>
    <i name="e_wo_entrp">    -71.13235237 </i>
    <i name="e_0_energy">    -71.13235237 </i>
   </energy>
  </scstep>
  <scstep>
   <time name="diag">    0.08    0.08</time>
   <time name="diis">    0.35    0.35</time>
   <time name="orth">    0.01    0.01</time>
   <time name="total">    0.57    0.57</time>
   <energy>
    <i name="e_fr_energy">    -71.13581366 </i>
    <i name="e_wo_entrp">    -71.13581366 </i>
    <i name="e_0_energy">    -71.13581366 </i>
   </energy>
  </scstep>
  <scstep>
   <time name="diag">    0.08    0.08</time>
   <time name="diis">    0.35    0.36</time>
   <time name="orth">    0.01    0.01</time>
   <time name="total">    0.57    0.58</time>
   <energy>
    <i name="e_fr_energy">    -71.13426917 </i>
    <i name="e_wo_entrp">    -71.13426917 </i>
    <i name="e_0_energy">    -71.13426917 </i>
   </energy>
  </scstep>
  <scstep>
   <time name="diag">    0.08    0.08</time>
   <time name="diis">    0.35    0.35</time>
   <time name="orth">    0.01    0.01</time>
   <time name="total">    0.57    0.57</time>
   <energy>
    <i name="e_fr_energy">    -71.13418226 </i>
    <i name="e_wo_entrp">    -71.13418226 </i>
    <i name="e_0_energy">    -71.13418226 </i>
   </energy>
  </scstep>
  <scstep>
   <time name="diag">    0.08    0.09</time>
   <time name="diis">    0.28    0.28</time>
   <time name="orth">    0.01    0.01</time>
   <time name="total">    0.46    0.46</time>
   <energy>
    <i name="alphaZ">     69.72802778 </i>
    <i name="ewald">  -1887.20590689 </i>
    <i name="hartreedc">  -1070.79652523 </i>
    <i name="XCdc">    151.09640020 </i>
    <i name="pawpsdc">   2074.74184633 </i>
    <i name="pawaedc">  -2035.30650284 </i>
    <i name="eentropy">      0.00000000 </i>
    <i name="bandstr">   -276.16794172 </i>
    <i name="atom">   2902.77641490 </i>
    <i name="e_fr_energy">    -71.13418746 </i>
    <i name="e_wo_entrp">    -71.13418746 </i>
    <i name="e_0_energy">    -71.13418746 </i>
   </energy>
  </scstep>
  <structure>
   <crystal>
    <varray name="basis" >
     <v>       4.91370000       0.00000000       0.00000000 </v>
     <v>      -2.45685000       4.25538903       0.00000000 </v>
     <v>       0.00000000       0.00000000       5.40513000 </v>
    </varray>
    <i name="volume">    113.01967420 </i>
    <varray name="rec_basis" >
     <v>       0.20351263       0.11749807       0.00000000 </v>
     <v>       0.00000000       0.23499614       0.00000000 </v>
     <v>       0.00000000       0.00000000       0.18500943 </v>
    </varray>
   </crystal>
   <varray name="positions" >
    <v>       0.46980000       0.00000000       0.66667000 </v>
    <v>       0.00000000       0.46980000       0.33333000 </v>
    <v>       0.53020000       0.53020000       0.00000000 </v>
    <v>       0.41450000       0.26620000       0.78560000 </v>
    <v>       0.73380000       0.14830000       0.45227000 </v>
    <v>       0.85170000       0.58550000       0.11893000 </v>
    <v>       0.14830000       0.73380000       0.54773000 </v>
    <v>       0.26620000       0.41450000       0.21440000 </v>
    <v>       0.58550000       0.85170000       0.88107000 </v>
   </varray>
  </structure>
  <varray name="forces" >
   <v>       0.39655449      -0.00075969      -0.00711958 </v>
   <v>      -0.19893516       0.34304642       0.00711958 </v>
   <v>      -0.20711425      -0.35873240      -0.00000000 </v>
   <v>      -0.52635957       0.28646415       0.07047471 </v>
   <v>       0.02059876      -0.60093794       0.06831983 </v>
   <v>       0.51307765       0.32121320       0.07008230 </v>
   <v>      -0.53072690      -0.28262992      -0.06831983 </v>
   <v>       0.51126502      -0.31260869      -0.07047471 </v>
   <v>       0.02163997       0.60494488      -0.07008230 </v>
  </varray>
  <varray name="stress" >
   <v>      36.63822915      -0.68366119       0.22240250 </v>
   <v>      -0.68366119      35.84880526      -0.12840414 </v>
   <v>       0.22240249      -0.12840414      24.64867004 </v>
  </varray>
  <energy>
   <i name="e_fr_energy">    -71.13418746 </i>
   <i name="e_wo_entrp">    -71.13418746 </i>
   <i name="e_0_energy">      0.00000000 </i>
  </energy>
  <time name="totalsc">    8.17    8.64</time>
  <eigenvalues>
   <array>
    <dimension dim="1">band</dimension>
    <dimension dim="2">kpoint</dimension>
    <dimension dim="3">spin</dimension>
    <field>eigene</field>
    <field>occ</field>
    <set>
     <set comment="spin 1">
      <set comment="kpoint 1">
       <r>  -18.3761    1.0000 </r>
       <r>  -16.8401    1.0000 </r>
       <r>  -16.8397    1.0000 </r>
       <r>  -16.2058    1.0000 </r>
       <r>  -16.1580    1.0000 </r>
       <r>  -16.1576    1.0000 </r>
       <r>   -7.1828    1.0000 </r>
       <r>   -7.1825    1.0000 </r>
       <r>   -4.3416    1.0000 </r>
       <r>   -4.3362    1.0000 </r>
       <r>   -4.1835    1.0000 </r>
       <r>   -4.1835    1.0000 </r>
       <r>   -1.8630    1.0000 </r>
       <r>   -1.8627    1.0000 </r>
       <r>   -1.6247    1.0000 </r>
       <r>   -1.3645    1.0000 </r>
       <r>   -0.4138    1.0000 </r>
       <r>   -0.4126    1.0000 </r>
       <r>   -0.3962    1.0000 </r>
       <r>    0.1092    1.0000 </r>
       <r>    0.1095    1.0000 </r>
       <r>    0.4185    1.0000 </r>
       <r>    0.7592    1.0000 </r>
       <r>    0.7593    1.0000 </r>
       <r>    7.1154    0.0000 </r>
       <r>   10.4026    0.0000 </r>
       <r>   10.4031    0.0000 </r>
       <r>   10.9050    0.0000 </r>
       <r>   10.9054    0.0000 </r>
      </set>
      <set comment="kpoint 2">
       <r>  -17.8881    1.0000 </r>
       <r>  -17.4089    1.0000 </r>
       <r>  -16.7894    1.0000 </r>
       <r>  -16.2560    1.0000 </r>
       <r>  -16.2168    1.0000 </r>
       <r>  -16.1965    1.0000 </r>
       <r>   -7.3267    1.0000 </r>
       <r>   -6.3199    1.0000 </r>
       <r>   -4.8278    1.0000 </r>
       <r>   -4.3676    1.0000 </r>
       <r>   -4.3366    1.0000 </r>
       <r>   -3.5562    1.0000 </r>
       <r>   -1.9994    1.0000 </r>
       <r>   -1.8339    1.0000 </r>
       <r>   -1.6024    1.0000 </r>
       <r>   -1.2208    1.0000 </r>
       <r>   -1.0141    1.0000 </r>
       <r>   -0.6689    1.0000 </r>
       <r>   -0.6020    1.0000 </r>
       <r>   -0.0106    1.0000 </r>
       <r>    0.0543    1.0000 </r>
       <r>    0.2943    1.0000 </r>
       <r>    0.8321    1.0000 </r>
       <r>    1.0551    1.0000 </r>
       <r>    9.3763    0.0000 </r>
       <r>   10.1170    0.0000 </r>
       <r>   10.8462    0.0000 </r>
       <r>   10.8479    0.0000 </r>
       <r>   11.6346    0.0000 </r>
      </set>
      <set comment="kpoint 3">
       <r>  -17.8878    1.0000 </r>
       <r>  -17.4091    1.0000 </r>
       <r>  -16.7897    1.0000 </r>
       <r>  -16.2561    1.0000 </r>
       <r>  -16.2169    1.0000 </r>
       <r>  -16.1959    1.0000 </r>
       <r>   -7.3265    1.0000 </r>
       <r>   -6.3201    1.0000 </r>
       <r>   -4.8279    1.0000 </r>
       <r>   -4.3672    1.0000 </r>
       <r>   -4.3367    1.0000 </r>
       <r>   -3.5565    1.0000 </r>
       <r>   -1.9994    1.0000 </r>
       <r>   -1.8344    1.0000 </r>
       <r>   -1.6025    1.0000 </r>
       <r>   -1.2207    1.0000 </r>
       <r>   -1.0141    1.0000 </r>
       <r>   -0.6688    1.0000 </r>
       <r>   -0.6019    1.0000 </r>
       <r>   -0.0106    1.0000 </r>
       <r>    0.0544    1.0000 </r>
       <r>    0.2939    1.0000 </r>
       <r>    0.8322    1.0000 </r>
       <r>    1.0554    1.0000 </r>
       <r>    9.3763    0.0000 </r>
       <r>   10.1163    0.0000 </r>
       <r>   10.8461    0.0000 </r>
       <r>   10.8478    0.0000 </r>
       <r>   11.6304    0.0000 </r>
      </set>
      <set comment="kpoint 4">
       <r>  -17.9097    1.0000 </r>
       <r>  -17.9093    1.0000 </r>
       <r>  -16.1989    1.0000 </r>
       <r>  -16.1937    1.0000 </r>
       <r>  -16.1933    1.0000 </r>
       <r>  -16.1343    1.0000 </r>
       <r>   -8.2856    1.0000 </r>
       <r>   -5.1838    1.0000 </r>
       <r>   -5.1835    1.0000 </r>
       <r>   -4.5428    1.0000 </r>
       <r>   -4.5423    1.0000 </r>
       <r>   -3.6038    1.0000 </r>
       <r>   -1.6376    1.0000 </r>
       <r>   -1.6375    1.0000 </r>
       <r>   -1.5510    1.0000 </r>
       <r>   -0.9262    1.0000 </r>
       <r>   -0.9258    1.0000 </r>
       <r>   -0.7551    1.0000 </r>
       <r>   -0.7549    1.0000 </r>
       <r>   -0.4687    1.0000 </r>
       <r>   -0.1188    1.0000 </r>
       <r>    0.8873    1.0000 </r>
       <r>    0.8881    1.0000 </r>
       <r>    1.0019    1.0000 </r>
       <r>    9.0765    0.0000 </r>
       <r>    9.0767    0.0000 </r>
       <r>   10.1614    0.0000 </r>
       <r>   10.8479    0.0000 </r>
       <r>   10.8489    0.0000 </r>
      </set>
      <set comment="kpoint 5">
       <r>  -17.8175    1.0000 </r>
       <r>  -17.3751    1.0000 </r>
       <r>  -16.9249    1.0000 </r>
       <r>  -16.2824    1.0000 </r>
       <r>  -16.1999    1.0000 </r>
       <r>  -16.1816    1.0000 </r>
       <r>   -7.1812    1.0000 </r>
       <r>   -6.2037    1.0000 </r>
       <r>   -5.3266    1.0000 </r>
       <r>   -4.2632    1.0000 </r>
       <r>   -3.9831    1.0000 </r>
       <r>   -3.8698    1.0000 </r>
       <r>   -2.1280    1.0000 </r>
       <r>   -2.1122    1.0000 </r>
       <r>   -1.3517    1.0000 </r>
       <r>   -1.0300    1.0000 </r>
       <r>   -1.0231    1.0000 </r>
       <r>   -0.4786    1.0000 </r>
       <r>   -0.1802    1.0000 </r>
       <r>   -0.0693    1.0000 </r>
       <r>    0.2017    1.0000 </r>
       <r>    0.2658    1.0000 </r>
       <r>    0.4889    1.0000 </r>
       <r>    0.8914    1.0000 </r>
       <r>   10.0757    0.0000 </r>
       <r>   10.5217    0.0000 </r>
       <r>   10.7858    0.0000 </r>
       <r>   10.9347    0.0000 </r>
       <r>   11.3724    0.0000 </r>
      </set>
      <set comment="kpoint 6">
       <r>  -17.8172    1.0000 </r>
       <r>  -17.3754    1.0000 </r>
       <r>  -16.9252    1.0000 </r>
       <r>  -16.2825    1.0000 </r>
       <r>  -16.1999    1.0000 </r>
       <r>  -16.1811    1.0000 </r>
       <r>   -7.1810    1.0000 </r>
       <r>   -6.2039    1.0000 </r>
       <r>   -5.3270    1.0000 </r>
       <r>   -4.2629    1.0000 </r>
       <r>   -3.9832    1.0000 </r>
       <r>   -3.8698    1.0000 </r>
       <r>   -2.1281    1.0000 </r>
       <r>   -2.1123    1.0000 </r>
       <r>   -1.3513    1.0000 </r>
       <r>   -1.0300    1.0000 </r>
       <r>   -1.0228    1.0000 </r>
       <r>   -0.4792    1.0000 </r>
       <r>   -0.1808    1.0000 </r>
       <r>   -0.0693    1.0000 </r>
       <r>    0.2021    1.0000 </r>
       <r>    0.2659    1.0000 </r>
       <r>    0.4885    1.0000 </r>
       <r>    0.8918    1.0000 </r>
       <r>   10.0757    0.0000 </r>
       <r>   10.5221    0.0000 </r>
       <r>   10.7866    0.0000 </r>
       <r>   10.9393    0.0000 </r>
       <r>   11.3569    0.0000 </r>
      </set>
     </set>
    </set>
   </array>
  </eigenvalues>
  <separator name="orbital magnetization" >
   <v name="MAGDIPOLOUT">      0.00000000      0.00000000      0.00000000</v>
  </separator>
  <dos>
   <i name="efermi">      1.10731362 </i>
   <total>
    <array>
     <dimension dim="1">gridpoints</dimension>
     <dimension dim="2">spin</dimension>
     <field>energy</field>
     <field>total</field>
     <field>integrated</field>
     <set>
      <set comment="spin 1">
       <r>   -20.3761     0.0000     0.0000 </r>
       <r>   -20.2628     0.0000     0.0000 </r>
       <r>   -20.1494     0.0000     0.0000 </r>
       <r>   -20.0360     0.0000     0.0000 </r>
       <r>   -19.9226     0.0000     0.0000 </r>
       <r>   -19.8093     0.0000     0.0000 </r>
       <r>   -19.6959     0.0000     0.0000 </r>
       <r>   -19.5825     0.0000     0.0000 </r>
       <r>   -19.4692     0.0000     0.0000 </r>
       <r>   -19.3558     0.0000     0.0000 </r>
       <r>   -19.2424     0.0000     0.0000 </r>
       <r>   -19.1291     0.0000     0.0000 </r>
       <r>   -19.0157     0.0000     0.0000 </r>
       <r>   -18.9023     0.0000     0.0000 </r>
       <r>   -18.7890     0.0000     0.0000 </r>
       <r>   -18.6756     0.0000     0.0000 </r>
       <r>   -18.5622     0.0000     0.0000 </r>
       <r>   -18.4489     0.0000     0.0000 </r>
       <r>   -18.3355     0.0374     0.0005 </r>
       <r>   -18.2221     0.5374     0.0276 </r>
       <r>   -18.1087     1.6196     0.1444 </r>
       <r>   -17.9954     3.2843     0.4168 </r>
       <r>   -17.8820    19.0566     1.0400 </r>
       <r>   -17.7686     0.3167     2.0149 </r>
       <r>   -17.6553     1.0328     2.0875 </r>
       <r>   -17.5419     2.1601     2.2646 </r>
       <r>   -17.4285     3.6986     2.5928 </r>
       <r>   -17.3152     3.0374     3.5190 </r>
       <r>   -17.2018     1.7608     3.7877 </r>
       <r>   -17.0884     0.8301     3.9313 </r>
       <r>   -16.9751     0.2452     3.9890 </r>
       <r>   -16.8617    10.3366     4.4560 </r>
       <r>   -16.7483     3.2364     5.4073 </r>
       <r>   -16.6349     2.0386     5.7037 </r>
       <r>   -16.5216     1.1164     5.8799 </r>
       <r>   -16.4082     0.4697     5.9672 </r>
       <r>   -16.2948     0.0987     5.9968 </r>
       <r>   -16.1815    94.2116    10.8395 </r>
       <r>   -16.0681     0.0000    12.0000 </r>
       <r>   -15.9547     0.0000    12.0000 </r>
       <r>   -15.8414     0.0000    12.0000 </r>
       <r>   -15.7280     0.0000    12.0000 </r>
       <r>   -15.6146     0.0000    12.0000 </r>
       <r>   -15.5013     0.0000    12.0000 </r>
       <r>   -15.3879     0.0000    12.0000 </r>
       <r>   -15.2745     0.0000    12.0000 </r>
       <r>   -15.1611     0.0000    12.0000 </r>
       <r>   -15.0478     0.0000    12.0000 </r>
       <r>   -14.9344     0.0000    12.0000 </r>
       <r>   -14.8210     0.0000    12.0000 </r>
       <r>   -14.7077     0.0000    12.0000 </r>
       <r>   -14.5943     0.0000    12.0000 </r>
       <r>   -14.4809     0.0000    12.0000 </r>
       <r>   -14.3676     0.0000    12.0000 </r>
       <r>   -14.2542     0.0000    12.0000 </r>
       <r>   -14.1408     0.0000    12.0000 </r>
       <r>   -14.0275     0.0000    12.0000 </r>
       <r>   -13.9141     0.0000    12.0000 </r>
       <r>   -13.8007     0.0000    12.0000 </r>
       <r>   -13.6874     0.0000    12.0000 </r>
       <r>   -13.5740     0.0000    12.0000 </r>
       <r>   -13.4606     0.0000    12.0000 </r>
       <r>   -13.3472     0.0000    12.0000 </r>
       <r>   -13.2339     0.0000    12.0000 </r>
       <r>   -13.1205     0.0000    12.0000 </r>
       <r>   -13.0071     0.0000    12.0000 </r>
       <r>   -12.8938     0.0000    12.0000 </r>
       <r>   -12.7804     0.0000    12.0000 </r>
       <r>   -12.6670     0.0000    12.0000 </r>
       <r>   -12.5537     0.0000    12.0000 </r>
       <r>   -12.4403     0.0000    12.0000 </r>
       <r>   -12.3269     0.0000    12.0000 </r>
       <r>   -12.2136     0.0000    12.0000 </r>
       <r>   -12.1002     0.0000    12.0000 </r>
       <r>   -11.9868     0.0000    12.0000 </r>
       <r>   -11.8734     0.0000    12.0000 </r>
       <r>   -11.7601     0.0000    12.0000 </r>
       <r>   -11.6467     0.0000    12.0000 </r>
       <r>   -11.5333     0.0000    12.0000 </r>
       <r>   -11.4200     0.0000    12.0000 </r>
       <r>   -11.3066     0.0000    12.0000 </r>
       <r>   -11.1932     0.0000    12.0000 </r>
       <r>   -11.0799     0.0000    12.0000 </r>
       <r>   -10.9665     0.0000    12.0000 </r>
       <r>   -10.8531     0.0000    12.0000 </r>
       <r>   -10.7398     0.0000    12.0000 </r>
       <r>   -10.6264     0.0000    12.0000 </r>
       <r>   -10.5130     0.0000    12.0000 </r>
       <r>   -10.3996     0.0000    12.0000 </r>
       <r>   -10.2863     0.0000    12.0000 </r>
       <r>   -10.1729     0.0000    12.0000 </r>
       <r>   -10.0595     0.0000    12.0000 </r>
       <r>    -9.9462     0.0000    12.0000 </r>
       <r>    -9.8328     0.0000    12.0000 </r>
       <r>    -9.7194     0.0000    12.0000 </r>
       <r>    -9.6061     0.0000    12.0000 </r>
       <r>    -9.4927     0.0000    12.0000 </r>
       <r>    -9.3793     0.0000    12.0000 </r>
       <r>    -9.2660     0.0000    12.0000 </r>
       <r>    -9.1526     0.0000    12.0000 </r>
       <r>    -9.0392     0.0000    12.0000 </r>
       <r>    -8.9258     0.0000    12.0000 </r>
       <r>    -8.8125     0.0000    12.0000 </r>
       <r>    -8.6991     0.0000    12.0000 </r>
       <r>    -8.5857     0.0000    12.0000 </r>
       <r>    -8.4724     0.0000    12.0000 </r>
       <r>    -8.3590     0.0000    12.0000 </r>
       <r>    -8.2456     0.0042    12.0001 </r>
       <r>    -8.1323     0.0621    12.0032 </r>
       <r>    -8.0189     0.1878    12.0167 </r>
       <r>    -7.9055     0.3813    12.0483 </r>
       <r>    -7.7922     0.6428    12.1057 </r>
       <r>    -7.6788     0.9720    12.1966 </r>
       <r>    -7.5654     1.3692    12.3287 </r>
       <r>    -7.4521     1.8341    12.5096 </r>
       <r>    -7.3387     2.3670    12.7471 </r>
       <r>    -7.2253     9.2012    13.6303 </r>
       <r>    -7.1119     0.0143    14.0003 </r>
       <r>    -6.9986     0.0972    14.0060 </r>
       <r>    -6.8852     0.2539    14.0252 </r>
       <r>    -6.7718     0.4844    14.0663 </r>
       <r>    -6.6585     0.7888    14.1378 </r>
       <r>    -6.5451     1.1670    14.2479 </r>
       <r>    -6.4317     1.6190    14.4052 </r>
       <r>    -6.3184     6.4263    14.6247 </r>
       <r>    -6.2050     6.2470    15.3288 </r>
       <r>    -6.0916     1.5460    15.5322 </r>
       <r>    -5.9783     1.1840    15.6865 </r>
       <r>    -5.8649     0.8702    15.8024 </r>
       <r>    -5.7515     0.6046    15.8856 </r>
       <r>    -5.6381     0.3872    15.9414 </r>
       <r>    -5.5248     0.2181    15.9752 </r>
       <r>    -5.4114     0.0972    15.9926 </r>
       <r>    -5.2980     1.9821    16.0420 </r>
       <r>    -5.1847     3.6115    16.3907 </r>
       <r>    -5.0713     3.5268    16.7954 </r>
       <r>    -4.9579     3.4288    17.1898 </r>
       <r>    -4.8446     3.3174    17.5724 </r>
       <r>    -4.7312     1.4748    17.8085 </r>
       <r>    -4.6178     0.7413    17.9318 </r>
       <r>    -4.5045     0.8075    17.9930 </r>
       <r>    -4.3911     8.6712    18.4366 </r>
       <r>    -4.2777    14.4538    20.4900 </r>
       <r>    -4.1643     5.8238    21.2967 </r>
       <r>    -4.0510     3.9921    21.8573 </r>
       <r>    -3.9376     1.9072    22.1563 </r>
       <r>    -3.8242     5.5166    22.5586 </r>
       <r>    -3.7109     6.0959    23.2364 </r>
       <r>    -3.5975     4.5644    23.8622 </r>
       <r>    -3.4841     0.0000    24.0000 </r>
       <r>    -3.3708     0.0000    24.0000 </r>
       <r>    -3.2574     0.0000    24.0000 </r>
       <r>    -3.1440     0.0000    24.0000 </r>
       <r>    -3.0307     0.0000    24.0000 </r>
       <r>    -2.9173     0.0000    24.0000 </r>
       <r>    -2.8039     0.0000    24.0000 </r>
       <r>    -2.6906     0.0000    24.0000 </r>
       <r>    -2.5772     0.0000    24.0000 </r>
       <r>    -2.4638     0.0000    24.0000 </r>
       <r>    -2.3504     0.0000    24.0000 </r>
       <r>    -2.2371     0.0000    24.0000 </r>
       <r>    -2.1237     4.1869    24.0175 </r>
       <r>    -2.0103    16.8160    25.2839 </r>
       <r>    -1.8970    11.9231    26.7862 </r>
       <r>    -1.7836     4.2417    27.7934 </r>
       <r>    -1.6702     0.2129    27.9977 </r>
       <r>    -1.5569     9.4022    28.5752 </r>
       <r>    -1.4435     7.1682    29.5553 </r>
       <r>    -1.3301     0.3133    30.0036 </r>
       <r>    -1.2168     8.0846    30.2946 </r>
       <r>    -1.1034     8.0549    31.2048 </r>
       <r>    -0.9900    13.3109    32.8761 </r>
       <r>    -0.8766     3.1729    33.5104 </r>
       <r>    -0.7633     1.8090    33.7892 </r>
       <r>    -0.6499    10.8228    34.2844 </r>
       <r>    -0.5365    15.0917    35.8609 </r>
       <r>    -0.4232     5.5996    37.1019 </r>
       <r>    -0.3098     4.8967    37.6927 </r>
       <r>    -0.1964     4.1264    38.2058 </r>
       <r>    -0.0831     5.3536    38.6522 </r>
       <r>     0.0303     9.4227    40.1612 </r>
       <r>     0.1437    10.7031    41.5766 </r>
       <r>     0.2570     0.0000    42.0000 </r>
       <r>     0.3704     5.0821    43.2782 </r>
       <r>     0.4838     2.4974    43.6641 </r>
       <r>     0.5972     5.9307    44.2157 </r>
       <r>     0.7105     7.2339    44.9699 </r>
       <r>     0.8239     9.1944    45.8563 </r>
       <r>     0.9373    12.4238    46.8076 </r>
       <r>     1.0506     4.0282    47.9839 </r>
       <r>     1.1640     0.0000    48.0000 </r>
       <r>     1.2774     0.0000    48.0000 </r>
       <r>     1.3907     0.0000    48.0000 </r>
       <r>     1.5041     0.0000    48.0000 </r>
       <r>     1.6175     0.0000    48.0000 </r>
       <r>     1.7308     0.0000    48.0000 </r>
       <r>     1.8442     0.0000    48.0000 </r>
       <r>     1.9576     0.0000    48.0000 </r>
       <r>     2.0710     0.0000    48.0000 </r>
       <r>     2.1843     0.0000    48.0000 </r>
       <r>     2.2977     0.0000    48.0000 </r>
       <r>     2.4111     0.0000    48.0000 </r>
       <r>     2.5244     0.0000    48.0000 </r>
       <r>     2.6378     0.0000    48.0000 </r>
       <r>     2.7512     0.0000    48.0000 </r>
       <r>     2.8645     0.0000    48.0000 </r>
       <r>     2.9779     0.0000    48.0000 </r>
       <r>     3.0913     0.0000    48.0000 </r>
       <r>     3.2046     0.0000    48.0000 </r>
       <r>     3.3180     0.0000    48.0000 </r>
       <r>     3.4314     0.0000    48.0000 </r>
       <r>     3.5447     0.0000    48.0000 </r>
       <r>     3.6581     0.0000    48.0000 </r>
       <r>     3.7715     0.0000    48.0000 </r>
       <r>     3.8849     0.0000    48.0000 </r>
       <r>     3.9982     0.0000    48.0000 </r>
       <r>     4.1116     0.0000    48.0000 </r>
       <r>     4.2250     0.0000    48.0000 </r>
       <r>     4.3383     0.0000    48.0000 </r>
       <r>     4.4517     0.0000    48.0000 </r>
       <r>     4.5651     0.0000    48.0000 </r>
       <r>     4.6784     0.0000    48.0000 </r>
       <r>     4.7918     0.0000    48.0000 </r>
       <r>     4.9052     0.0000    48.0000 </r>
       <r>     5.0185     0.0000    48.0000 </r>
       <r>     5.1319     0.0000    48.0000 </r>
       <r>     5.2453     0.0000    48.0000 </r>
       <r>     5.3587     0.0000    48.0000 </r>
       <r>     5.4720     0.0000    48.0000 </r>
       <r>     5.5854     0.0000    48.0000 </r>
       <r>     5.6988     0.0000    48.0000 </r>
       <r>     5.8121     0.0000    48.0000 </r>
       <r>     5.9255     0.0000    48.0000 </r>
       <r>     6.0389     0.0000    48.0000 </r>
       <r>     6.1522     0.0000    48.0000 </r>
       <r>     6.2656     0.0000    48.0000 </r>
       <r>     6.3790     0.0000    48.0000 </r>
       <r>     6.4923     0.0000    48.0000 </r>
       <r>     6.6057     0.0000    48.0000 </r>
       <r>     6.7191     0.0000    48.0000 </r>
       <r>     6.8325     0.0000    48.0000 </r>
       <r>     6.9458     0.0000    48.0000 </r>
       <r>     7.0592     0.0000    48.0000 </r>
       <r>     7.1726     0.0007    48.0000 </r>
       <r>     7.2859     0.0061    48.0003 </r>
       <r>     7.3993     0.0168    48.0016 </r>
       <r>     7.5127     0.0329    48.0044 </r>
       <r>     7.6260     0.0543    48.0093 </r>
       <r>     7.7394     0.0812    48.0169 </r>
       <r>     7.8528     0.1133    48.0279 </r>
       <r>     7.9661     0.1508    48.0428 </r>
       <r>     8.0795     0.1937    48.0623 </r>
       <r>     8.1929     0.2419    48.0869 </r>
       <r>     8.3062     0.2955    48.1173 </r>
       <r>     8.4196     0.3545    48.1541 </r>
       <r>     8.5330     0.4188    48.1979 </r>
       <r>     8.6464     0.4884    48.2493 </r>
       <r>     8.7597     0.5634    48.3088 </r>
       <r>     8.8731     0.6438    48.3772 </r>
       <r>     8.9865     0.7295    48.4550 </r>
       <r>     9.0998     0.8242    48.5429 </r>
       <r>     9.2132     1.0390    48.6468 </r>
       <r>     9.3266     1.4268    48.7850 </r>
       <r>     9.4399     2.3827    49.0125 </r>
       <r>     9.5533     2.3994    49.2838 </r>
       <r>     9.6667     2.4004    49.5560 </r>
       <r>     9.7800     2.3855    49.8274 </r>
       <r>     9.8934     2.3548    50.0963 </r>
       <r>    10.0068     2.3084    50.3608 </r>
       <r>    10.1202     2.9718    50.5953 </r>
       <r>    10.2335     4.1613    51.0067 </r>
       <r>    10.3469     4.7197    51.5158 </r>
       <r>    10.4603     4.4947    52.0507 </r>
       <r>    10.5736     2.9380    52.4408 </r>
       <r>    10.6870     4.2481    52.8472 </r>
       <r>    10.8004    12.6315    53.5172 </r>
       <r>    10.9137    21.9208    55.6729 </r>
       <r>    11.0271     1.2519    56.0959 </r>
       <r>    11.1405     2.1442    56.2889 </r>
       <r>    11.2538     2.9889    56.5803 </r>
       <r>    11.3672     4.5936    56.9676 </r>
       <r>    11.4806     4.2148    57.5284 </r>
       <r>    11.5940     2.5338    57.9128 </r>
       <r>    11.7073     0.0000    58.0000 </r>
       <r>    11.8207     0.0000    58.0000 </r>
       <r>    11.9341     0.0000    58.0000 </r>
       <r>    12.0474     0.0000    58.0000 </r>
       <r>    12.1608     0.0000    58.0000 </r>
       <r>    12.2742     0.0000    58.0000 </r>
       <r>    12.3875     0.0000    58.0000 </r>
       <r>    12.5009     0.0000    58.0000 </r>
       <r>    12.6143     0.0000    58.0000 </r>
       <r>    12.7276     0.0000    58.0000 </r>
       <r>    12.8410     0.0000    58.0000 </r>
       <r>    12.9544     0.0000    58.0000 </r>
       <r>    13.0678     0.0000    58.0000 </r>
       <r>    13.1811     0.0000    58.0000 </r>
       <r>    13.2945     0.0000    58.0000 </r>
       <r>    13.4079     0.0000    58.0000 </r>
       <r>    13.5212     0.0000    58.0000 </r>
       <r>    13.6346     0.0000    58.0000 </r>
      </set>
     </set>
    </array>
   </total>
  </dos>
 </calculation>
 <structure name="finalpos" >
  <crystal>
   <varray name="basis" >
    <v>       4.91370000       0.00000000       0.00000000 </v>
    <v>      -2.45685000       4.25538903       0.00000000 </v>
    <v>       0.00000000       0.00000000       5.40513000 </v>
   </varray>
   <i name="volume">    113.01967420 </i>
   <varray name="rec_basis" >
    <v>       0.20351263       0.11749807       0.00000000 </v>
    <v>       0.00000000       0.23499614       0.00000000 </v>
    <v>       0.00000000       0.00000000       0.18500943 </v>
   </varray>
  </crystal>
  <varray name="positions" >
   <v>       0.46980000       0.00000000       0.66667000 </v>
   <v>       0.00000000       0.46980000       0.33333000 </v>
   <v>       0.53020000       0.53020000       0.00000000 </v>
   <v>       0.41450000       0.26620000       0.78560000 </v>
   <v>       0.73380000       0.14830000       0.45227000 </v>
   <v>       0.85170000       0.58550000       0.11893000 </v>
   <v>       0.14830000       0.73380000       0.54773000 </v>
   <v>       0.26620000       0.41450000       0.21440000 </v>
   <v>       0.58550000       0.85170000       0.88107000 </v>
  </varray>
 </structure>
</modeling>
