unknown system                          
   1.00000000000000     
     4.913700    0.000000    0.000000
    -2.456850    4.255389    0.000000
     0.000000    0.000000    5.405130
   Si   O 
     3     6
Direct
  0.469800  0.020000  0.666670
  0.000000  0.469800  0.333330
  0.530200  0.530200  0.000000
  0.414500  0.266200  0.785600
  0.733800  0.148300  0.452270
  0.851700  0.585500  0.118930
  0.148300  0.733800  0.547730
  0.266200  0.414500  0.214400
  0.585500  0.851700  0.881070
 
   48   48   56
  1.4722      1.3872      1.3769      1.4186      1.4952      1.5964      1.7169      1.8546      2.0078      2.1732    
  2.3439      2.5116      2.6694      2.8171      2.9636      3.1280      3.3348      3.6098      3.9862      4.5217    
  5.3179      6.5190      8.2855      10.757      14.022      18.114      22.996      28.532      34.410      40.073    
  44.733      47.547      47.907      45.697      41.355      35.684      29.550      23.632      18.340      13.856    
  10.232      7.4420      5.4034      3.9854      3.0299      2.3876      1.9490      1.6532      1.4061      1.3150    
  1.3070      1.3625      1.4636      1.5989      1.7628      1.9518      2.1625      2.3901      2.6268      2.8606    
  3.0769      3.2642      3.4192      3.5504      3.6789      3.8328      4.0432      4.3475      4.8030      5.5015    
  6.5647      8.1182      10.257      13.020      16.381      20.234      24.370      28.452      32.018      34.545    
  35.586      34.918      32.638      29.131      24.928      20.544      16.371      12.661      9.5489      7.0815    
  5.2295      3.9034      2.9812      2.3436      1.9000      1.5962      1.4120      1.3242      1.3229      1.3922    
  1.5159      1.6819      1.8844      2.1205      2.3873      2.6799      2.9897      3.3019      3.5962      3.8504    
  4.0473      4.1813      4.2630      4.3182      4.3819      4.4916      4.6889      5.0291      5.5895      6.4641    
  7.7429      9.4854      11.697      14.314      17.191      20.103      22.760      24.833      26.019      26.113    
  25.074      23.050      20.327      17.244      14.116      11.191      8.6412      6.5567      4.9497      3.7674    
  2.9211      2.3197      1.8930      1.5977      1.4684      1.3961      1.4096      1.4965      1.6434      1.8392    
  2.0780      2.3583      2.6805      3.0422      3.4348      3.8413      4.2363      4.5882      4.8650      5.0438    
  5.1192      5.1079      5.0448      4.9749      4.9449      5.0006      5.1919      5.5798      6.2342      7.2160    
  8.5527      10.219      12.129      14.143      16.070      17.690      18.789      19.198      18.843      17.758    
  16.082      14.016      11.785      9.5951      7.6083      5.9265      4.5879      3.5748      2.8321      2.2938    
  1.9058      1.6356      1.5592      1.5138      1.5516      1.6626      1.8361      2.0628      2.3379      2.6620    
  3.0398      3.4739      3.9589      4.4774      4.9992      5.4825      5.8805      6.1511      6.2691      6.2348    
  6.0760      5.8421      5.5924      5.3839      5.2667      5.2866      5.4895      5.9185      6.6026      7.5428    
  8.7031      10.005      11.327      12.518      13.423      13.908      13.897      13.375      12.398      11.080    
  9.5653      8.0074      6.5361      5.2433      4.1771      3.3441      2.7184      2.2579      1.9243      1.6945    
  1.6745      1.6663      1.7373      1.8800      2.0852      2.3457      2.6587      3.0279      3.4619      3.9701    
  4.5543      5.2004      5.8744      6.5244      7.0876      7.5014      7.7169      7.7128      7.5026      7.1334    
  6.6741      6.2018      5.7864      5.4820      5.3250      5.3401      5.5457      5.9513      6.5466      7.2900    
  8.1073      8.9001      9.5612      9.9919      10.119      9.9110      9.3799      8.5820      7.6037      6.5454    
  5.5039      4.5560      3.7482      3.0961      2.5914      2.2141      1.9437      1.7660      1.8090      1.8478    
  1.9607      2.1424      2.3859      2.6855      3.0399      3.4553      3.9453      4.5274      5.2129      5.9951    
  6.8408      7.6902      8.4638      9.0753      9.4488      9.5364      9.3312      8.8700      8.2262      7.4943    
  6.7713      6.1369      5.6426      5.3133      5.1572      5.1735      5.3513      5.6652      6.0734      6.5184    
  6.9312      7.2398      7.3823      7.3215      7.0509      6.5922      5.9887      5.2992      4.5903      3.9218    
  3.3344      2.8460      2.4584      2.1668      1.9650      1.8471      1.9593      2.0540      2.2182      2.4481    
  2.7388      3.0857      3.4877      3.9522      4.4977      5.1504      5.9329      6.8500      7.8757      8.9477    
  9.9719      10.837      11.434      11.684      11.551      11.056      10.268      9.2944      8.2579      7.2717    
  6.4220      5.7572      5.2874      4.9963      4.8577      4.8467      4.9389      5.1018      5.2906      5.4529    
  5.5404      5.5194      5.3751      5.1112      4.7464      4.3116      3.8447      3.3849      2.9654      2.6089    
  2.3264      2.1205      1.9911      1.9376      2.1229      2.2802      2.5059      2.7965      3.1478      3.5551    
  4.0164      4.5381      5.1414      5.8597      6.7285      7.7684      8.9672      10.268      11.569      12.735    
  13.625      14.117      14.137      13.678      12.802      11.622      10.282      8.9313      7.6961      6.6616    
  5.8595      5.2757      4.8733      4.6147      4.4700      4.4118      4.4088      4.4258      4.4273      4.3838    
  4.2763      4.1001      3.8631      3.5805      3.2701      2.9533      2.6551      2.4004      2.2064      2.0802    
  2.0233      2.0371      2.2956      2.5205      2.8176      3.1840      3.6145      4.1025      4.6432      5.2400    
  5.9115      6.6948      7.6375      8.7790      10.127      11.640      13.218      14.715      15.955      16.769    
  17.035      16.703      15.813      14.479      12.868      11.158      9.5156      8.0659      6.8790      5.9681    
  5.3017      4.8263      4.4893      4.2514      4.0858      3.9693      3.8760      3.7792      3.6580      3.5020    
  3.3113      3.0928      2.8582      2.6233      2.4076      2.2307      2.1086      2.0510      2.0620      2.1432    
  2.4706      2.7665      3.1430      3.6000      4.1317      4.7279      5.3786      6.0800      6.8439      7.7048    
  8.7169      9.9368      11.397      13.079      14.903      16.723      18.341      19.545      20.151      20.053    
  19.248      17.840      16.008      13.965      11.914      10.023      8.4077      7.1184      6.1436      5.4262    
  4.8956      4.4943      4.1861      3.9473      3.7556      3.5886      3.4258      3.2521      3.0589      2.8470    
  2.6278      2.4201      2.2431      2.1127      2.0413      2.0381      2.1080      2.2521      2.6395      3.0057    
  3.4666      4.0259      4.6795      5.4144      6.2128      7.0604      7.9574      8.9283      10.024      11.310    
  12.842      14.635      16.640      18.728      20.702      22.321      23.342      23.588      22.991      21.619    
  19.651      17.325      14.889      12.560      10.497      8.7875      7.4477      6.4362      5.6812      5.1092    
  4.6625      4.3027      4.0048      3.7501      3.5210      3.3005      3.0760      2.8431      2.6083      2.3877    
  2.2030      2.0761      2.0233      2.0528      2.1659      2.3612      2.7955      3.2236      3.7674      4.4347    
  5.2250      6.1245      7.1086      8.1508      9.2355      10.369      11.588      12.953      14.534      16.378    
  18.474      20.734      22.984      24.979      26.438      27.111      26.849      25.653      23.673      21.160    
  18.401      15.663      13.153      11.002      9.2631      7.9204      6.9105      6.1479      5.5517      5.0628    
  4.6466      4.2826      3.9552      3.6512      3.3615      3.0807      2.8073      2.5484      2.3240      2.1630    
  2.0907      2.1191      2.2475      2.4726      2.9377      3.4085      4.0228      4.7937      5.7243      6.8026    
  8.0011      9.2831      10.615      11.979      13.385      14.875      16.515      18.370      20.470      22.780    
  25.177      27.441      29.284      30.405      30.571      29.694      27.865      25.313      22.346      19.272    
  16.353      13.776      11.640      9.9591      8.6804      7.7110      6.9536      6.3290      5.7846      5.2897    
  4.8282      4.3933      3.9834      3.5985      3.2390      2.9094      2.6236      2.4055      2.2813      2.2687    
  2.3737      2.5959      3.0742      3.5562      4.2155      5.0704      6.1291      7.3833      8.8066      10.357    
  11.986      13.649      15.324      17.017      18.767      20.636      22.684      24.928      27.314      29.684    
  31.781      33.288      33.906      33.453      31.931      29.521      26.518      23.255      20.042      17.118    
  14.635      12.643      11.105      9.9321      9.0170      8.2607      7.5867      6.9467      6.3189      5.6997    
  5.0964      4.5222      3.9933      3.5255      3.1313      2.8230      2.6161      2.5274      2.5697      2.7497    
  3.2228      3.6746      4.3393      5.2419      6.3971      7.8024      9.4355      11.256      13.207      15.225    
  17.249      19.239      21.187      23.129      25.124      27.230      29.459      31.744      33.898      35.630    
  36.626      36.631      35.542      33.448      30.608      27.368      24.063      20.967      18.266      16.049    
  14.310      12.973      11.927      11.056      10.262      9.4752      8.6589      7.8056      6.9318      6.0707    
  5.2623      4.5429      3.9372      3.4588      3.1154      2.9130      2.8580      2.9572      3.4077      3.7839    
  4.4042      5.3028      6.5033      8.0109      9.8105      11.868      14.130      16.522      18.953      21.331    
  23.589      25.709      27.720      29.685      31.669      33.659      35.548      37.171      38.293      38.660    
  38.091      36.553      34.188      31.266      28.132      25.119      22.432      20.181      18.384      16.982    
  15.869      14.923      14.034      13.113      12.103      10.982      9.7703      8.5224      7.3057      6.1850    
  5.2136      4.4279      3.8441      3.4593      3.2609      3.2413      3.6551      3.9123      4.4359      5.2696    
  6.4485      7.9883      9.8844      12.113      14.632      17.368      20.215      23.040      25.712      28.140    
  30.295      32.207      33.915      35.384      36.627      37.663      38.449      38.849      38.685      37.838    
  36.313      34.231      31.797      29.262      26.907      24.916      23.304      22.022      20.972      20.043    
  19.121      18.105      16.917      15.517      13.917      12.184      10.418      8.7268      7.2079      5.9349    
  4.9483      4.2522      3.8230      3.6292      3.9987      4.0916      4.4699      5.1779      6.2614      7.7501    
  9.6522      11.958      14.639      17.636      20.847      24.117      27.264      30.120      32.574      34.588    
  36.067      36.910      37.191      37.128      36.956      36.803      36.643      36.363      35.858      35.083    
  34.039      32.767      31.366      30.018      28.908      28.016      27.258      26.533      25.724      24.716    
  23.409      21.740      19.710      17.394      14.932      12.491      10.225      8.2532      6.6523      5.4531    
  4.6424      4.1745      4.4964      4.3596      4.5446      5.0735      5.9928      7.3448      9.1536      11.425    
  14.146      17.279      20.741      24.380      27.987      31.332      34.221      36.512      37.932      38.226    
  37.427      35.879      34.119      32.657      31.801      31.613      31.991      32.756      33.682      34.508    
  35.007      35.102      34.935      34.765      34.620      34.408      34.001      33.240      31.976      30.105    
  27.613      24.600      21.265      17.856      14.605      11.688      9.2274      7.2889      5.8875      4.9822    
  5.2494      4.7741      4.7023      5.0043      5.7031      6.8437      8.4648      10.588      13.219      16.341    
  19.897      23.762      27.730      31.539      34.925      37.647      39.248      39.257      37.536      34.416    
  30.648      27.162      24.747      23.849      24.558      26.690      29.836      33.400      36.714      39.274    
  40.941      41.978      42.811      43.523      43.971      43.913      43.075      41.237      38.330      34.489    
  30.022      25.318      20.741      16.563      12.957      10.017      7.7770      6.2146      6.4015      5.4265    
  4.9988      5.0172      5.4512      6.3256      7.6833      9.5600      11.978      14.944      18.426      22.335    
  26.497      30.653      34.500      37.728      39.747      39.842      37.614      33.213      27.431      21.523    
  16.804      14.265      14.401      17.223      22.303      28.792      35.551      41.495      46.004      49.126    
  51.422      53.495      55.362      56.685      56.968      55.734      52.724      48.037      42.123      35.630    
  29.193      23.276      18.140      13.886      10.535      8.0639      8.1141      6.4388      5.5115      5.1627    
  5.2882      5.8626      6.9087      8.4657      10.573      13.258      16.514      20.286      24.444      28.767    
  32.950      36.649      39.237      39.793      37.618      32.556      25.231      17.020      9.6675      4.7476    
  3.3047      5.7581      11.899      20.845      31.103      40.960      49.128      55.224      59.752      63.631    
  67.454      70.921      73.280      73.640      71.321      66.171      58.693      49.876      40.829      32.430    
  25.158      19.149      14.361      10.712      10.528      7.9372      6.3345      5.5022      5.2608      5.5098    
  6.2226      7.4218      9.1561      11.471      14.383      17.864      21.833      26.124      30.463      34.505    
  37.689      38.987      37.430      32.501      24.488      14.638      4.8962     -2.6848     -6.4793     -5.5247    
 0.40713      10.683      23.730      37.353      49.527      59.217      66.653      72.896      79.030      85.248    
  90.635      93.827      93.506      88.949      80.407      69.092      56.719      44.875      34.562      26.114    
  19.436      14.305      13.736      10.019      7.5588      6.1057      5.4154      5.3048      5.6779      6.5170    
  7.8578      9.7548      12.245      15.328      18.963      23.042      27.349      31.568      35.254      37.434    
  36.950      32.951      25.299      14.881      3.5474     -6.4003     -12.848     -14.269     -9.8814     0.16919    
  14.585      31.023      46.854      60.263      70.944      79.899      88.545      97.693      106.68      113.78    
  116.96      114.66      106.44      93.323      77.486      61.410      47.011      35.189      25.968      18.954    
  17.773      12.725      9.2458      7.0353      5.7956      5.2725      5.3003      5.8006      6.7655      8.2373    
  10.273      12.902      16.112      19.843      23.957      28.199      32.217      35.268      36.137      33.731    
  27.488      17.779      6.0677     -5.4034     -14.246     -18.464     -16.714     -8.5118      5.4253      23.024    
  41.383      57.972      71.746      83.364      94.406      106.18      118.67      130.10      137.92      139.66    
  133.79      120.62      102.31      82.037      62.872      46.740      34.169      24.742      22.602      16.033    
  11.404      8.3202      6.4311      5.4320      5.0985      5.2834      5.9115      6.9908      8.5862      10.753    
  13.499      16.804      20.608      24.751      28.941      32.708      35.004      34.619      30.650      22.911    
  12.268     0.56795     -9.8500     -16.725     -18.230     -13.221     -1.6549      15.027      34.102      52.622    
  68.771      82.575      95.484      109.17      124.30      139.59      152.31      159.42      158.03      147.07    
  128.27      105.15      81.549      60.691      44.091      31.676      28.089      19.837      13.971      9.9374    
  7.3246      5.7935      5.0721      4.9489      5.2817      6.0286      7.2369      8.9706      11.259      14.118    
  17.558      21.514      25.777      30.024      33.606      35.363      34.187      29.425      21.268      10.896    
 0.22785     -8.5257     -13.241     -12.202     -4.5700      9.0874      26.675      45.289      62.538      77.649    
  91.590      106.15      122.57      140.35      157.04      169.50      174.01      167.79      151.10      127.33    
  100.97      76.037      55.323      39.564      33.921      23.931      16.805      11.804      8.4419      6.3481    
  5.2109      4.7713      4.8386      5.3183      6.2125      7.5718      9.4479      11.893      14.967      18.687    
  22.948      27.518      32.059      35.747      37.437      36.176      31.565      24.003      14.696      5.4404    
 -1.6674     -4.5732     -1.7475      7.2058      21.158      37.737      54.373      69.569      83.555      97.854    
  114.05      132.44      151.23      167.51      177.59      177.56      165.79      144.31      117.75      90.643    
  66.719      47.839      39.539      27.975      19.682      13.781      9.7062      7.0556      5.4904      4.7261    
  4.5448      4.8056      5.4541      6.5128      8.0480      10.142      12.888      16.365      20.574      25.389    
  30.567      35.710      39.899      42.076      41.433      37.676      31.197      23.095      15.056      9.1160    
  7.2363      10.680      19.414      31.980      46.126      59.968      72.962      86.014      100.66      117.79    
  136.54      154.35      168.06      173.72      168.32      151.99      128.22      101.66      76.444      55.472    
  44.159      31.507      22.309      15.678      10.998      7.8430      5.8694      4.7894      4.3705      4.4372    
  4.8893      5.7195      6.9934      8.8096      11.284      14.544      18.679      23.664      29.332      35.413    
  41.453      46.510      49.576      49.872      47.082      41.517      34.192      26.763      21.252      19.485    
  22.401      29.620      39.647      50.695      61.678      72.737      84.968      99.494      116.24      133.49    
  148.38      157.66      158.07      148.23      129.78      106.50      82.455      61.126      46.940      34.008    
  24.359      17.278      12.168      8.6129      6.2913      4.9294      4.2886      4.1738      4.4601      5.1166    
  6.1956      7.7986      10.061      13.145      17.202      22.294      28.339      35.134      42.380      49.541    
  55.616      59.549      60.515      58.153      52.767      45.438      37.905      32.144      29.728      31.257    
  36.206      43.319      51.381      59.913      69.370      80.680      94.210      109.08      123.24      133.87    
  138.19      134.22      122.05      103.93      83.293      63.572      47.278      35.031      25.530      18.362    
  13.059      9.2587      6.6878      5.1013      4.2678      3.9885      4.1298      4.6453      5.5715      7.0088    
  9.1072      12.053      16.034      21.179      27.507      34.907      43.126      51.751      60.074      66.943    
  71.185      71.940      68.945      62.728      54.598      46.373      39.867      36.339      36.139      38.750    
  43.238      48.867      55.522      63.660      73.645      85.153      97.012      107.23      113.44      113.63    
  107.04      94.611      78.720      62.199      45.062      34.356      25.618      18.766      13.538      9.6814    
  6.9868      5.2525      4.2724      3.8579      3.8746      4.2665      5.0610      6.3594      8.3219      11.148    
  15.048      20.203      26.729      34.637      43.778      53.761      63.892      73.136      80.105      83.539    
  82.743      77.844      69.816      60.265      51.002      43.576      38.896      37.113      37.792      40.305    
  44.243      49.577      56.373      64.499      73.386      81.839      88.163      90.627      88.138      80.775    
  69.832      57.296      40.731      32.083      24.583      18.413      13.527      9.8081      7.1260      5.3345    
  4.2665      3.7555      3.6718      3.9551      4.6289      5.7965      7.6265      10.329      14.130      19.247    
  25.884      34.192      44.188      55.595      67.685      79.240      88.721      94.551      95.621      91.758    
  83.787      73.268      62.031      51.726      43.512      37.941      35.028      34.438      35.753      38.647    
  42.852      48.163      54.255      60.479      65.792      68.946      68.902      65.279      58.563      49.924    
  35.089      28.595      22.574      17.341      13.014      9.6052      7.0676      5.3129      4.2199      3.6536    
  3.4978      3.6916      4.2539      5.2886      6.9714      9.5248      13.189      18.209      24.851      33.407    
  44.112      56.908      71.155      85.468      97.878      106.32      109.29      106.28      98.048      86.297    
  73.097      60.306      49.233      40.584      34.586      31.143      29.969      30.646      32.739      35.888    
  39.770      43.983      47.929      50.820      51.862      50.550      46.902      41.466      28.997      24.424    
  19.875      15.684      12.053      9.0857      6.8044      5.1723      4.1128      3.5303      3.3312      3.4570    
  3.9195      4.8186      6.3336      8.6970      12.165      17.006      23.527      32.129      43.265      57.195    
  73.538      90.903      106.93      118.87      124.45      122.70      114.21      100.91      85.312      69.782    
  55.946      44.618      36.029      30.113      26.639      25.247      25.492      26.927      29.159      31.830    
  34.545      36.817      38.111      37.987      36.268      33.125      23.133      20.082      16.826      13.646    
  10.757      8.3047      6.3575      4.9156      3.9400      3.3747      3.1557      3.2334      3.6115      4.3787    
  5.7084      7.8368      11.036      15.597      21.849      30.249      41.422      55.969      73.929      94.160    
  114.13      130.42      139.85      140.56      132.63      118.04      99.830      81.098      64.120      50.022    
  39.024      30.916      25.384      22.094      20.652      20.612      21.541      23.055      24.803      26.439    
  27.603      27.969      27.324      25.650      17.901      15.961      13.740      11.448      9.2695      7.3474    
  5.7693      4.5610      3.7089      3.1863      2.9623      3.0072      3.3195      3.9659      5.1017      6.9593    
  9.8210      13.993      19.815      27.753      38.513      52.963      71.630      93.894      117.42      138.40    
  152.75      157.41      151.54      136.85      116.61      94.652      74.139      56.874      43.310      33.111    
  25.749      20.779      17.820      16.464      16.274      16.838      17.806      18.877      19.779      20.267    
  20.153      19.350      13.482      12.307      10.863      9.2970      7.7421      6.3129      5.0975      4.1384    
  3.4338      2.9716      2.7514      2.7736      3.0371      3.5793      4.5257      6.0964      8.5715      12.259    
  17.498      24.738      34.670      48.274      66.485      89.361      115.18      140.26      160.05      170.10    
  168.03      154.83      133.96      109.58      85.697      65.054      48.687      36.343      27.283      20.850    
  16.579      14.065      12.879      12.607      12.900      13.465      14.059      14.482      14.583      14.260    
  9.9234      9.2521      8.3618      7.3504      6.3026      5.2959      4.4070      3.6845      3.1318      2.7416    
  2.5339      2.5383      2.7621      3.2181      3.9954      5.2870      7.3541      10.493      15.037      21.404    
  30.202      42.356      58.998      80.813      106.97      134.45      158.79      174.80      178.35      168.75    
  149.03      123.86      97.639      74.005      54.842      40.296      29.595      21.870      16.486      12.978    
  10.924      9.9243      9.6267      9.7338      10.004      10.263      10.395      10.304      7.1948      6.8391    
  6.3243      5.7076      5.0407      4.3716      3.7561      3.2373      2.8232      2.5114      2.3276      2.3167    
  2.5006      2.8854      3.5250      4.5657      6.2323      8.8014      12.596      17.997      25.499      35.859    
  50.168      69.473      93.825      121.27      147.87      168.69      178.50      174.62      158.50      134.66    
  107.97      82.539      61.131      44.571      32.333      23.457      17.130      12.790      10.008      8.3960    
  7.5975      7.3012      7.2633      7.3232      7.3833      7.3649      5.2108      5.0357      4.7596      4.4045    
  4.0029      3.5854      3.1844      2.8289      2.5323      2.2993      2.1510      2.1297      2.2718      2.5942    
  3.1256      3.9556      5.2574      7.2803      10.329      14.746      20.922      29.419      41.110      57.074    
  77.941      102.89      129.01      151.98      166.77      169.33      159.06      139.11      114.29      88.947    
  66.508      48.571      35.103      25.265      18.163      13.151      9.7795      7.6660      6.4496      5.8128    
  5.5112      5.3832      5.3329      5.2950      3.8390      3.7508      3.6134      3.4222      3.1949      2.9522    
  2.7095      2.4815      2.2831      2.1245      2.0195      1.9984      2.1039      2.3676      2.8083      3.4687    
  4.4643      6.0009      8.3533      11.827      16.743      23.501      32.705      45.211      61.825      82.555    
  105.80      128.12      145.23      153.00      149.25      135.21      114.56      91.477      69.715      51.506    
  37.417      26.946      19.285      13.772      9.9433      7.4261      5.8683      4.9566      4.4451      4.1623    
  4.0033      3.9094      2.9220      2.8630      2.7974      2.7056      2.5906      2.4639      2.3334      2.2061    
  2.0927      2.0029      1.9452      1.9392      2.0221      2.2314      2.5881      3.1118      3.8677      5.0024    
  6.7417      9.3569      13.131      18.360      25.427      34.885      47.398      63.338      82.115      101.65    
  118.55      129.13      130.76      123.04      107.98      89.015      69.698      52.574      38.737      28.140    
  20.222      14.406      10.258      7.4344      5.6125      4.4903      3.8169      3.4111      3.1616      3.0099    
  2.3121      2.2548      2.2219      2.1896      2.1487      2.1010      2.0518      2.0059      1.9683      1.9439    
  1.9373      1.9606      2.0386      2.2039      2.4823      2.8915      3.4648      4.2886      5.5251      7.4021    
  10.176      14.095      19.408      26.426      35.557      47.171      61.197      76.632      91.336      102.44    
  107.36      104.83      95.508      81.631      66.069      51.264      38.620      28.519      20.731      14.857    
  10.550      7.5300      5.5215      4.2448      3.4485      2.9464      2.6252      2.4253      1.9019      1.8370    
  1.8180      1.8213      1.8315      1.8434      1.8586      1.8808      1.9118      1.9516      2.0008      2.0640    
  2.1537      2.2919      2.5046      2.8145      3.2436      3.8361      4.6908      5.9768      7.9129      10.722    
  14.601      19.731      26.317      34.574      44.556      55.854      67.325      77.124      83.203      84.088    
  79.531      70.627      59.315      47.593      36.890      27.871      20.622      14.970      10.701      7.6146    
  5.4989      4.1153      3.2295      2.6564      2.2803      2.0403      1.6312      1.5564      1.5435      1.5691    
  1.6166      1.6772      1.7483      1.8305      1.9243      2.0276      2.1363      2.2476      2.3638      2.4957    
  2.6628      2.8892      3.1976      3.6149      4.1943      5.0417      6.3194      8.2197      10.923      14.572    
  19.277      25.118      32.106      40.049      48.380      56.070      61.777      64.265      62.915      58.011    
  50.616      42.115      33.718      26.179      19.809      14.646      10.617      7.6093      5.4789      4.0427    
  3.1014      2.4818      2.0665      1.7933      1.4815      1.4205      1.4126      1.4369      1.4804      1.5379    
  1.6071      1.6867      1.7756      1.8722      1.9729      2.0729      2.1684      2.2598      2.3553      2.4717    
  2.6319      2.8585      3.1747      3.6161      4.2480      5.1716      6.5094      8.3737      10.833      13.890    
  17.474      21.429      25.501      29.313      32.379      34.204      34.438      33.018      30.190      26.418    
  22.220      18.044      14.205      10.893      8.1869      6.0883      4.5405      3.4494      2.7031      2.1958    
  1.8488      1.6181      1.4001      1.3340      1.3284      1.3652      1.4305      1.5175      1.6239      1.7474    
  1.8841      2.0297      2.1798      2.3278      2.4650      2.5838      2.6830      2.7714      2.8671      2.9941    
  3.1774      3.4430      3.8269      4.3875      5.2094      6.3897      8.0079      10.097      12.623      15.479    
  18.486      21.390      23.879      25.620      26.335      25.889      24.338      21.916      18.957      15.801    
  12.735      9.9705      7.6375      5.7852      4.3893      3.3757      2.6534      2.1422      1.7846      1.5446    
  1.4125      1.3515      1.3532      1.4030      1.4885      1.6022      1.7407      1.9014      2.0802      2.2715    
  2.4694      2.6659      2.8497      3.0079      3.1305      3.2154      3.2718      3.3204      3.3891      3.5062    
  3.6989      4.0005      4.4604      5.1447      6.1232      7.4469      9.1239      11.101      13.258      15.417    