unknown system                          
   1.00000000000000     
     4.913700    0.000000    0.000000
    -2.456850    4.255389    0.000000
     0.000000    0.000000    5.405130
   Si   O 
     3     6
Direct
  0.469800  0.020000  0.666670
  0.000000  0.469800  0.333330
  0.530200  0.530200  0.000000
  0.414500  0.266200  0.785600
  0.733800  0.148300  0.452270
  0.851700  0.585500  0.118930
  0.148300  0.733800  0.547730
  0.266200  0.414500  0.214400
  0.585500  0.851700  0.881070
 
   48   48   56
 0.14722090020E+01 0.13872443317E+01 0.13768697978E+01 0.14186417557E+01 0.14952357532E+01
 0.15963721637E+01 0.17169150804E+01 0.18545792156E+01 0.20077930168E+01 0.21731502767E+01
 0.23439459689E+01 0.25116002202E+01 0.26694423663E+01 0.28170576487E+01 0.29636107074E+01
 0.31280198694E+01 0.33347645626E+01 0.36098260952E+01 0.39861561537E+01 0.45217358897E+01
 0.53179477054E+01 0.65189768504E+01 0.82854738293E+01 0.10756583141E+02 0.14022222177E+02
 0.18113604592E+02 0.22995611871E+02 0.28531611297E+02 0.34409998247E+02 0.40072851134E+02
 0.44733109047E+02 0.47547281671E+02 0.47907054813E+02 0.45697375539E+02 0.41354840893E+02
 0.35683750403E+02 0.29549714767E+02 0.23632348277E+02 0.18339543640E+02 0.13856066917E+02
 0.10232147909E+02 0.74420279688E+01 0.54033796858E+01 0.39853537946E+01 0.30299374064E+01
 0.23876328476E+01 0.19490110489E+01 0.16532435486E+01 0.14061027663E+01 0.13150199775E+01
 0.13070126884E+01 0.13624723994E+01 0.14635618339E+01 0.15988852703E+01 0.17627724773E+01
 0.19518060570E+01 0.21625108021E+01 0.23901221651E+01 0.26268219824E+01 0.28605559551E+01
 0.30769335780E+01 0.32642489410E+01 0.34191574640E+01 0.35504414795E+01 0.36788892838E+01
 0.38327911945E+01 0.40432410716E+01 0.43474753147E+01 0.48030067920E+01 0.55014517008E+01
 0.65646537626E+01 0.81181946431E+01 0.10256795157E+02 0.13020035005E+02 0.16380952798E+02
 0.20233812417E+02 0.24370052236E+02 0.28452325514E+02 0.32017983093E+02 0.34545183422E+02
 0.35585683549E+02 0.34917852349E+02 0.32638275565E+02 0.29131000037E+02 0.24927949595E+02
 0.20543767985E+02 0.16371183128E+02 0.12661048110E+02 0.95489415510E+01 0.70814770482E+01
 0.52295283895E+01 0.39033790982E+01 0.29811616473E+01 0.23436116408E+01 0.19000063723E+01
 0.15962198584E+01 0.14119639244E+01 0.13242361894E+01 0.13228808383E+01 0.13922335586E+01
 0.15158694697E+01 0.16818961751E+01 0.18843612001E+01 0.21204565084E+01 0.23872820240E+01
 0.26799479903E+01 0.29897115662E+01 0.33019316983E+01 0.35962155245E+01 0.38504193347E+01
 0.40473025321E+01 0.41813183988E+01 0.42629885548E+01 0.43181817774E+01 0.43818611237E+01
 0.44916120386E+01 0.46889268960E+01 0.50291074794E+01 0.55895037403E+01 0.64640873498E+01
 0.77428830146E+01 0.94853608614E+01 0.11697192152E+02 0.14313751087E+02 0.17190690404E+02
 0.20103442184E+02 0.22759993813E+02 0.24833392050E+02 0.26019357705E+02 0.26112633553E+02
 0.25074123923E+02 0.23050194294E+02 0.20326862200E+02 0.17243753203E+02 0.14115693494E+02
 0.11191237529E+02 0.86412385964E+01 0.65566611812E+01 0.49497164713E+01 0.37674313543E+01
 0.29210625076E+01 0.23197008917E+01 0.18929999665E+01 0.15976949524E+01 0.14684160447E+01
 0.13961441129E+01 0.14096258678E+01 0.14964976722E+01 0.16433674864E+01 0.18392443966E+01
 0.20780030649E+01 0.23582847546E+01 0.26804601555E+01 0.30421913338E+01 0.34347913344E+01
 0.38413159655E+01 0.42363475834E+01 0.45882204554E+01 0.48650167963E+01 0.50437656541E+01
 0.51192455560E+01 0.51079089320E+01 0.50447534499E+01 0.49748739902E+01 0.49449283832E+01
 0.50005951270E+01 0.51918608976E+01 0.55798460021E+01 0.62342250106E+01 0.72160025718E+01
 0.85526521927E+01 0.10218801688E+02 0.12129459558E+02 0.14142946068E+02 0.16069688232E+02
 0.17690244188E+02 0.18788632458E+02 0.19197965464E+02 0.18842646324E+02 0.17758450385E+02
 0.16082028031E+02 0.14016033268E+02 0.11784839567E+02 0.95950776833E+01 0.76083352635E+01
 0.59264814543E+01 0.45878973812E+01 0.35747855826E+01 0.28321151762E+01 0.22938275223E+01
 0.19057855987E+01 0.16356171411E+01 0.15592074743E+01 0.15138155767E+01 0.15515927106E+01
 0.16626218603E+01 0.18360643872E+01 0.20627810160E+01 0.23378536439E+01 0.26620279726E+01
 0.30398033099E+01 0.34738733799E+01 0.39588750096E+01 0.44774416640E+01 0.49991759731E+01
 0.54825010946E+01 0.58804965600E+01 0.61511219068E+01 0.62691093166E+01 0.62347702767E+01
 0.60759612202E+01 0.58420954046E+01 0.55923562827E+01 0.53838913150E+01 0.52666980650E+01
 0.52865942499E+01 0.54895072908E+01 0.59185358810E+01 0.66025717590E+01 0.75428333178E+01
 0.87030777219E+01 0.10004528880E+02 0.11326622819E+02 0.12518319430E+02 0.13422675223E+02
 0.13908403283E+02 0.13896575403E+02 0.13374813547E+02 0.12398422631E+02 0.11079620080E+02
 0.95652793297E+01 0.80074145609E+01 0.65361367009E+01 0.52432812496E+01 0.41770627280E+01
 0.33441085746E+01 0.27183778002E+01 0.22579120775E+01 0.19243248623E+01 0.16945216228E+01
 0.16745483052E+01 0.16663339950E+01 0.17373035099E+01 0.18799773708E+01 0.20852106672E+01
 0.23456757683E+01 0.26587481271E+01 0.30279151853E+01 0.34619137298E+01 0.39701193644E+01
 0.45543242254E+01 0.52004130879E+01 0.58743830170E+01 0.65243701518E+01 0.70876324484E+01
 0.75014347308E+01 0.77169321703E+01 0.77127512872E+01 0.75026326126E+01 0.71333603053E+01
 0.66741302017E+01 0.62017595362E+01 0.57863931829E+01 0.54820066999E+01 0.53250404549E+01
 0.53401318929E+01 0.55456983103E+01 0.59513085812E+01 0.65465526468E+01 0.72900111693E+01
 0.81073444091E+01 0.89001439368E+01 0.95611867646E+01 0.99918543259E+01 0.10119406463E+02
 0.99109878504E+01 0.93799290241E+01 0.85820370428E+01 0.76036884449E+01 0.65453921767E+01
 0.55038924040E+01 0.45559752811E+01 0.37482392270E+01 0.30960981396E+01 0.25913549580E+01
 0.22140545284E+01 0.19436633834E+01 0.17660362798E+01 0.18089851460E+01 0.18478067348E+01
 0.19606802216E+01 0.21423936090E+01 0.23859265140E+01 0.26854677689E+01 0.30398955485E+01
 0.34552814107E+01 0.39453257606E+01 0.45274140579E+01 0.52129391701E+01 0.59951365164E+01
 0.68408454679E+01 0.76902011632E+01 0.84637735032E+01 0.90753251881E+01 0.94488230034E+01
 0.95364052709E+01 0.93311876608E+01 0.88700390336E+01 0.82261850064E+01 0.74943488968E+01
 0.67713497612E+01 0.61369370175E+01 0.56425986160E+01 0.53132576317E+01 0.51571993001E+01
 0.51734762789E+01 0.53512590845E+01 0.56652473954E+01 0.60734201634E+01 0.65183752991E+01
 0.69312334695E+01 0.72398143749E+01 0.73823355290E+01 0.73215120138E+01 0.70509493431E+01
 0.65922409563E+01 0.59886513860E+01 0.52992346183E+01 0.45903033941E+01 0.39218031669E+01
 0.33343901359E+01 0.28459553822E+01 0.24583802590E+01 0.21668076466E+01 0.19649926844E+01
 0.18471486968E+01 0.19593138279E+01 0.20539642574E+01 0.22182340830E+01 0.24480728703E+01
 0.27387763197E+01 0.30857240320E+01 0.34877274961E+01 0.39521615827E+01 0.44976793913E+01
 0.51503762195E+01 0.59328982787E+01 0.68499620455E+01 0.78756666723E+01 0.89477361073E+01
 0.99719180313E+01 0.10836576662E+02 0.11434153889E+02 0.11684092264E+02 0.11551372904E+02
 0.11055575778E+02 0.10267528392E+02 0.92944078871E+01 0.82579455784E+01 0.72716678002E+01
 0.64220128131E+01 0.57572220419E+01 0.52874427984E+01 0.49963252509E+01 0.48577188016E+01
 0.48467246946E+01 0.49388550979E+01 0.51017965191E+01 0.52906256109E+01 0.54529011012E+01
 0.55403753192E+01 0.55193690800E+01 0.53751459050E+01 0.51112047066E+01 0.47464442919E+01
 0.43116213114E+01 0.38447353746E+01 0.33848802583E+01 0.29654286520E+01 0.26089490764E+01
 0.23263563019E+01 0.21204797280E+01 0.19910707680E+01 0.19376353233E+01 0.21229062708E+01
 0.22801613576E+01 0.25059420921E+01 0.27964986212E+01 0.31477573482E+01 0.35551331735E+01
 0.40163734849E+01 0.45381404487E+01 0.51414002786E+01 0.58596956531E+01 0.67285036775E+01
 0.77683807827E+01 0.89671921734E+01 0.10268042948E+02 0.11568811706E+02 0.12735300249E+02
 0.13625124892E+02 0.14116727901E+02 0.14136779816E+02 0.13678123199E+02 0.12801626099E+02
 0.11621671610E+02 0.10282259071E+02 0.89313252627E+01 0.76961087799E+01 0.66616001858E+01
 0.58594925460E+01 0.52757126772E+01 0.48732905872E+01 0.46147154757E+01 0.44700086801E+01
 0.44117875609E+01 0.44088468555E+01 0.44257841609E+01 0.44273341458E+01 0.43838059470E+01
 0.42763071820E+01 0.41000926420E+01 0.38631254029E+01 0.35804836236E+01 0.32701271049E+01
 0.29532649016E+01 0.26550897088E+01 0.24003978425E+01 0.22063804685E+01 0.20801780297E+01
 0.20233477063E+01 0.20371118253E+01 0.22956363850E+01 0.25205215246E+01 0.28175517081E+01
 0.31839581580E+01 0.36144617366E+01 0.41024671216E+01 0.46432346208E+01 0.52400207704E+01
 0.59115121524E+01 0.66947684656E+01 0.76374758290E+01 0.87789903677E+01 0.10127032325E+02
 0.11639511975E+02 0.13217921492E+02 0.14714677923E+02 0.15954742011E+02 0.16769412914E+02
 0.17034876263E+02 0.16702969145E+02 0.15812711555E+02 0.14479426595E+02 0.12867652197E+02
 0.11157947793E+02 0.95156201412E+01 0.80659229178E+01 0.68790282875E+01 0.59680948713E+01
 0.53016830603E+01 0.48263138067E+01 0.44892913929E+01 0.42513870536E+01 0.40857869632E+01
 0.39692955376E+01 0.38760427278E+01 0.37792403505E+01 0.36579540367E+01 0.35019505451E+01
 0.33112502685E+01 0.30927965171E+01 0.28581974954E+01 0.26233437835E+01 0.24075904566E+01
 0.22306947521E+01 0.21086176372E+01 0.20510203134E+01 0.20620402596E+01 0.21431777986E+01
 0.24706329333E+01 0.27664733501E+01 0.31429898587E+01 0.36000187737E+01 0.41316563110E+01
 0.47278661935E+01 0.53785558554E+01 0.60799995925E+01 0.68439119676E+01 0.77047759770E+01
 0.87168797705E+01 0.99367522720E+01 0.11396536639E+02 0.13079143763E+02 0.14903353548E+02
 0.16722693520E+02 0.18340791705E+02 0.19544618174E+02 0.20150934434E+02 0.20052663829E+02
 0.19247954553E+02 0.17839973988E+02 0.16008184642E+02 0.13964749515E+02 0.11913781207E+02
 0.10023227044E+02 0.84077188289E+01 0.71184346043E+01 0.61435705312E+01 0.54262046191E+01
 0.48955761165E+01 0.44942714803E+01 0.41861155323E+01 0.39472628748E+01 0.37556402602E+01
 0.35885712643E+01 0.34258262680E+01 0.32521442731E+01 0.30589359293E+01 0.28469905425E+01
 0.26278191432E+01 0.24200903153E+01 0.22430860841E+01 0.21126888758E+01 0.20413009429E+01
 0.20381171626E+01 0.21080424097E+01 0.22520634692E+01 0.26394883539E+01 0.30056629716E+01
 0.34665891932E+01 0.40259141324E+01 0.46794935708E+01 0.54143911521E+01 0.62127909488E+01
 0.70603912038E+01 0.79574150029E+01 0.89283126780E+01 0.10023865371E+02 0.11309831854E+02
 0.12841995786E+02 0.14635492337E+02 0.16639864057E+02 0.18728005736E+02 0.20702364596E+02
 0.22320654971E+02 0.23342240357E+02 0.23587753351E+02 0.22991116428E+02 0.21619361777E+02
 0.19650709848E+02 0.17324698873E+02 0.14889145635E+02 0.12560178632E+02 0.10496912328E+02
 0.87874660016E+01 0.74477255401E+01 0.64361589342E+01 0.56811529696E+01 0.51092131496E+01
 0.46625446199E+01 0.43026719373E+01 0.40048122769E+01 0.37501469887E+01 0.35209810994E+01
 0.33004765948E+01 0.30759511330E+01 0.28430912749E+01 0.26082952227E+01 0.23876827340E+01
 0.22030356483E+01 0.20760990776E+01 0.20232629897E+01 0.20527841255E+01 0.21659047147E+01
 0.23612172019E+01 0.27955196592E+01 0.32236456732E+01 0.37673557521E+01 0.44346844059E+01
 0.52249503687E+01 0.61244555738E+01 0.71085547603E+01 0.81508142587E+01 0.92355199890E+01
 0.10369232306E+02 0.11587715396E+02 0.12952809938E+02 0.14534098364E+02 0.16377730670E+02
 0.18473775618E+02 0.20733849612E+02 0.22984447377E+02 0.24979477282E+02 0.26438425254E+02
 0.27110819595E+02 0.26848562281E+02 0.25653028954E+02 0.23673327432E+02 0.21160148077E+02
 0.18401020853E+02 0.15662667944E+02 0.13152793771E+02 0.11002157568E+02 0.92631290386E+01
 0.79203763828E+01 0.69104943947E+01 0.61479380062E+01 0.55516641178E+01 0.50628196319E+01
 0.46466263855E+01 0.42826172051E+01 0.39551618251E+01 0.36511865950E+01 0.33615124138E+01
 0.30806960263E+01 0.28073203441E+01 0.25484370721E+01 0.23240290556E+01 0.21630057332E+01
 0.20907495362E+01 0.21190856711E+01 0.22475335223E+01 0.24726033282E+01 0.29377141483E+01
 0.34084934277E+01 0.40228356127E+01 0.47936505167E+01 0.57242538023E+01 0.68026184196E+01
 0.80011107107E+01 0.92831102907E+01 0.10614798348E+02 0.11978639756E+02 0.13384745607E+02
 0.14875153995E+02 0.16515197406E+02 0.18369756633E+02 0.20469888357E+02 0.22780247145E+02
 0.25176566708E+02 0.27440891340E+02 0.29284357821E+02 0.30404935638E+02 0.30570522332E+02
 0.29694390242E+02 0.27864541215E+02 0.25312931913E+02 0.22345853342E+02 0.19272219307E+02
 0.16353363265E+02 0.13775821904E+02 0.11639541213E+02 0.99590942128E+01 0.86804054503E+01
 0.77110407244E+01 0.69535540772E+01 0.63289930522E+01 0.57845908973E+01 0.52896536310E+01
 0.48281605012E+01 0.43932641964E+01 0.39833548111E+01 0.35984618908E+01 0.32390103933E+01
 0.29093979560E+01 0.26235881369E+01 0.24055453110E+01 0.22813281675E+01 0.22687418997E+01
 0.23737185606E+01 0.25959474827E+01 0.30741577487E+01 0.35561985466E+01 0.42154774295E+01
 0.50704226685E+01 0.61291378277E+01 0.73833474392E+01 0.88065516860E+01 0.10356920479E+02
 0.11985608977E+02 0.13649367945E+02 0.15324298963E+02 0.17016791289E+02 0.18766538600E+02
 0.20635879021E+02 0.22683531613E+02 0.24928401836E+02 0.27313913387E+02 0.29683661099E+02
 0.31781053406E+02 0.33287913751E+02 0.33905667502E+02 0.33453111610E+02 0.31931406836E+02
 0.29520697248E+02 0.26517565461E+02 0.23255365369E+02 0.20041664624E+02 0.17118094479E+02
 0.14635075519E+02 0.12642743705E+02 0.11104932199E+02 0.99320772283E+01 0.90169941488E+01
 0.82606897198E+01 0.75866795471E+01 0.69467245281E+01 0.63188711763E+01 0.56997159069E+01
 0.50964118068E+01 0.45221792713E+01 0.39933442046E+01 0.35254886492E+01 0.31312975010E+01
 0.28230453247E+01 0.26161243389E+01 0.25274298805E+01 0.25696932798E+01 0.27497307888E+01
 0.32227697775E+01 0.36746160440E+01 0.43392506579E+01 0.52418885832E+01 0.63971434058E+01
 0.78024141491E+01 0.94354746384E+01 0.11255502477E+02 0.13206678526E+02 0.15224880378E+02
 0.17249246262E+02 0.19238612274E+02 0.21187118333E+02 0.23128778105E+02 0.25123971307E+02
 0.27229511895E+02 0.29459383603E+02 0.31744163111E+02 0.33897733567E+02 0.35630326864E+02
 0.36625940998E+02 0.36631072225E+02 0.35542340013E+02 0.33448349749E+02 0.30607801372E+02
 0.27367787184E+02 0.24062669923E+02 0.20966616090E+02 0.18266179832E+02 0.16049003837E+02
 0.14309565419E+02 0.12972621773E+02 0.11926755220E+02 0.11055983898E+02 0.10261882734E+02
 0.94751973835E+01 0.86589275716E+01 0.78056383057E+01 0.69318451783E+01 0.60706919423E+01
 0.52623039500E+01 0.45428699729E+01 0.39372074966E+01 0.34588368249E+01 0.31153671288E+01
 0.29130393661E+01 0.28579560434E+01 0.29572398168E+01 0.34076584128E+01 0.37838755375E+01
 0.44041676843E+01 0.53027883319E+01 0.65032665705E+01 0.80108675634E+01 0.98105292986E+01
 0.11868122093E+02 0.14130251551E+02 0.16522439361E+02 0.18953135928E+02 0.21330639695E+02
 0.23588983642E+02 0.25708607289E+02 0.27719546983E+02 0.29685169181E+02 0.31669077081E+02
 0.33658578567E+02 0.35548244725E+02 0.37170950366E+02 0.38292665239E+02 0.38659959301E+02
 0.38090622211E+02 0.36553271694E+02 0.34187854487E+02 0.31266410800E+02 0.28132434032E+02
 0.25118510492E+02 0.22432258688E+02 0.20181027334E+02 0.18383660045E+02 0.16982013317E+02
 0.15868878937E+02 0.14922910780E+02 0.14033798447E+02 0.13113490262E+02 0.12103121621E+02
 0.10981764710E+02 0.97703315694E+01 0.85224175239E+01 0.73056545369E+01 0.61850026184E+01
 0.52136164608E+01 0.44279377394E+01 0.38441308613E+01 0.34592792514E+01 0.32609313840E+01
 0.32412995328E+01 0.36551273806E+01 0.39122906861E+01 0.44359300012E+01 0.52696422997E+01
 0.64484508343E+01 0.79883145369E+01 0.98844112133E+01 0.12113439174E+02 0.14631965827E+02
 0.17368112799E+02 0.20214983381E+02 0.23039632012E+02 0.25711942809E+02 0.28140447687E+02
 0.30295090100E+02 0.32207431869E+02 0.33914671495E+02 0.35384400549E+02 0.36626902590E+02
 0.37663278117E+02 0.38449393603E+02 0.38848509030E+02 0.38684610983E+02 0.37838370961E+02
 0.36312646781E+02 0.34230967926E+02 0.31796889650E+02 0.29261969651E+02 0.26907385705E+02
 0.24915602599E+02 0.23304245381E+02 0.22021598077E+02 0.20972311279E+02 0.20042797271E+02
 0.19120755229E+02 0.18105334194E+02 0.16917401267E+02 0.15516625369E+02 0.13916618722E+02
 0.12183738380E+02 0.10417751519E+02 0.87267635727E+01 0.72079407787E+01 0.59348764782E+01
 0.49482551819E+01 0.42522431956E+01 0.38229762619E+01 0.36292248143E+01 0.39986688583E+01
 0.40915588352E+01 0.44699226109E+01 0.51778607692E+01 0.62614245601E+01 0.77500921221E+01
 0.96522235284E+01 0.11957963416E+02 0.14638608032E+02 0.17636043602E+02 0.20846808952E+02
 0.24117014764E+02 0.27263812139E+02 0.30119626796E+02 0.32574199590E+02 0.34587513999E+02
 0.36067115847E+02 0.36909969214E+02 0.37190737358E+02 0.37127560987E+02 0.36956461329E+02
 0.36803146181E+02 0.36642703239E+02 0.36362623372E+02 0.35858440985E+02 0.35082924454E+02
 0.34038959559E+02 0.32767143169E+02 0.31365562129E+02 0.30017787572E+02 0.28907897192E+02
 0.28015685222E+02 0.27258370489E+02 0.26533129659E+02 0.25724392644E+02 0.24716202538E+02
 0.23408655209E+02 0.21739791311E+02 0.19709799755E+02 0.17394259536E+02 0.14932223164E+02
 0.12490622981E+02 0.10224591679E+02 0.82532097379E+01 0.66523031234E+01 0.54530574510E+01
 0.46424045241E+01 0.41744573732E+01 0.44964247082E+01 0.43595709204E+01 0.45446032598E+01
 0.50734593709E+01 0.59927662963E+01 0.73448421188E+01 0.91535987177E+01 0.11424526577E+02
 0.14145813294E+02 0.17279379476E+02 0.20740573181E+02 0.24379539728E+02 0.27986567570E+02
 0.31331958395E+02 0.34221127858E+02 0.36512471359E+02 0.37931541809E+02 0.38225984034E+02
 0.37427080168E+02 0.35879172957E+02 0.34118798303E+02 0.32657170165E+02 0.31800766742E+02
 0.31612646731E+02 0.31990975961E+02 0.32756210243E+02 0.33681782371E+02 0.34507617225E+02
 0.35007179428E+02 0.35102406316E+02 0.34935135389E+02 0.34765041143E+02 0.34619761216E+02
 0.34408354507E+02 0.34000667187E+02 0.33240210503E+02 0.31976111235E+02 0.30104962922E+02
 0.27612921862E+02 0.24599841509E+02 0.21265327384E+02 0.17856348257E+02 0.14604634263E+02
 0.11688448474E+02 0.92273532922E+01 0.72889256284E+01 0.58874852693E+01 0.49822146635E+01
 0.52494214934E+01 0.47740748550E+01 0.47023288610E+01 0.50043238730E+01 0.57031168843E+01
 0.68437434364E+01 0.84647558081E+01 0.10588069620E+02 0.13219126911E+02 0.16341389856E+02
 0.19897244101E+02 0.23761690679E+02 0.27729602758E+02 0.31538696825E+02 0.34925137348E+02
 0.37647456086E+02 0.39248417679E+02 0.39257052329E+02 0.37536265438E+02 0.34415702234E+02
 0.30647671345E+02 0.27161892517E+02 0.24746991117E+02 0.23848880884E+02 0.24558184778E+02
 0.26689982911E+02 0.29836049224E+02 0.33399547862E+02 0.36714401719E+02 0.39273755156E+02
 0.40940549462E+02 0.41977709761E+02 0.42811129712E+02 0.43523386335E+02 0.43970511658E+02
 0.43913420447E+02 0.43075413732E+02 0.41236624918E+02 0.38329588191E+02 0.34488684594E+02
 0.30021970496E+02 0.25318233526E+02 0.20741184400E+02 0.16563453002E+02 0.12957126149E+02
 0.10016608579E+02 0.77769770771E+01 0.62145559098E+01 0.64015451333E+01 0.54265263004E+01
 0.49988466991E+01 0.50172034616E+01 0.54511543021E+01 0.63256441334E+01 0.76833158356E+01
 0.95599567498E+01 0.11978448668E+02 0.14943668560E+02 0.18425997348E+02 0.22335203534E+02
 0.26496854399E+02 0.30652664906E+02 0.34500200037E+02 0.37728093015E+02 0.39746648318E+02
 0.39842209245E+02 0.37614009218E+02 0.33212893129E+02 0.27431073367E+02 0.21522672344E+02
 0.16803680631E+02 0.14265221423E+02 0.14400988458E+02 0.17223063200E+02 0.22303026035E+02
 0.28791551236E+02 0.35550544151E+02 0.41494818190E+02 0.46004184501E+02 0.49126322111E+02
 0.51422489610E+02 0.53494809507E+02 0.55362319130E+02 0.56684565027E+02 0.56967782053E+02
 0.55734008264E+02 0.52723852840E+02 0.48036543446E+02 0.42122839183E+02 0.35630297769E+02
 0.29192677891E+02 0.23276367705E+02 0.18140178995E+02 0.13886444456E+02 0.10535404975E+02
 0.80638990977E+01 0.81140886170E+01 0.64387628858E+01 0.55115450753E+01 0.51626875019E+01
 0.52881525376E+01 0.58625529682E+01 0.69086720916E+01 0.84656774324E+01 0.10573211512E+02
 0.13257853370E+02 0.16514364290E+02 0.20286281902E+02 0.24444399316E+02 0.28767107595E+02
 0.32950041337E+02 0.36649189263E+02 0.39236693064E+02 0.39792553596E+02 0.37617869841E+02
 0.32555783661E+02 0.25231122655E+02 0.17020497350E+02 0.96675188379E+01 0.47475817571E+01
 0.33047338121E+01 0.57581374267E+01 0.11898968592E+02 0.20844994233E+02 0.31102714787E+02
 0.40960260696E+02 0.49128430456E+02 0.55223728256E+02 0.59751989882E+02 0.63630948727E+02
 0.67453712160E+02 0.70921348430E+02 0.73280046150E+02 0.73640340990E+02 0.71320925152E+02
 0.66170928345E+02 0.58692901589E+02 0.49875751851E+02 0.40828952260E+02 0.32429705077E+02
 0.25157801221E+02 0.19148713479E+02 0.14360718561E+02 0.10712095596E+02 0.10528178391E+02
 0.79372105691E+01 0.63345376325E+01 0.55021634530E+01 0.52607643264E+01 0.55098470010E+01
 0.62225932221E+01 0.74218162696E+01 0.91560631805E+01 0.11471270096E+02 0.14383223452E+02
 0.17864459782E+02 0.21833223419E+02 0.26123714890E+02 0.30463354376E+02 0.34505478448E+02
 0.37689385580E+02 0.38986788486E+02 0.37430291914E+02 0.32501434744E+02 0.24487764339E+02
 0.14637846386E+02 0.48961923225E+01 -.26848079694E+01 -.64792972278E+01 -.55247109797E+01
 0.40713490131E+00 0.10683062789E+02 0.23730033589E+02 0.37353192495E+02 0.49527010141E+02
 0.59216909997E+02 0.66653238760E+02 0.72896230390E+02 0.79030043284E+02 0.85247603336E+02
 0.90634811349E+02 0.93826840563E+02 0.93506129521E+02 0.88948610659E+02 0.80407266109E+02
 0.69092211859E+02 0.56719032613E+02 0.44875366805E+02 0.34561929587E+02 0.26113958903E+02
 0.19436146292E+02 0.14304956949E+02 0.13736484554E+02 0.10018598990E+02 0.75587764595E+01
 0.61057049933E+01 0.54154011975E+01 0.53047957284E+01 0.56778981453E+01 0.65169863330E+01
 0.78577891841E+01 0.97547510094E+01 0.12244681426E+02 0.15327997919E+02 0.18962986349E+02
 0.23041511708E+02 0.27349398470E+02 0.31567819661E+02 0.35254070026E+02 0.37433663362E+02
 0.36949899464E+02 0.32951211601E+02 0.25298802128E+02 0.14880933172E+02 0.35474229872E+01
 -.64002687879E+01 -.12847895806E+02 -.14268651429E+02 -.98813790767E+01 0.16918822453E+00
 0.14584552938E+02 0.31022510211E+02 0.46853850048E+02 0.60263344262E+02 0.70944419750E+02
 0.79899372210E+02 0.88544779685E+02 0.97693303472E+02 0.10668339637E+03 0.11377917318E+03
 0.11696350293E+03 0.11466139980E+03 0.10643908441E+03 0.93323339808E+02 0.77485918319E+02
 0.61410366234E+02 0.47011224501E+02 0.35189488739E+02 0.25968189509E+02 0.18954129563E+02
 0.17772570658E+02 0.12725293835E+02 0.92457663612E+01 0.70353101158E+01 0.57956181840E+01
 0.52725168444E+01 0.53002670015E+01 0.58006424532E+01 0.67654808857E+01 0.82372771365E+01
 0.10272878485E+02 0.12902214406E+02 0.16112410241E+02 0.19843365094E+02 0.23956565373E+02
 0.28199271679E+02 0.32217284529E+02 0.35267734063E+02 0.36136679827E+02 0.33730994772E+02
 0.27487765334E+02 0.17778814070E+02 0.60677463772E+01 -.54033893747E+01 -.14246323745E+02
 -.18464436655E+02 -.16713757175E+02 -.85117526980E+01 0.54252858873E+01 0.23023744595E+02
 0.41382726999E+02 0.57971785229E+02 0.71745532799E+02 0.83363658674E+02 0.94406108115E+02
 0.10618166876E+03 0.11866772423E+03 0.13010279485E+03 0.13792217016E+03 0.13965870848E+03
 0.13378527403E+03 0.12061656310E+03 0.10230642983E+03 0.82036835343E+02 0.62872161881E+02
 0.46739813073E+02 0.34168913576E+02 0.24741596553E+02 0.22602388899E+02 0.16032961696E+02
 0.11403950071E+02 0.83202223020E+01 0.64311366716E+01 0.54319564370E+01 0.50984765948E+01
 0.52833625428E+01 0.59115345026E+01 0.69907932520E+01 0.85861791367E+01 0.10752695673E+02
 0.13498955293E+02 0.16803594066E+02 0.20607868498E+02 0.24751311287E+02 0.28940766313E+02
 0.32707630650E+02 0.35003735687E+02 0.34619434407E+02 0.30649681535E+02 0.22910935620E+02
 0.12267938167E+02 0.56794620961E+00 -.98500128589E+01 -.16725458627E+02 -.18229676243E+02
 -.13221018184E+02 -.16548765417E+01 0.15027196491E+02 0.34102189902E+02 0.52622008405E+02
 0.68770993089E+02 0.82575354533E+02 0.95483831706E+02 0.10917134286E+03 0.12430269607E+03
 0.13959260631E+03 0.15231161020E+03 0.15941605494E+03 0.15802891289E+03 0.14707390454E+03
 0.12827296119E+03 0.10514917333E+03 0.81548981674E+02 0.60690572704E+02 0.44090956824E+02
 0.31675763385E+02 0.28089131771E+02 0.19837450600E+02 0.13971322610E+02 0.99374111645E+01
 0.73246409441E+01 0.57935419856E+01 0.50720853381E+01 0.49488870414E+01 0.52816891435E+01
 0.60285742842E+01 0.72369251862E+01 0.89706064651E+01 0.11259365604E+02 0.14118499027E+02
 0.17558338751E+02 0.21514209096E+02 0.25776597647E+02 0.30023653410E+02 0.33605666991E+02
 0.35363328229E+02 0.34187490143E+02 0.29425001213E+02 0.21268134237E+02 0.10896111075E+02
 0.22784805227E+00 -.85256976995E+01 -.13240549825E+02 -.12202096034E+02 -.45699688657E+01
 0.90873754385E+01 0.26675237912E+02 0.45289192894E+02 0.62538343279E+02 0.77648963930E+02
 0.91590089989E+02 0.10614854898E+03 0.12256809581E+03 0.14035132106E+03 0.15703829848E+03
 0.16950458232E+03 0.17401002621E+03 0.16779123561E+03 0.15109504902E+03 0.12732918638E+03
 0.10096847036E+03 0.76037256414E+02 0.55322559511E+02 0.39563926786E+02 0.33920599258E+02
 0.23930539450E+02 0.16805206272E+02 0.11804254426E+02 0.84418957718E+01 0.63480796047E+01
 0.52108996157E+01 0.47712637536E+01 0.48386257047E+01 0.53183404502E+01 0.62124579298E+01
 0.75717932837E+01 0.94479146228E+01 0.11893095144E+02 0.14967346209E+02 0.18687146488E+02
 0.22948373563E+02 0.27517796739E+02 0.32058679132E+02 0.35747400985E+02 0.37436952175E+02
 0.36176102173E+02 0.31564586850E+02 0.24002617259E+02 0.14695510966E+02 0.54403646854E+01
 -.16673946946E+01 -.45731947072E+01 -.17475105478E+01 0.72057507236E+01 0.21157663684E+02
 0.37736725999E+02 0.54373212550E+02 0.69569220142E+02 0.83554776838E+02 0.97853904074E+02
 0.11404539718E+03 0.13243881865E+03 0.15122538781E+03 0.16750889935E+03 0.17758886010E+03
 0.17756432858E+03 0.16578950895E+03 0.14430810854E+03 0.11774641798E+03 0.90643016177E+02
 0.66719445153E+02 0.47839006109E+02 0.39538932228E+02 0.27974629762E+02 0.19681601766E+02
 0.13780831038E+02 0.97061799719E+01 0.70555582106E+01 0.54903870638E+01 0.47260636318E+01
 0.45447999744E+01 0.48056389905E+01 0.54540580914E+01 0.65127833603E+01 0.80480120474E+01
 0.10142379567E+02 0.12888388537E+02 0.16364976636E+02 0.20574466821E+02 0.25389291419E+02
 0.30566862347E+02 0.35710132566E+02 0.39899324579E+02 0.42076161037E+02 0.41432691040E+02
 0.37675538062E+02 0.31197078495E+02 0.23095005172E+02 0.15056057099E+02 0.91160382916E+01
 0.72362902810E+01 0.10679937316E+02 0.19414117039E+02 0.31980213027E+02 0.46126403190E+02
 0.59968324575E+02 0.72961558968E+02 0.86014209304E+02 0.10065682661E+03 0.11779456839E+03
 0.13653619690E+03 0.15434901353E+03 0.16805987691E+03 0.17371710859E+03 0.16831717059E+03
 0.15198906284E+03 0.12821652382E+03 0.10165567529E+03 0.76443606354E+02 0.55472381175E+02
 0.44158639170E+02 0.31507262483E+02 0.22308518301E+02 0.15678384368E+02 0.10998418227E+02
 0.78429818877E+01 0.58693826526E+01 0.47893873135E+01 0.43704948394E+01 0.44372164781E+01
 0.48893434929E+01 0.57195336049E+01 0.69934070223E+01 0.88095807651E+01 0.11283926459E+02
 0.14543613614E+02 0.18678753434E+02 0.23664391947E+02 0.29331601677E+02 0.35413322191E+02
 0.41452824125E+02 0.46510378689E+02 0.49576312575E+02 0.49872154481E+02 0.47081558204E+02
 0.41517031547E+02 0.34191798884E+02 0.26762625317E+02 0.21251705835E+02 0.19485176119E+02
 0.22401071172E+02 0.29620157022E+02 0.39646891272E+02 0.50695117321E+02 0.61677810696E+02
 0.72737000264E+02 0.84967532675E+02 0.99494138162E+02 0.11624446871E+03 0.13348618166E+03
 0.14837931625E+03 0.15766265830E+03 0.15807467624E+03 0.14822636158E+03 0.12978375295E+03
 0.10649551080E+03 0.82455044500E+02 0.61125967266E+02 0.46939557151E+02 0.34007902851E+02
 0.24359241068E+02 0.17277568218E+02 0.12168194689E+02 0.86129415190E+01 0.62913003856E+01
 0.49293777425E+01 0.42885671274E+01 0.41737500007E+01 0.44600504770E+01 0.51166494543E+01
 0.61956218679E+01 0.77985641966E+01 0.10060574194E+02 0.13144999375E+02 0.17202479102E+02
 0.22293711875E+02 0.28339367909E+02 0.35134366175E+02 0.42380388215E+02 0.49541054431E+02
 0.55615848199E+02 0.59549362077E+02 0.60515350150E+02 0.58152559407E+02 0.52767152280E+02
 0.45438107079E+02 0.37904507996E+02 0.32143565529E+02 0.29727687313E+02 0.31257233730E+02
 0.36206027870E+02 0.43319409918E+02 0.51380955594E+02 0.59912708783E+02 0.69370379852E+02
 0.80679576124E+02 0.94210148709E+02 0.10907595316E+03 0.12323521247E+03 0.13387332561E+03
 0.13818524745E+03 0.13421668209E+03 0.12205262526E+03 0.10392902883E+03 0.83292952239E+02
 0.63572390749E+02 0.47277790175E+02 0.35030593994E+02 0.25530317465E+02 0.18362345878E+02
 0.13058528375E+02 0.92586629416E+01 0.66878017539E+01 0.51012865896E+01 0.42677783480E+01
 0.39884534853E+01 0.41297914321E+01 0.46452929561E+01 0.55715009288E+01 0.70087947420E+01
 0.91071861191E+01 0.12053207967E+02 0.16034298720E+02 0.21179372043E+02 0.27507429708E+02
 0.34906651681E+02 0.43126115262E+02 0.51750707405E+02 0.60073504057E+02 0.66943330008E+02
 0.71185430747E+02 0.71940183388E+02 0.68945226170E+02 0.62727569075E+02 0.54597863203E+02
 0.46372688802E+02 0.39867028837E+02 0.36339075658E+02 0.36138536899E+02 0.38749967788E+02
 0.43238129075E+02 0.48866777664E+02 0.55522406420E+02 0.63660330349E+02 0.73645350085E+02
 0.85152924591E+02 0.97012248852E+02 0.10723388788E+03 0.11343820688E+03 0.11362726937E+03
 0.10703676800E+03 0.94610831069E+02 0.78720168144E+02 0.62199483207E+02 0.45062255056E+02
 0.34356152113E+02 0.25617678231E+02 0.18766032188E+02 0.13537890046E+02 0.96814247688E+01
 0.69867652745E+01 0.52525405992E+01 0.42723828386E+01 0.38578877045E+01 0.38745827767E+01
 0.42665263897E+01 0.50610459109E+01 0.63593902395E+01 0.83218963638E+01 0.11148250244E+02
 0.15048004980E+02 0.20202938858E+02 0.26729138757E+02 0.34637485611E+02 0.43777692586E+02
 0.53760915617E+02 0.63891924735E+02 0.73135541201E+02 0.80105372968E+02 0.83539335021E+02
 0.82743489171E+02 0.77843829876E+02 0.69816457872E+02 0.60264729704E+02 0.51002157605E+02
 0.43575798025E+02 0.38896094503E+02 0.37113001473E+02 0.37791531499E+02 0.40305399465E+02