   9   9   0   0
  0.1255774E+02  0.4913700E-09  0.4913700E-09  0.5405130E-09  0.5000000E-15
  1.000000000000000E-004
  CAR 
 unknown system                          
     13.59960480    -20.45621337  301      1.16923116      1.00000000
    -20.456  0.0000E+00  0.0000E+00
    -20.343  0.0000E+00  0.0000E+00
    -20.229  0.0000E+00  0.0000E+00
    -20.116  0.0000E+00  0.0000E+00
    -20.002  0.0000E+00  0.0000E+00
    -19.889  0.0000E+00  0.0000E+00
    -19.775  0.0000E+00  0.0000E+00
    -19.662  0.0000E+00  0.0000E+00
    -19.548  0.0000E+00  0.0000E+00
    -19.435  0.0000E+00  0.0000E+00
    -19.321  0.0000E+00  0.0000E+00
    -19.208  0.0000E+00  0.0000E+00
    -19.094  0.0000E+00  0.0000E+00
    -18.980  0.0000E+00  0.0000E+00
    -18.867  0.0000E+00  0.0000E+00
    -18.753  0.0000E+00  0.0000E+00
    -18.640  0.0000E+00  0.0000E+00
    -18.526  0.0000E+00  0.0000E+00
    -18.413  0.6881E-01  0.9943E-03
    -18.299  0.9011E+00  0.4712E-01
    -18.186  0.4630E+01  0.3049E+00
    -18.072  0.9160E+01  0.1159E+01
    -17.959  0.1351E+01  0.1985E+01
    -17.845  0.0000E+00  0.2000E+01
    -17.732  0.0000E+00  0.2000E+01
    -17.618  0.2757E+01  0.2083E+01
    -17.505  0.1117E+02  0.2686E+01
    -17.391  0.5592E+01  0.3623E+01
    -17.278  0.6827E+00  0.3972E+01
    -17.164  0.4399E-02  0.4000E+01
    -17.051  0.8952E-01  0.4001E+01
    -16.937  0.1267E+01  0.4065E+01
    -16.824  0.7400E+01  0.4574E+01
    -16.710  0.6787E+01  0.5444E+01
    -16.597  0.1883E+01  0.5950E+01
    -16.483  0.3221E+01  0.6037E+01
    -16.370  0.1072E+02  0.7070E+01
    -16.256  0.4110E+01  0.7829E+01
    -16.142  0.1977E+02  0.8914E+01
    -16.029  0.0000E+00  0.1000E+02
    -15.915  0.2464E+02  0.1045E+02
    -15.802  0.0000E+00  0.1200E+02
    -15.688  0.0000E+00  0.1200E+02
    -15.575  0.0000E+00  0.1200E+02
    -15.461  0.0000E+00  0.1200E+02
    -15.348  0.0000E+00  0.1200E+02
    -15.234  0.0000E+00  0.1200E+02
    -15.121  0.0000E+00  0.1200E+02
    -15.007  0.0000E+00  0.1200E+02
    -14.894  0.0000E+00  0.1200E+02
    -14.780  0.0000E+00  0.1200E+02
    -14.667  0.0000E+00  0.1200E+02
    -14.553  0.0000E+00  0.1200E+02
    -14.440  0.0000E+00  0.1200E+02
    -14.326  0.0000E+00  0.1200E+02
    -14.213  0.0000E+00  0.1200E+02
    -14.099  0.0000E+00  0.1200E+02
    -13.986  0.0000E+00  0.1200E+02
    -13.872  0.0000E+00  0.1200E+02
    -13.759  0.0000E+00  0.1200E+02
    -13.645  0.0000E+00  0.1200E+02
    -13.532  0.0000E+00  0.1200E+02
    -13.418  0.0000E+00  0.1200E+02
    -13.304  0.0000E+00  0.1200E+02
    -13.191  0.0000E+00  0.1200E+02
    -13.077  0.0000E+00  0.1200E+02
    -12.964  0.0000E+00  0.1200E+02
    -12.850  0.0000E+00  0.1200E+02
    -12.737  0.0000E+00  0.1200E+02
    -12.623  0.0000E+00  0.1200E+02
    -12.510  0.0000E+00  0.1200E+02
    -12.396  0.0000E+00  0.1200E+02
    -12.283  0.0000E+00  0.1200E+02
    -12.169  0.0000E+00  0.1200E+02
    -12.056  0.0000E+00  0.1200E+02
    -11.942  0.0000E+00  0.1200E+02
    -11.829  0.0000E+00  0.1200E+02
    -11.715  0.0000E+00  0.1200E+02
    -11.602  0.0000E+00  0.1200E+02
    -11.488  0.0000E+00  0.1200E+02
    -11.375  0.0000E+00  0.1200E+02
    -11.261  0.0000E+00  0.1200E+02
    -11.148  0.0000E+00  0.1200E+02
    -11.034  0.0000E+00  0.1200E+02
    -10.921  0.0000E+00  0.1200E+02
    -10.807  0.0000E+00  0.1200E+02
    -10.694  0.0000E+00  0.1200E+02
    -10.580  0.0000E+00  0.1200E+02
    -10.467  0.0000E+00  0.1200E+02
    -10.353  0.0000E+00  0.1200E+02
    -10.239  0.0000E+00  0.1200E+02
    -10.126  0.0000E+00  0.1200E+02
    -10.012  0.0000E+00  0.1200E+02
     -9.899  0.0000E+00  0.1200E+02
     -9.785  0.0000E+00  0.1200E+02
     -9.672  0.0000E+00  0.1200E+02
     -9.558  0.0000E+00  0.1200E+02
     -9.445  0.0000E+00  0.1200E+02
     -9.331  0.0000E+00  0.1200E+02
     -9.218  0.0000E+00  0.1200E+02
     -9.104  0.0000E+00  0.1200E+02
     -8.991  0.0000E+00  0.1200E+02
     -8.877  0.0000E+00  0.1200E+02
     -8.764  0.0000E+00  0.1200E+02
     -8.650  0.0000E+00  0.1200E+02
     -8.537  0.0000E+00  0.1200E+02
     -8.423  0.0000E+00  0.1200E+02
     -8.310  0.0000E+00  0.1200E+02
     -8.196  0.0000E+00  0.1200E+02
     -8.083  0.9976E-01  0.1200E+02
     -7.969  0.2975E+00  0.1203E+02
     -7.856  0.5589E+00  0.1207E+02
     -7.742  0.8840E+00  0.1215E+02
     -7.629  0.1273E+01  0.1228E+02
     -7.515  0.3613E+01  0.1251E+02
     -7.401  0.6678E+01  0.1311E+02
     -7.288  0.3432E+01  0.1374E+02
     -7.174  0.9232E+00  0.1395E+02
     -7.061  0.8533E-01  0.1400E+02
     -6.947  0.5612E-01  0.1400E+02
     -6.834  0.1547E+00  0.1401E+02
     -6.720  0.3022E+00  0.1404E+02
     -6.607  0.5958E+00  0.1409E+02
     -6.493  0.1410E+01  0.1420E+02
     -6.380  0.2249E+01  0.1441E+02
     -6.266  0.3334E+01  0.1472E+02
     -6.153  0.4688E+01  0.1518E+02
     -6.039  0.4275E+01  0.1574E+02
     -5.926  0.7847E+00  0.1597E+02
     -5.812  0.0000E+00  0.1600E+02
     -5.699  0.0000E+00  0.1600E+02
     -5.585  0.0000E+00  0.1600E+02
     -5.472  0.4345E+00  0.1601E+02
     -5.358  0.2205E+01  0.1616E+02
     -5.245  0.3426E+01  0.1648E+02
     -5.131  0.3432E+01  0.1687E+02
     -5.018  0.3149E+01  0.1724E+02
     -4.904  0.2584E+01  0.1757E+02
     -4.791  0.1587E+01  0.1780E+02
     -4.677  0.9705E+00  0.1795E+02
     -4.563  0.2325E-01  0.1800E+02
     -4.450  0.6693E+01  0.1819E+02
     -4.336  0.9813E+01  0.1957E+02
     -4.223  0.3478E+01  0.2015E+02
     -4.109  0.7865E+01  0.2085E+02
     -3.996  0.6930E+01  0.2166E+02
     -3.882  0.8911E+00  0.2207E+02
     -3.769  0.1286E+02  0.2273E+02
     -3.655  0.3767E+01  0.2372E+02
     -3.542  0.8915E+00  0.2397E+02
     -3.428  0.0000E+00  0.2400E+02
     -3.315  0.0000E+00  0.2400E+02
     -3.201  0.0000E+00  0.2400E+02
     -3.088  0.0000E+00  0.2400E+02
     -2.974  0.0000E+00  0.2400E+02
     -2.861  0.0000E+00  0.2400E+02
     -2.747  0.0000E+00  0.2400E+02
     -2.634  0.0000E+00  0.2400E+02
     -2.520  0.0000E+00  0.2400E+02
     -2.407  0.0000E+00  0.2400E+02
     -2.293  0.0000E+00  0.2400E+02
     -2.180  0.1066E+02  0.2442E+02
     -2.066  0.3280E+01  0.2576E+02
     -1.953  0.8942E+01  0.2613E+02
     -1.839  0.9469E+01  0.2741E+02
     -1.726  0.1792E+01  0.2796E+02
     -1.612  0.6388E+01  0.2831E+02
     -1.498  0.1099E+02  0.2939E+02
     -1.385  0.5154E+00  0.2999E+02
     -1.271  0.9030E+01  0.3024E+02
     -1.158  0.9779E+01  0.3165E+02
     -1.044  0.4731E+00  0.3199E+02
     -0.931  0.2670E+02  0.3306E+02
     -0.817  0.1024E+01  0.3391E+02
     -0.704  0.6641E+01  0.3426E+02
     -0.590  0.9403E+01  0.3525E+02
     -0.477  0.7662E+01  0.3614E+02
     -0.363  0.8462E+01  0.3733E+02
     -0.250  0.3584E+01  0.3800E+02
     -0.136  0.8143E+01  0.3842E+02
     -0.023  0.7392E+01  0.3982E+02
      0.091  0.8162E+01  0.4041E+02
      0.204  0.8439E+01  0.4174E+02
      0.318  0.1615E+01  0.4202E+02
      0.431  0.1614E+02  0.4324E+02
      0.545  0.1818E+01  0.4389E+02
      0.658  0.1988E+01  0.4401E+02
      0.772  0.9374E+01  0.4486E+02
      0.885  0.8274E+01  0.4595E+02
      0.999  0.1235E+02  0.4694E+02
      1.112  0.2287E+01  0.4793E+02
      1.226  0.0000E+00  0.4800E+02
      1.340  0.0000E+00  0.4800E+02
      1.453  0.0000E+00  0.4800E+02
      1.567  0.0000E+00  0.4800E+02
      1.680  0.0000E+00  0.4800E+02
      1.794  0.0000E+00  0.4800E+02
      1.907  0.0000E+00  0.4800E+02
      2.021  0.0000E+00  0.4800E+02
      2.134  0.0000E+00  0.4800E+02
      2.248  0.0000E+00  0.4800E+02
      2.361  0.0000E+00  0.4800E+02
      2.475  0.0000E+00  0.4800E+02
      2.588  0.0000E+00  0.4800E+02
      2.702  0.0000E+00  0.4800E+02
      2.815  0.0000E+00  0.4800E+02
      2.929  0.0000E+00  0.4800E+02
      3.042  0.0000E+00  0.4800E+02
      3.156  0.0000E+00  0.4800E+02
      3.269  0.0000E+00  0.4800E+02
      3.383  0.0000E+00  0.4800E+02
      3.496  0.0000E+00  0.4800E+02
      3.610  0.0000E+00  0.4800E+02
      3.723  0.0000E+00  0.4800E+02
      3.837  0.0000E+00  0.4800E+02
      3.950  0.0000E+00  0.4800E+02
      4.064  0.0000E+00  0.4800E+02
      4.177  0.0000E+00  0.4800E+02
      4.291  0.0000E+00  0.4800E+02
      4.405  0.0000E+00  0.4800E+02
      4.518  0.0000E+00  0.4800E+02
      4.632  0.0000E+00  0.4800E+02
      4.745  0.0000E+00  0.4800E+02
      4.859  0.0000E+00  0.4800E+02
      4.972  0.0000E+00  0.4800E+02
      5.086  0.0000E+00  0.4800E+02
      5.199  0.0000E+00  0.4800E+02
      5.313  0.0000E+00  0.4800E+02
      5.426  0.0000E+00  0.4800E+02
      5.540  0.0000E+00  0.4800E+02
      5.653  0.0000E+00  0.4800E+02
      5.767  0.0000E+00  0.4800E+02
      5.880  0.0000E+00  0.4800E+02
      5.994  0.0000E+00  0.4800E+02
      6.107  0.0000E+00  0.4800E+02
      6.221  0.0000E+00  0.4800E+02
      6.334  0.0000E+00  0.4800E+02
      6.448  0.0000E+00  0.4800E+02
      6.561  0.0000E+00  0.4800E+02
      6.675  0.0000E+00  0.4800E+02
      6.788  0.0000E+00  0.4800E+02
      6.902  0.0000E+00  0.4800E+02
      7.015  0.0000E+00  0.4800E+02
      7.129  0.3396E-03  0.4800E+02
      7.243  0.5722E-02  0.4800E+02
      7.356  0.1765E-01  0.4800E+02
      7.470  0.3612E-01  0.4800E+02
      7.583  0.6114E-01  0.4801E+02
      7.697  0.9271E-01  0.4802E+02
      7.810  0.1308E+00  0.4803E+02
      7.924  0.1755E+00  0.4805E+02
      8.037  0.2267E+00  0.4807E+02
      8.151  0.3044E+00  0.4810E+02
      8.264  0.4163E+00  0.4814E+02
      8.378  0.5377E+00  0.4820E+02
      8.491  0.6688E+00  0.4826E+02
      8.605  0.8853E+00  0.4835E+02
      8.718  0.1088E+01  0.4846E+02
      8.832  0.1257E+01  0.4860E+02
      8.945  0.1393E+01  0.4875E+02
      9.059  0.1496E+01  0.4891E+02
      9.172  0.1895E+01  0.4910E+02
      9.286  0.1796E+01  0.4931E+02
      9.399  0.1543E+01  0.4950E+02
      9.513  0.1281E+01  0.4966E+02
      9.626  0.1010E+01  0.4979E+02
      9.740  0.7295E+00  0.4989E+02
      9.853  0.4405E+00  0.4996E+02
      9.967  0.2106E+00  0.4999E+02
     10.081  0.7646E+00  0.5004E+02
     10.194  0.2349E+01  0.5019E+02
     10.308  0.8811E+01  0.5081E+02
     10.421  0.6242E+01  0.5194E+02
     10.535  0.1098E+02  0.5272E+02
     10.648  0.6109E+01  0.5367E+02
     10.762  0.1926E+01  0.5410E+02
     10.875  0.1885E+01  0.5427E+02
     10.989  0.4529E+01  0.5459E+02
     11.102  0.6379E+01  0.5523E+02
     11.216  0.3679E+01  0.5586E+02
     11.329  0.3056E+01  0.5616E+02
     11.443  0.1240E+02  0.5727E+02
     11.556  0.1336E+01  0.5798E+02
     11.670  0.0000E+00  0.5800E+02
     11.783  0.0000E+00  0.5800E+02
     11.897  0.0000E+00  0.5800E+02
     12.010  0.0000E+00  0.5800E+02
     12.124  0.0000E+00  0.5800E+02
     12.237  0.0000E+00  0.5800E+02
     12.351  0.0000E+00  0.5800E+02
     12.464  0.0000E+00  0.5800E+02
     12.578  0.0000E+00  0.5800E+02
     12.691  0.0000E+00  0.5800E+02
     12.805  0.0000E+00  0.5800E+02
     12.918  0.0000E+00  0.5800E+02
     13.032  0.0000E+00  0.5800E+02
     13.146  0.0000E+00  0.5800E+02
     13.259  0.0000E+00  0.5800E+02
     13.373  0.0000E+00  0.5800E+02
     13.486  0.0000E+00  0.5800E+02
     13.600  0.0000E+00  0.5800E+02
