Starting job 28173905 ("jobname") on c14-18 at Fri Sep 13 12:03:14 CEST 2019
 running on    1 total cores
 distrk:  each k-point on    1 cores,    1 groups
 distr:  one band on    1 cores,    1 groups
 using from now: INCAR     
 vasp.5.4.1 05Feb16 (build Mar 02 2016 14:09:44) complex                        
  
 POSCAR found :  2 types and       9 ions
 LDA part: xc-table for Pade appr. of Perdew
 POSCAR, INCAR and KPOINTS ok, starting setup
 WARNING: small aliasing (wrap around) errors must be expected
 FFT: planning ...
 WAVECAR not read
 entering main loop
       N       E                     dE             d eps       ncg     rms          rms(c)
DAV:   1     0.272374336148E+03    0.27237E+03   -0.22528E+04   820   0.125E+03
DAV:   2    -0.627801518368E+02   -0.33515E+03   -0.32950E+03  1044   0.317E+02
DAV:   3    -0.801475438489E+02   -0.17367E+02   -0.17326E+02   952   0.823E+01
DAV:   4    -0.803615237601E+02   -0.21398E+00   -0.21363E+00   960   0.984E+00
DAV:   5    -0.803657479949E+02   -0.42242E-02   -0.42231E-02   937   0.134E+00    0.185E+01
RMM:   6    -0.708962214071E+02    0.94695E+01   -0.40206E+01   868   0.332E+01    0.518E+00
RMM:   7    -0.708674053654E+02    0.28816E-01   -0.17944E+00   936   0.613E+00    0.340E+00
RMM:   8    -0.708812401428E+02   -0.13835E-01   -0.27461E-01   913   0.406E+00    0.633E-01
RMM:   9    -0.708731423137E+02    0.80978E-02   -0.47058E-02   951   0.113E+00    0.151E-01
RMM:  10    -0.708758381769E+02   -0.26959E-02   -0.16906E-02   941   0.659E-01    0.194E-01
RMM:  11    -0.708750044861E+02    0.83369E-03   -0.42771E-03   941   0.374E-01    0.186E-02
RMM:  12    -0.708750450097E+02   -0.40524E-04   -0.16275E-04   876   0.761E-02    0.140E-02
RMM:  13    -0.708750449583E+02    0.51365E-07   -0.84317E-06   612   0.162E-02
   1 F= -.70875045E+02 E0= -.70875045E+02  d E =0.000000E+00

Currently Loaded Modulefiles:
  1) Anaconda3/5.1.0       3) vesta/3.3.8           5) intel/2016.1
  2) gnuplot/5.0.4         4) imagemagick/6.7.9-0   6) vasp/5.4.1.Feb16

Job script resource usage:
       JobID  MaxVMSize     MaxRSS 
------------ ---------- ---------- 
28173905.ba+    216884K      1823K 

Job step resource usage:
       JobID    JobName  AllocCPUS  MaxVMSize     MaxRSS    Elapsed ExitCode 
------------ ---------- ---------- ---------- ---------- ---------- -------- 
28173905        jobname          1                         00:00:23      0:0 

Job 28173905 ("jobname") completed on c14-18 at Fri Sep 13 12:03:35 CEST 2019
