  20  20   0   0
  0.1387494E+02  0.3946846E-09  0.3946846E-09  0.1781396E-08  0.5000000E-15
  1.000000000000000E-004
  CAR 
 unknown system                          
     11.14413749    -33.70211326  301      1.95065608      1.00000000
    -33.702  0.0000E+00  0.0000E+00
    -33.553  0.0000E+00  0.0000E+00
    -33.403  0.0000E+00  0.0000E+00
    -33.254  0.0000E+00  0.0000E+00
    -33.104  0.0000E+00  0.0000E+00
    -32.955  0.0000E+00  0.0000E+00
    -32.805  0.0000E+00  0.0000E+00
    -32.656  0.0000E+00  0.0000E+00
    -32.506  0.0000E+00  0.0000E+00
    -32.357  0.0000E+00  0.0000E+00
    -32.207  0.0000E+00  0.0000E+00
    -32.058  0.0000E+00  0.0000E+00
    -31.908  0.0000E+00  0.0000E+00
    -31.759  0.0000E+00  0.0000E+00
    -31.609  0.0000E+00  0.2000E+01
    -31.460  0.0000E+00  0.2000E+01
    -31.310  0.0000E+00  0.4000E+01
    -31.161  0.0000E+00  0.6000E+01
    -31.011  0.0000E+00  0.6000E+01
    -30.862  0.0000E+00  0.8000E+01
    -30.712  0.0000E+00  0.8000E+01
    -30.563  0.0000E+00  0.8000E+01
    -30.413  0.0000E+00  0.8000E+01
    -30.264  0.0000E+00  0.8000E+01
    -30.114  0.0000E+00  0.8000E+01
    -29.965  0.0000E+00  0.8000E+01
    -29.815  0.0000E+00  0.8000E+01
    -29.666  0.0000E+00  0.8000E+01
    -29.516  0.0000E+00  0.8000E+01
    -29.367  0.0000E+00  0.8000E+01
    -29.217  0.0000E+00  0.8000E+01
    -29.068  0.0000E+00  0.8000E+01
    -28.919  0.0000E+00  0.8000E+01
    -28.769  0.0000E+00  0.8000E+01
    -28.620  0.0000E+00  0.8000E+01
    -28.470  0.0000E+00  0.8000E+01
    -28.321  0.0000E+00  0.8000E+01
    -28.171  0.0000E+00  0.8000E+01
    -28.022  0.0000E+00  0.8000E+01
    -27.872  0.0000E+00  0.8000E+01
    -27.723  0.0000E+00  0.8000E+01
    -27.573  0.0000E+00  0.8000E+01
    -27.424  0.0000E+00  0.8000E+01
    -27.274  0.0000E+00  0.8000E+01
    -27.125  0.0000E+00  0.8000E+01
    -26.975  0.0000E+00  0.8000E+01
    -26.826  0.0000E+00  0.8000E+01
    -26.676  0.0000E+00  0.8000E+01
    -26.527  0.0000E+00  0.8000E+01
    -26.377  0.0000E+00  0.8000E+01
    -26.228  0.0000E+00  0.8000E+01
    -26.078  0.0000E+00  0.8000E+01
    -25.929  0.0000E+00  0.8000E+01
    -25.779  0.0000E+00  0.8000E+01
    -25.630  0.0000E+00  0.8000E+01
    -25.480  0.0000E+00  0.8000E+01
    -25.331  0.0000E+00  0.8000E+01
    -25.181  0.0000E+00  0.8000E+01
    -25.032  0.0000E+00  0.8000E+01
    -24.882  0.0000E+00  0.8000E+01
    -24.733  0.0000E+00  0.8000E+01
    -24.583  0.0000E+00  0.8000E+01
    -24.434  0.0000E+00  0.8000E+01
    -24.284  0.0000E+00  0.8000E+01
    -24.135  0.0000E+00  0.8000E+01
    -23.985  0.0000E+00  0.8000E+01
    -23.836  0.0000E+00  0.8000E+01
    -23.686  0.0000E+00  0.8000E+01
    -23.537  0.0000E+00  0.8000E+01
    -23.387  0.0000E+00  0.8000E+01
    -23.238  0.0000E+00  0.8000E+01
    -23.089  0.0000E+00  0.8000E+01
    -22.939  0.0000E+00  0.8000E+01
    -22.790  0.0000E+00  0.8000E+01
    -22.640  0.0000E+00  0.8000E+01
    -22.491  0.0000E+00  0.8000E+01
    -22.341  0.0000E+00  0.8000E+01
    -22.192  0.0000E+00  0.8000E+01
    -22.042  0.0000E+00  0.8000E+01
    -21.893  0.0000E+00  0.8000E+01
    -21.743  0.0000E+00  0.8000E+01
    -21.594  0.0000E+00  0.8000E+01
    -21.444  0.0000E+00  0.8000E+01
    -21.295  0.0000E+00  0.8000E+01
    -21.145  0.0000E+00  0.8000E+01
    -20.996  0.0000E+00  0.8000E+01
    -20.846  0.0000E+00  0.8000E+01
    -20.697  0.0000E+00  0.8000E+01
    -20.547  0.0000E+00  0.8000E+01
    -20.398  0.0000E+00  0.8000E+01
    -20.248  0.0000E+00  0.8000E+01
    -20.099  0.0000E+00  0.8000E+01
    -19.949  0.0000E+00  0.8000E+01
    -19.800  0.0000E+00  0.8000E+01
    -19.650  0.0000E+00  0.8000E+01
    -19.501  0.0000E+00  0.8000E+01
    -19.351  0.0000E+00  0.8000E+01
    -19.202  0.0000E+00  0.8000E+01
    -19.052  0.0000E+00  0.8000E+01
    -18.903  0.0000E+00  0.8000E+01
    -18.753  0.0000E+00  0.8000E+01
    -18.604  0.0000E+00  0.8000E+01
    -18.454  0.0000E+00  0.8000E+01
    -18.305  0.0000E+00  0.8000E+01
    -18.155  0.0000E+00  0.8000E+01
    -18.006  0.0000E+00  0.8000E+01
    -17.856  0.0000E+00  0.8000E+01
    -17.707  0.0000E+00  0.8000E+01
    -17.557  0.0000E+00  0.8000E+01
    -17.408  0.0000E+00  0.8000E+01
    -17.258  0.0000E+00  0.8000E+01
    -17.109  0.0000E+00  0.8000E+01
    -16.960  0.0000E+00  0.8000E+01
    -16.810  0.0000E+00  0.8000E+01
    -16.661  0.0000E+00  0.8000E+01
    -16.511  0.0000E+00  0.8000E+01
    -16.362  0.0000E+00  0.8000E+01
    -16.212  0.0000E+00  0.8000E+01
    -16.063  0.4149E+01  0.8041E+01
    -15.913  0.3816E+01  0.9262E+01
    -15.764  0.1588E+01  0.9696E+01
    -15.614  0.1450E+02  0.1057E+02
    -15.465  0.5832E+01  0.1208E+02
    -15.315  0.8621E+01  0.1320E+02
    -15.166  0.1149E+02  0.1445E+02
    -15.016  0.2881E+02  0.1714E+02
    -14.867  0.3274E+02  0.1950E+02
    -14.717  0.4528E+01  0.2172E+02
    -14.568  0.0000E+00  0.2600E+02
    -14.418  0.2838E+02  0.2913E+02
    -14.269  0.0000E+00  0.3000E+02
    -14.119  0.0000E+00  0.3000E+02
    -13.970  0.5870E+01  0.3138E+02
    -13.820  0.5926E+00  0.3194E+02
    -13.671  0.7607E+01  0.3267E+02
    -13.521  0.2337E+02  0.3590E+02
    -13.372  0.1463E+02  0.3896E+02
    -13.222  0.2950E+02  0.4358E+02
    -13.073  0.1308E+02  0.4679E+02
    -12.923  0.2057E+02  0.4929E+02
    -12.774  0.1683E+02  0.5249E+02
    -12.624  0.1207E+02  0.5537E+02
    -12.475  0.0000E+00  0.5600E+02
    -12.325  0.0000E+00  0.5600E+02
    -12.176  0.0000E+00  0.5600E+02
    -12.026  0.0000E+00  0.5600E+02
    -11.877  0.0000E+00  0.5600E+02
    -11.727  0.0000E+00  0.5600E+02
    -11.578  0.0000E+00  0.5600E+02
    -11.428  0.0000E+00  0.5600E+02
    -11.279  0.0000E+00  0.5600E+02
    -11.130  0.0000E+00  0.5600E+02
    -10.980  0.0000E+00  0.5600E+02
    -10.831  0.0000E+00  0.5600E+02
    -10.681  0.0000E+00  0.5600E+02
    -10.532  0.0000E+00  0.5600E+02
    -10.382  0.0000E+00  0.5600E+02
    -10.233  0.0000E+00  0.5600E+02
    -10.083  0.0000E+00  0.5600E+02
     -9.934  0.0000E+00  0.5600E+02
     -9.784  0.0000E+00  0.5600E+02
     -9.635  0.0000E+00  0.5600E+02
     -9.485  0.0000E+00  0.5600E+02
     -9.336  0.0000E+00  0.5600E+02
     -9.186  0.0000E+00  0.5600E+02
     -9.037  0.0000E+00  0.5600E+02
     -8.887  0.0000E+00  0.5600E+02
     -8.738  0.0000E+00  0.5600E+02
     -8.588  0.0000E+00  0.5600E+02
     -8.439  0.0000E+00  0.5600E+02
     -8.289  0.0000E+00  0.5600E+02
     -8.140  0.0000E+00  0.5600E+02
     -7.990  0.0000E+00  0.5600E+02
     -7.841  0.0000E+00  0.5600E+02
     -7.691  0.0000E+00  0.5600E+02
     -7.542  0.0000E+00  0.5600E+02
     -7.392  0.0000E+00  0.5600E+02
     -7.243  0.0000E+00  0.5600E+02
     -7.093  0.0000E+00  0.5600E+02
     -6.944  0.0000E+00  0.5600E+02
     -6.794  0.0000E+00  0.5600E+02
     -6.645  0.0000E+00  0.5600E+02
     -6.495  0.0000E+00  0.5600E+02
     -6.346  0.0000E+00  0.5600E+02
     -6.196  0.0000E+00  0.5600E+02
     -6.047  0.0000E+00  0.5600E+02
     -5.897  0.0000E+00  0.5600E+02
     -5.748  0.0000E+00  0.5600E+02
     -5.598  0.0000E+00  0.5600E+02
     -5.449  0.0000E+00  0.5600E+02
     -5.299  0.0000E+00  0.5600E+02
     -5.150  0.0000E+00  0.5600E+02
     -5.001  0.0000E+00  0.5600E+02
     -4.851  0.0000E+00  0.5600E+02
     -4.702  0.0000E+00  0.5600E+02
     -4.552  0.0000E+00  0.5600E+02
     -4.403  0.0000E+00  0.5600E+02
     -4.253  0.0000E+00  0.5600E+02
     -4.104  0.0000E+00  0.5600E+02
     -3.954  0.0000E+00  0.5600E+02
     -3.805  0.0000E+00  0.5600E+02
     -3.655  0.0000E+00  0.5600E+02
     -3.506  0.0000E+00  0.5600E+02
     -3.356  0.0000E+00  0.5600E+02
     -3.207  0.0000E+00  0.5600E+02
     -3.057  0.0000E+00  0.5600E+02
     -2.908  0.4332E+01  0.5666E+02
     -2.758  0.1406E+02  0.5781E+02
     -2.609  0.2373E+02  0.6016E+02
     -2.459  0.8593E+01  0.6186E+02
     -2.310  0.9366E+01  0.6360E+02
     -2.160  0.1432E+02  0.6562E+02
     -2.011  0.1552E+02  0.6828E+02
     -1.861  0.1770E+02  0.7089E+02
     -1.712  0.1931E+02  0.7363E+02
     -1.562  0.1907E+02  0.7684E+02
     -1.413  0.1833E+02  0.7960E+02
     -1.263  0.2132E+02  0.8293E+02
     -1.114  0.1514E+02  0.8584E+02
     -0.964  0.1734E+02  0.8845E+02
     -0.815  0.1409E+02  0.9082E+02
     -0.665  0.1425E+02  0.9286E+02
     -0.516  0.1180E+02  0.9485E+02
     -0.366  0.1198E+02  0.9667E+02
     -0.217  0.1156E+02  0.9870E+02
     -0.067  0.7141E+01  0.1003E+03
      0.082  0.1365E+02  0.1019E+03
      0.232  0.1633E+02  0.1043E+03
      0.381  0.1407E+02  0.1073E+03
      0.531  0.1650E+02  0.1097E+03
      0.680  0.2214E+02  0.1127E+03
      0.829  0.1731E+02  0.1162E+03
      0.979  0.1947E+02  0.1184E+03
      1.128  0.1514E+02  0.1207E+03
      1.278  0.4511E+01  0.1226E+03
      1.427  0.1138E+02  0.1242E+03
      1.577  0.1036E+02  0.1258E+03
      1.726  0.1048E+02  0.1275E+03
      1.876  0.1214E+01  0.1280E+03
      2.025  0.0000E+00  0.1280E+03
      2.175  0.0000E+00  0.1280E+03
      2.324  0.0000E+00  0.1280E+03
      2.474  0.0000E+00  0.1280E+03
      2.623  0.0000E+00  0.1280E+03
      2.773  0.0000E+00  0.1280E+03
      2.922  0.0000E+00  0.1280E+03
      3.072  0.2748E+01  0.1281E+03
      3.221  0.3760E+01  0.1287E+03
      3.371  0.3400E+01  0.1293E+03
      3.520  0.2887E+01  0.1297E+03
      3.670  0.3155E+01  0.1301E+03
      3.819  0.4050E+01  0.1306E+03
      3.969  0.7387E+01  0.1316E+03
      4.118  0.6609E+01  0.1327E+03
      4.268  0.8680E+01  0.1339E+03
      4.417  0.1073E+02  0.1354E+03
      4.567  0.1813E+02  0.1375E+03
      4.716  0.1936E+02  0.1396E+03
      4.866  0.9908E+01  0.1413E+03
      5.015  0.9519E+01  0.1427E+03
      5.165  0.1093E+02  0.1445E+03
      5.314  0.8773E+01  0.1460E+03
      5.464  0.6317E+01  0.1472E+03
      5.613  0.5444E+01  0.1482E+03
      5.763  0.1391E+01  0.1488E+03
      5.912  0.5206E+00  0.1490E+03
      6.062  0.5028E+00  0.1490E+03
      6.211  0.4850E+00  0.1491E+03
      6.361  0.4672E+00  0.1492E+03
      6.510  0.4495E+00  0.1493E+03
      6.660  0.4317E+00  0.1493E+03
      6.809  0.4139E+00  0.1494E+03
      6.958  0.3961E+00  0.1494E+03
      7.108  0.3784E+00  0.1495E+03
      7.257  0.2052E+01  0.1497E+03
      7.407  0.1403E+01  0.1500E+03
      7.556  0.1337E+01  0.1502E+03
      7.706  0.1188E+01  0.1504E+03
      7.855  0.1248E+01  0.1506E+03
      8.005  0.1323E+01  0.1508E+03
      8.154  0.1177E+01  0.1510E+03
      8.304  0.9452E+00  0.1512E+03
      8.453  0.6547E+00  0.1513E+03
      8.603  0.5979E+00  0.1514E+03
      8.752  0.1058E+01  0.1516E+03
      8.902  0.1243E+01  0.1518E+03
      9.051  0.1163E+01  0.1519E+03
      9.201  0.0000E+00  0.1520E+03
      9.350  0.0000E+00  0.1520E+03
      9.500  0.0000E+00  0.1520E+03
      9.649  0.0000E+00  0.1520E+03
      9.799  0.0000E+00  0.1520E+03
      9.948  0.0000E+00  0.1520E+03
     10.098  0.0000E+00  0.1520E+03
     10.247  0.0000E+00  0.1520E+03
     10.397  0.0000E+00  0.1520E+03
     10.546  0.0000E+00  0.1520E+03
     10.696  0.0000E+00  0.1520E+03
     10.845  0.0000E+00  0.1520E+03
     10.995  0.0000E+00  0.1520E+03
     11.144  0.0000E+00  0.1520E+03
