       N       E                     dE             d eps       ncg     rms          rms(c)
DAV:   1     0.160760527729E+04    0.16076E+04   -0.55833E+04  1520   0.159E+03
DAV:   2     0.191429330420E+03   -0.14162E+04   -0.13403E+04  1596   0.427E+02
DAV:   3    -0.171577577873E+03   -0.36301E+03   -0.35058E+03  1992   0.197E+02
DAV:   4    -0.200263609970E+03   -0.28686E+02   -0.28537E+02  1960   0.602E+01
DAV:   5    -0.201846828557E+03   -0.15832E+01   -0.15821E+01  2576   0.140E+01    0.370E+01
RMM:   6    -0.161595737751E+03    0.40251E+02   -0.29420E+02  1719   0.505E+01    0.146E+01
RMM:   7    -0.157615917489E+03    0.39798E+01   -0.14150E+01  1799   0.144E+01    0.714E+00
RMM:   8    -0.156983343628E+03    0.63257E+00   -0.28598E+00  1982   0.614E+00    0.338E+00
RMM:   9    -0.156897882892E+03    0.85461E-01   -0.12631E+00  2060   0.411E+00    0.944E-01
RMM:  10    -0.156884567236E+03    0.13316E-01   -0.19140E-01  2324   0.145E+00    0.568E-01
RMM:  11    -0.156885148769E+03   -0.58153E-03   -0.10703E-01  2388   0.909E-01    0.271E-01
RMM:  12    -0.156890947791E+03   -0.57990E-02   -0.35001E-02  2434   0.501E-01    0.229E-01
RMM:  13    -0.156891473541E+03   -0.52575E-03   -0.13308E-02  2725   0.272E-01    0.158E-01
RMM:  14    -0.156892330117E+03   -0.85658E-03   -0.10039E-02  2449   0.269E-01    0.911E-02
RMM:  15    -0.156892473220E+03   -0.14310E-03   -0.30632E-03  2570   0.146E-01    0.422E-02
RMM:  16    -0.156892551903E+03   -0.78683E-04   -0.16435E-03  2588   0.889E-02    0.313E-02
RMM:  17    -0.156892594142E+03   -0.42239E-04   -0.66891E-04  2331   0.587E-02    0.153E-02
RMM:  18    -0.156892618766E+03   -0.24624E-04   -0.26771E-04  2148   0.379E-02    0.926E-03
RMM:  19    -0.156892628125E+03   -0.93592E-05   -0.13515E-04  1815   0.283E-02    0.739E-03
RMM:  20    -0.156892632618E+03   -0.44924E-05   -0.47663E-05  1607   0.189E-02
   1 F= -.15689263E+03 E0= -.15689263E+03  d E =0.000000E+00
