<?xml version="1.0" encoding="ISO-8859-1"?>
<modeling>
 <generator>
  <i name="program" type="string">vasp </i>
  <i name="version" type="string">5.4.4.18Apr17-6-g9f103f2a35  </i>
  <i name="subversion" type="string">(build Jun 30 2017 11:15:00) complex            parallel </i>
  <i name="platform" type="string">STALLO_VASP_5.4.4 </i>
  <i name="date" type="string">2019 11 08 </i>
  <i name="time" type="string">10:19:18 </i>
 </generator>
 <incar>
  <i type="string" name="PREC">normal    ! low/normal/accurate</i>
  <i type="string" name="ALGO"> Fast      ! Algorithm for electronic re</i>
  <i type="int" name="ISPIN">     1</i>
  <i type="int" name="NELMIN">     4</i>
  <i name="EDIFF">      0.00001000</i>
  <i type="int" name="NSW">     0</i>
  <i name="ENCUT">    500.00000000</i>
  <i type="logical" name="LREAL"> F  </i>
  <i type="int" name="ISMEAR">    -5</i>
  <i name="SIGMA">      0.20000000</i>
  <i type="logical" name="LWAVE"> F  </i>
  <v type="int" name="KPOINT_BSE">    -1     0     0     0</v>
 </incar>
 <structure name="primitive_cell" >
  <crystal>
   <varray name="basis" >
    <v>       3.94684634       0.00000000       0.00000000 </v>
    <v>       0.00000000       3.94684634       0.00000000 </v>
    <v>       0.00000000       0.00000000      17.81396220 </v>
   </varray>
   <i name="volume">    277.49870703 </i>
   <varray name="rec_basis" >
    <v>       0.25336684       0.00000000       0.00000000 </v>
    <v>       0.00000000       0.25336684       0.00000000 </v>
    <v>       0.00000000       0.00000000       0.05613574 </v>
   </varray>
  </crystal>
  <varray name="positions" >
   <v>      -0.50000000      -0.50000000       0.11227149 </v>
   <v>      -0.50000000      -0.50000000       0.22305106 </v>
   <v>       0.00000000       0.00000000       0.11227149 </v>
   <v>      -0.50000000       0.00000000       0.22305106 </v>
   <v>       0.00000000      -0.50000000       0.22305106 </v>
   <v>      -0.50000000      -0.50000000       0.33383064 </v>
   <v>      -0.50000000      -0.50000000      -0.11227149 </v>
   <v>      -0.50000000       0.00000000      -0.11227149 </v>
   <v>       0.00000000      -0.50000000      -0.11227149 </v>
   <v>       0.00000000       0.00000000       0.33383064 </v>
   <v>      -0.50000000      -0.50000000       0.44461021 </v>
   <v>      -0.50000000      -0.50000000      -0.22305106 </v>
   <v>      -0.50000000       0.00000000       0.44461021 </v>
   <v>       0.00000000      -0.50000000       0.44461021 </v>
   <v>       0.00000000       0.00000000      -0.22305106 </v>
   <v>      -0.50000000      -0.50000000      -0.44461021 </v>
   <v>      -0.50000000      -0.50000000      -0.33383064 </v>
   <v>      -0.50000000       0.00000000      -0.33383064 </v>
   <v>       0.00000000      -0.50000000      -0.33383064 </v>
   <v>       0.00000000       0.00000000      -0.44461021 </v>
  </varray>
 </structure>
 <varray name="primitive_index" >
  <v type="int" >        1 </v>
  <v type="int" >       17 </v>
  <v type="int" >       13 </v>
  <v type="int" >        2 </v>
  <v type="int" >        3 </v>
  <v type="int" >        4 </v>
  <v type="int" >       20 </v>
  <v type="int" >       11 </v>
  <v type="int" >       12 </v>
  <v type="int" >       14 </v>
  <v type="int" >       18 </v>
  <v type="int" >       10 </v>
  <v type="int" >        5 </v>
  <v type="int" >        6 </v>
  <v type="int" >       16 </v>
  <v type="int" >        7 </v>
  <v type="int" >       19 </v>
  <v type="int" >        8 </v>
  <v type="int" >        9 </v>
  <v type="int" >       15 </v>
 </varray>
 <kpoints>
  <generation param="Gamma">
   <v type="int" name="divisions">       7        7        1 </v>
   <v name="usershift">      0.00000000       0.00000000       0.00000000 </v>
   <v name="genvec1">      0.14285714       0.00000000       0.00000000 </v>
   <v name="genvec2">      0.00000000       0.14285714       0.00000000 </v>
   <v name="genvec3">      0.00000000       0.00000000       1.00000000 </v>
   <v name="shift">      0.00000000       0.00000000       0.00000000 </v>
  </generation>
  <varray name="kpointlist" >
   <v>       0.00000000       0.00000000       0.00000000 </v>
   <v>       0.14285714       0.00000000       0.00000000 </v>
   <v>       0.28571429       0.00000000       0.00000000 </v>
   <v>       0.42857143       0.00000000       0.00000000 </v>
   <v>       0.14285714       0.14285714       0.00000000 </v>
   <v>       0.28571429       0.14285714       0.00000000 </v>
   <v>       0.42857143       0.14285714       0.00000000 </v>
   <v>       0.28571429       0.28571429       0.00000000 </v>
   <v>       0.42857143       0.28571429       0.00000000 </v>
   <v>       0.42857143       0.42857143       0.00000000 </v>
  </varray>
  <varray name="weights" >
   <v>       0.02040816 </v>
   <v>       0.08163265 </v>
   <v>       0.08163265 </v>
   <v>       0.08163265 </v>
   <v>       0.08163265 </v>
   <v>       0.16326531 </v>
   <v>       0.16326531 </v>
   <v>       0.08163265 </v>
   <v>       0.16326531 </v>
   <v>       0.08163265 </v>
  </varray>
  <varray name="tetrahedronlist"  type="int" >
   <v type="int" >        4        1        1        2        5 </v>
   <v type="int" >        4        1        2        2        5 </v>
   <v type="int" >        4        1        2        5        5 </v>
   <v type="int" >        4        2        2        3        6 </v>
   <v type="int" >        4        2        2        5        6 </v>
   <v type="int" >        4        2        5        5        6 </v>
   <v type="int" >        4        2        3        3        6 </v>
   <v type="int" >        4        2        3        6        6 </v>
   <v type="int" >        4        2        5        6        6 </v>
   <v type="int" >        4        3        3        4        7 </v>
   <v type="int" >        4        3        3        6        7 </v>
   <v type="int" >        4        3        6        6        7 </v>
   <v type="int" >        4        3        4        4        7 </v>
   <v type="int" >        4        3        4        7        7 </v>
   <v type="int" >        4        3        6        7        7 </v>
   <v type="int" >        8        4        4        4        7 </v>
   <v type="int" >        8        4        4        7        7 </v>
   <v type="int" >        8        4        7        7        7 </v>
   <v type="int" >        4        3        4        4        6 </v>
   <v type="int" >        4        4        4        6        7 </v>
   <v type="int" >        4        4        6        7        7 </v>
   <v type="int" >        4        3        3        4        6 </v>
   <v type="int" >        4        3        4        6        6 </v>
   <v type="int" >        4        4        6        6        7 </v>
   <v type="int" >        4        2        3        3        5 </v>
   <v type="int" >        4        3        3        5        6 </v>
   <v type="int" >        4        3        5        6        6 </v>
   <v type="int" >        4        2        2        3        5 </v>
   <v type="int" >        4        2        3        5        5 </v>
   <v type="int" >        4        3        5        5        6 </v>
   <v type="int" >        4        1        2        2        2 </v>
   <v type="int" >        4        2        2        2        5 </v>
   <v type="int" >        2        2        2        5        5 </v>
   <v type="int" >        2        1        1        2        2 </v>
   <v type="int" >        4        5        5        6        8 </v>
   <v type="int" >        4        5        6        6        8 </v>
   <v type="int" >        4        5        6        8        8 </v>
   <v type="int" >        4        6        6        7        9 </v>
   <v type="int" >        4        6        6        8        9 </v>
   <v type="int" >        4        6        8        8        9 </v>
   <v type="int" >        4        6        7        7        9 </v>
   <v type="int" >        4        6        7        9        9 </v>
   <v type="int" >        4        6        8        9        9 </v>
   <v type="int" >        8        7        7        7        9 </v>
   <v type="int" >        8        7        7        9        9 </v>
   <v type="int" >        8        7        9        9        9 </v>
   <v type="int" >        4        6        7        7        8 </v>
   <v type="int" >        4        7        7        8        9 </v>
   <v type="int" >        4        7        8        9        9 </v>
   <v type="int" >        4        6        6        7        8 </v>
   <v type="int" >        4        6        7        8        8 </v>
   <v type="int" >        4        7        8        8        9 </v>
   <v type="int" >        4        5        6        6        6 </v>
   <v type="int" >        4        6        6        6        8 </v>
   <v type="int" >        2        6        6        8        8 </v>
   <v type="int" >        2        5        5        6        6 </v>
   <v type="int" >        4        8        8        9       10 </v>
   <v type="int" >        4        8        9        9       10 </v>
   <v type="int" >        4        8        9       10       10 </v>
   <v type="int" >       12        9        9        9       10 </v>
   <v type="int" >       10        9        9       10       10 </v>
   <v type="int" >        8        9       10       10       10 </v>
   <v type="int" >        4        8        9        9        9 </v>
   <v type="int" >        2        8        8        9        9 </v>
   <v type="int" >        6       10       10       10       10 </v>
  </varray>
  <i name="volumeweight">      0.00340136 </i>
 </kpoints>
 <parameters>
  <separator name="general" >
   <i type="string" name="SYSTEM">unknown system</i>
   <i type="logical" name="LCOMPAT"> F  </i>
  </separator>
  <separator name="electronic" >
   <i type="string" name="PREC">normal</i>
   <i name="ENMAX">    500.00000000</i>
   <i name="ENAUG">    605.39200000</i>
   <i name="EDIFF">      0.00001000</i>
   <i type="int" name="IALGO">    68</i>
   <i type="int" name="IWAVPR">    10</i>
   <i type="int" name="NBANDS">    76</i>
   <i name="NELECT">    128.00000000</i>
   <i type="int" name="TURBO">     0</i>
   <i type="int" name="IRESTART">     0</i>
   <i type="int" name="NREBOOT">     0</i>
   <i type="int" name="NMIN">     0</i>
   <i name="EREF">      0.00000000</i>
   <separator name="electronic smearing" >
    <i type="int" name="ISMEAR">    -5</i>
    <i name="SIGMA">      0.20000000</i>
    <i name="KSPACING">      0.50000000</i>
    <i type="logical" name="KGAMMA"> T  </i>
   </separator>
   <separator name="electronic projectors" >
    <i type="logical" name="LREAL"> F  </i>
    <v name="ROPT">      0.00000000      0.00000000      0.00000000</v>
    <i type="int" name="LMAXPAW">  -100</i>
    <i type="int" name="LMAXMIX">     2</i>
    <i type="logical" name="NLSPLINE"> F  </i>
   </separator>
   <separator name="electronic startup" >
    <i type="int" name="ISTART">     0</i>
    <i type="int" name="ICHARG">     2</i>
    <i type="int" name="INIWAV">     1</i>
   </separator>
   <separator name="electronic spin" >
    <i type="int" name="ISPIN">     1</i>
    <i type="logical" name="LNONCOLLINEAR"> F  </i>
    <v name="MAGMOM">      1.00000000      1.00000000      1.00000000      1.00000000      1.00000000      1.00000000      1.00000000      1.00000000      1.00000000      1.00000000      1.00000000      1.00000000      1.00000000      1.00000000      1.00000000      1.00000000      1.00000000      1.00000000      1.00000000      1.00000000
</v>
    <i name="NUPDOWN">     -1.00000000</i>
    <i type="logical" name="LSORBIT"> F  </i>
    <v name="SAXIS">      0.00000000      0.00000000      1.00000000</v>
    <i type="logical" name="LSPIRAL"> F  </i>
    <v name="QSPIRAL">      0.00000000      0.00000000      0.00000000</v>
    <i type="logical" name="LZEROZ"> F  </i>
   </separator>
   <separator name="electronic exchange-correlation" >
    <i type="logical" name="LASPH"> F  </i>
    <i type="logical" name="LMETAGGA"> F  </i>
   </separator>
   <separator name="electronic convergence" >
    <i type="int" name="NELM">    60</i>
    <i type="int" name="NELMDL">    -5</i>
    <i type="int" name="NELMIN">     4</i>
    <i name="ENINI">    500.00000000</i>
    <separator name="electronic convergence detail" >
     <i type="logical" name="LDIAG"> T  </i>
     <i type="logical" name="LSUBROT"> F  </i>
     <i name="WEIMIN">      0.00000000</i>
     <i name="EBREAK">      0.00000003</i>
     <i name="DEPER">      0.30000000</i>
     <i type="int" name="NRMM">     4</i>
     <i name="TIME">      0.40000000</i>
    </separator>
   </separator>
   <separator name="electronic mixer" >
    <i name="AMIX">      0.40000000</i>
    <i name="BMIX">      1.00000000</i>
    <i name="AMIN">      0.10000000</i>
    <i name="AMIX_MAG">      1.60000000</i>
    <i name="BMIX_MAG">      1.00000000</i>
    <separator name="electronic mixer details" >
     <i type="int" name="IMIX">     4</i>
     <i type="logical" name="MIXFIRST"> F  </i>
     <i type="int" name="MAXMIX">   -45</i>
     <i name="WC">    100.00000000</i>
     <i type="int" name="INIMIX">     1</i>
     <i type="int" name="MIXPRE">     1</i>
     <i type="int" name="MREMOVE">     5</i>
    </separator>
   </separator>
   <separator name="electronic dipolcorrection" >
    <i type="logical" name="LDIPOL"> F  </i>
    <i type="logical" name="LMONO"> F  </i>
    <i type="int" name="IDIPOL">     0</i>
    <i name="EPSILON">      1.00000000</i>
    <v name="DIPOL">   -100.00000000   -100.00000000   -100.00000000</v>
    <i name="EFIELD">      0.00000000</i>
   </separator>
  </separator>
  <separator name="grids" >
   <i type="int" name="NGX">    24</i>
   <i type="int" name="NGY">    24</i>
   <i type="int" name="NGZ">    98</i>
   <i type="int" name="NGXF">    48</i>
   <i type="int" name="NGYF">    48</i>
   <i type="int" name="NGZF">   196</i>
   <i type="logical" name="ADDGRID"> F  </i>
  </separator>
  <separator name="ionic" >
   <i type="int" name="NSW">     0</i>
   <i type="int" name="IBRION">    -1</i>
   <i type="int" name="MDALGO">     0</i>
   <i type="int" name="ISIF">     2</i>
   <i name="PSTRESS">      0.00000000</i>
   <i name="EDIFFG">      0.00010000</i>
   <i type="int" name="NFREE">     0</i>
   <i name="POTIM">      0.50000000</i>
   <i name="SMASS">     -3.00000000</i>
   <i name="SCALEE">      1.00000000</i>
  </separator>
  <separator name="ionic md" >
   <i name="TEBEG">      0.00010000</i>
   <i name="TEEND">      0.00010000</i>
   <i type="int" name="NBLOCK">     1</i>
   <i type="int" name="KBLOCK">     1</i>
   <i type="int" name="NPACO">   256</i>
   <i name="APACO">     16.00000000</i>
  </separator>
  <separator name="symmetry" >
   <i type="int" name="ISYM">     2</i>
   <i name="SYMPREC">      0.00001000</i>
  </separator>
  <separator name="dos" >
   <i type="int" name="LORBIT">     0</i>
   <v name="RWIGS">     -1.00000000     -1.00000000     -1.00000000</v>
   <i type="int" name="NEDOS">   301</i>
   <i name="EMIN">     10.00000000</i>
   <i name="EMAX">    -10.00000000</i>
   <i name="EFERMI">      0.00000000</i>
  </separator>
  <separator name="writing" >
   <i type="int" name="NWRITE">     2</i>
   <i type="logical" name="LWAVE"> F  </i>
   <i type="logical" name="LDOWNSAMPLE"> F  </i>
   <i type="logical" name="LCHARG"> T  </i>
   <i type="logical" name="LPARD"> F  </i>
   <i type="logical" name="LVTOT"> F  </i>
   <i type="logical" name="LVHAR"> F  </i>
   <i type="logical" name="LELF"> F  </i>
   <i type="logical" name="LOPTICS"> F  </i>
   <v name="STM">      0.00000000      0.00000000      0.00000000      0.00000000      0.00000000      0.00000000      0.00000000</v>
  </separator>
  <separator name="performance" >
   <i type="int" name="NPAR">     2</i>
   <i type="int" name="NSIM">     4</i>
   <i type="int" name="NBLK">    -1</i>
   <i type="logical" name="LPLANE"> T  </i>
   <i type="logical" name="LSCALAPACK"> T  </i>
   <i type="logical" name="LSCAAWARE"> F  </i>
   <i type="logical" name="LSCALU"> F  </i>
   <i type="logical" name="LASYNC"> F  </i>
   <i type="logical" name="LORBITALREAL"> F  </i>
  </separator>
  <separator name="miscellaneous" >
   <i type="int" name="IDIOT">     3</i>
   <i type="int" name="ISPECIAL">     0</i>
   <i type="logical" name="LMUSIC"> F  </i>
   <v name="POMASS">     16.00000000     87.62000000     47.88000000</v>
   <v name="DARWINR">      0.00000000      0.00000000      0.00000000</v>
   <v name="DARWINV">      1.00000000      1.00000000      1.00000000</v>
   <i type="logical" name="LCORR"> T  </i>
  </separator>
  <i type="logical" name="GGA_COMPAT"> T  </i>
  <i type="logical" name="LBERRY"> F  </i>
  <i type="int" name="ICORELEVEL">     0</i>
  <i type="logical" name="LDAU"> F  </i>
  <i type="int" name="I_CONSTRAINED_M">     0</i>
  <separator name="electronic exchange-correlation" >
   <i type="string" name="GGA">--</i>
   <i type="int" name="VOSKOWN">     0</i>
   <i type="logical" name="LHFCALC"> F  </i>
   <i type="string" name="PRECFOCK"></i>
   <i type="logical" name="LSYMGRAD"> F  </i>
   <i type="logical" name="LHFONE"> F  </i>
   <i type="logical" name="LRHFCALC"> F  </i>
   <i type="logical" name="LTHOMAS"> F  </i>
   <i type="logical" name="LMODELHF"> F  </i>
   <i name="ENCUT4O">     -1.00000000</i>
   <i type="int" name="EXXOEP">     0</i>
   <i type="int" name="FOURORBIT">     0</i>
   <i name="AEXX">      0.00000000</i>
   <i name="HFALPHA">      0.00000000</i>
   <i name="MCALPHA">      0.00000000</i>
   <i name="ALDAX">      1.00000000</i>
   <i name="AGGAX">      1.00000000</i>
   <i name="ALDAC">      1.00000000</i>
   <i name="AGGAC">      1.00000000</i>
   <i type="int" name="NKREDX">     1</i>
   <i type="int" name="NKREDY">     1</i>
   <i type="int" name="NKREDZ">     1</i>
   <i type="logical" name="SHIFTRED"> F  </i>
   <i type="logical" name="ODDONLY"> F  </i>
   <i type="logical" name="EVENONLY"> F  </i>
   <i type="int" name="LMAXFOCK">     0</i>
   <i type="int" name="NMAXFOCKAE">     0</i>
   <i type="logical" name="LFOCKAEDFT"> F  </i>
   <i name="HFSCREEN">      0.00000000</i>
   <i name="HFSCREENC">      0.00000000</i>
   <i type="int" name="NBANDSGWLOW">     0</i>
  </separator>
  <separator name="vdW DFT" >
   <i type="logical" name="LUSE_VDW"> F  </i>
   <i name="Zab_VDW">     -0.84910000</i>
   <i name="PARAM1">      0.12340000</i>
   <i name="PARAM2">      1.00000000</i>
   <i name="PARAM3">      0.00000000</i>
  </separator>
  <separator name="model GW" >
   <i type="int" name="MODEL_GW">     0</i>
   <i name="MODEL_EPS0">      8.32496121</i>
   <i name="MODEL_ALPHA">      1.00000000</i>
  </separator>
  <separator name="linear response parameters" >
   <i type="logical" name="LEPSILON"> F  </i>
   <i type="logical" name="LRPA"> F  </i>
   <i type="logical" name="LNABLA"> F  </i>
   <i type="logical" name="LVEL"> F  </i>
   <i type="int" name="KINTER">     0</i>
   <i name="CSHIFT">      0.10000000</i>
   <i name="OMEGAMAX">     -1.00000000</i>
   <i name="DEG_THRESHOLD">      0.00200000</i>
   <i name="RTIME">     -0.10000000</i>
   <i name="WPLASMAI">      0.00000000</i>
   <v name="DFIELD">      0.00000000      0.00000000      0.00000000</v>
   <v name="WPLASMA">      0.00000000      0.00000000      0.00000000      0.00000000      0.00000000      0.00000000      0.00000000      0.00000000      0.00000000</v>
  </separator>
  <separator name="orbital magnetization" >
   <i type="logical" name="NUCIND"> F  </i>
   <v name="MAGPOS">      0.00000000      0.00000000      0.00000000</v>
   <i type="logical" name="LNICSALL"> T  </i>
   <i type="logical" name="ORBITALMAG"> F  </i>
   <i type="logical" name="LMAGBLOCH"> F  </i>
   <i type="logical" name="LCHIMAG"> F  </i>
   <i type="logical" name="LGAUGE"> T  </i>
   <i type="int" name="MAGATOM">     0</i>
   <v name="MAGDIPOL">      0.00000000      0.00000000      0.00000000</v>
   <v name="AVECCONST">      0.00000000      0.00000000      0.00000000</v>
  </separator>
  <separator name="response functions" >
   <i type="logical" name="LADDER"> F  </i>
   <i type="logical" name="LRPAFORCE"> F  </i>
   <i type="logical" name="LFXC"> F  </i>
   <i type="logical" name="LHARTREE"> T  </i>
   <i type="int" name="IBSE">     0</i>
   <v type="int" name="KPOINT">    -1     0     0     0</v>
   <i type="logical" name="LTCTE"> F  </i>
   <i type="logical" name="LTETE"> F  </i>
   <i type="logical" name="LTRIPLET"> F  </i>
   <i type="logical" name="LFXCEPS"> F  </i>
   <i type="logical" name="LFXHEG"> F  </i>
   <i type="int" name="NATURALO">     2</i>
   <i type="logical" name="L2ORDER"> F  </i>
   <i type="logical" name="LMP2LT"> F  </i>
   <i type="logical" name="LUSEW"> F  </i>
   <i name="ENCUTGW">     -2.00000000</i>
   <i name="ENCUTGWSOFT">     -2.00000000</i>
   <i name="ENCUTLF">     -1.00000000</i>
   <i type="int" name="LMAXMP2">    -1</i>
   <i name="SCISSOR">      0.00000000</i>
   <i type="int" name="NOMEGA">     0</i>
   <i type="int" name="NOMEGAR">     0</i>
   <i type="int" name="NBANDSGW">    -1</i>
   <i type="int" name="NBANDSO">    -1</i>
   <i type="int" name="NBANDSV">    -1</i>
   <i type="int" name="NELM">     1</i>
   <i type="int" name="NELMHF">     1</i>
   <i type="int" name="DIM">     3</i>
   <i type="int" name="ANTIRES">     0</i>
   <i name="OMEGAMAX">    -30.00000000</i>
   <i name="OMEGAMIN">    -30.00000000</i>
   <i name="OMEGATL">   -200.00000000</i>
   <i type="int" name="OMEGAGRID">   140</i>
   <i name="CSHIFT">     -0.10000000</i>
   <i type="logical" name="SELFENERGY"> F  </i>
   <i type="logical" name="LSPECTRAL"> F  </i>
   <i type="logical" name="LSPECTRALGW"> F  </i>
   <i type="logical" name="LSINGLES"> F  </i>
   <i type="logical" name="LFERMIGW"> F  </i>
   <i type="logical" name="ODDONLYGW"> F  </i>
   <i type="logical" name="EVENONLYGW"> F  </i>
   <i type="int" name="NKREDLFX">     1</i>
   <i type="int" name="NKREDLFY">     1</i>
   <i type="int" name="NKREDLFZ">     1</i>
   <i type="int" name="MAXMEM">  2800</i>
   <i type="int" name="TELESCOPE">     0</i>
   <i type="int" name="TAUPAR">     1</i>
   <i type="int" name="OMEGAPAR">    -1</i>
   <i name="LAMBDA">      1.00000000</i>
  </separator>
  <separator name="External order field" >
   <i name="OFIELD_KAPPA">      0.00000000</i>
   <v name="OFIELD_K">      0.00000000      0.00000000      0.00000000</v>
   <i name="OFIELD_Q6_NEAR">      0.00000000</i>
   <i name="OFIELD_Q6_FAR">      0.00000000</i>
   <i name="OFIELD_A">      0.00000000</i>
  </separator>
 </parameters>
 <atominfo>
  <atoms>      20 </atoms>
  <types>       3 </types>
  <array name="atoms" >
   <dimension dim="1">ion</dimension>
   <field type="string">element</field>
   <field type="int">atomtype</field>
   <set>
    <rc><c>O </c><c>   1</c></rc>
    <rc><c>O </c><c>   1</c></rc>
    <rc><c>O </c><c>   1</c></rc>
    <rc><c>O </c><c>   1</c></rc>
    <rc><c>O </c><c>   1</c></rc>
    <rc><c>O </c><c>   1</c></rc>
    <rc><c>O </c><c>   1</c></rc>
    <rc><c>O </c><c>   1</c></rc>
    <rc><c>O </c><c>   1</c></rc>
    <rc><c>O </c><c>   1</c></rc>
    <rc><c>O </c><c>   1</c></rc>
    <rc><c>O </c><c>   1</c></rc>
    <rc><c>Sr</c><c>   2</c></rc>
    <rc><c>Sr</c><c>   2</c></rc>
    <rc><c>Sr</c><c>   2</c></rc>
    <rc><c>Sr</c><c>   2</c></rc>
    <rc><c>Ti</c><c>   3</c></rc>
    <rc><c>Ti</c><c>   3</c></rc>
    <rc><c>Ti</c><c>   3</c></rc>
    <rc><c>Ti</c><c>   3</c></rc>
   </set>
  </array>
  <array name="atomtypes" >
   <dimension dim="1">type</dimension>
   <field type="int">atomspertype</field>
   <field type="string">element</field>
   <field>mass</field>
   <field>valence</field>
   <field type="string">pseudopotential</field>
   <set>
    <rc><c>  12</c><c>O </c><c>     16.00000000</c><c>      6.00000000</c><c> PAW_PBE O 08Apr2002                    </c></rc>
    <rc><c>   4</c><c>Sr</c><c>     87.62000000</c><c>     10.00000000</c><c> PAW_PBE Sr_sv 07Sep2000                </c></rc>
    <rc><c>   4</c><c>Ti</c><c>     47.88000000</c><c>      4.00000000</c><c> PAW_PBE Ti 08Apr2002                   </c></rc>
   </set>
  </array>
 </atominfo>
 <structure name="initialpos" >
  <crystal>
   <varray name="basis" >
    <v>       3.94684634       0.00000000       0.00000000 </v>
    <v>       0.00000000       3.94684634       0.00000000 </v>
    <v>       0.00000000       0.00000000      17.81396220 </v>
   </varray>
   <i name="volume">    277.49870703 </i>
   <varray name="rec_basis" >
    <v>       0.25336684       0.00000000       0.00000000 </v>
    <v>       0.00000000       0.25336684       0.00000000 </v>
    <v>       0.00000000       0.00000000       0.05613574 </v>
   </varray>
  </crystal>
  <varray name="positions" >
   <v>       0.50000000       0.50000000       0.11227149 </v>
   <v>       0.50000000       0.00000000       0.22305106 </v>
   <v>       0.00000000       0.50000000       0.22305106 </v>
   <v>       0.50000000       0.50000000       0.33383064 </v>
   <v>       0.50000000       0.00000000       0.44461021 </v>
   <v>       0.00000000       0.50000000       0.44461021 </v>
   <v>       0.50000000       0.50000000       0.55538979 </v>
   <v>       0.50000000       0.00000000       0.66616936 </v>
   <v>       0.00000000       0.50000000       0.66616936 </v>
   <v>       0.50000000       0.50000000       0.77694894 </v>
   <v>       0.50000000       0.00000000       0.88772851 </v>
   <v>       0.00000000       0.50000000       0.88772851 </v>
   <v>       0.00000000       0.00000000       0.11227149 </v>
   <v>       0.00000000       0.00000000       0.33383064 </v>
   <v>       0.00000000       0.00000000       0.55538979 </v>
   <v>       0.00000000       0.00000000       0.77694894 </v>
   <v>       0.50000000       0.50000000       0.22305106 </v>
   <v>       0.50000000       0.50000000       0.44461021 </v>
   <v>       0.50000000       0.50000000       0.66616936 </v>
   <v>       0.50000000       0.50000000       0.88772851 </v>
  </varray>
 </structure>
 <calculation>
  <scstep>
   <time name="dav">    3.92    3.92</time>
   <time name="total">    4.01    4.03</time>
   <energy>
    <i name="alphaZ">    636.67961233 </i>
    <i name="ewald">  -5583.60640159 </i>
    <i name="hartreedc">  -3489.00780656 </i>
    <i name="XCdc">    325.80480332 </i>
    <i name="pawpsdc">   5334.45189010 </i>
    <i name="pawaedc">  -5139.13784255 </i>
    <i name="eentropy">      0.00000000 </i>
    <i name="bandstr">    585.15277207 </i>
    <i name="atom">   8937.26825017 </i>
    <i name="e_fr_energy">   1607.60527729 </i>
    <i name="e_wo_entrp">   1607.60527729 </i>
    <i name="e_0_energy">   1607.60527729 </i>
   </energy>
  </scstep>
  <scstep>
   <time name="dav">    4.05    4.05</time>
   <time name="total">    4.05    4.06</time>
   <energy>
    <i name="e_fr_energy">    191.42933042 </i>
    <i name="e_wo_entrp">    191.42933042 </i>
    <i name="e_0_energy">    191.42933042 </i>
   </energy>
  </scstep>
  <scstep>
   <time name="dav">    4.80    4.81</time>
   <time name="total">    4.81    4.81</time>
   <energy>
    <i name="e_fr_energy">   -171.57757787 </i>
    <i name="e_wo_entrp">   -171.57757787 </i>
    <i name="e_0_energy">   -171.57757787 </i>
   </energy>
  </scstep>
  <scstep>
   <time name="dav">    4.77    4.77</time>
   <time name="total">    4.77    4.77</time>
   <energy>
    <i name="e_fr_energy">   -200.26360997 </i>
    <i name="e_wo_entrp">   -200.26360997 </i>
    <i name="e_0_energy">   -200.26360997 </i>
   </energy>
  </scstep>
  <scstep>
   <time name="dav">    5.92    5.93</time>
   <time name="total">    6.09    6.09</time>
   <energy>
    <i name="e_fr_energy">   -201.84682856 </i>
    <i name="e_wo_entrp">   -201.84682856 </i>
    <i name="e_0_energy">   -201.84682856 </i>
   </energy>
  </scstep>
  <scstep>
   <time name="diag">    0.46    0.46</time>
   <time name="diis">    3.02    3.02</time>
   <time name="orth">    0.08    0.09</time>
   <time name="total">    3.83    3.83</time>
   <energy>
    <i name="e_fr_energy">   -161.59573775 </i>
    <i name="e_wo_entrp">   -161.59573775 </i>
    <i name="e_0_energy">   -161.59573775 </i>
   </energy>
  </scstep>
  <scstep>
   <time name="diag">    0.46    0.46</time>
   <time name="diis">    3.15    3.15</time>
   <time name="orth">    0.08    0.09</time>
   <time name="total">    3.94    3.94</time>
   <energy>
    <i name="e_fr_energy">   -157.61591749 </i>
    <i name="e_wo_entrp">   -157.61591749 </i>
    <i name="e_0_energy">   -157.61591749 </i>
   </energy>
  </scstep>
  <scstep>
   <time name="diag">    0.46    0.46</time>
   <time name="diis">    3.48    3.48</time>
   <time name="orth">    0.09    0.09</time>
   <time name="total">    4.27    4.28</time>
   <energy>
    <i name="e_fr_energy">   -156.98334363 </i>
    <i name="e_wo_entrp">   -156.98334363 </i>
    <i name="e_0_energy">   -156.98334363 </i>
   </energy>
  </scstep>
  <scstep>
   <time name="diag">    0.47    0.47</time>
   <time name="diis">    3.61    3.61</time>
   <time name="orth">    0.09    0.09</time>
   <time name="total">    4.41    4.41</time>
   <energy>
    <i name="e_fr_energy">   -156.89788289 </i>
    <i name="e_wo_entrp">   -156.89788289 </i>
    <i name="e_0_energy">   -156.89788289 </i>
   </energy>
  </scstep>
  <scstep>
   <time name="diag">    0.46    0.46</time>
   <time name="diis">    4.09    4.09</time>
   <time name="orth">    0.09    0.09</time>
   <time name="total">    4.89    4.89</time>
   <energy>
    <i name="e_fr_energy">   -156.88456724 </i>
    <i name="e_wo_entrp">   -156.88456724 </i>
    <i name="e_0_energy">   -156.88456724 </i>
   </energy>
  </scstep>
  <scstep>
   <time name="diag">    0.46    0.46</time>
   <time name="diis">    4.20    4.20</time>
   <time name="orth">    0.08    0.08</time>
   <time name="total">    4.99    4.99</time>
   <energy>
    <i name="e_fr_energy">   -156.88514877 </i>
    <i name="e_wo_entrp">   -156.88514877 </i>
    <i name="e_0_energy">   -156.88514877 </i>
   </energy>
  </scstep>
  <scstep>
   <time name="diag">    0.46    0.46</time>
   <time name="diis">    4.29    4.29</time>
   <time name="orth">    0.08    0.08</time>
   <time name="total">    5.08    5.07</time>
   <energy>
    <i name="e_fr_energy">   -156.89094779 </i>
    <i name="e_wo_entrp">   -156.89094779 </i>
    <i name="e_0_energy">   -156.89094779 </i>
   </energy>
  </scstep>
  <scstep>
   <time name="diag">    0.46    0.46</time>
   <time name="diis">    4.81    4.82</time>
   <time name="orth">    0.08    0.08</time>
   <time name="total">    5.60    5.61</time>
   <energy>
    <i name="e_fr_energy">   -156.89147354 </i>
    <i name="e_wo_entrp">   -156.89147354 </i>
    <i name="e_0_energy">   -156.89147354 </i>
   </energy>
  </scstep>
  <scstep>
   <time name="diag">    0.46    0.46</time>
   <time name="diis">    4.36    4.36</time>
   <time name="orth">    0.08    0.08</time>
   <time name="total">    5.14    5.14</time>
   <energy>
    <i name="e_fr_energy">   -156.89233012 </i>
    <i name="e_wo_entrp">   -156.89233012 </i>
    <i name="e_0_energy">   -156.89233012 </i>
   </energy>
  </scstep>
  <scstep>
   <time name="diag">    0.44    0.45</time>
   <time name="diis">    4.58    4.58</time>
   <time name="orth">    0.08    0.08</time>
   <time name="total">    5.34    5.34</time>
   <energy>
    <i name="e_fr_energy">   -156.89247322 </i>
    <i name="e_wo_entrp">   -156.89247322 </i>
    <i name="e_0_energy">   -156.89247322 </i>
   </energy>
  </scstep>
  <scstep>
   <time name="diag">    0.45    0.45</time>
   <time name="diis">    4.63    4.63</time>
   <time name="orth">    0.08    0.08</time>
   <time name="total">    5.40    5.40</time>
   <energy>
    <i name="e_fr_energy">   -156.89255190 </i>
    <i name="e_wo_entrp">   -156.89255190 </i>
    <i name="e_0_energy">   -156.89255190 </i>
   </energy>
  </scstep>
  <scstep>
   <time name="diag">    0.45    0.45</time>
   <time name="diis">    4.18    4.18</time>
   <time name="orth">    0.09    0.09</time>
   <time name="total">    4.96    4.96</time>
   <energy>
    <i name="e_fr_energy">   -156.89259414 </i>
    <i name="e_wo_entrp">   -156.89259414 </i>
    <i name="e_0_energy">   -156.89259414 </i>
   </energy>
  </scstep>
  <scstep>
   <time name="diag">    0.45    0.45</time>
   <time name="diis">    3.80    3.80</time>
   <time name="orth">    0.11    0.11</time>
   <time name="total">    4.63    4.63</time>
   <energy>
    <i name="e_fr_energy">   -156.89261877 </i>
    <i name="e_wo_entrp">   -156.89261877 </i>
    <i name="e_0_energy">   -156.89261877 </i>
   </energy>
  </scstep>
  <scstep>
   <time name="diag">    0.46    0.47</time>
   <time name="diis">    3.25    3.25</time>
   <time name="orth">    0.09    0.09</time>
   <time name="total">    4.05    4.05</time>
   <energy>
    <i name="e_fr_energy">   -156.89262813 </i>
    <i name="e_wo_entrp">   -156.89262813 </i>
    <i name="e_0_energy">   -156.89262813 </i>
   </energy>
  </scstep>
  <scstep>
   <time name="diag">    0.46    0.46</time>
   <time name="diis">    2.85    2.85</time>
   <time name="orth">    0.08    0.08</time>
   <time name="total">    3.49    3.49</time>
   <energy>
    <i name="alphaZ">    636.67961233 </i>
    <i name="ewald">  -5583.60640159 </i>
    <i name="hartreedc">  -3690.04177152 </i>
    <i name="XCdc">    341.56358748 </i>
    <i name="pawpsdc">   6145.03585927 </i>
    <i name="pawaedc">  -5975.03932240 </i>
    <i name="eentropy">      0.00000000 </i>
    <i name="bandstr">   -968.75244636 </i>
    <i name="atom">   8937.26825017 </i>
    <i name="e_fr_energy">   -156.89263262 </i>
    <i name="e_wo_entrp">   -156.89263262 </i>
    <i name="e_0_energy">   -156.89263262 </i>
   </energy>
  </scstep>
  <structure>
   <crystal>
    <varray name="basis" >
     <v>       3.94684634       0.00000000       0.00000000 </v>
     <v>       0.00000000       3.94684634       0.00000000 </v>
     <v>       0.00000000       0.00000000      17.81396220 </v>
    </varray>
    <i name="volume">    277.49870703 </i>
    <varray name="rec_basis" >
     <v>       0.25336684       0.00000000       0.00000000 </v>
     <v>       0.00000000       0.25336684       0.00000000 </v>
     <v>       0.00000000       0.00000000       0.05613574 </v>
    </varray>
   </crystal>
   <varray name="positions" >
    <v>       0.50000000       0.50000000       0.11227149 </v>
    <v>       0.50000000       0.00000000       0.22305106 </v>
    <v>       0.00000000       0.50000000       0.22305106 </v>
    <v>       0.50000000       0.50000000       0.33383064 </v>
    <v>       0.50000000       0.00000000       0.44461021 </v>
    <v>       0.00000000       0.50000000       0.44461021 </v>
    <v>       0.50000000       0.50000000       0.55538979 </v>
    <v>       0.50000000       0.00000000       0.66616936 </v>
    <v>       0.00000000       0.50000000       0.66616936 </v>
    <v>       0.50000000       0.50000000       0.77694894 </v>
    <v>       0.50000000       0.00000000       0.88772851 </v>
    <v>       0.00000000       0.50000000       0.88772851 </v>
    <v>       0.00000000       0.00000000       0.11227149 </v>
    <v>       0.00000000       0.00000000       0.33383064 </v>
    <v>       0.00000000       0.00000000       0.55538979 </v>
    <v>       0.00000000       0.00000000       0.77694894 </v>
    <v>       0.50000000       0.50000000       0.22305106 </v>
    <v>       0.50000000       0.50000000       0.44461021 </v>
    <v>       0.50000000       0.50000000       0.66616936 </v>
    <v>       0.50000000       0.50000000       0.88772851 </v>
   </varray>
  </structure>
  <varray name="forces" >
   <v>       0.00000000      -0.00000000      -0.40717675 </v>
   <v>       0.00000000       0.00000000       0.13635587 </v>
   <v>       0.00000000      -0.00000000       0.13635587 </v>
   <v>       0.00000000       0.00000000       0.80438912 </v>
   <v>       0.00000000       0.00000000       0.21118201 </v>
   <v>       0.00000000       0.00000000       0.21118201 </v>
   <v>       0.00000000      -0.00000000       0.73938726 </v>
   <v>       0.00000000      -0.00000000       0.17177477 </v>
   <v>       0.00000000      -0.00000000       0.17177477 </v>
   <v>       0.00000000      -0.00000000       1.40635692 </v>
   <v>       0.00000000      -0.00000000       0.54489652 </v>
   <v>       0.00000000      -0.00000000       0.54489652 </v>
   <v>       0.00000000      -0.00000000       0.89588285 </v>
   <v>       0.00000000       0.00000000      -0.19067019 </v>
   <v>       0.00000000      -0.00000000      -0.24049018 </v>
   <v>       0.00000000      -0.00000000       0.42345775 </v>
   <v>       0.00000000       0.00000000      -1.48915995 </v>
   <v>       0.00000000      -0.00000000      -0.85600705 </v>
   <v>       0.00000000       0.00000000      -0.92382717 </v>
   <v>      -0.00000000      -0.00000000      -2.29056093 </v>
  </varray>
  <varray name="stress" >
   <v>     -29.77282910       0.00000000      -0.00000000 </v>
   <v>       0.00000000     -29.77282910       0.00000000 </v>
   <v>       0.00000000       0.00000000     -26.76450926 </v>
  </varray>
  <energy>
   <i name="e_fr_energy">   -156.89263262 </i>
   <i name="e_wo_entrp">   -156.89263262 </i>
   <i name="e_0_energy">      0.00000000 </i>
  </energy>
  <time name="totalsc">   99.20   99.36</time>
  <eigenvalues>
   <array>
    <dimension dim="1">band</dimension>
    <dimension dim="2">kpoint</dimension>
    <dimension dim="3">spin</dimension>
    <field>eigene</field>
    <field>occ</field>
    <set>
     <set comment="spin 1">
      <set comment="kpoint 1">
       <r>  -31.6636    1.0000 </r>
       <r>  -31.4427    1.0000 </r>
       <r>  -31.2765    1.0000 </r>
       <r>  -30.9034    1.0000 </r>
       <r>  -16.0844    1.0000 </r>
       <r>  -15.7296    1.0000 </r>
       <r>  -15.6796    1.0000 </r>
       <r>  -15.4127    1.0000 </r>
       <r>  -15.1274    1.0000 </r>
       <r>  -15.0010    1.0000 </r>
       <r>  -14.8065    1.0000 </r>
       <r>  -14.7173    1.0000 </r>
       <r>  -14.6155    1.0000 </r>
       <r>  -14.4163    1.0000 </r>
       <r>  -14.2856    1.0000 </r>
       <r>  -13.6239    1.0000 </r>
       <r>  -13.5867    1.0000 </r>
       <r>  -13.5867    1.0000 </r>
       <r>  -13.5033    1.0000 </r>
       <r>  -13.5033    1.0000 </r>
       <r>  -13.4268    1.0000 </r>
       <r>  -13.3186    1.0000 </r>
       <r>  -13.3186    1.0000 </r>
       <r>  -13.2438    1.0000 </r>
       <r>  -12.9882    1.0000 </r>
       <r>  -12.9427    1.0000 </r>
       <r>  -12.9427    1.0000 </r>
       <r>  -12.6032    1.0000 </r>
       <r>   -2.6775    1.0000 </r>
       <r>   -2.0119    1.0000 </r>
       <r>   -1.5026    1.0000 </r>
       <r>   -1.5026    1.0000 </r>
       <r>   -1.4073    1.0000 </r>
       <r>   -1.1939    1.0000 </r>
       <r>   -1.1939    1.0000 </r>
       <r>   -1.0900    1.0000 </r>
       <r>   -1.0900    1.0000 </r>
       <r>   -0.8581    1.0000 </r>
       <r>   -0.7677    1.0000 </r>
       <r>   -0.7677    1.0000 </r>
       <r>   -0.5611    1.0000 </r>
       <r>   -0.5611    1.0000 </r>
       <r>   -0.4957    1.0000 </r>
       <r>   -0.3079    1.0000 </r>
       <r>   -0.1946    1.0000 </r>
       <r>   -0.1558    1.0000 </r>
       <r>   -0.1558    1.0000 </r>
       <r>    0.1600    1.0000 </r>
       <r>    0.2974    1.0000 </r>
       <r>    0.2974    1.0000 </r>
       <r>    0.3176    1.0000 </r>
       <r>    0.3794    1.0000 </r>
       <r>    0.6158    1.0000 </r>
       <r>    0.7591    1.0000 </r>
       <r>    0.7591    1.0000 </r>
       <r>    1.0431    1.0000 </r>
       <r>    1.0431    1.0000 </r>
       <r>    1.0921    1.0000 </r>
       <r>    1.0921    1.0000 </r>
       <r>    1.1710    1.0000 </r>
       <r>    1.1710    1.0000 </r>
       <r>    1.3486    1.0000 </r>
       <r>    1.6333    1.0000 </r>
       <r>    1.6333    1.0000 </r>
       <r>    3.0091    0.0000 </r>
       <r>    3.0091    0.0000 </r>
       <r>    3.0179    0.0000 </r>
       <r>    3.1176    0.0000 </r>
       <r>    3.4460    0.0000 </r>
       <r>    3.8045    0.0000 </r>
       <r>    3.8508    0.0000 </r>
       <r>    4.1369    0.0000 </r>
       <r>    4.1371    0.0000 </r>
       <r>    4.4338    0.0000 </r>
       <r>    7.1141    0.0000 </r>
       <r>    7.2440    0.0000 </r>
      </set>
      <set comment="kpoint 2">
       <r>  -31.6607    1.0000 </r>
       <r>  -31.4392    1.0000 </r>
       <r>  -31.2730    1.0000 </r>
       <r>  -30.9000    1.0000 </r>
       <r>  -16.0350    1.0000 </r>
       <r>  -15.7041    1.0000 </r>
       <r>  -15.6354    1.0000 </r>
       <r>  -15.3663    1.0000 </r>
       <r>  -15.1184    1.0000 </r>
       <r>  -15.0075    1.0000 </r>
       <r>  -14.8475    1.0000 </r>
       <r>  -14.7100    1.0000 </r>
       <r>  -14.6234    1.0000 </r>
       <r>  -14.4732    1.0000 </r>
       <r>  -14.3109    1.0000 </r>
       <r>  -13.8788    1.0000 </r>
       <r>  -13.5994    1.0000 </r>
       <r>  -13.5798    1.0000 </r>
       <r>  -13.4946    1.0000 </r>
       <r>  -13.4146    1.0000 </r>
       <r>  -13.3100    1.0000 </r>
       <r>  -13.2582    1.0000 </r>
       <r>  -13.2118    1.0000 </r>
       <r>  -13.1243    1.0000 </r>
       <r>  -13.0136    1.0000 </r>
       <r>  -12.9342    1.0000 </r>
       <r>  -12.8345    1.0000 </r>
       <r>  -12.6315    1.0000 </r>
       <r>   -2.6877    1.0000 </r>
       <r>   -2.0744    1.0000 </r>
       <r>   -1.8161    1.0000 </r>
       <r>   -1.6420    1.0000 </r>
       <r>   -1.5133    1.0000 </r>
       <r>   -1.4347    1.0000 </r>
       <r>   -1.3168    1.0000 </r>
       <r>   -1.2273    1.0000 </r>
       <r>   -1.2239    1.0000 </r>
       <r>   -1.0940    1.0000 </r>
       <r>   -0.9902    1.0000 </r>
       <r>   -0.8600    1.0000 </r>
       <r>   -0.7752    1.0000 </r>
       <r>   -0.6122    1.0000 </r>
       <r>   -0.5989    1.0000 </r>
       <r>   -0.4268    1.0000 </r>
       <r>   -0.2728    1.0000 </r>
       <r>   -0.2570    1.0000 </r>
       <r>   -0.0213    1.0000 </r>
       <r>    0.1254    1.0000 </r>
       <r>    0.1769    1.0000 </r>
       <r>    0.2662    1.0000 </r>
       <r>    0.3058    1.0000 </r>
       <r>    0.3522    1.0000 </r>
       <r>    0.5244    1.0000 </r>
       <r>    0.5372    1.0000 </r>
       <r>    0.6686    1.0000 </r>
       <r>    0.7189    1.0000 </r>
       <r>    0.7898    1.0000 </r>
       <r>    0.7996    1.0000 </r>
       <r>    0.8095    1.0000 </r>
       <r>    0.9581    1.0000 </r>
       <r>    1.0074    1.0000 </r>
       <r>    1.1097    1.0000 </r>
       <r>    1.5125    1.0000 </r>
       <r>    1.5449    1.0000 </r>
       <r>    3.0219    0.0000 </r>
       <r>    3.3331    0.0000 </r>
       <r>    3.4302    0.0000 </r>
       <r>    3.5252    0.0000 </r>
       <r>    3.8422    0.0000 </r>
       <r>    3.8615    0.0000 </r>
       <r>    4.0907    0.0000 </r>
       <r>    4.2289    0.0000 </r>
       <r>    4.2505    0.0000 </r>
       <r>    4.6299    0.0000 </r>
       <r>    7.2862    0.0000 </r>
       <r>    7.5273    0.0000 </r>
      </set>
      <set comment="kpoint 3">
       <r>  -31.6541    1.0000 </r>
       <r>  -31.4313    1.0000 </r>
       <r>  -31.2653    1.0000 </r>
       <r>  -30.8922    1.0000 </r>
       <r>  -16.0137    1.0000 </r>
       <r>  -15.6103    1.0000 </r>
       <r>  -15.5696    1.0000 </r>
       <r>  -15.2603    1.0000 </r>
       <r>  -15.0672    1.0000 </r>
       <r>  -14.9940    1.0000 </r>
       <r>  -14.8950    1.0000 </r>
       <r>  -14.6833    1.0000 </r>
       <r>  -14.6406    1.0000 </r>
       <r>  -14.5324    1.0000 </r>
       <r>  -14.4222    1.0000 </r>
       <r>  -14.0378    1.0000 </r>
       <r>  -13.5942    1.0000 </r>
       <r>  -13.5642    1.0000 </r>
       <r>  -13.4748    1.0000 </r>
       <r>  -13.2906    1.0000 </r>
       <r>  -13.2711    1.0000 </r>
       <r>  -13.2333    1.0000 </r>
       <r>  -13.0700    1.0000 </r>
       <r>  -13.0180    1.0000 </r>
       <r>  -12.9149    1.0000 </r>
       <r>  -12.8166    1.0000 </r>
       <r>  -12.6828    1.0000 </r>
       <r>  -12.6414    1.0000 </r>
       <r>   -2.7225    1.0000 </r>
       <r>   -2.5192    1.0000 </r>
       <r>   -2.3115    1.0000 </r>
       <r>   -2.0395    1.0000 </r>
       <r>   -2.0249    1.0000 </r>
       <r>   -1.8541    1.0000 </r>
       <r>   -1.7681    1.0000 </r>
       <r>   -1.5445    1.0000 </r>
       <r>   -1.5256    1.0000 </r>
       <r>   -1.3214    1.0000 </r>
       <r>   -1.2931    1.0000 </r>
       <r>   -1.1640    1.0000 </r>
       <r>   -1.1086    1.0000 </r>
       <r>   -0.8188    1.0000 </r>
       <r>   -0.6958    1.0000 </r>
       <r>   -0.5564    1.0000 </r>
       <r>   -0.5242    1.0000 </r>
       <r>   -0.2905    1.0000 </r>
       <r>   -0.2294    1.0000 </r>
       <r>   -0.2199    1.0000 </r>
       <r>   -0.1477    1.0000 </r>
       <r>   -0.0340    1.0000 </r>
       <r>    0.1195    1.0000 </r>
       <r>    0.1204    1.0000 </r>
       <r>    0.2403    1.0000 </r>
       <r>    0.3212    1.0000 </r>
       <r>    0.3337    1.0000 </r>
       <r>    0.3691    1.0000 </r>
       <r>    0.3956    1.0000 </r>
       <r>    0.4580    1.0000 </r>
       <r>    0.6833    1.0000 </r>
       <r>    0.6987    1.0000 </r>
       <r>    0.9939    1.0000 </r>
       <r>    1.2410    1.0000 </r>
       <r>    1.3340    1.0000 </r>
       <r>    1.6331    1.0000 </r>
       <r>    3.0573    0.0000 </r>
       <r>    3.8396    0.0000 </r>
       <r>    3.9531    0.0000 </r>
       <r>    4.1796    0.0000 </r>
       <r>    4.4090    0.0000 </r>
       <r>    4.4460    0.0000 </r>
       <r>    4.5677    0.0000 </r>
       <r>    4.5901    0.0000 </r>
       <r>    4.9816    0.0000 </r>
       <r>    5.1001    0.0000 </r>
       <r>    5.1537    0.0000 </r>
       <r>    8.0782    0.0000 </r>
      </set>
      <set comment="kpoint 4">
       <r>  -31.6487    1.0000 </r>
       <r>  -31.4250    1.0000 </r>
       <r>  -31.2590    1.0000 </r>
       <r>  -30.8860    1.0000 </r>
       <r>  -16.0736    1.0000 </r>
       <r>  -15.6456    1.0000 </r>
       <r>  -15.3744    1.0000 </r>
       <r>  -15.1795    1.0000 </r>
       <r>  -15.0454    1.0000 </r>
       <r>  -14.9594    1.0000 </r>
       <r>  -14.8586    1.0000 </r>
       <r>  -14.7001    1.0000 </r>
       <r>  -14.6446    1.0000 </r>
       <r>  -14.5386    1.0000 </r>
       <r>  -14.4922    1.0000 </r>
       <r>  -14.0934    1.0000 </r>
       <r>  -13.5704    1.0000 </r>
       <r>  -13.5516    1.0000 </r>
       <r>  -13.4588    1.0000 </r>
       <r>  -13.2749    1.0000 </r>
       <r>  -13.2558    1.0000 </r>
       <r>  -13.1313    1.0000 </r>
       <r>  -13.0818    1.0000 </r>
       <r>  -12.9006    1.0000 </r>
       <r>  -12.8992    1.0000 </r>
       <r>  -12.7091    1.0000 </r>
       <r>  -12.6447    1.0000 </r>
       <r>  -12.5130    1.0000 </r>
       <r>   -2.9176    1.0000 </r>
       <r>   -2.8582    1.0000 </r>
       <r>   -2.7081    1.0000 </r>
       <r>   -2.6144    1.0000 </r>
       <r>   -2.4476    1.0000 </r>
       <r>   -2.2309    1.0000 </r>
       <r>   -2.1091    1.0000 </r>
       <r>   -1.9140    1.0000 </r>
       <r>   -1.6299    1.0000 </r>
       <r>   -1.5866    1.0000 </r>
       <r>   -1.3260    1.0000 </r>
       <r>   -1.3027    1.0000 </r>
       <r>   -1.1892    1.0000 </r>
       <r>   -0.8793    1.0000 </r>
       <r>   -0.8624    1.0000 </r>
       <r>   -0.7778    1.0000 </r>
       <r>   -0.6319    1.0000 </r>
       <r>   -0.5601    1.0000 </r>
       <r>   -0.4446    1.0000 </r>
       <r>   -0.2576    1.0000 </r>
       <r>   -0.1757    1.0000 </r>
       <r>   -0.1553    1.0000 </r>
       <r>   -0.0716    1.0000 </r>
       <r>   -0.0454    1.0000 </r>
       <r>   -0.0253    1.0000 </r>
       <r>    0.0365    1.0000 </r>
       <r>    0.1527    1.0000 </r>
       <r>    0.1736    1.0000 </r>
       <r>    0.2723    1.0000 </r>
       <r>    0.4243    1.0000 </r>
       <r>    0.5467    1.0000 </r>
       <r>    0.6823    1.0000 </r>
       <r>    1.1096    1.0000 </r>
       <r>    1.2221    1.0000 </r>
       <r>    1.2904    1.0000 </r>
       <r>    1.7118    1.0000 </r>
       <r>    3.0867    0.0000 </r>
       <r>    3.8668    0.0000 </r>
       <r>    4.3266    0.0000 </r>
       <r>    4.4723    0.0000 </r>
       <r>    4.6947    0.0000 </r>
       <r>    4.7099    0.0000 </r>
       <r>    4.8182    0.0000 </r>
       <r>    5.1015    0.0000 </r>
       <r>    5.1514    0.0000 </r>
       <r>    5.3428    0.0000 </r>
       <r>    5.5017    0.0000 </r>
       <r>    7.3524    0.0000 </r>
      </set>
      <set comment="kpoint 5">
       <r>  -31.6578    1.0000 </r>
       <r>  -31.4358    1.0000 </r>
       <r>  -31.2696    1.0000 </r>
       <r>  -30.8966    1.0000 </r>
       <r>  -15.9890    1.0000 </r>
       <r>  -15.6572    1.0000 </r>
       <r>  -15.5879    1.0000 </r>
       <r>  -15.3101    1.0000 </r>
       <r>  -15.0918    1.0000 </r>
       <r>  -15.0218    1.0000 </r>
       <r>  -14.8584    1.0000 </r>
       <r>  -14.7085    1.0000 </r>
       <r>  -14.6347    1.0000 </r>
       <r>  -14.4917    1.0000 </r>
       <r>  -14.3306    1.0000 </r>
       <r>  -13.9875    1.0000 </r>
       <r>  -13.6015    1.0000 </r>
       <r>  -13.5720    1.0000 </r>
       <r>  -13.4824    1.0000 </r>
       <r>  -13.3689    1.0000 </r>
       <r>  -13.3012    1.0000 </r>
       <r>  -13.2666    1.0000 </r>
       <r>  -13.1531    1.0000 </r>
       <r>  -13.0420    1.0000 </r>
       <r>  -13.0134    1.0000 </r>
       <r>  -12.9248    1.0000 </r>
       <r>  -12.7627    1.0000 </r>
       <r>  -12.6631    1.0000 </r>
       <r>   -2.6955    1.0000 </r>
       <r>   -2.1569    1.0000 </r>
       <r>   -1.9553    1.0000 </r>
       <r>   -1.7337    1.0000 </r>
       <r>   -1.6361    1.0000 </r>
       <r>   -1.5091    1.0000 </r>
       <r>   -1.4753    1.0000 </r>
       <r>   -1.4216    1.0000 </r>
       <r>   -1.2699    1.0000 </r>
       <r>   -1.1982    1.0000 </r>
       <r>   -1.0978    1.0000 </r>
       <r>   -1.0693    1.0000 </r>
       <r>   -0.9472    1.0000 </r>
       <r>   -0.8638    1.0000 </r>
       <r>   -0.7068    1.0000 </r>
       <r>   -0.6007    1.0000 </r>
       <r>   -0.4232    1.0000 </r>
       <r>   -0.3276    1.0000 </r>
       <r>   -0.2100    1.0000 </r>
       <r>   -0.0061    1.0000 </r>
       <r>    0.0070    1.0000 </r>
       <r>    0.0185    1.0000 </r>
       <r>    0.1911    1.0000 </r>
       <r>    0.3323    1.0000 </r>
       <r>    0.3878    1.0000 </r>
       <r>    0.4250    1.0000 </r>
       <r>    0.4425    1.0000 </r>
       <r>    0.5901    1.0000 </r>
       <r>    0.7049    1.0000 </r>
       <r>    0.8162    1.0000 </r>
       <r>    0.8749    1.0000 </r>
       <r>    0.8959    1.0000 </r>
       <r>    0.9141    1.0000 </r>
       <r>    1.1198    1.0000 </r>
       <r>    1.4467    1.0000 </r>
       <r>    1.5080    1.0000 </r>
       <r>    3.2621    0.0000 </r>
       <r>    3.4260    0.0000 </r>
       <r>    3.6843    0.0000 </r>
       <r>    3.9778    0.0000 </r>
       <r>    4.0805    0.0000 </r>
       <r>    4.1033    0.0000 </r>
       <r>    4.3280    0.0000 </r>
       <r>    4.4961    0.0000 </r>
       <r>    4.7258    0.0000 </r>
       <r>    4.9695    0.0000 </r>
       <r>    7.6832    0.0000 </r>
       <r>    7.9023    0.0000 </r>
      </set>
      <set comment="kpoint 6">
       <r>  -31.6513    1.0000 </r>
       <r>  -31.4281    1.0000 </r>
       <r>  -31.2620    1.0000 </r>
       <r>  -30.8890    1.0000 </r>
       <r>  -15.9528    1.0000 </r>
       <r>  -15.5494    1.0000 </r>
       <r>  -15.4895    1.0000 </r>
       <r>  -15.1860    1.0000 </r>
       <r>  -15.0403    1.0000 </r>
       <r>  -14.9888    1.0000 </r>
       <r>  -14.8687    1.0000 </r>
       <r>  -14.6885    1.0000 </r>
       <r>  -14.6505    1.0000 </r>
       <r>  -14.5110    1.0000 </r>
       <r>  -14.4132    1.0000 </r>
       <r>  -14.0663    1.0000 </r>
       <r>  -13.6338    1.0000 </r>
       <r>  -13.5418    1.0000 </r>
       <r>  -13.4685    1.0000 </r>
       <r>  -13.3089    1.0000 </r>
       <r>  -13.2987    1.0000 </r>
       <r>  -13.2222    1.0000 </r>
       <r>  -13.1109    1.0000 </r>
       <r>  -13.0332    1.0000 </r>
       <r>  -12.8976    1.0000 </r>
       <r>  -12.8321    1.0000 </r>
       <r>  -12.7216    1.0000 </r>
       <r>  -12.6451    1.0000 </r>
       <r>   -2.7241    1.0000 </r>
       <r>   -2.5019    1.0000 </r>
       <r>   -2.3404    1.0000 </r>
       <r>   -2.0439    1.0000 </r>
       <r>   -2.0046    1.0000 </r>
       <r>   -1.8663    1.0000 </r>
       <r>   -1.8230    1.0000 </r>
       <r>   -1.6915    1.0000 </r>
       <r>   -1.5898    1.0000 </r>
       <r>   -1.5045    1.0000 </r>
       <r>   -1.3373    1.0000 </r>
       <r>   -1.3040    1.0000 </r>
       <r>   -1.2335    1.0000 </r>
       <r>   -1.1023    1.0000 </r>
       <r>   -1.0462    1.0000 </r>
       <r>   -0.9668    1.0000 </r>
       <r>   -0.8137    1.0000 </r>
       <r>   -0.6433    1.0000 </r>
       <r>   -0.5546    1.0000 </r>
       <r>   -0.4538    1.0000 </r>
       <r>   -0.3627    1.0000 </r>
       <r>   -0.2830    1.0000 </r>
       <r>   -0.1330    1.0000 </r>
       <r>    0.1262    1.0000 </r>
       <r>    0.2590    1.0000 </r>
       <r>    0.3253    1.0000 </r>
       <r>    0.4500    1.0000 </r>
       <r>    0.5992    1.0000 </r>
       <r>    0.6462    1.0000 </r>
       <r>    0.7186    1.0000 </r>
       <r>    0.7976    1.0000 </r>
       <r>    0.8627    1.0000 </r>
       <r>    1.0088    1.0000 </r>
       <r>    1.1085    1.0000 </r>
       <r>    1.3906    1.0000 </r>
       <r>    1.6108    1.0000 </r>
       <r>    3.3529    0.0000 </r>
       <r>    3.9980    0.0000 </r>
       <r>    4.0952    0.0000 </r>
       <r>    4.2781    0.0000 </r>
       <r>    4.4281    0.0000 </r>
       <r>    4.5228    0.0000 </r>
       <r>    4.5544    0.0000 </r>
       <r>    4.6914    0.0000 </r>
       <r>    4.8994    0.0000 </r>
       <r>    5.0869    0.0000 </r>
       <r>    5.2402    0.0000 </r>
       <r>    8.4777    0.0000 </r>
      </set>
      <set comment="kpoint 7">
       <r>  -31.6460    1.0000 </r>
       <r>  -31.4219    1.0000 </r>
       <r>  -31.2559    1.0000 </r>
       <r>  -30.8829    1.0000 </r>
       <r>  -15.9874    1.0000 </r>
       <r>  -15.5616    1.0000 </r>
       <r>  -15.2915    1.0000 </r>
       <r>  -15.1135    1.0000 </r>
       <r>  -15.0145    1.0000 </r>
       <r>  -14.9048    1.0000 </r>
       <r>  -14.8116    1.0000 </r>
       <r>  -14.6846    1.0000 </r>
       <r>  -14.6720    1.0000 </r>
       <r>  -14.5071    1.0000 </r>
       <r>  -14.4947    1.0000 </r>
       <r>  -14.0477    1.0000 </r>
       <r>  -13.6744    1.0000 </r>
       <r>  -13.5083    1.0000 </r>
       <r>  -13.4650    1.0000 </r>
       <r>  -13.3274    1.0000 </r>
       <r>  -13.2421    1.0000 </r>
       <r>  -13.1823    1.0000 </r>
       <r>  -13.1392    1.0000 </r>
       <r>  -12.9606    1.0000 </r>
       <r>  -12.8679    1.0000 </r>
       <r>  -12.7552    1.0000 </r>
       <r>  -12.7306    1.0000 </r>
       <r>  -12.5708    1.0000 </r>
       <r>   -2.9152    1.0000 </r>
       <r>   -2.7713    1.0000 </r>
       <r>   -2.6807    1.0000 </r>
       <r>   -2.6039    1.0000 </r>
       <r>   -2.4472    1.0000 </r>
       <r>   -2.1822    1.0000 </r>
       <r>   -2.0986    1.0000 </r>
       <r>   -1.9224    1.0000 </r>
       <r>   -1.8071    1.0000 </r>
       <r>   -1.7028    1.0000 </r>
       <r>   -1.5365    1.0000 </r>
       <r>   -1.4591    1.0000 </r>
       <r>   -1.3344    1.0000 </r>
       <r>   -1.3085    1.0000 </r>
       <r>   -1.2193    1.0000 </r>
       <r>   -1.0858    1.0000 </r>
       <r>   -1.0557    1.0000 </r>
       <r>   -0.8469    1.0000 </r>
       <r>   -0.7939    1.0000 </r>
       <r>   -0.5732    1.0000 </r>
       <r>   -0.5036    1.0000 </r>
       <r>   -0.3353    1.0000 </r>
       <r>   -0.1532    1.0000 </r>
       <r>   -0.0091    1.0000 </r>
       <r>    0.1932    1.0000 </r>
       <r>    0.2424    1.0000 </r>
       <r>    0.3892    1.0000 </r>
       <r>    0.5274    1.0000 </r>
       <r>    0.6114    1.0000 </r>
       <r>    0.6491    1.0000 </r>
       <r>    0.7371    1.0000 </r>
       <r>    0.8527    1.0000 </r>
       <r>    0.9271    1.0000 </r>
       <r>    1.1499    1.0000 </r>
       <r>    1.3419    1.0000 </r>
       <r>    1.7157    1.0000 </r>
       <r>    3.3853    0.0000 </r>
       <r>    4.0827    0.0000 </r>
       <r>    4.4752    0.0000 </r>
       <r>    4.6263    0.0000 </r>
       <r>    4.7274    0.0000 </r>
       <r>    4.7538    0.0000 </r>
       <r>    5.1543    0.0000 </r>
       <r>    5.2209    0.0000 </r>
       <r>    5.2529    0.0000 </r>
       <r>    5.5325    0.0000 </r>
       <r>    5.5774    0.0000 </r>
       <r>    7.1329    0.0000 </r>
      </set>
      <set comment="kpoint 8">
       <r>  -31.6450    1.0000 </r>
       <r>  -31.4207    1.0000 </r>
       <r>  -31.2548    1.0000 </r>
       <r>  -30.8817    1.0000 </r>
       <r>  -15.8318    1.0000 </r>
       <r>  -15.4224    1.0000 </r>
       <r>  -15.2923    1.0000 </r>
       <r>  -15.0774    1.0000 </r>
       <r>  -15.0140    1.0000 </r>
       <r>  -14.8883    1.0000 </r>
       <r>  -14.7979    1.0000 </r>
       <r>  -14.6996    1.0000 </r>
       <r>  -14.6528    1.0000 </r>
       <r>  -14.4682    1.0000 </r>
       <r>  -14.4067    1.0000 </r>
       <r>  -14.0732    1.0000 </r>
       <r>  -13.6393    1.0000 </r>
       <r>  -13.5670    1.0000 </r>
       <r>  -13.4651    1.0000 </r>
       <r>  -13.3712    1.0000 </r>
       <r>  -13.3047    1.0000 </r>
       <r>  -13.2460    1.0000 </r>
       <r>  -13.1720    1.0000 </r>
       <r>  -13.0702    1.0000 </r>
       <r>  -12.9031    1.0000 </r>
       <r>  -12.8561    1.0000 </r>
       <r>  -12.7949    1.0000 </r>
       <r>  -12.6650    1.0000 </r>
       <r>   -2.7418    1.0000 </r>
       <r>   -2.5373    1.0000 </r>
       <r>   -2.4515    1.0000 </r>
       <r>   -2.1398    1.0000 </r>
       <r>   -2.1042    1.0000 </r>
       <r>   -2.0219    1.0000 </r>
       <r>   -2.0108    1.0000 </r>
       <r>   -1.8580    1.0000 </r>
       <r>   -1.8441    1.0000 </r>
       <r>   -1.8390    1.0000 </r>
       <r>   -1.7587    1.0000 </r>
       <r>   -1.7119    1.0000 </r>
       <r>   -1.5353    1.0000 </r>
       <r>   -1.4310    1.0000 </r>
       <r>   -1.4069    1.0000 </r>
       <r>   -1.3882    1.0000 </r>
       <r>   -1.3170    1.0000 </r>
       <r>   -1.2194    1.0000 </r>
       <r>   -1.0986    1.0000 </r>
       <r>   -1.0511    1.0000 </r>
       <r>   -0.9589    1.0000 </r>
       <r>   -0.6420    1.0000 </r>
       <r>   -0.3992    1.0000 </r>
       <r>    0.1057    1.0000 </r>
       <r>    0.3772    1.0000 </r>
       <r>    0.5342    1.0000 </r>
       <r>    0.5806    1.0000 </r>
       <r>    0.6699    1.0000 </r>
       <r>    0.7755    1.0000 </r>
       <r>    0.9458    1.0000 </r>
       <r>    1.0555    1.0000 </r>
       <r>    1.1348    1.0000 </r>
       <r>    1.2258    1.0000 </r>
       <r>    1.3611    1.0000 </r>
       <r>    1.4931    1.0000 </r>
       <r>    1.6468    1.0000 </r>
       <r>    3.8682    0.0000 </r>
       <r>    4.1346    0.0000 </r>
       <r>    4.5168    0.0000 </r>
       <r>    4.5744    0.0000 </r>
       <r>    4.6029    0.0000 </r>
       <r>    4.7243    0.0000 </r>
       <r>    4.9478    0.0000 </r>
       <r>    5.0151    0.0000 </r>
       <r>    5.2034    0.0000 </r>
       <r>    5.4212    0.0000 </r>
       <r>    5.4741    0.0000 </r>
       <r>    8.9354    0.0000 </r>
      </set>
      <set comment="kpoint 9">
       <r>  -31.6400    1.0000 </r>
       <r>  -31.4148    1.0000 </r>
       <r>  -31.2489    1.0000 </r>
       <r>  -30.8759    1.0000 </r>
       <r>  -15.7665    1.0000 </r>
       <r>  -15.3478    1.0000 </r>
       <r>  -15.1093    1.0000 </r>
       <r>  -15.0638    1.0000 </r>
       <r>  -14.8953    1.0000 </r>
       <r>  -14.7882    1.0000 </r>
       <r>  -14.7159    1.0000 </r>
       <r>  -14.6775    1.0000 </r>
       <r>  -14.6643    1.0000 </r>
       <r>  -14.4779    1.0000 </r>
       <r>  -14.4318    1.0000 </r>
       <r>  -13.9448    1.0000 </r>
       <r>  -13.7408    1.0000 </r>
       <r>  -13.5385    1.0000 </r>
       <r>  -13.4963    1.0000 </r>
       <r>  -13.3943    1.0000 </r>
       <r>  -13.3449    1.0000 </r>
       <r>  -13.2461    1.0000 </r>
       <r>  -13.2122    1.0000 </r>
       <r>  -13.0872    1.0000 </r>
       <r>  -12.9694    1.0000 </r>
       <r>  -12.8666    1.0000 </r>
       <r>  -12.8154    1.0000 </r>
       <r>  -12.6865    1.0000 </r>
       <r>   -2.9251    1.0000 </r>
       <r>   -2.7375    1.0000 </r>
       <r>   -2.6238    1.0000 </r>
       <r>   -2.4924    1.0000 </r>
       <r>   -2.4402    1.0000 </r>
       <r>   -2.3852    1.0000 </r>
       <r>   -2.1936    1.0000 </r>
       <r>   -2.1571    1.0000 </r>
       <r>   -2.0720    1.0000 </r>
       <r>   -2.0155    1.0000 </r>
       <r>   -1.8929    1.0000 </r>
       <r>   -1.8167    1.0000 </r>
       <r>   -1.7682    1.0000 </r>
       <r>   -1.7180    1.0000 </r>
       <r>   -1.6944    1.0000 </r>
       <r>   -1.6135    1.0000 </r>
       <r>   -1.4674    1.0000 </r>
       <r>   -1.3381    1.0000 </r>
       <r>   -1.3145    1.0000 </r>
       <r>   -1.1577    1.0000 </r>
       <r>   -0.9851    1.0000 </r>
       <r>   -0.8967    1.0000 </r>
       <r>   -0.4725    1.0000 </r>
       <r>    0.1293    1.0000 </r>
       <r>    0.2869    1.0000 </r>
       <r>    0.5973    1.0000 </r>
       <r>    0.6778    1.0000 </r>
       <r>    0.7603    1.0000 </r>
       <r>    0.8637    1.0000 </r>
       <r>    1.0064    1.0000 </r>
       <r>    1.1331    1.0000 </r>
       <r>    1.2450    1.0000 </r>
       <r>    1.3781    1.0000 </r>
       <r>    1.5063    1.0000 </r>
       <r>    1.5173    1.0000 </r>
       <r>    1.7411    1.0000 </r>
       <r>    3.9971    0.0000 </r>
       <r>    4.5484    0.0000 </r>
       <r>    4.5750    0.0000 </r>
       <r>    4.8053    0.0000 </r>
       <r>    4.9346    0.0000 </r>
       <r>    5.0183    0.0000 </r>
       <r>    5.1517    0.0000 </r>
       <r>    5.3577    0.0000 </r>
       <r>    5.4057    0.0000 </r>
       <r>    5.6873    0.0000 </r>
       <r>    5.7207    0.0000 </r>
       <r>    9.1057    0.0000 </r>
      </set>
      <set comment="kpoint 10">
       <r>  -31.6351    1.0000 </r>
       <r>  -31.4092    1.0000 </r>
       <r>  -31.2433    1.0000 </r>
       <r>  -30.8703    1.0000 </r>
       <r>  -15.5337    1.0000 </r>
       <r>  -15.1462    1.0000 </r>
       <r>  -15.1248    1.0000 </r>
       <r>  -14.9864    1.0000 </r>
       <r>  -14.7465    1.0000 </r>
       <r>  -14.7304    1.0000 </r>
       <r>  -14.6782    1.0000 </r>
       <r>  -14.6261    1.0000 </r>
       <r>  -14.5746    1.0000 </r>
       <r>  -14.4486    1.0000 </r>
       <r>  -14.4136    1.0000 </r>
       <r>  -13.8509    1.0000 </r>
       <r>  -13.6922    1.0000 </r>
       <r>  -13.5880    1.0000 </r>
       <r>  -13.5258    1.0000 </r>
       <r>  -13.4624    1.0000 </r>
       <r>  -13.4571    1.0000 </r>
       <r>  -13.3290    1.0000 </r>
       <r>  -13.2470    1.0000 </r>
       <r>  -13.1888    1.0000 </r>
       <r>  -13.1748    1.0000 </r>
       <r>  -12.9748    1.0000 </r>
       <r>  -12.7834    1.0000 </r>
       <r>  -12.7551    1.0000 </r>
       <r>   -3.0424    1.0000 </r>
       <r>   -2.8286    1.0000 </r>
       <r>   -2.7807    1.0000 </r>
       <r>   -2.6798    1.0000 </r>
       <r>   -2.6785    1.0000 </r>
       <r>   -2.5652    1.0000 </r>
       <r>   -2.4925    1.0000 </r>
       <r>   -2.3367    1.0000 </r>
       <r>   -2.2824    1.0000 </r>
       <r>   -2.2681    1.0000 </r>
       <r>   -2.1848    1.0000 </r>
       <r>   -2.1307    1.0000 </r>
       <r>   -2.0912    1.0000 </r>
       <r>   -1.9155    1.0000 </r>
       <r>   -1.8750    1.0000 </r>
       <r>   -1.7260    1.0000 </r>
       <r>   -1.6771    1.0000 </r>
       <r>   -1.6385    1.0000 </r>
       <r>   -1.3065    1.0000 </r>
       <r>   -1.3008    1.0000 </r>
       <r>   -1.1119    1.0000 </r>
       <r>   -1.0199    1.0000 </r>
       <r>   -0.6982    1.0000 </r>
       <r>    0.2297    1.0000 </r>
       <r>    0.2901    1.0000 </r>
       <r>    0.7375    1.0000 </r>
       <r>    0.7742    1.0000 </r>
       <r>    0.8200    1.0000 </r>
       <r>    1.1731    1.0000 </r>
       <r>    1.1860    1.0000 </r>
       <r>    1.2362    1.0000 </r>
       <r>    1.5749    1.0000 </r>
       <r>    1.7000    1.0000 </r>
       <r>    1.7094    1.0000 </r>
       <r>    1.7637    1.0000 </r>
       <r>    1.8834    1.0000 </r>
       <r>    4.5722    0.0000 </r>
       <r>    4.6145    0.0000 </r>
       <r>    4.9128    0.0000 </r>
       <r>    5.1699    0.0000 </r>
       <r>    5.2741    0.0000 </r>
       <r>    5.3449    0.0000 </r>
       <r>    5.5233    0.0000 </r>
       <r>    5.7837    0.0000 </r>
       <r>    5.8680    0.0000 </r>
       <r>    8.0567    0.0000 </r>
       <r>    8.3507    0.0000 </r>
       <r>    8.6550    0.0000 </r>
      </set>
     </set>
    </set>
   </array>
  </eigenvalues>
  <separator name="orbital magnetization" >
   <v name="MAGDIPOLOUT">      0.00000000      0.00000000      0.00000000</v>
  </separator>
  <dos>
   <i name="efermi">      1.95065608 </i>
   <total>
    <array>
     <dimension dim="1">gridpoints</dimension>
     <dimension dim="2">spin</dimension>
     <field>energy</field>
     <field>total</field>
     <field>integrated</field>
     <set>
      <set comment="spin 1">
       <r>   -33.7021     0.0000     0.0000 </r>
       <r>   -33.5526     0.0000     0.0000 </r>
       <r>   -33.4031     0.0000     0.0000 </r>
       <r>   -33.2537     0.0000     0.0000 </r>
       <r>   -33.1042     0.0000     0.0000 </r>
       <r>   -32.9547     0.0000     0.0000 </r>
       <r>   -32.8052     0.0000     0.0000 </r>
       <r>   -32.6557     0.0000     0.0000 </r>
       <r>   -32.5062     0.0000     0.0000 </r>
       <r>   -32.3567     0.0000     0.0000 </r>
       <r>   -32.2072     0.0000     0.0000 </r>
       <r>   -32.0578     0.0000     0.0000 </r>
       <r>   -31.9083     0.0000     0.0000 </r>
       <r>   -31.7588     0.0000     0.0000 </r>
       <r>   -31.6093     0.0000     2.0000 </r>
       <r>   -31.4598     0.0000     2.0000 </r>
       <r>   -31.3103     0.0000     4.0000 </r>
       <r>   -31.1608     0.0000     6.0000 </r>
       <r>   -31.0113     0.0000     6.0000 </r>
       <r>   -30.8619     0.0000     8.0000 </r>
       <r>   -30.7124     0.0000     8.0000 </r>
       <r>   -30.5629     0.0000     8.0000 </r>
       <r>   -30.4134     0.0000     8.0000 </r>
       <r>   -30.2639     0.0000     8.0000 </r>
       <r>   -30.1144     0.0000     8.0000 </r>
       <r>   -29.9649     0.0000     8.0000 </r>
       <r>   -29.8154     0.0000     8.0000 </r>
       <r>   -29.6660     0.0000     8.0000 </r>
       <r>   -29.5165     0.0000     8.0000 </r>
       <r>   -29.3670     0.0000     8.0000 </r>
       <r>   -29.2175     0.0000     8.0000 </r>
       <r>   -29.0680     0.0000     8.0000 </r>
       <r>   -28.9185     0.0000     8.0000 </r>
       <r>   -28.7690     0.0000     8.0000 </r>
       <r>   -28.6195     0.0000     8.0000 </r>
       <r>   -28.4701     0.0000     8.0000 </r>
       <r>   -28.3206     0.0000     8.0000 </r>
       <r>   -28.1711     0.0000     8.0000 </r>
       <r>   -28.0216     0.0000     8.0000 </r>
       <r>   -27.8721     0.0000     8.0000 </r>
       <r>   -27.7226     0.0000     8.0000 </r>
       <r>   -27.5731     0.0000     8.0000 </r>
       <r>   -27.4236     0.0000     8.0000 </r>
       <r>   -27.2742     0.0000     8.0000 </r>
       <r>   -27.1247     0.0000     8.0000 </r>
       <r>   -26.9752     0.0000     8.0000 </r>
       <r>   -26.8257     0.0000     8.0000 </r>
       <r>   -26.6762     0.0000     8.0000 </r>
       <r>   -26.5267     0.0000     8.0000 </r>
       <r>   -26.3772     0.0000     8.0000 </r>
       <r>   -26.2277     0.0000     8.0000 </r>
       <r>   -26.0783     0.0000     8.0000 </r>
       <r>   -25.9288     0.0000     8.0000 </r>
       <r>   -25.7793     0.0000     8.0000 </r>
       <r>   -25.6298     0.0000     8.0000 </r>
       <r>   -25.4803     0.0000     8.0000 </r>
       <r>   -25.3308     0.0000     8.0000 </r>
       <r>   -25.1813     0.0000     8.0000 </r>
       <r>   -25.0318     0.0000     8.0000 </r>
       <r>   -24.8824     0.0000     8.0000 </r>
       <r>   -24.7329     0.0000     8.0000 </r>
       <r>   -24.5834     0.0000     8.0000 </r>
       <r>   -24.4339     0.0000     8.0000 </r>
       <r>   -24.2844     0.0000     8.0000 </r>
       <r>   -24.1349     0.0000     8.0000 </r>
       <r>   -23.9854     0.0000     8.0000 </r>
       <r>   -23.8359     0.0000     8.0000 </r>
       <r>   -23.6865     0.0000     8.0000 </r>
       <r>   -23.5370     0.0000     8.0000 </r>
       <r>   -23.3875     0.0000     8.0000 </r>
       <r>   -23.2380     0.0000     8.0000 </r>
       <r>   -23.0885     0.0000     8.0000 </r>
       <r>   -22.9390     0.0000     8.0000 </r>
       <r>   -22.7895     0.0000     8.0000 </r>
       <r>   -22.6400     0.0000     8.0000 </r>
       <r>   -22.4906     0.0000     8.0000 </r>
       <r>   -22.3411     0.0000     8.0000 </r>
       <r>   -22.1916     0.0000     8.0000 </r>
       <r>   -22.0421     0.0000     8.0000 </r>
       <r>   -21.8926     0.0000     8.0000 </r>
       <r>   -21.7431     0.0000     8.0000 </r>
       <r>   -21.5936     0.0000     8.0000 </r>
       <r>   -21.4441     0.0000     8.0000 </r>
       <r>   -21.2947     0.0000     8.0000 </r>
       <r>   -21.1452     0.0000     8.0000 </r>
       <r>   -20.9957     0.0000     8.0000 </r>
       <r>   -20.8462     0.0000     8.0000 </r>
       <r>   -20.6967     0.0000     8.0000 </r>
       <r>   -20.5472     0.0000     8.0000 </r>
       <r>   -20.3977     0.0000     8.0000 </r>
       <r>   -20.2482     0.0000     8.0000 </r>
       <r>   -20.0988     0.0000     8.0000 </r>
       <r>   -19.9493     0.0000     8.0000 </r>
       <r>   -19.7998     0.0000     8.0000 </r>
       <r>   -19.6503     0.0000     8.0000 </r>
       <r>   -19.5008     0.0000     8.0000 </r>
       <r>   -19.3513     0.0000     8.0000 </r>
       <r>   -19.2018     0.0000     8.0000 </r>
       <r>   -19.0523     0.0000     8.0000 </r>
       <r>   -18.9029     0.0000     8.0000 </r>
       <r>   -18.7534     0.0000     8.0000 </r>
       <r>   -18.6039     0.0000     8.0000 </r>
       <r>   -18.4544     0.0000     8.0000 </r>
       <r>   -18.3049     0.0000     8.0000 </r>
       <r>   -18.1554     0.0000     8.0000 </r>
       <r>   -18.0059     0.0000     8.0000 </r>
       <r>   -17.8564     0.0000     8.0000 </r>
       <r>   -17.7070     0.0000     8.0000 </r>
       <r>   -17.5575     0.0000     8.0000 </r>
       <r>   -17.4080     0.0000     8.0000 </r>
       <r>   -17.2585     0.0000     8.0000 </r>
       <r>   -17.1090     0.0000     8.0000 </r>
       <r>   -16.9595     0.0000     8.0000 </r>
       <r>   -16.8100     0.0000     8.0000 </r>
       <r>   -16.6605     0.0000     8.0000 </r>
       <r>   -16.5111     0.0000     8.0000 </r>
       <r>   -16.3616     0.0000     8.0000 </r>
       <r>   -16.2121     0.0000     8.0000 </r>
       <r>   -16.0626     4.1494     8.0413 </r>
       <r>   -15.9131     3.8163     9.2618 </r>
       <r>   -15.7636     1.5884     9.6960 </r>
       <r>   -15.6141    14.5040    10.5655 </r>
       <r>   -15.4646     5.8320    12.0764 </r>
       <r>   -15.3152     8.6214    13.2016 </r>
       <r>   -15.1657    11.4886    14.4539 </r>
       <r>   -15.0162    28.8084    17.1402 </r>
       <r>   -14.8667    32.7362    19.5018 </r>
       <r>   -14.7172     4.5283    21.7239 </r>
       <r>   -14.5677     0.0000    26.0000 </r>
       <r>   -14.4182    28.3824    29.1303 </r>
       <r>   -14.2687     0.0000    30.0000 </r>
       <r>   -14.1193     0.0000    30.0000 </r>
       <r>   -13.9698     5.8696    31.3825 </r>
       <r>   -13.8203     0.5926    31.9418 </r>
       <r>   -13.6708     7.6068    32.6671 </r>
       <r>   -13.5213    23.3745    35.8978 </r>
       <r>   -13.3718    14.6300    38.9577 </r>
       <r>   -13.2223    29.5014    43.5752 </r>
       <r>   -13.0728    13.0828    46.7866 </r>
       <r>   -12.9234    20.5708    49.2904 </r>
       <r>   -12.7739    16.8344    52.4942 </r>
       <r>   -12.6244    12.0727    55.3730 </r>
       <r>   -12.4749     0.0000    56.0000 </r>
       <r>   -12.3254     0.0000    56.0000 </r>
       <r>   -12.1759     0.0000    56.0000 </r>
       <r>   -12.0264     0.0000    56.0000 </r>
       <r>   -11.8769     0.0000    56.0000 </r>
       <r>   -11.7275     0.0000    56.0000 </r>
       <r>   -11.5780     0.0000    56.0000 </r>
       <r>   -11.4285     0.0000    56.0000 </r>
       <r>   -11.2790     0.0000    56.0000 </r>
       <r>   -11.1295     0.0000    56.0000 </r>
       <r>   -10.9800     0.0000    56.0000 </r>
       <r>   -10.8305     0.0000    56.0000 </r>
       <r>   -10.6810     0.0000    56.0000 </r>
       <r>   -10.5316     0.0000    56.0000 </r>
       <r>   -10.3821     0.0000    56.0000 </r>
       <r>   -10.2326     0.0000    56.0000 </r>
       <r>   -10.0831     0.0000    56.0000 </r>
       <r>    -9.9336     0.0000    56.0000 </r>
       <r>    -9.7841     0.0000    56.0000 </r>
       <r>    -9.6346     0.0000    56.0000 </r>
       <r>    -9.4851     0.0000    56.0000 </r>
       <r>    -9.3357     0.0000    56.0000 </r>
       <r>    -9.1862     0.0000    56.0000 </r>
       <r>    -9.0367     0.0000    56.0000 </r>
       <r>    -8.8872     0.0000    56.0000 </r>
       <r>    -8.7377     0.0000    56.0000 </r>
       <r>    -8.5882     0.0000    56.0000 </r>
       <r>    -8.4387     0.0000    56.0000 </r>
       <r>    -8.2892     0.0000    56.0000 </r>
       <r>    -8.1398     0.0000    56.0000 </r>
       <r>    -7.9903     0.0000    56.0000 </r>
       <r>    -7.8408     0.0000    56.0000 </r>
       <r>    -7.6913     0.0000    56.0000 </r>
       <r>    -7.5418     0.0000    56.0000 </r>
       <r>    -7.3923     0.0000    56.0000 </r>
       <r>    -7.2428     0.0000    56.0000 </r>
       <r>    -7.0933     0.0000    56.0000 </r>
       <r>    -6.9439     0.0000    56.0000 </r>
       <r>    -6.7944     0.0000    56.0000 </r>
       <r>    -6.6449     0.0000    56.0000 </r>
       <r>    -6.4954     0.0000    56.0000 </r>
       <r>    -6.3459     0.0000    56.0000 </r>
       <r>    -6.1964     0.0000    56.0000 </r>
       <r>    -6.0469     0.0000    56.0000 </r>
       <r>    -5.8974     0.0000    56.0000 </r>
       <r>    -5.7480     0.0000    56.0000 </r>
       <r>    -5.5985     0.0000    56.0000 </r>
       <r>    -5.4490     0.0000    56.0000 </r>
       <r>    -5.2995     0.0000    56.0000 </r>
       <r>    -5.1500     0.0000    56.0000 </r>
       <r>    -5.0005     0.0000    56.0000 </r>
       <r>    -4.8510     0.0000    56.0000 </r>
       <r>    -4.7015     0.0000    56.0000 </r>
       <r>    -4.5521     0.0000    56.0000 </r>
       <r>    -4.4026     0.0000    56.0000 </r>
       <r>    -4.2531     0.0000    56.0000 </r>
       <r>    -4.1036     0.0000    56.0000 </r>
       <r>    -3.9541     0.0000    56.0000 </r>
       <r>    -3.8046     0.0000    56.0000 </r>
       <r>    -3.6551     0.0000    56.0000 </r>
       <r>    -3.5056     0.0000    56.0000 </r>
       <r>    -3.3562     0.0000    56.0000 </r>
       <r>    -3.2067     0.0000    56.0000 </r>
       <r>    -3.0572     0.0000    56.0000 </r>
       <r>    -2.9077     4.3320    56.6563 </r>
       <r>    -2.7582    14.0557    57.8055 </r>
       <r>    -2.6087    23.7319    60.1584 </r>
       <r>    -2.4592     8.5930    61.8560 </r>
       <r>    -2.3097     9.3655    63.6048 </r>
       <r>    -2.1603    14.3225    65.6220 </r>
       <r>    -2.0108    15.5181    68.2809 </r>
       <r>    -1.8613    17.7008    70.8936 </r>
       <r>    -1.7118    19.3131    73.6308 </r>
       <r>    -1.5623    19.0733    76.8410 </r>
       <r>    -1.4128    18.3268    79.6046 </r>
       <r>    -1.2633    21.3198    82.9309 </r>
       <r>    -1.1138    15.1351    85.8416 </r>
       <r>    -0.9644    17.3443    88.4505 </r>
       <r>    -0.8149    14.0903    90.8233 </r>
       <r>    -0.6654    14.2517    92.8625 </r>
       <r>    -0.5159    11.8040    94.8529 </r>
       <r>    -0.3664    11.9782    96.6717 </r>
       <r>    -0.2169    11.5599    98.7009 </r>
       <r>    -0.0674     7.1414   100.2607 </r>
       <r>     0.0821    13.6542   101.8750 </r>
       <r>     0.2315    16.3322   104.3078 </r>
       <r>     0.3810    14.0715   107.3198 </r>
       <r>     0.5305    16.5013   109.6978 </r>
       <r>     0.6800    22.1388   112.6521 </r>
       <r>     0.8295    17.3128   116.1862 </r>
       <r>     0.9790    19.4669   118.3734 </r>
       <r>     1.1285    15.1417   120.6689 </r>
       <r>     1.2780     4.5114   122.6431 </r>
       <r>     1.4274    11.3755   124.1817 </r>
       <r>     1.5769    10.3641   125.7862 </r>
       <r>     1.7264    10.4795   127.5083 </r>
       <r>     1.8759     1.2137   127.9503 </r>
       <r>     2.0254     0.0000   128.0000 </r>
       <r>     2.1749     0.0000   128.0000 </r>
       <r>     2.3244     0.0000   128.0000 </r>
       <r>     2.4739     0.0000   128.0000 </r>
       <r>     2.6233     0.0000   128.0000 </r>
       <r>     2.7728     0.0000   128.0000 </r>
       <r>     2.9223     0.0000   128.0000 </r>
       <r>     3.0718     2.7480   128.1384 </r>
       <r>     3.2213     3.7595   128.6928 </r>
       <r>     3.3708     3.4005   129.2763 </r>
       <r>     3.5203     2.8874   129.6942 </r>
       <r>     3.6698     3.1553   130.1446 </r>
       <r>     3.8192     4.0496   130.6479 </r>
       <r>     3.9687     7.3866   131.6445 </r>
       <r>     4.1182     6.6089   132.7404 </r>
       <r>     4.2677     8.6796   133.9207 </r>
       <r>     4.4172    10.7264   135.3881 </r>
       <r>     4.5667    18.1292   137.4627 </r>
       <r>     4.7162    19.3637   139.6161 </r>
       <r>     4.8657     9.9079   141.3245 </r>
       <r>     5.0151     9.5188   142.7495 </r>
       <r>     5.1646    10.9251   144.4589 </r>
       <r>     5.3141     8.7735   146.0192 </r>
       <r>     5.4636     6.3170   147.1721 </r>
       <r>     5.6131     5.4442   148.2335 </r>
       <r>     5.7626     1.3911   148.7589 </r>
       <r>     5.9121     0.5206   148.9703 </r>
       <r>     6.0616     0.5028   149.0467 </r>
       <r>     6.2110     0.4850   149.1206 </r>
       <r>     6.3605     0.4672   149.1918 </r>
       <r>     6.5100     0.4495   149.2603 </r>
       <r>     6.6595     0.4317   149.3261 </r>
       <r>     6.8090     0.4139   149.3893 </r>
       <r>     6.9585     0.3961   149.4499 </r>
       <r>     7.1080     0.3784   149.5078 </r>
       <r>     7.2575     2.0515   149.7243 </r>
       <r>     7.4069     1.4029   149.9995 </r>
       <r>     7.5564     1.3365   150.2102 </r>
       <r>     7.7059     1.1884   150.3965 </r>
       <r>     7.8554     1.2484   150.5787 </r>
       <r>     8.0049     1.3232   150.7705 </r>
       <r>     8.1544     1.1771   151.0025 </r>
       <r>     8.3039     0.9452   151.1611 </r>
       <r>     8.4534     0.6547   151.3197 </r>
       <r>     8.6028     0.5979   151.4136 </r>
       <r>     8.7523     1.0576   151.5820 </r>
       <r>     8.9018     1.2435   151.7540 </r>
       <r>     9.0513     1.1630   151.9383 </r>
       <r>     9.2008     0.0000   152.0000 </r>
       <r>     9.3503     0.0000   152.0000 </r>
       <r>     9.4998     0.0000   152.0000 </r>
       <r>     9.6493     0.0000   152.0000 </r>
       <r>     9.7987     0.0000   152.0000 </r>
       <r>     9.9482     0.0000   152.0000 </r>
       <r>    10.0977     0.0000   152.0000 </r>
       <r>    10.2472     0.0000   152.0000 </r>
       <r>    10.3967     0.0000   152.0000 </r>
       <r>    10.5462     0.0000   152.0000 </r>
       <r>    10.6957     0.0000   152.0000 </r>
       <r>    10.8452     0.0000   152.0000 </r>
       <r>    10.9946     0.0000   152.0000 </r>
       <r>    11.1441     0.0000   152.0000 </r>
      </set>
     </set>
    </array>
   </total>
  </dos>
 </calculation>
 <structure name="finalpos" >
  <crystal>
   <varray name="basis" >
    <v>       3.94684634       0.00000000       0.00000000 </v>
    <v>       0.00000000       3.94684634       0.00000000 </v>
    <v>       0.00000000       0.00000000      17.81396220 </v>
   </varray>
   <i name="volume">    277.49870703 </i>
   <varray name="rec_basis" >
    <v>       0.25336684       0.00000000       0.00000000 </v>
    <v>       0.00000000       0.25336684       0.00000000 </v>
    <v>       0.00000000       0.00000000       0.05613574 </v>
   </varray>
  </crystal>
  <varray name="positions" >
   <v>       0.50000000       0.50000000       0.11227149 </v>
   <v>       0.50000000       0.00000000       0.22305106 </v>
   <v>       0.00000000       0.50000000       0.22305106 </v>
   <v>       0.50000000       0.50000000       0.33383064 </v>
   <v>       0.50000000       0.00000000       0.44461021 </v>
   <v>       0.00000000       0.50000000       0.44461021 </v>
   <v>       0.50000000       0.50000000       0.55538979 </v>
   <v>       0.50000000       0.00000000       0.66616936 </v>
   <v>       0.00000000       0.50000000       0.66616936 </v>
   <v>       0.50000000       0.50000000       0.77694894 </v>
   <v>       0.50000000       0.00000000       0.88772851 </v>
   <v>       0.00000000       0.50000000       0.88772851 </v>
   <v>       0.00000000       0.00000000       0.11227149 </v>
   <v>       0.00000000       0.00000000       0.33383064 </v>
   <v>       0.00000000       0.00000000       0.55538979 </v>
   <v>       0.00000000       0.00000000       0.77694894 </v>
   <v>       0.50000000       0.50000000       0.22305106 </v>
   <v>       0.50000000       0.50000000       0.44461021 </v>
   <v>       0.50000000       0.50000000       0.66616936 </v>
   <v>       0.50000000       0.50000000       0.88772851 </v>
  </varray>
 </structure>
</modeling>
