unknown system                          
           1
     3.946846    0.000000    0.000000
     0.000000    3.946846    0.000000
     0.000000    0.000000   17.813962
   O    Sr   Ti
  12   4   4
Direct configuration=     1
   0.50000000  0.50000000  0.11227149
   0.50000000  0.00000000  0.22305106
   0.00000000  0.50000000  0.22305106
   0.50000000  0.50000000  0.33383064
   0.50000000  0.00000000  0.44461021
   0.00000000  0.50000000  0.44461021
   0.50000000  0.50000000  0.55538979
   0.50000000  0.00000000  0.66616936
   0.00000000  0.50000000  0.66616936
   0.50000000  0.50000000  0.77694894
   0.50000000  0.00000000  0.88772851
   0.00000000  0.50000000  0.88772851
   0.00000000  0.00000000  0.11227149
   0.00000000  0.00000000  0.33383064
   0.00000000  0.00000000  0.55538979
   0.00000000  0.00000000  0.77694894
   0.50000000  0.50000000  0.22305106
   0.50000000  0.50000000  0.44461021
   0.50000000  0.50000000  0.66616936
   0.50000000  0.50000000  0.88772851
