unknown system                          
   1.00000000000000     
     4.913700    0.000000    0.000000
    -2.456850    4.255389    0.000000
     0.000000    0.000000    5.405130
   Si   O 
     3     6
Direct
  0.469800  0.000000  0.666670
  0.000000  0.469800  0.333330
  0.530200  0.530200  0.000000
  0.414500  0.266200  0.785600
  0.733800  0.148300  0.452270
  0.851700  0.585500  0.118930
  0.148300  0.733800  0.547730
  0.266200  0.414500  0.214400
  0.585500  0.851700  0.881070
 
   56   56   64
  1.4696      1.4147      1.4060      1.4309      1.4820      1.5557      1.6506      1.7648      1.8953      2.0381    
  2.1888      2.3433      2.4972      2.6460      2.7851      2.9115      3.0268      3.1394      3.2651      3.4255    
  3.6462      3.9566      4.3950      5.0139      5.8845      7.0940      8.7355      10.894      13.637      17.004    
  20.997      25.559      30.539      35.648      40.450      44.402      46.963      47.729      46.559      43.622    
  39.341      34.271      28.958      23.834      19.183      15.146      11.772      9.0409      6.9003      5.2712    
  4.0625      3.1820      2.5485      2.0991      1.7893      1.5876      1.4147      1.3570      1.3503      1.3833    
  1.4488      1.5433      1.6652      1.8131      1.9837      2.1725      2.3735      2.5805      2.7866      2.9844    
  3.1662      3.3247      3.4560      3.5620      3.6525      3.7454      3.8641      4.0352      4.2892      4.6638    
  5.2086      5.9869      7.0719      8.5366      10.441      12.818      15.670      18.950      22.558      26.316    
  29.953      33.126      35.459      36.630      36.456      34.947      32.301      28.855      24.988      21.049    
  17.304      13.929      11.015      8.5933      6.6493      5.1366      3.9899      3.1376      2.5134      2.0633    
  1.7480      1.5390      1.4060      1.3503      1.3486      1.3905      1.4698      1.5833      1.7300      1.9088    
  2.1172      2.3510      2.6039      2.8680      3.1342      3.3921      3.6302      3.8369      4.0025      4.1223    
  4.1992      4.2457      4.2821      4.3346      4.4322      4.6063      4.8938      5.3394      5.9969      6.9241    
  8.1741      9.7833      11.760      14.076      16.660      19.392      22.100      24.560      26.525      27.757    
  28.088      27.460      25.944      23.717      21.022      18.114      15.215      12.496      10.069      7.9941    
  6.2866      4.9271      3.8739      3.0751      2.4796      2.0442      1.7355      1.5291      1.4309      1.3833    
  1.3905      1.4438      1.5376      1.6699      1.8401      2.0481      2.2928      2.5708      2.8769      3.2028    
  3.5377      3.8683      4.1788      4.4523      4.6731      4.8292      4.9161      4.9391      4.9144      4.8670    
  4.8271      4.8268      4.8992      5.0792      5.4059      5.9220      6.6700      7.6847      8.9832      10.555    
  12.357      14.308      16.289      18.152      19.729      20.854      21.390      21.261      20.471      19.103    
  17.299      15.231      13.067      10.955      9.0039      7.2857      5.8336      4.6494      3.7119      2.9868    
  2.4371      2.0300      1.7393      1.5450      1.4820      1.4488      1.4698      1.5376      1.6481      1.7998    
  1.9934      2.2300      2.5098      2.8318      3.1921      3.5837      3.9956      4.4116      4.8119      5.1734    
  5.4732      5.6912      5.8143      5.8398      5.7778      5.6505      5.4893      5.3302      5.2095      5.1613    
  5.2184      5.4129      5.7764      6.3368      7.1132      8.1080      9.2995      10.638      12.044      13.415    
  14.634      15.582      16.154      16.277      15.928      15.135      13.974      12.553      10.992      9.4069    
  7.8920      6.5164      5.3213      4.3218      3.5123      2.8740      2.3827      2.0153      1.7527      1.5794    
  1.5557      1.5433      1.5833      1.6699      1.7998      1.9730      2.1908      2.4560      2.7707      3.1360    
  3.5511      4.0113      4.5064      5.0194      5.5266      5.9984      6.4036      6.7123      6.9015      6.9592    
  6.8876      6.7041      6.4397      6.1344      5.8313      5.5710      5.3884      5.3128      5.3692      5.5783    
  5.9550      6.5050      7.2203      8.0738      9.0165      9.9793      10.879      11.628      12.146      12.371    
  12.269      11.842      11.125      10.182      9.0925      7.9398      6.8003      5.7343      4.7824      3.9655    
  3.2880      2.7431      2.3183      1.9994      1.7736      1.6292      1.6506      1.6652      1.7300      1.8401    
  1.9934      2.1908      2.4350      2.7297      3.0792      3.4874      3.9568      4.4863      5.0684      5.6869    
  6.3155      6.9190      7.4568      7.8880      8.1775      8.3015      8.2526      8.0414      7.6965      7.2602    
  6.7830      6.3154      5.9019      5.5771      5.3660      5.2858      5.3469      5.5533      5.9008      6.3744    
  6.9448      7.5676      8.1857      8.7351      9.1539      9.3904      9.4105      9.2024      8.7786      8.1729    
  7.4344      6.6205      5.7876      4.9848      4.2484      3.6004      3.0509      2.6012      2.2475      1.9835    
  1.8014      1.6933      1.7648      1.8131      1.9088      2.0481      2.2300      2.4560      2.7297      3.0561    
  3.4411      3.8913      4.4131      5.0101      5.6792      6.4071      7.1673      7.9203      8.6167      9.2033    
  9.6304      9.8601      9.8719      9.6673      9.2701      8.7233      8.0834      7.4117      6.7660      6.1931    
  5.7259      5.3836      5.1754      5.1027      5.1606      5.3371      5.6123      5.9570      6.3329      6.6947    
  6.9951      7.1919      7.2532      7.1624      6.9192      6.5392      6.0506      5.4898      4.8958      4.3051    
  3.7481      3.2466      2.8136      2.4557      2.1745      1.9690      1.8360      1.7701      1.8953      1.9837    
  2.1172      2.2928      2.5098      2.7707      3.0792      3.4411      3.8633      4.3549      4.9262      5.5861    
  6.3380      7.1735      8.0689      8.9832      9.8598      10.633      11.237      11.616      11.733      11.576    
  11.161      10.531      9.7450      8.8761      7.9962      7.1681      6.4392      5.8379      5.3767      5.0564    
  4.8696      4.8040      4.8423      4.9621      5.1356      5.3298      5.5091      5.6392      5.6922      5.6502    
  5.5066      5.2665      4.9446      4.5626      4.1451      3.7177      3.3037      2.9231      2.5907      2.3159    
  2.1041      1.9578      1.8766      1.8575      2.0381      2.1725      2.3510      2.5708      2.8318      3.1360    
  3.4874      3.8913      4.3549      4.8887      5.5065      6.2231      7.0490      7.9841      9.0106      10.089    
  11.160      12.147      12.966      13.541      13.813      13.752      13.362      12.681      11.773      10.719    
  9.6068      8.5167      7.5141      6.6431      5.9252      5.3641      4.9513      4.6723      4.5091      4.4411    
  4.4445      4.4926      4.5568      4.6092      4.6254      4.5879      4.4875      4.3234      4.1023      3.8361    
  3.5403      3.2319      2.9277      2.6439      2.3947      2.1914      2.0423      1.9522      1.9230      1.9531    
  2.1888      2.3735      2.6039      2.8769      3.1921      3.5511      3.9568      4.4131      4.9262      5.5065    
  6.1701      6.9371      7.8262      8.8473      9.9923      11.229      12.497      13.713      14.779      15.595    
  16.076      16.168      15.856      15.167      14.167      12.947      11.609      10.253      8.9658      7.8089    
  6.8193      6.0088      5.3706      4.8877      4.5391      4.3026      4.1550      4.0721      4.0288      4.0003    
  3.9642      3.9036      3.8081      3.6740      3.5035      3.3031      3.0824      2.8529      2.6269      2.4164    
  2.2335      2.0896      1.9947      1.9557      1.9758      2.0546      2.3433      2.5805      2.8680      3.2028    
  3.5837      4.0113      4.4863      5.0101      5.5861      6.2231      6.9371      7.7519      8.6942      9.7849    
  11.029      12.404      13.859      15.306      16.638      17.733      18.476      18.784      18.612      17.971    
  16.922      15.562      14.012      12.392      10.810      9.3521      8.0717      6.9942      6.1191      5.4287    
  4.8973      4.4985      4.2074      4.0000      3.8524      3.7407      3.6430      3.5416      3.4252      3.2884    
  3.1314      2.9581      2.7746      2.5889      2.4100      2.2480      2.1132      2.0161      1.9663      1.9714    
  2.0358      2.1604      2.4972      2.7866      3.1342      3.5377      3.9956      4.5064      5.0684      5.6792    
  6.3380      7.0490      7.8262      8.6942      9.6853      10.831      12.151      13.638      15.252      16.914    
  18.510      19.903      20.951      21.533      21.572      21.050      20.012      18.558      16.821      14.945    
  13.065      11.292      9.7020      8.3365      7.2053      6.2936      5.5727      5.0105      4.5768      4.2452    
  3.9914      3.7917      3.6237      3.4686      3.3129      3.1497      2.9782      2.8013      2.6235      2.4509    
  2.2906      2.1518      2.0446      1.9784      1.9618      2.0019      2.1035      2.2688      2.6460      2.9844    
  3.3921      3.8683      4.4116      5.0194      5.6869      6.4071      7.1735      7.9841      8.8473      9.7849    
  10.831      12.025      13.400      14.965      16.699      18.537      20.369      22.052      23.423      24.326    
  24.644      24.320      23.374      21.893      20.018      17.914      15.745      13.650      11.733      10.058    
  8.6480      7.4959      6.5728      5.8407      5.2620      4.8041      4.4398      4.1449      3.8968      3.6753    
  3.4650      3.2568      3.0481      2.8412      2.6412      2.4539      2.2863      2.1464      2.0439      1.9883    
  1.9882      2.0503      2.1792      2.3775      2.7851      3.1662      3.6302      4.1788      4.8119      5.5266    
  6.3155      7.1673      8.0689      9.0106      9.9923      11.029      12.151      13.400      14.817      16.430    
  18.237      20.192      22.204      24.135      25.812      27.053      27.699      27.651      26.886      25.470    
  23.538      21.265      18.840      16.435      14.185      12.184      10.474      9.0618      7.9209      7.0094    
  6.2813      5.6951      5.2171      4.8201      4.4808      4.1788      3.8973      3.6253      3.3584      3.0979    
  2.8496      2.6208      2.4192      2.2527      2.1303      2.0618      2.0570      2.1232      2.2651      2.4852    
  2.9115      3.3247      3.8369      4.4523      5.1734      5.9984      6.9190      7.9203      8.9832      10.089    
  11.229      12.404      13.638      14.965      16.430      18.071      19.903      21.908      24.020      26.121    
  28.045      29.598      30.590      30.872      30.377      29.129      27.244      24.896      22.290      19.623    
  17.063      14.737      12.718      11.029      9.6561      8.5553      7.6738      6.9592      6.3677      5.8650    
  5.4250      5.0267      4.6536      4.2946      3.9447      3.6050      3.2816      2.9828      2.7177      2.4955    
  2.3258      2.2188      2.1849      2.2327      2.3679      2.5935      3.0268      3.4560      4.0025      4.6731    
  5.4732      6.4036      7.4568      8.6167      9.8598      11.160      12.497      13.859      15.252      16.699    
  18.237      19.903      21.727      23.717      25.838      28.005      30.078      31.871      33.176      33.807    
  33.644      32.661      30.937      28.634      25.958      23.123      20.324      17.717      15.406      13.444    
  11.833      10.538      9.5025      8.6629      7.9629      7.3569      6.8115      6.3029      5.8152      5.3394    
  4.8728      4.4188      3.9850      3.5811      3.2180      2.9068      2.6585      2.4840      2.3936      2.3968    
  2.5005      2.7095      3.1394      3.5620      4.1223      4.8292      5.6912      6.7123      7.8880      9.2033    
  10.633      12.147      13.713      15.306      16.914      18.537      20.192      21.908      23.717      25.643    
  27.687      29.807      31.904      33.823      35.360      36.306      36.496      35.847      34.390      32.255    
  29.641      26.769      23.851      21.061      18.531      16.340      14.515      13.038      11.855      10.899    
  10.101      9.4011      8.7534      8.1273      7.5048      6.8792      6.2528      5.6350      5.0390      4.4800    
  3.9726      3.5303      3.1651      2.8880      2.7092      2.6379      2.6820      2.8477      3.2651      3.6525    
  4.1992      4.9161      5.8143      6.9015      8.1775      9.6304      11.237      12.966      14.779      16.638    
  18.510      20.369      22.204      24.020      25.838      27.687      29.596      31.566      33.547      35.421    
  37.025      38.167      38.667      38.396      37.316      35.497      33.099      30.340      27.454      24.633    
  22.018      19.706      17.743      16.131      14.831      13.780      12.903      12.126      11.390      10.649    
  9.8797      9.0747      8.2419      7.3997      6.5729      5.7878      5.0682      4.4332      3.8969      3.4706    
  3.1633      2.9830      2.9362      3.0284      3.4255      3.7454      4.2457      4.9391      5.8398      6.9592    
  8.3015      9.8601      11.616      13.541      15.595      17.733      19.903      22.052      24.135      26.121    
  28.005      29.807      31.566      33.305      34.992      36.579      37.987      39.095      39.749      39.803    
  39.169      37.842      35.912      33.532      30.901      28.233      25.717      23.454      21.497      19.858    
  18.516      17.420      16.500      15.677      14.877      14.038      13.122      12.118      11.036      9.9056    
  8.7681      7.6667      6.6412      5.7234      4.9357      4.2922      3.8010      3.4665      3.2909      3.2761    
  3.6462      3.8641      4.2821      4.9144      5.7778      6.8876      8.2526      9.8719      11.733      13.813    
  16.076      18.476      20.951      23.423      25.812      28.045      30.078      31.904      33.547      34.992    
  36.226      37.275      38.172      38.912      39.431      39.620      39.368      38.616      37.370      35.703    
  33.728      31.582      29.425      27.427      25.678      24.187      22.940      21.900      21.012      20.200    
  19.382      18.481      17.438      16.228      14.862      13.381      11.846      10.323      8.8765      7.5586    
  6.4085      5.4497      4.6927      4.1386      3.7828      3.6198      3.9566      4.0352      4.3346      4.8670    
  5.6505      6.7041      8.0414      9.6673      11.576      13.752      16.168      18.784      21.533      24.326    
  27.053      29.598      31.871      33.823      35.421      36.579      37.275      37.586      37.656      37.634    
  37.610      37.585      37.493      37.248      36.792      36.101      35.182      34.057      32.769      31.410    
  30.117      28.999      28.048      27.234      26.513      25.821      25.076      24.183      23.062      21.665    
  19.993      18.098      16.067      14.001      11.998      10.139      8.4872      7.0825      5.9444      5.0752    
  4.4647      4.0970      4.3950      4.2892      4.4322      4.8271      5.4893      6.4397      7.6965      9.2701    
  11.161      13.362      15.856      18.612      21.572      24.644      27.699      30.590      33.176      35.360    
  37.025      37.987      38.172      37.656      36.662      35.497      34.455      33.735      33.400      33.412    
  33.679      34.095      34.547      34.906      35.057      34.937      34.577      34.113      33.699      33.339    
  32.996      32.613      32.106      31.362      30.269      28.744      26.770      24.402      21.762      19.002    
  16.273      13.700      11.377      9.3648      7.6980      6.3852      5.4151      4.7618      5.0139      4.6638    
  4.6063      4.8268      5.3302      6.1344      7.2602      8.7233      10.531      12.681      15.167      17.971    
  21.050      24.320      27.651      30.872      33.807      36.306      38.167      39.095      38.912      37.634    
  35.497      32.926      30.432      28.474      27.349      27.164      27.872      29.325      31.296      33.493    
  35.596      37.326      38.536      39.257      39.680      40.033      40.339      40.543      40.544      40.197    
  39.339      37.833      35.618      32.746      29.374      25.729      22.047      18.528      15.315      12.497    
  10.122      8.2064      6.7399      5.6906      5.8845      5.2086      4.8938      4.8992      5.2095      5.8313    
  6.7830      8.0834      9.7450      11.773      14.167      16.922      20.012      23.374      26.886      30.377    
  33.644      36.496      38.667      39.749      39.431      37.610      34.455      30.432      26.222      22.562    
  20.058      19.073      19.712      21.869      25.260      29.440      33.856      37.961      41.351      43.880    
  45.672      47.040      48.285      49.412      50.296      50.730      50.467      49.270      47.000      43.670    
  39.470      34.720      29.789      25.003      20.598      16.710      13.404      10.694      8.5664      6.9819    
  7.0940      5.9869      5.3394      5.0792      5.1613      5.5710      6.3154      7.4117      8.8761      10.719    
  12.947      15.562      18.558      21.893      25.470      29.129      32.661      35.847      38.396      39.803    
  39.620      37.585      33.735      28.474      22.562      16.965      12.616      10.212      10.120      12.390    
  16.783      22.774      29.603      36.412      42.470      47.368      51.095      53.964      56.436      58.818    
  61.008      62.722      63.578      63.183      61.245      57.679      52.663      46.620      40.098      33.630    
  27.617      22.295      17.758      14.016      11.031      8.7473      8.7355      7.0719      5.9969      5.4059    
  5.2184      5.3884      5.9019      6.7660      7.9962      9.6068      11.609      14.012      16.821      20.018    
  23.538      27.244      30.937      34.390      37.316      39.169      39.368      37.493      33.400      27.349    
  20.058      12.616      6.2333      1.9536     0.47688      2.1147      6.7976      14.054      23.013      32.538    
  41.520      49.193      55.320      60.158      64.249      68.145      72.014      75.524      78.133      79.223    
  78.261      74.954      69.385      62.024      53.627      45.015      36.869      29.618      23.442      18.350    
  14.269      11.099      10.894      8.5366      6.9241      5.9220      5.4129      5.3128      5.5771      6.1931    
  7.1681      8.5167      10.253      12.392      14.945      17.914      21.265      24.896      28.634      32.255    
  35.497      37.842      38.616      37.248      33.412      27.164      19.073      10.212      1.9536     -4.3593    
 -7.6856     -7.3964     -3.2897      4.3632      14.749      26.576      38.382      48.978      57.789      64.922    
  70.960      76.614      82.371      88.067      93.021      96.357      97.218      94.984      89.490      81.136    
  70.825      59.713      48.885      39.109      30.760      23.901      18.418      14.138      13.637      10.441    
  8.1741      6.6700      5.7764      5.3692      5.3660      5.7259      6.4392      7.5141      8.9658      10.810    
  13.065      15.745      18.840      22.290      25.958      29.641      33.099      35.912      37.370      36.792    
  33.679      27.872      19.712      10.120     0.47688     -7.6856     -13.030     -14.605     -11.893     -4.8602    
  5.9135      19.183      33.269      46.571      58.084      67.640      75.769      83.315      90.997      98.998    
  106.66      112.87      116.42      116.28      111.87      103.32      91.521      77.901      64.020      51.149    
  40.029      30.887      23.614      17.953      17.004      12.818      9.7833      7.6847      6.3368      5.5783    
  5.2858      5.3836      5.8379      6.6431      7.8089      9.3521      11.292      13.650      16.435      19.623    
  23.123      26.769      30.340      33.532      35.703      36.101      34.095      29.325      21.869      12.390    
  2.1147     -7.3964     -14.605     -18.273     -17.566     -12.108     -2.1253      11.393      26.774      42.133    
  56.020      67.872      78.029      87.383      96.860      106.95      117.29      126.65      133.53      136.44    
  134.31      126.79      114.51      98.956      82.110      65.837      51.434      39.478      29.971      22.608    
  20.997      15.670      11.760      8.9832      7.1132      5.9550      5.3469      5.1754      5.3767      5.9252    
  6.8193      8.0717      9.7020      11.733      14.185      17.063      20.324      23.851      27.454      30.901    
  33.728      35.182      34.547      31.296      25.260      16.783      6.7976     -3.2897     -11.893     -17.566    
 -19.189     -16.044     -7.9567      4.4864      19.859      36.215      51.759      65.476      77.375      88.251    
  99.166      110.89      123.43      135.72      146.08      152.76      154.08      148.94      137.48      121.17    
  102.12      82.676      64.815      49.664      37.518      28.121      25.559      18.950      14.076      10.555    
  8.1080      6.5050      5.5533      5.1027      5.0564      5.3641      6.0088      6.9942      8.3365      10.058    
  12.184      14.737      17.717      21.061      24.633      28.233      31.582      34.057      34.906      33.493    
  29.440      22.774      14.054      4.3632     -4.8602     -12.108     -16.044     -15.638     -10.314     -.18266    
  13.758      29.760      45.882      60.716      73.837      85.782      97.609      110.30      124.25      138.74    
  152.15      162.64      168.12      166.70      157.66      141.98      122.01      100.35      79.430      61.082    
  46.090      34.410      30.539      22.558      16.660      12.357      9.2995      7.2203      5.9008      5.1606    
  4.8696      4.9513      5.3706      6.1191      7.2053      8.6480      10.474      12.718      15.406      18.531    
  22.018      25.717      29.425      32.769      35.057      35.596      33.856      29.603      23.013      14.749    
  5.9135     -2.1253     -7.9567     -10.314     -8.2511     -1.3929      9.8029      24.005      39.385      54.301    
  67.899      80.324      92.455      105.37      119.75      135.36      150.84      164.37      173.84      176.82    
  171.67      158.47      139.17      116.74      93.863      72.880      55.214      41.216      35.648      26.316    
  19.392      14.308      10.638      8.0738      6.3744      5.3371      4.8040      4.6723      4.8877      5.4287    
  6.2936      7.4959      9.0618      11.029      13.444      16.340      19.706      23.454      27.427      31.410    
  34.937      37.326      37.961      36.412      32.538      26.576      19.183      11.393      4.4864     -.18266    
 -1.3929      1.6781      9.1474      20.252      33.522      47.314      60.461      72.669      84.483      96.889    
  110.76      126.29      142.55      157.84      170.25      177.30      176.71      167.54      150.88      129.43    
  106.19      83.731      64.058      48.047      40.450      29.953      22.100      16.289      12.044      9.0165    
  6.9448      5.6123      4.8423      4.5091      4.5391      4.8973      5.5727      6.5728      7.9209      9.6561    
  11.833      14.515      17.743      21.497      25.678      30.117      34.577      38.536      41.351      42.470    
  41.520      38.382      33.269      26.774      19.859      13.758      9.8029      9.1474      12.439      19.543    
  29.526      40.999      52.680      63.907      74.806      86.105      98.685      113.05      128.77      144.46    
  158.31      168.22      171.78      167.31      154.83      136.24      114.43      92.065      71.519      54.195    
  44.402      33.126      24.560      18.152      13.415      9.9793      7.5676      5.9570      4.9621      4.4411    
  4.3026      4.4985      5.0105      5.8407      7.0094      8.5553      10.538      13.038      16.131      19.858    
  24.187      28.999      34.113      39.257      43.880      47.368      49.193      48.978      46.571      42.133    
  36.215      29.760      24.005      20.252      19.543      22.321      28.274      36.460      45.726      55.205    
  64.637      74.384      85.161      97.595      111.67      126.47      140.42      151.67      158.15      157.92    
  150.20      135.86      117.10      96.475      76.458      58.839      46.963      35.459      26.525      19.729    
  14.634      10.879      8.1857      6.3329      5.1356      4.4445      4.1550      4.2074      4.5768      5.2620    
  6.2813      7.6738      9.5025      11.855      14.831      18.516      22.940      28.048      33.699      39.680    
  45.672      51.095      55.320      57.789      58.084      56.020      51.759      45.882      39.385      33.522    
  29.526      28.274      30.024      34.380      40.519      47.584      55.062      62.950      71.675      81.799    
  93.536      106.41      119.31      130.65      138.62      141.49      138.07      128.37      113.71      96.149    
  78.019      61.253      47.729      36.630      27.757      20.854      15.582      11.628      8.7351      6.6947    
  5.3298      4.4926      4.0721      4.0000      4.2452      4.8041      5.6951      6.9592      8.6629      10.899    
  13.780      17.420      21.900      27.234      33.339      40.033      47.040      53.964      60.158      64.922    
  67.640      67.872      65.476      60.716      54.301      47.314      40.999      36.460      34.380      34.873    
  37.545      41.743      46.886      52.707      59.323      67.099      76.279      86.672      97.624      108.00    
  116.31      120.99      120.80      115.26      104.89      91.135      75.904      61.014      46.559      36.456    
  28.088      21.390      16.154      12.146      9.1539      6.9951      5.5091      4.5568      4.0288      3.8524    
  3.9914      4.4398      5.2171      6.3677      7.9629      10.101      12.903      16.500      21.012      26.513    
  32.996      40.339      48.285      56.436      64.249      70.960      75.769      78.029      77.375      73.837    
  67.899      60.461      52.680      45.726      40.519      37.545      36.815      37.983      40.569      44.199    
  48.749      54.341      61.103      68.963      77.576      86.226      93.845      99.171      101.03      98.696    
  92.191      82.325      70.474      58.142      43.622      34.947      27.460      21.261      16.277      12.371    
  9.3904      7.1919      5.6392      4.6092      4.0003      3.7407      3.7917      4.1449      4.8201      5.8650    
  7.3569      9.4011      12.126      15.677      20.200      25.821      32.613      40.543      49.412      58.818    
  68.145      76.614      83.315      87.383      88.251      85.782      80.324      72.669      63.907      55.205    
  47.584      41.743      37.983      36.247      36.252      37.656      40.217      43.851      48.505      54.100    
  60.445      67.122      73.438      78.479      81.276      81.075      77.594      71.161      62.625      53.098    
  39.341      32.301      25.944      20.471      15.928      12.269      9.4105      7.2532      5.6922      4.6254    
  3.9642      3.6430      3.6237      3.8968      4.4808      5.4250      6.8115      8.7534      11.390      14.877    
  19.382      25.076      32.106      40.544      50.296      61.008      72.014      82.371      90.997      96.860    
  99.166      97.609      92.455      84.483      74.806      64.637      55.062      46.886      40.569      36.252    
  33.834      33.084      33.754      35.620      38.485      42.199      46.604      51.444      56.288      60.527    
  63.446      64.392      62.972      59.201      53.514      46.631      34.271      28.855      23.717      19.103    
  15.135      11.842      9.2024      7.1624      5.6502      4.5879      3.9036      3.5416      3.4686      3.6753    
  4.1788      5.0267      6.3029      8.1273      10.649      14.038      18.481      24.183      31.362      40.197    
  50.730      62.722      75.524      88.067      98.998      106.95      110.89      110.30      105.37      96.889    
  86.105      74.384      62.950      52.707      44.199      37.656      33.084      30.352      29.243      29.483    
  30.803      32.982      35.831      39.145      42.642      45.927      48.507      49.882      49.671      47.736    
  44.233      39.568      28.958      24.988      21.022      17.299      13.974      11.125      8.7786      6.9192    
  5.5066      4.4875      3.8081      3.4252      3.3129      3.4650      3.8973      4.6536      5.8152      7.5048    
  9.8797      13.122      17.438      23.062      30.269      39.339      50.467      63.578      78.133      93.021    
  106.66      117.29      123.43      124.25      119.75      110.76      98.685      85.161      71.675      59.323    
  48.749      40.217      33.754      29.243      26.483      25.214      25.160      26.053      27.659      29.767    
  32.154      34.547      36.615      37.997      38.378      37.574      35.589      32.611      23.834      21.049    
  18.114      15.231      12.553      10.182      8.1729      6.5392      5.2665      4.3234      3.6740      3.2884    
  3.1497      3.2568      3.6253      4.2946      5.3394      6.8792      9.0747      12.118      16.228      21.665    