unknown system                          
   1.00000000000000     
     4.913700    0.000000    0.000000
    -2.456850    4.255389    0.000000
     0.000000    0.000000    5.405130
   Si   O 
     3     6
Direct
  0.469800  0.000000  0.666670
  0.000000  0.469800  0.333330
  0.530200  0.530200  0.000000
  0.414500  0.266200  0.785600
  0.733800  0.148300  0.452270
  0.851700  0.585500  0.118930
  0.148300  0.733800  0.547730
  0.266200  0.414500  0.214400
  0.585500  0.851700  0.881070
 
   56   56   64
 0.14696169256E+01 0.14147369841E+01 0.14059754778E+01 0.14308805300E+01 0.14819682016E+01
 0.15557374873E+01 0.16506036012E+01 0.17648029789E+01 0.18953242186E+01 0.20381094060E+01
 0.21888204574E+01 0.23432627750E+01 0.24971901070E+01 0.26459872021E+01 0.27850583309E+01
 0.29115001216E+01 0.30268196214E+01 0.31393986046E+01 0.32650812978E+01 0.34255299935E+01
 0.36461776897E+01 0.39566444073E+01 0.43949777618E+01 0.50138745829E+01 0.58845346879E+01
 0.70940397180E+01 0.87354704384E+01 0.10894425041E+02 0.13637429855E+02 0.17004014015E+02
 0.20996710876E+02 0.25559143688E+02 0.30538842398E+02 0.35647867668E+02 0.40449858878E+02
 0.44402491549E+02 0.46962903656E+02 0.47728687304E+02 0.46559201058E+02 0.43621857609E+02
 0.39340537119E+02 0.34270608976E+02 0.28957540186E+02 0.23834329829E+02 0.19182549387E+02
 0.15146492299E+02 0.11771528640E+02 0.90409488614E+01 0.69002653328E+01 0.52711904206E+01
 0.40624745844E+01 0.31819576820E+01 0.25484702599E+01 0.20991149675E+01 0.17893278709E+01
 0.15876242167E+01 0.14147369841E+01 0.13569501936E+01 0.13502977158E+01 0.13832758258E+01
 0.14487562163E+01 0.15432649678E+01 0.16652385511E+01 0.18130593274E+01 0.19837049017E+01
 0.21724690191E+01 0.23735121289E+01 0.25804729005E+01 0.27865766364E+01 0.29844233103E+01
 0.31661643190E+01 0.33246956135E+01 0.34559913914E+01 0.35619682862E+01 0.36525294183E+01
 0.37454386325E+01 0.38640850769E+01 0.40352100464E+01 0.42892237667E+01 0.46638169523E+01
 0.52086017840E+01 0.59869280869E+01 0.70719258467E+01 0.85365712323E+01 0.10440601183E+02
 0.12818378492E+02 0.15669626366E+02 0.18950284693E+02 0.22558461257E+02 0.26315520497E+02
 0.29953277762E+02 0.33125773152E+02 0.35458595598E+02 0.36629908491E+02 0.36456164854E+02
 0.34946590529E+02 0.32301453165E+02 0.28854816845E+02 0.24987864852E+02 0.21048726289E+02
 0.17304377506E+02 0.13928841282E+02 0.11014944936E+02 0.85933308003E+01 0.66493397095E+01
 0.51366451542E+01 0.39899259540E+01 0.31376318146E+01 0.25133785910E+01 0.20633353302E+01
 0.17479635325E+01 0.15389922397E+01 0.14059754778E+01 0.13502977158E+01 0.13485735648E+01
 0.13905225937E+01 0.14697675491E+01 0.15833228331E+01 0.17300340345E+01 0.19088015947E+01
 0.21172380101E+01 0.23510130643E+01 0.26038638202E+01 0.28679623231E+01 0.31341818796E+01
 0.33921099165E+01 0.36302280052E+01 0.38369032884E+01 0.40024930208E+01 0.41222651067E+01
 0.41992415664E+01 0.42456646316E+01 0.42821020516E+01 0.43346298555E+01 0.44321852727E+01
 0.46063350172E+01 0.48937793566E+01 0.53394321727E+01 0.59968911360E+01 0.69240933995E+01
 0.81741123956E+01 0.97832748919E+01 0.11759879697E+02 0.14075696096E+02 0.16659669620E+02
 0.19391970137E+02 0.22099579760E+02 0.24560341490E+02 0.26524511173E+02 0.27756571213E+02
 0.28087793215E+02 0.27460280240E+02 0.25943611795E+02 0.23716533960E+02 0.21021866236E+02
 0.18113580887E+02 0.15214801963E+02 0.12495713323E+02 0.10068887074E+02 0.79940968359E+01
 0.62865899559E+01 0.49271350626E+01 0.38739100538E+01 0.30750835314E+01 0.24796183690E+01
 0.20441833634E+01 0.17355191801E+01 0.15290906869E+01 0.14308805300E+01 0.13832758258E+01
 0.13905225937E+01 0.14437781387E+01 0.15376414151E+01 0.16698692645E+01 0.18400824601E+01
 0.20481249656E+01 0.22927524456E+01 0.25708279094E+01 0.28768618669E+01 0.32027563956E+01
 0.35377078058E+01 0.38682717360E+01 0.41787560851E+01 0.44523192446E+01 0.46730871735E+01
 0.48291832926E+01 0.49160568068E+01 0.49391012531E+01 0.49144058231E+01 0.48669676821E+01
 0.48270533789E+01 0.48268080849E+01 0.48991590923E+01 0.50791742353E+01 0.54058884942E+01
 0.59220183064E+01 0.66700448008E+01 0.76846936069E+01 0.89831596863E+01 0.10555443063E+02
 0.12357357206E+02 0.14307585419E+02 0.16288648812E+02 0.18151966933E+02 0.19729364944E+02
 0.20854008327E+02 0.21389731470E+02 0.21260904613E+02 0.20471251348E+02 0.19103397180E+02
 0.17299435316E+02 0.15230618247E+02 0.13066945879E+02 0.10954613020E+02 0.90038990776E+01
 0.72857033213E+01 0.58335986931E+01 0.46494430057E+01 0.37118814874E+01 0.29867501855E+01
 0.24370670851E+01 0.20299537387E+01 0.17392867078E+01 0.15449714911E+01 0.14819682016E+01
 0.14487562163E+01 0.14697675491E+01 0.15376414151E+01 0.16481168990E+01 0.17998467663E+01
 0.19934264512E+01 0.22299745478E+01 0.25098488229E+01 0.28317670635E+01 0.31920585752E+01
 0.35837328497E+01 0.39955504301E+01 0.44116172459E+01 0.48118562611E+01 0.51734430018E+01
 0.54732438542E+01 0.56912052286E+01 0.58142526121E+01 0.58398055482E+01 0.57778292875E+01
 0.56505135369E+01 0.54893063891E+01 0.53302225263E+01 0.52094704677E+01 0.51613137278E+01
 0.52183987735E+01 0.54129056457E+01 0.57763618640E+01 0.63368140228E+01 0.71132192305E+01
 0.81079568916E+01 0.92994543296E+01 0.10637562953E+02 0.12043565569E+02 0.13414971707E+02
 0.14634390943E+02 0.15582345868E+02 0.16153959553E+02 0.16277268943E+02 0.15927945233E+02
 0.15134809648E+02 0.13973835201E+02 0.12552902476E+02 0.10992398840E+02 0.94069438289E+01
 0.78919530001E+01 0.65164376418E+01 0.53213344198E+01 0.43217915292E+01 0.35123009365E+01
 0.28739975012E+01 0.23827082586E+01 0.20153342136E+01 0.17527217475E+01 0.15793611556E+01
 0.15557374873E+01 0.15432649678E+01 0.15833228331E+01 0.16698692645E+01 0.17998467663E+01
 0.19729578640E+01 0.21908423427E+01 0.24559853435E+01 0.27706620902E+01 0.31360285943E+01
 0.35511013133E+01 0.40112551415E+01 0.45063712735E+01 0.50194476033E+01 0.55265541985E+01
 0.59984412202E+01 0.64035846357E+01 0.67123147462E+01 0.69015398702E+01 0.69592286910E+01
 0.68875946349E+01 0.67040884134E+01 0.64396706469E+01 0.61343913621E+01 0.58313231579E+01
 0.55709923399E+01 0.53883808030E+01 0.53128358780E+01 0.53692325020E+01 0.55782849454E+01
 0.59549632170E+01 0.65050465320E+01 0.72203419453E+01 0.80737679969E+01 0.90164926842E+01
 0.99793428811E+01 0.10879067687E+02 0.11628107220E+02 0.12145963322E+02 0.12370702238E+02
 0.12268952639E+02 0.11841936830E+02 0.11125265264E+02 0.10182210156E+02 0.90925219548E+01
 0.79398339363E+01 0.68002965974E+01 0.57343076551E+01 0.47824195874E+01 0.39654737459E+01
 0.32879585053E+01 0.27431026012E+01 0.23182781945E+01 0.19994353530E+01 0.17735829591E+01
 0.16292155911E+01 0.16506036012E+01 0.16652385511E+01 0.17300340345E+01 0.18400824601E+01
 0.19934264512E+01 0.21908423427E+01 0.24350222016E+01 0.27297453801E+01 0.30792372368E+01
 0.34874474131E+01 0.39568198531E+01 0.44862501908E+01 0.50683565242E+01 0.56868849375E+01
 0.63155225985E+01 0.69190482888E+01 0.74568369560E+01 0.78880291510E+01 0.81774799560E+01
 0.83015441492E+01 0.82526208229E+01 0.80414399921E+01 0.76964574731E+01 0.72602024894E+01
 0.67830006451E+01 0.63154429889E+01 0.59018935095E+01 0.55770776391E+01 0.53660318013E+01
 0.52858068966E+01 0.53468984409E+01 0.55532764565E+01 0.59008041157E+01 0.63743626472E+01
 0.69447871563E+01 0.75676451225E+01 0.81856942040E+01 0.87351283581E+01 0.91539471722E+01
 0.93904480596E+01 0.94104850229E+01 0.92024219381E+01 0.87786180418E+01 0.81728607985E+01
 0.74344492671E+01 0.66204542766E+01 0.57875676447E+01 0.49847775432E+01 0.42483575001E+01
 0.36004233212E+01 0.30508970568E+01 0.26011591699E+01 0.22474893125E+01 0.19834706472E+01
 0.18014483231E+01 0.16932757138E+01 0.17648029789E+01 0.18130593274E+01 0.19088015947E+01
 0.20481249656E+01 0.22299745478E+01 0.24559853435E+01 0.27297453801E+01 0.30561356479E+01
 0.34410809150E+01 0.38912835979E+01 0.44131050022E+01 0.50100688363E+01 0.56791919355E+01
 0.64070912371E+01 0.71673181820E+01 0.79203285923E+01 0.86167222784E+01 0.92032630606E+01
 0.96304291257E+01 0.98600796788E+01 0.98718906553E+01 0.96673018493E+01 0.92700819246E+01
 0.87233309375E+01 0.80834091526E+01 0.74117371322E+01 0.67660176736E+01 0.61931432756E+01
 0.57258702411E+01 0.53835954748E+01 0.51753846003E+01 0.51027130570E+01 0.51605672133E+01
 0.53370566454E+01 0.56122500398E+01 0.59570067004E+01 0.63329245766E+01 0.66946854979E+01
 0.69951369684E+01 0.71918593172E+01 0.72532082216E+01 0.71624083987E+01 0.69192284594E+01
 0.65392130604E+01 0.60506447021E+01 0.54898381671E+01 0.48957803069E+01 0.43050982243E+01
 0.37481005946E+01 0.32465549357E+01 0.28136353981E+01 0.24556779609E+01 0.21744975081E+01
 0.19690248541E+01 0.18359708679E+01 0.17701052688E+01 0.18953242186E+01 0.19837049017E+01
 0.21172380101E+01 0.22927524456E+01 0.25098488229E+01 0.27706620902E+01 0.30792372368E+01
 0.34410809150E+01 0.38632879136E+01 0.43548745092E+01 0.49261591312E+01 0.55861476845E+01
 0.63379568660E+01 0.71734625055E+01 0.80689075759E+01 0.89831573262E+01 0.98597775259E+01
 0.10633106890E+02 0.11237270128E+02 0.11616256862E+02 0.11733048352E+02 0.11576020551E+02
 0.11161301951E+02 0.10530587100E+02 0.97449751681E+01 0.88761188055E+01 0.79961568857E+01
 0.71681458813E+01 0.64391573774E+01 0.58378807754E+01 0.53767393396E+01 0.50563512497E+01
 0.48696137353E+01 0.48040113036E+01 0.48422792696E+01 0.49621004788E+01 0.51356137137E+01
 0.53298399456E+01 0.55090741379E+01 0.56391609056E+01 0.56922186616E+01 0.56502039822E+01
 0.55066340909E+01 0.52665187558E+01 0.49446449425E+01 0.45625596924E+01 0.41451426070E+01
 0.37176996614E+01 0.33037446505E+01 0.29231267022E+01 0.25906521321E+01 0.23158774189E+01
 0.21041386328E+01 0.19577779251E+01 0.18765580849E+01 0.18575138977E+01 0.20381094060E+01
 0.21724690191E+01 0.23510130643E+01 0.25708279094E+01 0.28317670635E+01 0.31360285943E+01
 0.34874474131E+01 0.38912835979E+01 0.43548745092E+01 0.48886959432E+01 0.55065011092E+01
 0.62230571720E+01 0.70490261722E+01 0.79841113297E+01 0.90105897469E+01 0.10089372280E+02
 0.11160180934E+02 0.12146623666E+02 0.12965790954E+02 0.13540660617E+02 0.13812691933E+02
 0.13751897054E+02 0.13362215271E+02 0.12680987863E+02 0.11772754596E+02 0.10719081080E+02
 0.96068049677E+01 0.85167111931E+01 0.75141340475E+01 0.66430673249E+01 0.59252426730E+01
 0.53641065876E+01 0.49512948012E+01 0.46722523471E+01 0.45090932659E+01 0.44411182956E+01
 0.44445372338E+01 0.44926172427E+01 0.45568346863E+01 0.46092048131E+01 0.46254395150E+01
 0.45879343668E+01 0.44874955553E+01 0.43234152769E+01 0.41022797956E+01 0.38361135940E+01
 0.35403277192E+01 0.32318531969E+01 0.29277105343E+01 0.26439484412E+01 0.23947078161E+01
 0.21914018971E+01 0.20422520874E+01 0.19522126243E+01 0.19229883841E+01 0.19530519280E+01
 0.21888204574E+01 0.23735121289E+01 0.26038638202E+01 0.28768618669E+01 0.31920585752E+01
 0.35511013133E+01 0.39568198531E+01 0.44131050022E+01 0.49261591312E+01 0.55065011092E+01
 0.61701335677E+01 0.69370624480E+01 0.78261938456E+01 0.88472986164E+01 0.99922888619E+01
 0.11228548471E+02 0.12496502123E+02 0.13712691746E+02 0.14778673630E+02 0.15594786948E+02
 0.16076305205E+02 0.16168370257E+02 0.15856083222E+02 0.15167231733E+02 0.14167060131E+02
 0.12946747483E+02 0.11608899637E+02 0.10253413510E+02 0.89657931602E+01 0.78089272978E+01
 0.68193308464E+01 0.60087658699E+01 0.53705678194E+01 0.48877211211E+01 0.45391489315E+01
 0.43026000334E+01 0.41550078518E+01 0.40721446728E+01 0.40288423153E+01 0.40002745002E+01
 0.39642273699E+01 0.39036159553E+01 0.38080777725E+01 0.36740076004E+01 0.35034993192E+01
 0.33030574734E+01 0.30823616788E+01 0.28529336146E+01 0.26269116627E+01 0.24164257028E+01
 0.22334876309E+01 0.20896135925E+01 0.19947055890E+01 0.19556973613E+01 0.19758004718E+01
 0.20546070515E+01 0.23432627750E+01 0.25804729005E+01 0.28679623231E+01 0.32027563956E+01
 0.35837328497E+01 0.40112551415E+01 0.44862501908E+01 0.50100688363E+01 0.55861476845E+01
 0.62230571720E+01 0.69370624480E+01 0.77518845432E+01 0.86941775171E+01 0.97849273148E+01
 0.11028780649E+02 0.12404364448E+02 0.13858506148E+02 0.15306309836E+02 0.16638022121E+02
 0.17732614878E+02 0.18476472120E+02 0.18783512272E+02 0.18611661189E+02 0.17971065266E+02
 0.16921842758E+02 0.15562385762E+02 0.14011880669E+02 0.12391815524E+02 0.10810435297E+02
 0.93520838234E+01 0.80716840727E+01 0.69942161927E+01 0.61191318571E+01 0.54286853954E+01
 0.48973157914E+01 0.44985135945E+01 0.42073819234E+01 0.40000238231E+01 0.38524191500E+01
 0.37406958473E+01 0.36429517370E+01 0.35416155140E+01 0.34251515152E+01 0.32883723445E+01
 0.31314075924E+01 0.29580918963E+01 0.27746411760E+01 0.25889200027E+01 0.24100348194E+01
 0.22479643388E+01 0.21131703856E+01 0.20160999565E+01 0.19663434479E+01 0.19714433352E+01
 0.20358268440E+01 0.21604406971E+01 0.24971901070E+01 0.27865766364E+01 0.31341818796E+01
 0.35377078058E+01 0.39955504301E+01 0.45063712735E+01 0.50683565242E+01 0.56791919355E+01
 0.63379568660E+01 0.70490261722E+01 0.78261938456E+01 0.86941775171E+01 0.96853274806E+01
 0.10831218252E+02 0.12150768779E+02 0.13637880344E+02 0.15251940782E+02 0.16913942875E+02
 0.18509944959E+02 0.19902665033E+02 0.20950760086E+02 0.21533037438E+02 0.21572005029E+02
 0.21049896734E+02 0.20012202921E+02 0.18558009600E+02 0.16820696504E+02 0.14944877124E+02
 0.13065392463E+02 0.11292168265E+02 0.97020040289E+01 0.83365204546E+01 0.72053058443E+01
 0.62935800122E+01 0.55727463163E+01 0.50104656366E+01 0.45767613508E+01 0.42452113129E+01
 0.39913971726E+01 0.37916648566E+01 0.36237093206E+01 0.34685809221E+01 0.33128518565E+01
 0.31497007204E+01 0.29782081134E+01 0.28012611089E+01 0.26235408833E+01 0.24508619159E+01
 0.22905988423E+01 0.21518414501E+01 0.20445583749E+01 0.19783839484E+01 0.19618420421E+01
 0.20019213324E+01 0.21035004983E+01 0.22687526237E+01 0.26459872021E+01 0.29844233103E+01
 0.33921099165E+01 0.38682717360E+01 0.44116172459E+01 0.50194476033E+01 0.56868849375E+01
 0.64070912371E+01 0.71734625055E+01 0.79841113297E+01 0.88472986164E+01 0.97849273148E+01
 0.10831218252E+02 0.12025434215E+02 0.13399805982E+02 0.14965426986E+02 0.16699474637E+02
 0.18536920636E+02 0.20369280502E+02 0.22052244175E+02 0.23423057970E+02 0.24326435885E+02
 0.24644191877E+02 0.24320397295E+02 0.23373725749E+02 0.21892990106E+02 0.20018267573E+02
 0.17914462243E+02 0.15744782851E+02 0.13649533662E+02 0.11732850802E+02 0.10057702160E+02
 0.86479785746E+01 0.74959016368E+01 0.65727868854E+01 0.58407058082E+01 0.52619916312E+01
 0.48041188425E+01 0.44398215219E+01 0.41448961940E+01 0.38967786120E+01 0.36753276520E+01
 0.34650262896E+01 0.32567922906E+01 0.30480832095E+01 0.28412421322E+01 0.26411927221E+01
 0.24539114746E+01 0.22862609623E+01 0.21464495816E+01 0.20439217290E+01 0.19883204434E+01
 0.19882089153E+01 0.20502917244E+01 0.21791889660E+01 0.23774789621E+01 0.27850583309E+01
 0.31661643190E+01 0.36302280052E+01 0.41787560851E+01 0.48118562611E+01 0.55265541985E+01
 0.63155225985E+01 0.71673181820E+01 0.80689075759E+01 0.90105897469E+01 0.99922888619E+01
 0.11028780649E+02 0.12150768779E+02 0.13399805982E+02 0.14817373271E+02 0.16430440481E+02
 0.18236618167E+02 0.20191957080E+02 0.22204302529E+02 0.24135061012E+02 0.25811841474E+02
 0.27052767588E+02 0.27699489216E+02 0.27650870755E+02 0.26886342820E+02 0.25470459116E+02
 0.23537817295E+02 0.21265150258E+02 0.18840190342E+02 0.16434693988E+02 0.14185318869E+02
 0.12183528296E+02 0.10474252629E+02 0.90618286899E+01 0.79208734094E+01 0.70094121818E+01
 0.62813272513E+01 0.56951054928E+01 0.52170754739E+01 0.48200770242E+01 0.44808063657E+01
 0.41787594895E+01 0.38972879590E+01 0.36253450462E+01 0.33584081264E+01 0.30979488573E+01
 0.28495966693E+01 0.26207934161E+01 0.24192142016E+01 0.22527419777E+01 0.21302862026E+01
 0.20618201051E+01 0.20569622685E+01 0.21231780657E+01 0.22650942363E+01 0.24852011057E+01
 0.29115001216E+01 0.33246956135E+01 0.38369032884E+01 0.44523192446E+01 0.51734430018E+01
 0.59984412202E+01 0.69190482888E+01 0.79203285923E+01 0.89831573262E+01 0.10089372280E+02
 0.11228548471E+02 0.12404364448E+02 0.13637880344E+02 0.14965426986E+02 0.16430440481E+02
 0.18070576830E+02 0.19902606182E+02 0.21907734791E+02 0.24020015744E+02 0.26121099114E+02
 0.28045300325E+02 0.29598349130E+02 0.30589713090E+02 0.30872197462E+02 0.30376677774E+02
 0.29129112725E+02 0.27243673138E+02 0.24896286660E+02 0.22289949554E+02 0.19622670840E+02
 0.17063473464E+02 0.14737208969E+02 0.12717732558E+02 0.11029380579E+02 0.96560507651E+01
 0.85553443504E+01 0.76737883982E+01 0.69591932489E+01 0.63676566472E+01 0.58650441264E+01
 0.54250252245E+01 0.50266653176E+01 0.46535657617E+01 0.42945597158E+01 0.39446613850E+01
 0.36050286651E+01 0.32815715744E+01 0.29827560419E+01 0.27177048815E+01 0.24955253198E+01
 0.23257615682E+01 0.22187679414E+01 0.21848886498E+01 0.22327190062E+01 0.23678934429E+01
 0.25934622321E+01 0.30268196214E+01 0.34559913914E+01 0.40024930208E+01 0.46730871735E+01
 0.54732438542E+01 0.64035846357E+01 0.74568369560E+01 0.86167222784E+01 0.98597775259E+01
 0.11160180934E+02 0.12496502123E+02 0.13858506148E+02 0.15251940782E+02 0.16699474637E+02
 0.18236618167E+02 0.19902606182E+02 0.21727433351E+02 0.23716874938E+02 0.25837539894E+02
 0.28004816562E+02 0.30078393105E+02 0.31871301521E+02 0.33176379444E+02 0.33807407396E+02
 0.33643524231E+02 0.32660641444E+02 0.30937352149E+02 0.28634325660E+02 0.25957968042E+02
 0.23123100133E+02 0.20324190814E+02 0.17716659500E+02 0.15406041266E+02 0.13444182180E+02
 0.11833423617E+02 0.10538451948E+02 0.95024783277E+01 0.86629344260E+01 0.79629255343E+01
 0.73569345544E+01 0.68114576272E+01 0.63028727105E+01 0.58152351875E+01 0.53393889456E+01
 0.48728053341E+01 0.44188293941E+01 0.39849816129E+01 0.35810896160E+01 0.32179819440E+01
 0.29067734957E+01 0.26585026887E+01 0.24839901859E+01 0.23936416114E+01 0.23967647792E+01
 0.25005254110E+01 0.27095204704E+01 0.31393986046E+01 0.35619682862E+01 0.41222651067E+01
 0.48291832926E+01 0.56912052286E+01 0.67123147462E+01 0.78880291510E+01 0.92032630606E+01
 0.10633106890E+02 0.12146623666E+02 0.13712691746E+02 0.15306309836E+02 0.16913942875E+02
 0.18536920636E+02 0.20191957080E+02 0.21907734791E+02 0.23716874938E+02 0.25643492304E+02
 0.27687364337E+02 0.29806759250E+02 0.31904221853E+02 0.33822758257E+02 0.35360070013E+02
 0.36306443507E+02 0.36495611381E+02 0.35847088659E+02 0.34389520387E+02 0.32254718521E+02
 0.29640801838E+02 0.26769416984E+02 0.23850709208E+02 0.21061066157E+02 0.18531207197E+02
 0.16340323603E+02 0.14515433014E+02 0.13037568511E+02 0.11854851451E+02 0.10899103311E+02
 0.10101117132E+02 0.94010941251E+01 0.87534419004E+01 0.81272747181E+01 0.75047850124E+01
 0.68791992645E+01 0.62528442361E+01 0.56349559688E+01 0.50389981058E+01 0.44799893969E+01
 0.39726000875E+01 0.35302736917E+01 0.31650892551E+01 0.28880029097E+01 0.27091584259E+01
 0.26378646961E+01 0.26820447162E+01 0.28477022728E+01 0.32650812978E+01 0.36525294183E+01
 0.41992415664E+01 0.49160568068E+01 0.58142526122E+01 0.69015398702E+01 0.81774799560E+01
 0.96304291257E+01 0.11237270128E+02 0.12965790954E+02 0.14778673630E+02 0.16638022121E+02
 0.18509944959E+02 0.20369280502E+02 0.22204302529E+02 0.24020015744E+02 0.25837539894E+02
 0.27687364337E+02 0.29595779514E+02 0.31565526722E+02 0.33547230464E+02 0.35421339396E+02
 0.37024610403E+02 0.38167314235E+02 0.38667243347E+02 0.38395850609E+02 0.37316432661E+02
 0.35497474047E+02 0.33098508800E+02 0.30339534332E+02 0.27454332696E+02 0.24632782594E+02
 0.22018108421E+02 0.19705826216E+02 0.17743085799E+02 0.16130874044E+02 0.14831320284E+02
 0.13780406834E+02 0.12903031773E+02 0.12126423668E+02 0.11389651755E+02 0.10648988924E+02
 0.98796664811E+01 0.90747195678E+01 0.82419072437E+01 0.73997118548E+01 0.65728920923E+01
 0.57877959304E+01 0.50682285981E+01 0.44331791150E+01 0.38969321963E+01 0.34705697150E+01
 0.31633044080E+01 0.29829792564E+01 0.29361533877E+01 0.30284009204E+01 0.34255299935E+01
 0.37454386325E+01 0.42456646316E+01 0.49391012531E+01 0.58398055482E+01 0.69592286910E+01
 0.83015441492E+01 0.98600796788E+01 0.11616256862E+02 0.13540660617E+02 0.15594786948E+02
 0.17732614878E+02 0.19902665033E+02 0.22052244175E+02 0.24135061012E+02 0.26121099114E+02
 0.28004816562E+02 0.29806759250E+02 0.31565526722E+02 0.33304605620E+02 0.34992076786E+02
 0.36579058839E+02 0.37987307603E+02 0.39095037307E+02 0.39748953128E+02 0.39803472772E+02
 0.39168751717E+02 0.37842393593E+02 0.35911607519E+02 0.33532100823E+02 0.30900552840E+02
 0.28232555513E+02 0.25716652396E+02 0.23454298564E+02 0.21497218227E+02 0.19858451553E+02
 0.18516344358E+02 0.17420346642E+02 0.16500137242E+02 0.15677156396E+02 0.14876536463E+02
 0.14037734869E+02 0.13122395877E+02 0.12117877907E+02 0.11035653358E+02 0.99055575829E+01
 0.87680871859E+01 0.76666840776E+01 0.66411814080E+01 0.57234035305E+01 0.49357138502E+01
 0.42922072644E+01 0.38010425184E+01 0.34665491823E+01 0.32909471831E+01 0.32761360636E+01
 0.36461776897E+01 0.38640850769E+01 0.42821020516E+01 0.49144058231E+01 0.57778292875E+01
 0.68875946349E+01 0.82526208229E+01 0.98718906553E+01 0.11733048352E+02 0.13812691933E+02
 0.16076305205E+02 0.18476472120E+02 0.20950760086E+02 0.23423057970E+02 0.25811841474E+02
 0.28045300325E+02 0.30078393105E+02 0.31904221853E+02 0.33547230463E+02 0.34992076786E+02
 0.36225682859E+02 0.37274916528E+02 0.38171969655E+02 0.38912167833E+02 0.39431182647E+02
 0.39619634505E+02 0.39368295396E+02 0.38615561558E+02 0.37370055270E+02 0.35703141360E+02
 0.33727591220E+02 0.31581712172E+02 0.29424577646E+02 0.27426736905E+02 0.25677715770E+02
 0.24186906673E+02 0.22939814298E+02 0.21900466500E+02 0.21011838969E+02 0.20199770346E+02
 0.19381850866E+02 0.18480529247E+02 0.17437984242E+02 0.16228338591E+02 0.14862141188E+02
 0.13381036550E+02 0.11845745787E+02 0.10323172814E+02 0.88764938547E+01 0.75586412710E+01
 0.64084660944E+01 0.54496822906E+01 0.46927337084E+01 0.41385623455E+01 0.37828033898E+01
 0.36197699942E+01 0.39566444073E+01 0.40352100464E+01 0.43346298555E+01 0.48669676821E+01
 0.56505135369E+01 0.67040884134E+01 0.80414399921E+01 0.96673018493E+01 0.11576020551E+02
 0.13751897054E+02 0.16168370257E+02 0.18783512272E+02 0.21533037438E+02 0.24326435885E+02
 0.27052767588E+02 0.29598349130E+02 0.31871301521E+02 0.33822758257E+02 0.35421339396E+02
 0.36579058838E+02 0.37274916527E+02 0.37586146332E+02 0.37656334838E+02 0.37634105495E+02
 0.37609716958E+02 0.37585007316E+02 0.37492969291E+02 0.37248411539E+02 0.36791706979E+02
 0.36101336198E+02 0.35182416021E+02 0.34056573926E+02 0.32769496960E+02 0.31409661684E+02
 0.30116631589E+02 0.28999171656E+02 0.28048067396E+02 0.27233711831E+02 0.26512687264E+02
 0.25821210490E+02 0.25075627450E+02 0.24183259641E+02 0.23062386896E+02 0.21665093290E+02
 0.19993021136E+02 0.18097893788E+02 0.16066854232E+02 0.14001122222E+02 0.11997817898E+02
 0.10139117354E+02 0.84871913184E+01 0.70824504769E+01 0.59444223226E+01 0.50752052845E+01
 0.44647343715E+01 0.40969865702E+01 0.43949777618E+01 0.42892237667E+01 0.44321852727E+01
 0.48270533789E+01 0.54893063891E+01 0.64396706469E+01 0.76964574731E+01 0.92700819246E+01
 0.11161301951E+02 0.13362215271E+02 0.15856083222E+02 0.18611661189E+02 0.21572005029E+02
 0.24644191877E+02 0.27699489216E+02 0.30589713090E+02 0.33176379444E+02 0.35360070013E+02
 0.37024610402E+02 0.37987307601E+02 0.38171969652E+02 0.37656334836E+02 0.36662491423E+02
 0.35496963613E+02 0.34455271633E+02 0.33734664762E+02 0.33400064789E+02 0.33411637033E+02
 0.33678654954E+02 0.34095407860E+02 0.34546631725E+02 0.34906216281E+02 0.35057496060E+02
 0.34937118183E+02 0.34576928167E+02 0.34113060851E+02 0.33699151411E+02 0.33338615181E+02
 0.32995528527E+02 0.32613451413E+02 0.32105903347E+02 0.31361963484E+02 0.30268662110E+02
 0.28744330182E+02 0.26769832355E+02 0.24402129148E+02 0.21761968550E+02 0.19002109837E+02
 0.16272971103E+02 0.13700159254E+02 0.11376835836E+02 0.93648373849E+01 0.76979669707E+01
 0.63852339378E+01 0.54150530621E+01 0.47618067218E+01 0.50138745829E+01 0.46638169523E+01
 0.46063350172E+01 0.48268080849E+01 0.53302225263E+01 0.61343913621E+01 0.72602024894E+01
 0.87233309375E+01 0.10530587100E+02 0.12680987863E+02 0.15167231733E+02 0.17971065266E+02
 0.21049896734E+02 0.24320397295E+02 0.27650870755E+02 0.30872197462E+02 0.33807407396E+02
 0.36306443507E+02 0.38167314233E+02 0.39095037303E+02 0.38912167828E+02 0.37634105491E+02
 0.35496963610E+02 0.32925723227E+02 0.30431783336E+02 0.28473714319E+02 0.27348764731E+02
 0.27163540044E+02 0.27871743366E+02 0.29324569625E+02 0.31295778027E+02 0.33493471634E+02
 0.35595985208E+02 0.37326112851E+02 0.38536040133E+02 0.39256590796E+02 0.39680140873E+02
 0.40032511733E+02 0.40338715353E+02 0.40542798443E+02 0.40543804252E+02 0.40197009759E+02
 0.39339092241E+02 0.37832976463E+02 0.35618374472E+02 0.32745737476E+02 0.29373802938E+02
 0.25728988328E+02 0.22047447160E+02 0.18528479267E+02 0.15315011244E+02 0.12496769651E+02
 0.10121877689E+02 0.82063865012E+01 0.67398906119E+01 0.56906489677E+01 0.58845346879E+01
 0.52086017840E+01 0.48937793566E+01 0.48991590923E+01 0.52094704677E+01 0.58313231579E+01
 0.67830006451E+01 0.80834091526E+01 0.97449751681E+01 0.11772754596E+02 0.14167060131E+02
 0.16921842758E+02 0.20012202921E+02 0.23373725749E+02 0.26886342820E+02 0.30376677774E+02
 0.33643524231E+02 0.36495611381E+02 0.38667243345E+02 0.39748953123E+02 0.39431182640E+02
 0.37609716950E+02 0.34455271627E+02 0.30431783332E+02 0.26221853036E+02 0.22561973045E+02
 0.20058236555E+02 0.19072777089E+02 0.19712050565E+02 0.21869463270E+02 0.25259939343E+02
 0.29439713212E+02 0.33856463465E+02 0.37960927914E+02 0.41351048976E+02 0.43879743090E+02
 0.45671552953E+02 0.47040337626E+02 0.48284747395E+02 0.49412252290E+02 0.50295731180E+02
 0.50730484457E+02 0.50466598855E+02 0.49270361530E+02 0.47000195241E+02 0.43670274606E+02
 0.39469566746E+02 0.34719683564E+02 0.29788592001E+02 0.25003046435E+02 0.20597799329E+02
 0.16710448897E+02 0.13404168269E+02 0.10694460573E+02 0.85663854202E+01 0.69818975145E+01
 0.70940397180E+01 0.59869280869E+01 0.53394321727E+01 0.50791742353E+01 0.51613137278E+01
 0.55709923399E+01 0.63154429889E+01 0.74117371322E+01 0.88761188055E+01 0.10719081080E+02
 0.12946747483E+02 0.15562385762E+02 0.18558009600E+02 0.21892990106E+02 0.25470459116E+02
 0.29129112725E+02 0.32660641444E+02 0.35847088659E+02 0.38395850607E+02 0.39803472766E+02
 0.39619634497E+02 0.37585007306E+02 0.33734664753E+02 0.28473714312E+02 0.22561973041E+02
 0.16964922364E+02 0.12616473755E+02 0.10212038621E+02 0.10119781339E+02 0.12390394747E+02
 0.16783116961E+02 0.22774441858E+02 0.29602879377E+02 0.36411882176E+02 0.42470078188E+02
 0.47368132027E+02 0.51094693604E+02 0.53963867907E+02 0.56436015237E+02 0.58817876324E+02
 0.61008123349E+02 0.62721828478E+02 0.63577551536E+02 0.63182929844E+02 0.61245358995E+02
 0.57678738866E+02 0.52663303685E+02 0.46619844125E+02 0.40098028398E+02 0.33629666578E+02
 0.27616878449E+02 0.22294785109E+02 0.17758463591E+02 0.14015578672E+02 0.11030616454E+02
 0.87472627060E+01 0.87354704384E+01 0.70719258467E+01 0.59968911360E+01 0.54058884942E+01
 0.52183987735E+01 0.53883808030E+01 0.59018935095E+01 0.67660176736E+01 0.79961568857E+01
 0.96068049678E+01 0.11608899637E+02 0.14011880669E+02 0.16820696504E+02 0.20018267573E+02
 0.23537817295E+02 0.27243673138E+02 0.30937352149E+02 0.34389520387E+02 0.37316432659E+02
 0.39168751712E+02 0.39368295387E+02 0.37492969279E+02 0.33400064777E+02 0.27348764721E+02
 0.20058236548E+02 0.12616473751E+02 0.62332514209E+01 0.19535981131E+01 0.47688037891E+00
 0.21147372982E+01 0.67975895827E+01 0.14054082823E+02 0.23012766624E+02 0.32537924489E+02
 0.41519621745E+02 0.49193000275E+02 0.55320246315E+02 0.60157628520E+02 0.64249018745E+02
 0.68144863367E+02 0.72014428214E+02 0.75524324099E+02 0.78132520697E+02 0.79223058470E+02
 0.78260562926E+02 0.74954491734E+02 0.69384543256E+02 0.62024225572E+02 0.53627171415E+02
 0.45015093482E+02 0.36869217335E+02 0.29617860669E+02 0.23441527678E+02 0.18349965261E+02
 0.14269029256E+02 0.11098765753E+02 0.10894425041E+02 0.85365712323E+01 0.69240933995E+01
 0.59220183064E+01 0.54129056457E+01 0.53128358780E+01 0.55770776391E+01 0.61931432756E+01
 0.71681458813E+01 0.85167111931E+01 0.10253413510E+02 0.12391815524E+02 0.14944877124E+02
 0.17914462243E+02 0.21265150258E+02 0.24896286660E+02 0.28634325660E+02 0.32254718521E+02
 0.35497474047E+02 0.37842393588E+02 0.38615561550E+02 0.37248411527E+02 0.33411637020E+02
 0.27163540032E+02 0.19072777080E+02 0.10212038615E+02 0.19535981104E+01 -.43592806259E+01
 -.76855548670E+01 -.73963706875E+01 -.32897019165E+01 0.43632445822E+01 0.14748790924E+02
 0.26575776791E+02 0.38381797038E+02 0.48977684877E+02 0.57789130027E+02 0.64922347674E+02
 0.70959692847E+02 0.76614398125E+02 0.82371377904E+02 0.88067461535E+02 0.93020654376E+02
 0.96357459106E+02 0.97217726846E+02 0.94983775044E+02 0.89490021140E+02 0.81136402238E+02
 0.70825158168E+02 0.59713021634E+02 0.48885211751E+02 0.39108983667E+02 0.30760306195E+02
 0.23901286324E+02 0.18418035362E+02 0.14138326556E+02 0.13637429855E+02 0.10440601183E+02
 0.81741123956E+01 0.66700448008E+01 0.57763618640E+01 0.53692325020E+01 0.53660318013E+01
 0.57258702411E+01 0.64391573774E+01 0.75141340475E+01 0.89657931602E+01 0.10810435297E+02
 0.13065392463E+02 0.15744782851E+02 0.18840190342E+02 0.22289949554E+02 0.25957968042E+02
 0.29640801838E+02 0.33098508799E+02 0.35911607517E+02 0.37370055263E+02 0.36791706968E+02
 0.33678654940E+02 0.27871743352E+02 0.19712050554E+02 0.10119781331E+02 0.47688037435E+00
 -.76855548689E+01 -.13029729043E+02 -.14604837459E+02 -.11892803664E+02 -.48601859682E+01
 0.59134596848E+01 0.19182761312E+02 0.33268987955E+02 0.46570507214E+02 0.58083650155E+02
 0.67639709114E+02 0.75768850180E+02 0.83315259061E+02 0.90997182851E+02 0.98997601116E+02
 0.10665540416E+03 0.11286882416E+03 0.11642267000E+03 0.11627793301E+03 0.11186630294E+03
 0.10331926151E+03 0.91520815986E+02 0.77900604450E+02 0.64020339140E+02 0.51149155135E+02