   9   9   0   0
  0.1255774E+02  0.4913700E-09  0.4913700E-09  0.5405130E-09  0.5000000E-15
  1.000000000000000E-004
  CAR 
 unknown system                          
     13.90048845    -20.37189228  301      1.13402663      1.00000000
    -20.372  0.0000E+00  0.0000E+00
    -20.258  0.0000E+00  0.0000E+00
    -20.143  0.0000E+00  0.0000E+00
    -20.029  0.0000E+00  0.0000E+00
    -19.915  0.0000E+00  0.0000E+00
    -19.801  0.0000E+00  0.0000E+00
    -19.686  0.0000E+00  0.0000E+00
    -19.572  0.0000E+00  0.0000E+00
    -19.458  0.0000E+00  0.0000E+00
    -19.344  0.0000E+00  0.0000E+00
    -19.229  0.0000E+00  0.0000E+00
    -19.115  0.0000E+00  0.0000E+00
    -19.001  0.0000E+00  0.0000E+00
    -18.887  0.0000E+00  0.0000E+00
    -18.773  0.0000E+00  0.0000E+00
    -18.658  0.0000E+00  0.0000E+00
    -18.544  0.0000E+00  0.0000E+00
    -18.430  0.0000E+00  0.0000E+00
    -18.316  0.4161E+00  0.7814E-02
    -18.201  0.1409E+01  0.1303E+00
    -18.087  0.2352E+01  0.3446E+00
    -17.973  0.4235E+01  0.7290E+00
    -17.859  0.8517E+01  0.1410E+01
    -17.744  0.4172E+00  0.1986E+01
    -17.630  0.1191E+01  0.2080E+01
    -17.516  0.2373E+01  0.2275E+01
    -17.402  0.7793E+01  0.2762E+01
    -17.287  0.2896E+01  0.3638E+01
    -17.173  0.1189E+01  0.3852E+01
    -17.059  0.5768E+00  0.3948E+01
    -16.945  0.1133E+01  0.4030E+01
    -16.830  0.8405E+01  0.4465E+01
    -16.716  0.3565E+01  0.5351E+01
    -16.602  0.1963E+01  0.5648E+01
    -16.488  0.1257E+01  0.5824E+01
    -16.373  0.7275E+00  0.5937E+01
    -16.259  0.2352E+02  0.6292E+01
    -16.145  0.1255E+02  0.1190E+02
    -16.031  0.0000E+00  0.1200E+02
    -15.916  0.0000E+00  0.1200E+02
    -15.802  0.0000E+00  0.1200E+02
    -15.688  0.0000E+00  0.1200E+02
    -15.574  0.0000E+00  0.1200E+02
    -15.460  0.0000E+00  0.1200E+02
    -15.345  0.0000E+00  0.1200E+02
    -15.231  0.0000E+00  0.1200E+02
    -15.117  0.0000E+00  0.1200E+02
    -15.003  0.0000E+00  0.1200E+02
    -14.888  0.0000E+00  0.1200E+02
    -14.774  0.0000E+00  0.1200E+02
    -14.660  0.0000E+00  0.1200E+02
    -14.546  0.0000E+00  0.1200E+02
    -14.431  0.0000E+00  0.1200E+02
    -14.317  0.0000E+00  0.1200E+02
    -14.203  0.0000E+00  0.1200E+02
    -14.089  0.0000E+00  0.1200E+02
    -13.974  0.0000E+00  0.1200E+02
    -13.860  0.0000E+00  0.1200E+02
    -13.746  0.0000E+00  0.1200E+02
    -13.632  0.0000E+00  0.1200E+02
    -13.517  0.0000E+00  0.1200E+02
    -13.403  0.0000E+00  0.1200E+02
    -13.289  0.0000E+00  0.1200E+02
    -13.175  0.0000E+00  0.1200E+02
    -13.060  0.0000E+00  0.1200E+02
    -12.946  0.0000E+00  0.1200E+02
    -12.832  0.0000E+00  0.1200E+02
    -12.718  0.0000E+00  0.1200E+02
    -12.603  0.0000E+00  0.1200E+02
    -12.489  0.0000E+00  0.1200E+02
    -12.375  0.0000E+00  0.1200E+02
    -12.261  0.0000E+00  0.1200E+02
    -12.147  0.0000E+00  0.1200E+02
    -12.032  0.0000E+00  0.1200E+02
    -11.918  0.0000E+00  0.1200E+02
    -11.804  0.0000E+00  0.1200E+02
    -11.690  0.0000E+00  0.1200E+02
    -11.575  0.0000E+00  0.1200E+02
    -11.461  0.0000E+00  0.1200E+02
    -11.347  0.0000E+00  0.1200E+02
    -11.233  0.0000E+00  0.1200E+02
    -11.118  0.0000E+00  0.1200E+02
    -11.004  0.0000E+00  0.1200E+02
    -10.890  0.0000E+00  0.1200E+02
    -10.776  0.0000E+00  0.1200E+02
    -10.661  0.0000E+00  0.1200E+02
    -10.547  0.0000E+00  0.1200E+02
    -10.433  0.0000E+00  0.1200E+02
    -10.319  0.0000E+00  0.1200E+02
    -10.204  0.0000E+00  0.1200E+02
    -10.090  0.0000E+00  0.1200E+02
     -9.976  0.0000E+00  0.1200E+02
     -9.862  0.0000E+00  0.1200E+02
     -9.747  0.0000E+00  0.1200E+02
     -9.633  0.0000E+00  0.1200E+02
     -9.519  0.0000E+00  0.1200E+02
     -9.405  0.0000E+00  0.1200E+02
     -9.290  0.0000E+00  0.1200E+02
     -9.176  0.0000E+00  0.1200E+02
     -9.062  0.0000E+00  0.1200E+02
     -8.948  0.0000E+00  0.1200E+02
     -8.834  0.0000E+00  0.1200E+02
     -8.719  0.0000E+00  0.1200E+02
     -8.605  0.0000E+00  0.1200E+02
     -8.491  0.0000E+00  0.1200E+02
     -8.377  0.0000E+00  0.1200E+02
     -8.262  0.0000E+00  0.1200E+02
     -8.148  0.1590E+00  0.1201E+02
     -8.034  0.4977E+00  0.1204E+02
     -7.920  0.5613E+00  0.1210E+02
     -7.805  0.7775E+00  0.1217E+02
     -7.691  0.9858E+00  0.1227E+02
     -7.577  0.1394E+01  0.1241E+02
     -7.463  0.1988E+01  0.1260E+02
     -7.348  0.5550E+01  0.1295E+02
     -7.234  0.3157E+01  0.1371E+02
     -7.120  0.7269E+00  0.1392E+02
     -7.006  0.3842E+00  0.1399E+02
     -6.891  0.2189E+00  0.1402E+02
     -6.777  0.3016E+00  0.1405E+02
     -6.663  0.4529E+00  0.1409E+02
     -6.549  0.7254E+00  0.1415E+02
     -6.434  0.1219E+01  0.1426E+02
     -6.320  0.2057E+01  0.1444E+02
     -6.206  0.5933E+01  0.1491E+02
     -6.092  0.2780E+01  0.1543E+02
     -5.977  0.1552E+01  0.1567E+02
     -5.863  0.9812E+00  0.1581E+02
     -5.749  0.6671E+00  0.1590E+02
     -5.635  0.4436E+00  0.1596E+02
     -5.521  0.6767E-01  0.1600E+02
     -5.406  0.1591E+01  0.1608E+02
     -5.292  0.3477E+01  0.1637E+02
     -5.178  0.2873E+01  0.1674E+02
     -5.064  0.2896E+01  0.1708E+02
     -4.949  0.2319E+01  0.1738E+02
     -4.835  0.1601E+01  0.1760E+02
     -4.721  0.1176E+01  0.1776E+02
     -4.607  0.8355E+00  0.1787E+02
     -4.492  0.8806E+00  0.1795E+02
     -4.378  0.5255E+01  0.1822E+02
     -4.264  0.9760E+01  0.1993E+02
     -4.150  0.5840E+01  0.2081E+02
     -4.035  0.5595E+01  0.2155E+02
     -3.921  0.1549E+01  0.2209E+02
     -3.807  0.8280E+01  0.2279E+02
     -3.693  0.4510E+01  0.2355E+02
     -3.578  0.2025E+01  0.2392E+02
     -3.464  0.4593E-02  0.2400E+02
     -3.350  0.0000E+00  0.2400E+02
     -3.236  0.0000E+00  0.2400E+02
     -3.121  0.0000E+00  0.2400E+02
     -3.007  0.0000E+00  0.2400E+02
     -2.893  0.0000E+00  0.2400E+02
     -2.779  0.0000E+00  0.2400E+02
     -2.664  0.0000E+00  0.2400E+02
     -2.550  0.0000E+00  0.2400E+02
     -2.436  0.0000E+00  0.2400E+02
     -2.322  0.0000E+00  0.2400E+02
     -2.208  0.0000E+00  0.2400E+02
     -2.093  0.1221E+02  0.2457E+02
     -1.979  0.5656E+01  0.2587E+02
     -1.865  0.5312E+01  0.2651E+02
     -1.751  0.6761E+01  0.2737E+02
     -1.636  0.4692E+01  0.2810E+02
     -1.522  0.1204E+02  0.2895E+02
     -1.408  0.4886E+01  0.2978E+02
     -1.294  0.1347E+01  0.3004E+02
     -1.179  0.1508E+02  0.3090E+02
     -1.065  0.2629E+01  0.3184E+02
     -0.951  0.1453E+02  0.3244E+02
     -0.837  0.1239E+01  0.3386E+02
     -0.722  0.3205E+01  0.3410E+02
     -0.608  0.6277E+01  0.3477E+02
     -0.494  0.1223E+02  0.3579E+02
     -0.380  0.1002E+02  0.3710E+02
     -0.265  0.4884E+01  0.3776E+02
     -0.151  0.1094E+02  0.3853E+02
     -0.037  0.7605E+01  0.3976E+02
      0.077  0.9252E+01  0.4044E+02
      0.192  0.6746E+01  0.4193E+02
      0.306  0.5033E+01  0.4213E+02
      0.420  0.8995E+01  0.4339E+02
      0.534  0.5314E+01  0.4393E+02
      0.649  0.5649E+01  0.4447E+02
      0.763  0.1020E+02  0.4534E+02
      0.877  0.5386E+01  0.4627E+02
      0.991  0.1330E+02  0.4718E+02
      1.105  0.0000E+00  0.4800E+02
      1.220  0.0000E+00  0.4800E+02
      1.334  0.0000E+00  0.4800E+02
      1.448  0.0000E+00  0.4800E+02
      1.562  0.0000E+00  0.4800E+02
      1.677  0.0000E+00  0.4800E+02
      1.791  0.0000E+00  0.4800E+02
      1.905  0.0000E+00  0.4800E+02
      2.019  0.0000E+00  0.4800E+02
      2.134  0.0000E+00  0.4800E+02
      2.248  0.0000E+00  0.4800E+02
      2.362  0.0000E+00  0.4800E+02
      2.476  0.0000E+00  0.4800E+02
      2.591  0.0000E+00  0.4800E+02
      2.705  0.0000E+00  0.4800E+02
      2.819  0.0000E+00  0.4800E+02
      2.933  0.0000E+00  0.4800E+02
      3.048  0.0000E+00  0.4800E+02
      3.162  0.0000E+00  0.4800E+02
      3.276  0.0000E+00  0.4800E+02
      3.390  0.0000E+00  0.4800E+02
      3.505  0.0000E+00  0.4800E+02
      3.619  0.0000E+00  0.4800E+02
      3.733  0.0000E+00  0.4800E+02
      3.847  0.0000E+00  0.4800E+02
      3.961  0.0000E+00  0.4800E+02
      4.076  0.0000E+00  0.4800E+02
      4.190  0.0000E+00  0.4800E+02
      4.304  0.0000E+00  0.4800E+02
      4.418  0.0000E+00  0.4800E+02
      4.533  0.0000E+00  0.4800E+02
      4.647  0.0000E+00  0.4800E+02
      4.761  0.0000E+00  0.4800E+02
      4.875  0.0000E+00  0.4800E+02
      4.990  0.0000E+00  0.4800E+02
      5.104  0.0000E+00  0.4800E+02
      5.218  0.0000E+00  0.4800E+02
      5.332  0.0000E+00  0.4800E+02
      5.447  0.0000E+00  0.4800E+02
      5.561  0.0000E+00  0.4800E+02
      5.675  0.0000E+00  0.4800E+02
      5.789  0.0000E+00  0.4800E+02
      5.904  0.0000E+00  0.4800E+02
      6.018  0.0000E+00  0.4800E+02
      6.132  0.0000E+00  0.4800E+02
      6.246  0.0000E+00  0.4800E+02
      6.361  0.0000E+00  0.4800E+02
      6.475  0.0000E+00  0.4800E+02
      6.589  0.0000E+00  0.4800E+02
      6.703  0.0000E+00  0.4800E+02
      6.818  0.0000E+00  0.4800E+02
      6.932  0.0000E+00  0.4800E+02
      7.046  0.0000E+00  0.4800E+02
      7.160  0.1535E-02  0.4800E+02
      7.274  0.2360E-01  0.4800E+02
      7.389  0.7187E-01  0.4801E+02
      7.503  0.1463E+00  0.4802E+02
      7.617  0.2221E+00  0.4804E+02
      7.731  0.2627E+00  0.4807E+02
      7.846  0.2857E+00  0.4810E+02
      7.960  0.3181E+00  0.4813E+02
      8.074  0.3646E+00  0.4817E+02
      8.188  0.4136E+00  0.4822E+02
      8.303  0.4651E+00  0.4827E+02
      8.417  0.5188E+00  0.4832E+02
      8.531  0.6051E+00  0.4839E+02
      8.645  0.7585E+00  0.4846E+02
      8.760  0.8489E+00  0.4856E+02
      8.874  0.8509E+00  0.4865E+02
      8.988  0.9123E+00  0.4875E+02
      9.102  0.9757E+00  0.4886E+02
      9.217  0.1041E+01  0.4898E+02
      9.331  0.1443E+01  0.4911E+02
      9.445  0.1516E+01  0.4928E+02
      9.559  0.1265E+01  0.4944E+02
      9.674  0.1284E+01  0.4958E+02
      9.788  0.1522E+01  0.4974E+02
      9.902  0.2030E+01  0.4993E+02
     10.016  0.1244E+01  0.5012E+02
     10.131  0.1207E+01  0.5026E+02
     10.245  0.3218E+01  0.5049E+02
     10.359  0.1197E+02  0.5120E+02
     10.473  0.4135E+01  0.5210E+02
     10.587  0.6194E+01  0.5261E+02
     10.702  0.7432E+01  0.5349E+02
     10.816  0.4382E+01  0.5423E+02
     10.930  0.2463E+01  0.5456E+02
     11.044  0.5168E+01  0.5499E+02
     11.159  0.5419E+01  0.5579E+02
     11.273  0.5157E+01  0.5620E+02
     11.387  0.5108E+01  0.5680E+02
     11.501  0.5070E+01  0.5740E+02
     11.616  0.2624E+01  0.5786E+02
     11.730  0.1592E+00  0.5799E+02
     11.844  0.1737E-01  0.5800E+02
     11.958  0.0000E+00  0.5800E+02
     12.073  0.0000E+00  0.5800E+02
     12.187  0.0000E+00  0.5800E+02
     12.301  0.0000E+00  0.5800E+02
     12.415  0.0000E+00  0.5800E+02
     12.530  0.0000E+00  0.5800E+02
     12.644  0.0000E+00  0.5800E+02
     12.758  0.0000E+00  0.5800E+02
     12.872  0.0000E+00  0.5800E+02
     12.987  0.0000E+00  0.5800E+02
     13.101  0.0000E+00  0.5800E+02
     13.215  0.0000E+00  0.5800E+02
     13.329  0.0000E+00  0.5800E+02
     13.444  0.0000E+00  0.5800E+02
     13.558  0.0000E+00  0.5800E+02
     13.672  0.0000E+00  0.5800E+02
     13.786  0.0000E+00  0.5800E+02
     13.900  0.0000E+00  0.5800E+02
