  14  14   1   0
  0.3783029E+03  0.1743101E-08  0.1743101E-08  0.1743101E-08  0.5000000E-15
  1.000000000000000E-004
  CAR 
 unknown system                          
      7.00000000    -17.00000000 2401     -3.81584851      1.00000000
    -17.000  0.0000E+00  0.0000E+00
    -16.990  0.0000E+00  0.0000E+00
    -16.980  0.0000E+00  0.0000E+00
    -16.970  0.0000E+00  0.0000E+00
    -16.960  0.0000E+00  0.0000E+00
    -16.950  0.0000E+00  0.0000E+00
    -16.940  0.0000E+00  0.0000E+00
    -16.930  0.0000E+00  0.0000E+00
    -16.920  0.0000E+00  0.0000E+00
    -16.910  0.0000E+00  0.0000E+00
    -16.900  0.0000E+00  0.0000E+00
    -16.890  0.0000E+00  0.0000E+00
    -16.880  0.0000E+00  0.0000E+00
    -16.870  0.0000E+00  0.0000E+00
    -16.860  0.0000E+00  0.0000E+00
    -16.850  0.0000E+00  0.0000E+00
    -16.840  0.0000E+00  0.0000E+00
    -16.830  0.0000E+00  0.0000E+00
    -16.820  0.0000E+00  0.0000E+00
    -16.810  0.0000E+00  0.0000E+00
    -16.800  0.0000E+00  0.0000E+00
    -16.790  0.0000E+00  0.0000E+00
    -16.780  0.0000E+00  0.0000E+00
    -16.770  0.0000E+00  0.0000E+00
    -16.760  0.0000E+00  0.0000E+00
    -16.750  0.0000E+00  0.0000E+00
    -16.740  0.0000E+00  0.0000E+00
    -16.730  0.0000E+00  0.0000E+00
    -16.720  0.0000E+00  0.0000E+00
    -16.710  0.0000E+00  0.0000E+00
    -16.700  0.0000E+00  0.0000E+00
    -16.690  0.0000E+00  0.0000E+00
    -16.680  0.0000E+00  0.0000E+00
    -16.670  0.0000E+00  0.0000E+00
    -16.660  0.0000E+00  0.0000E+00
    -16.650  0.0000E+00  0.0000E+00
    -16.640  0.0000E+00  0.0000E+00
    -16.630  0.0000E+00  0.0000E+00
    -16.620  0.0000E+00  0.0000E+00
    -16.610  0.0000E+00  0.0000E+00
    -16.600  0.0000E+00  0.0000E+00
    -16.590  0.0000E+00  0.0000E+00
    -16.580  0.0000E+00  0.0000E+00
    -16.570  0.0000E+00  0.0000E+00
    -16.560  0.0000E+00  0.0000E+00
    -16.550  0.0000E+00  0.0000E+00
    -16.540  0.0000E+00  0.0000E+00
    -16.530  0.0000E+00  0.0000E+00
    -16.520  0.0000E+00  0.0000E+00
    -16.510  0.0000E+00  0.0000E+00
    -16.500  0.0000E+00  0.0000E+00
    -16.490  0.0000E+00  0.0000E+00
    -16.480  0.0000E+00  0.0000E+00
    -16.470  0.0000E+00  0.0000E+00
    -16.460  0.0000E+00  0.0000E+00
    -16.450  0.0000E+00  0.0000E+00
    -16.440  0.0000E+00  0.0000E+00
    -16.430  0.0000E+00  0.0000E+00
    -16.420  0.0000E+00  0.0000E+00
    -16.410  0.0000E+00  0.0000E+00
    -16.400  0.0000E+00  0.0000E+00
    -16.390  0.0000E+00  0.0000E+00
    -16.380  0.0000E+00  0.0000E+00
    -16.370  0.0000E+00  0.0000E+00
    -16.360  0.0000E+00  0.0000E+00
    -16.350  0.0000E+00  0.0000E+00
    -16.340  0.0000E+00  0.0000E+00
    -16.330  0.0000E+00  0.0000E+00
    -16.320  0.0000E+00  0.0000E+00
    -16.310  0.0000E+00  0.0000E+00
    -16.300  0.0000E+00  0.0000E+00
    -16.290  0.0000E+00  0.0000E+00
    -16.280  0.0000E+00  0.0000E+00
    -16.270  0.0000E+00  0.0000E+00
    -16.260  0.0000E+00  0.0000E+00
    -16.250  0.0000E+00  0.0000E+00
    -16.240  0.0000E+00  0.0000E+00
    -16.230  0.0000E+00  0.0000E+00
    -16.220  0.0000E+00  0.0000E+00
    -16.210  0.0000E+00  0.0000E+00
    -16.200  0.0000E+00  0.0000E+00
    -16.190  0.0000E+00  0.0000E+00
    -16.180  0.0000E+00  0.0000E+00
    -16.170  0.0000E+00  0.0000E+00
    -16.160  0.0000E+00  0.0000E+00
    -16.150  0.0000E+00  0.0000E+00
    -16.140  0.0000E+00  0.0000E+00
    -16.130  0.0000E+00  0.0000E+00
    -16.120  0.0000E+00  0.0000E+00
    -16.110  0.0000E+00  0.0000E+00
    -16.100  0.0000E+00  0.0000E+00
    -16.090  0.0000E+00  0.0000E+00
    -16.080  0.0000E+00  0.0000E+00
    -16.070  0.0000E+00  0.0000E+00
    -16.060  0.0000E+00  0.0000E+00
    -16.050  0.0000E+00  0.0000E+00
    -16.040  0.0000E+00  0.0000E+00
    -16.030  0.0000E+00  0.0000E+00
    -16.020  0.0000E+00  0.0000E+00
    -16.010  0.0000E+00  0.0000E+00
    -16.000  0.0000E+00  0.0000E+00
    -15.990  0.0000E+00  0.0000E+00
    -15.980  0.0000E+00  0.0000E+00
    -15.970  0.0000E+00  0.0000E+00
    -15.960  0.0000E+00  0.0000E+00
    -15.950  0.0000E+00  0.0000E+00
    -15.940  0.0000E+00  0.0000E+00
    -15.930  0.0000E+00  0.0000E+00
    -15.920  0.0000E+00  0.0000E+00
    -15.910  0.0000E+00  0.0000E+00
    -15.900  0.0000E+00  0.0000E+00
    -15.890  0.0000E+00  0.0000E+00
    -15.880  0.0000E+00  0.0000E+00
    -15.870  0.0000E+00  0.0000E+00
    -15.860  0.0000E+00  0.0000E+00
    -15.850  0.0000E+00  0.0000E+00
    -15.840  0.0000E+00  0.0000E+00
    -15.830  0.0000E+00  0.0000E+00
    -15.820  0.0000E+00  0.0000E+00
    -15.810  0.0000E+00  0.0000E+00
    -15.800  0.0000E+00  0.0000E+00
    -15.790  0.0000E+00  0.0000E+00
    -15.780  0.0000E+00  0.0000E+00
    -15.770  0.0000E+00  0.0000E+00
    -15.760  0.0000E+00  0.0000E+00
    -15.750  0.0000E+00  0.0000E+00
    -15.740  0.0000E+00  0.0000E+00
    -15.730  0.0000E+00  0.0000E+00
    -15.720  0.0000E+00  0.0000E+00
    -15.710  0.0000E+00  0.0000E+00
    -15.700  0.0000E+00  0.0000E+00
    -15.690  0.0000E+00  0.0000E+00
    -15.680  0.0000E+00  0.0000E+00
    -15.670  0.0000E+00  0.0000E+00
    -15.660  0.0000E+00  0.0000E+00
    -15.650  0.0000E+00  0.0000E+00
    -15.640  0.0000E+00  0.0000E+00
    -15.630  0.0000E+00  0.0000E+00
    -15.620  0.0000E+00  0.0000E+00
    -15.610  0.0000E+00  0.0000E+00
    -15.600  0.0000E+00  0.0000E+00
    -15.590  0.0000E+00  0.0000E+00
    -15.580  0.0000E+00  0.0000E+00
    -15.570  0.0000E+00  0.0000E+00
    -15.560  0.0000E+00  0.0000E+00
    -15.550  0.0000E+00  0.0000E+00
    -15.540  0.0000E+00  0.0000E+00
    -15.530  0.0000E+00  0.0000E+00
    -15.520  0.0000E+00  0.0000E+00
    -15.510  0.0000E+00  0.0000E+00
    -15.500  0.0000E+00  0.0000E+00
    -15.490  0.0000E+00  0.0000E+00
    -15.480  0.0000E+00  0.0000E+00
    -15.470  0.0000E+00  0.0000E+00
    -15.460  0.0000E+00  0.0000E+00
    -15.450  0.0000E+00  0.0000E+00
    -15.440  0.0000E+00  0.0000E+00
    -15.430  0.0000E+00  0.0000E+00
    -15.420  0.0000E+00  0.0000E+00
    -15.410  0.0000E+00  0.0000E+00
    -15.400  0.0000E+00  0.0000E+00
    -15.390  0.0000E+00  0.0000E+00
    -15.380  0.0000E+00  0.0000E+00
    -15.370  0.0000E+00  0.0000E+00
    -15.360  0.0000E+00  0.0000E+00
    -15.350  0.0000E+00  0.0000E+00
    -15.340  0.0000E+00  0.0000E+00
    -15.330  0.0000E+00  0.0000E+00
    -15.320  0.0000E+00  0.0000E+00
    -15.310  0.0000E+00  0.0000E+00
    -15.300  0.0000E+00  0.0000E+00
    -15.290  0.0000E+00  0.0000E+00
    -15.280  0.0000E+00  0.0000E+00
    -15.270  0.0000E+00  0.0000E+00
    -15.260  0.0000E+00  0.0000E+00
    -15.250  0.0000E+00  0.0000E+00
    -15.240  0.0000E+00  0.0000E+00
    -15.230  0.0000E+00  0.0000E+00
    -15.220  0.0000E+00  0.0000E+00
    -15.210  0.0000E+00  0.0000E+00
    -15.200  0.0000E+00  0.0000E+00
    -15.190  0.0000E+00  0.0000E+00
    -15.180  0.0000E+00  0.0000E+00
    -15.170  0.0000E+00  0.0000E+00
    -15.160  0.0000E+00  0.0000E+00
    -15.150  0.0000E+00  0.0000E+00
    -15.140  0.0000E+00  0.0000E+00
    -15.130  0.0000E+00  0.0000E+00
    -15.120  0.0000E+00  0.0000E+00
    -15.110  0.0000E+00  0.0000E+00
    -15.100  0.0000E+00  0.0000E+00
    -15.090  0.0000E+00  0.0000E+00
    -15.080  0.0000E+00  0.0000E+00
    -15.070  0.0000E+00  0.0000E+00
    -15.060  0.0000E+00  0.0000E+00
    -15.050  0.0000E+00  0.0000E+00
    -15.040  0.0000E+00  0.0000E+00
    -15.030  0.0000E+00  0.0000E+00
    -15.020  0.1110E-13  0.1110E-15
    -15.010  0.2220E-13  0.3331E-15
    -15.000  0.7772E-13  0.1110E-14
    -14.990  0.2331E-12  0.3442E-14
    -14.980  0.7105E-12  0.1055E-13
    -14.970  0.2109E-11  0.3164E-13
    -14.960  0.6173E-11  0.9337E-13
    -14.950  0.1769E-10  0.2702E-12
    -14.940  0.4960E-10  0.7663E-12
    -14.930  0.1365E-09  0.2131E-11
    -14.920  0.3680E-09  0.5811E-11
    -14.910  0.9726E-09  0.1554E-10
    -14.900  0.2520E-08  0.4074E-10
    -14.890  0.6400E-08  0.1047E-09
    -14.880  0.1593E-07  0.2641E-09
    -14.870  0.3888E-07  0.6529E-09
    -14.860  0.9300E-07  0.1583E-08
    -14.850  0.2181E-06  0.3763E-08
    -14.840  0.5012E-06  0.8775E-08
    -14.830  0.1129E-05  0.2007E-07
    -14.820  0.2494E-05  0.4500E-07
    -14.810  0.5398E-05  0.9898E-07
    -14.800  0.1145E-04  0.2135E-06
    -14.790  0.2382E-04  0.4518E-06
    -14.780  0.4858E-04  0.9375E-06
    -14.770  0.9708E-04  0.1908E-05
    -14.760  0.1902E-03  0.3810E-05
    -14.750  0.3652E-03  0.7462E-05
    -14.740  0.6875E-03  0.1434E-04
    -14.730  0.1268E-02  0.2702E-04
    -14.720  0.2294E-02  0.4997E-04
    -14.710  0.4068E-02  0.9064E-04
    -14.700  0.7069E-02  0.1613E-03
    -14.690  0.1204E-01  0.2817E-03
    -14.680  0.2011E-01  0.4828E-03
    -14.670  0.3291E-01  0.8120E-03
    -14.660  0.5281E-01  0.1340E-02
    -14.650  0.8305E-01  0.2171E-02
    -14.640  0.1280E+00  0.3451E-02
    -14.630  0.1935E+00  0.5386E-02
    -14.620  0.2866E+00  0.8252E-02
    -14.610  0.4162E+00  0.1241E-01
    -14.600  0.5924E+00  0.1834E-01
    -14.590  0.8264E+00  0.2660E-01
    -14.580  0.1130E+01  0.3790E-01
    -14.570  0.1515E+01  0.5306E-01
    -14.560  0.1991E+01  0.7297E-01
    -14.550  0.2565E+01  0.9861E-01
    -14.540  0.3238E+01  0.1310E+00
    -14.530  0.4008E+01  0.1711E+00
    -14.520  0.4862E+01  0.2197E+00
    -14.510  0.5782E+01  0.2775E+00
    -14.500  0.6740E+01  0.3449E+00
    -14.490  0.7701E+01  0.4219E+00
    -14.480  0.8626E+01  0.5082E+00
    -14.470  0.9471E+01  0.6029E+00
    -14.460  0.1019E+02  0.7048E+00
    -14.450  0.1075E+02  0.8123E+00
    -14.440  0.1112E+02  0.9235E+00
    -14.430  0.1127E+02  0.1036E+01
    -14.420  0.1120E+02  0.1148E+01
    -14.410  0.1091E+02  0.1257E+01
    -14.400  0.1041E+02  0.1361E+01
    -14.390  0.9745E+01  0.1459E+01
    -14.380  0.8939E+01  0.1548E+01
    -14.370  0.8038E+01  0.1629E+01
    -14.360  0.7085E+01  0.1700E+01
    -14.350  0.6122E+01  0.1761E+01
    -14.340  0.5185E+01  0.1813E+01
    -14.330  0.4304E+01  0.1856E+01
    -14.320  0.3503E+01  0.1891E+01
    -14.310  0.2794E+01  0.1919E+01
    -14.300  0.2185E+01  0.1940E+01
    -14.290  0.1674E+01  0.1957E+01
    -14.280  0.1258E+01  0.1970E+01
    -14.270  0.9264E+00  0.1979E+01
    -14.260  0.6688E+00  0.1986E+01
    -14.250  0.4732E+00  0.1990E+01
    -14.240  0.3283E+00  0.1994E+01
    -14.230  0.2232E+00  0.1996E+01
    -14.220  0.1487E+00  0.1997E+01
    -14.210  0.9718E-01  0.1998E+01
    -14.200  0.6223E-01  0.1999E+01
    -14.190  0.3906E-01  0.1999E+01
    -14.180  0.2404E-01  0.2000E+01
    -14.170  0.1450E-01  0.2000E+01
    -14.160  0.8572E-02  0.2000E+01
    -14.150  0.4968E-02  0.2000E+01
    -14.140  0.2822E-02  0.2000E+01
    -14.130  0.1571E-02  0.2000E+01
    -14.120  0.8578E-03  0.2000E+01
    -14.110  0.4590E-03  0.2000E+01
    -14.100  0.2407E-03  0.2000E+01
    -14.090  0.1238E-03  0.2000E+01
    -14.080  0.6236E-04  0.2000E+01
    -14.070  0.3081E-04  0.2000E+01
    -14.060  0.1492E-04  0.2000E+01
    -14.050  0.7080E-05  0.2000E+01
    -14.040  0.3294E-05  0.2000E+01
    -14.030  0.1502E-05  0.2000E+01
    -14.020  0.6716E-06  0.2000E+01
    -14.010  0.2943E-06  0.2000E+01
    -14.000  0.1264E-06  0.2000E+01
    -13.990  0.5323E-07  0.2000E+01
    -13.980  0.2197E-07  0.2000E+01
    -13.970  0.8888E-08  0.2000E+01
    -13.960  0.3525E-08  0.2000E+01
    -13.950  0.1370E-08  0.2000E+01
    -13.940  0.5221E-09  0.2000E+01
    -13.930  0.1952E-09  0.2000E+01
    -13.920  0.7194E-10  0.2000E+01
    -13.910  0.2729E-10  0.2000E+01
    -13.900  0.1402E-10  0.2000E+01
    -13.890  0.1776E-10  0.2000E+01
    -13.880  0.4320E-10  0.2000E+01
    -13.870  0.1192E-09  0.2000E+01
    -13.860  0.3285E-09  0.2000E+01
    -13.850  0.8893E-09  0.2000E+01
    -13.840  0.2361E-08  0.2000E+01
    -13.830  0.6143E-08  0.2000E+01
    -13.820  0.1567E-07  0.2000E+01
    -13.810  0.3918E-07  0.2000E+01
    -13.800  0.9604E-07  0.2000E+01
    -13.790  0.2307E-06  0.2000E+01
    -13.780  0.5434E-06  0.2000E+01
    -13.770  0.1254E-05  0.2000E+01
    -13.760  0.2839E-05  0.2000E+01
    -13.750  0.6296E-05  0.2000E+01
    -13.740  0.1369E-04  0.2000E+01
    -13.730  0.2918E-04  0.2000E+01
    -13.720  0.6095E-04  0.2000E+01
    -13.710  0.1248E-03  0.2000E+01
    -13.700  0.2506E-03  0.2000E+01
    -13.690  0.4930E-03  0.2000E+01
    -13.680  0.9509E-03  0.2000E+01
    -13.670  0.1798E-02  0.2000E+01
    -13.660  0.3332E-02  0.2000E+01
    -13.650  0.6053E-02  0.2000E+01
    -13.640  0.1078E-01  0.2000E+01
    -13.630  0.1881E-01  0.2000E+01
    -13.620  0.3219E-01  0.2001E+01
    -13.610  0.5399E-01  0.2001E+01
    -13.600  0.8876E-01  0.2002E+01
    -13.590  0.1430E+00  0.2004E+01
    -13.580  0.2260E+00  0.2006E+01
    -13.570  0.3499E+00  0.2009E+01
    -13.560  0.5310E+00  0.2015E+01
    -13.550  0.7901E+00  0.2023E+01
    -13.540  0.1152E+01  0.2034E+01
    -13.530  0.1647E+01  0.2051E+01
    -13.520  0.2308E+01  0.2074E+01
    -13.510  0.3171E+01  0.2105E+01
    -13.500  0.4269E+01  0.2148E+01
    -13.490  0.5635E+01  0.2204E+01
    -13.480  0.7290E+01  0.2277E+01
    -13.470  0.9245E+01  0.2370E+01
    -13.460  0.1149E+02  0.2485E+01
    -13.450  0.1400E+02  0.2625E+01
    -13.440  0.1673E+02  0.2792E+01
    -13.430  0.1958E+02  0.2988E+01
    -13.420  0.2248E+02  0.3213E+01
    -13.410  0.2528E+02  0.3465E+01
    -13.400  0.2788E+02  0.3744E+01
    -13.390  0.3014E+02  0.4046E+01
    -13.380  0.3194E+02  0.4365E+01
    -13.370  0.3317E+02  0.4697E+01
    -13.360  0.3377E+02  0.5034E+01
    -13.350  0.3370E+02  0.5371E+01
    -13.340  0.3297E+02  0.5701E+01
    -13.330  0.3161E+02  0.6017E+01
    -13.320  0.2972E+02  0.6314E+01
    -13.310  0.2738E+02  0.6588E+01
    -13.300  0.2473E+02  0.6835E+01
    -13.290  0.2189E+02  0.7054E+01
    -13.280  0.1900E+02  0.7244E+01
    -13.270  0.1616E+02  0.7406E+01
    -13.260  0.1347E+02  0.7541E+01
    -13.250  0.1101E+02  0.7651E+01
    -13.240  0.8824E+01  0.7739E+01
    -13.230  0.6930E+01  0.7808E+01
    -13.220  0.5335E+01  0.7862E+01
    -13.210  0.4026E+01  0.7902E+01
    -13.200  0.2978E+01  0.7932E+01
    -13.190  0.2159E+01  0.7953E+01
    -13.180  0.1534E+01  0.7969E+01
    -13.170  0.1069E+01  0.7979E+01
    -13.160  0.7300E+00  0.7987E+01
    -13.150  0.4887E+00  0.7991E+01
    -13.140  0.3207E+00  0.7995E+01
    -13.130  0.2063E+00  0.7997E+01
    -13.120  0.1300E+00  0.7998E+01
    -13.110  0.8037E-01  0.7999E+01
    -13.100  0.4869E-01  0.7999E+01
    -13.090  0.2891E-01  0.8000E+01
    -13.080  0.1683E-01  0.8000E+01
    -13.070  0.9603E-02  0.8000E+01
    -13.060  0.5371E-02  0.8000E+01
    -13.050  0.2944E-02  0.8000E+01
    -13.040  0.1582E-02  0.8000E+01
    -13.030  0.8336E-03  0.8000E+01
    -13.020  0.4304E-03  0.8000E+01
    -13.010  0.2179E-03  0.8000E+01
    -13.000  0.1081E-03  0.8000E+01
    -12.990  0.5257E-04  0.8000E+01
    -12.980  0.2506E-04  0.8000E+01
    -12.970  0.1171E-04  0.8000E+01
    -12.960  0.5365E-05  0.8000E+01
    -12.950  0.2409E-05  0.8000E+01
    -12.940  0.1060E-05  0.8000E+01
    -12.930  0.4574E-06  0.8000E+01
    -12.920  0.1934E-06  0.8000E+01
    -12.910  0.8019E-07  0.8000E+01
    -12.900  0.3258E-07  0.8000E+01
    -12.890  0.1298E-07  0.8000E+01
    -12.880  0.5067E-08  0.8000E+01
    -12.870  0.1939E-08  0.8000E+01
    -12.860  0.7276E-09  0.8000E+01
    -12.850  0.2675E-09  0.8000E+01
    -12.840  0.9646E-10  0.8000E+01
    -12.830  0.3408E-10  0.8000E+01
    -12.820  0.1179E-10  0.8000E+01
    -12.810  0.3997E-11  0.8000E+01
    -12.800  0.1332E-11  0.8000E+01
    -12.790  0.4663E-12  0.8000E+01
    -12.780  0.1332E-12  0.8000E+01
    -12.770  0.6661E-13  0.8000E+01
    -12.760  0.0000E+00  0.8000E+01
    -12.750  0.0000E+00  0.8000E+01
    -12.740  0.0000E+00  0.8000E+01
    -12.730  0.0000E+00  0.8000E+01
    -12.720  0.0000E+00  0.8000E+01
    -12.710  0.0000E+00  0.8000E+01
    -12.700  0.0000E+00  0.8000E+01
    -12.690  0.0000E+00  0.8000E+01
    -12.680  0.0000E+00  0.8000E+01
    -12.670  0.0000E+00  0.8000E+01
    -12.660  0.0000E+00  0.8000E+01
    -12.650  0.0000E+00  0.8000E+01
    -12.640  0.0000E+00  0.8000E+01
    -12.630  0.0000E+00  0.8000E+01
    -12.620  0.0000E+00  0.8000E+01
    -12.610  0.0000E+00  0.8000E+01
    -12.600  0.0000E+00  0.8000E+01
    -12.590  0.0000E+00  0.8000E+01
    -12.580  0.0000E+00  0.8000E+01
    -12.570  0.0000E+00  0.8000E+01
    -12.560  0.0000E+00  0.8000E+01
    -12.550  0.0000E+00  0.8000E+01
    -12.540  0.0000E+00  0.8000E+01
    -12.530  0.0000E+00  0.8000E+01
    -12.520  0.0000E+00  0.8000E+01
    -12.510  0.0000E+00  0.8000E+01
    -12.500  0.0000E+00  0.8000E+01
    -12.490  0.0000E+00  0.8000E+01
    -12.480  0.0000E+00  0.8000E+01
    -12.470  0.0000E+00  0.8000E+01
    -12.460  0.0000E+00  0.8000E+01
    -12.450  0.0000E+00  0.8000E+01
    -12.440  0.0000E+00  0.8000E+01
    -12.430  0.0000E+00  0.8000E+01
    -12.420  0.0000E+00  0.8000E+01
    -12.410  0.0000E+00  0.8000E+01
    -12.400  0.0000E+00  0.8000E+01
    -12.390  0.0000E+00  0.8000E+01
    -12.380  0.0000E+00  0.8000E+01
    -12.370  0.0000E+00  0.8000E+01
    -12.360  0.0000E+00  0.8000E+01
    -12.350  0.0000E+00  0.8000E+01
    -12.340  0.0000E+00  0.8000E+01
    -12.330  0.0000E+00  0.8000E+01
    -12.320  0.0000E+00  0.8000E+01
    -12.310  0.0000E+00  0.8000E+01
    -12.300  0.0000E+00  0.8000E+01
    -12.290  0.0000E+00  0.8000E+01
    -12.280  0.0000E+00  0.8000E+01
    -12.270  0.0000E+00  0.8000E+01
    -12.260  0.0000E+00  0.8000E+01
    -12.250  0.0000E+00  0.8000E+01
    -12.240  0.0000E+00  0.8000E+01
    -12.230  0.0000E+00  0.8000E+01
    -12.220  0.0000E+00  0.8000E+01
    -12.210  0.0000E+00  0.8000E+01
    -12.200  0.0000E+00  0.8000E+01
    -12.190  0.0000E+00  0.8000E+01
    -12.180  0.0000E+00  0.8000E+01
    -12.170  0.0000E+00  0.8000E+01
    -12.160  0.0000E+00  0.8000E+01
    -12.150  0.0000E+00  0.8000E+01
    -12.140  0.0000E+00  0.8000E+01
    -12.130  0.0000E+00  0.8000E+01
    -12.120  0.0000E+00  0.8000E+01
    -12.110  0.0000E+00  0.8000E+01
    -12.100  0.0000E+00  0.8000E+01
    -12.090  0.0000E+00  0.8000E+01
    -12.080  0.0000E+00  0.8000E+01
    -12.070  0.0000E+00  0.8000E+01
    -12.060  0.0000E+00  0.8000E+01
    -12.050  0.0000E+00  0.8000E+01
    -12.040  0.0000E+00  0.8000E+01
    -12.030  0.0000E+00  0.8000E+01
    -12.020  0.0000E+00  0.8000E+01
    -12.010  0.0000E+00  0.8000E+01
    -12.000  0.0000E+00  0.8000E+01
    -11.990  0.0000E+00  0.8000E+01
    -11.980  0.0000E+00  0.8000E+01
    -11.970  0.0000E+00  0.8000E+01
    -11.960  0.0000E+00  0.8000E+01
    -11.950  0.0000E+00  0.8000E+01
    -11.940  0.0000E+00  0.8000E+01
    -11.930  0.0000E+00  0.8000E+01
    -11.920  0.0000E+00  0.8000E+01
    -11.910  0.0000E+00  0.8000E+01
    -11.900  0.0000E+00  0.8000E+01
    -11.890  0.0000E+00  0.8000E+01
    -11.880  0.0000E+00  0.8000E+01
    -11.870  0.0000E+00  0.8000E+01
    -11.860  0.0000E+00  0.8000E+01
    -11.850  0.0000E+00  0.8000E+01
    -11.840  0.0000E+00  0.8000E+01
    -11.830  0.0000E+00  0.8000E+01
    -11.820  0.0000E+00  0.8000E+01
    -11.810  0.0000E+00  0.8000E+01
    -11.800  0.0000E+00  0.8000E+01
    -11.790  0.0000E+00  0.8000E+01
    -11.780  0.0000E+00  0.8000E+01
    -11.770  0.0000E+00  0.8000E+01
    -11.760  0.0000E+00  0.8000E+01
    -11.750  0.0000E+00  0.8000E+01
    -11.740  0.0000E+00  0.8000E+01
    -11.730  0.0000E+00  0.8000E+01
    -11.720  0.0000E+00  0.8000E+01
    -11.710  0.0000E+00  0.8000E+01
    -11.700  0.0000E+00  0.8000E+01
    -11.690  0.2220E-13  0.8000E+01
    -11.680  0.2220E-13  0.8000E+01
    -11.670  0.8882E-13  0.8000E+01
    -11.660  0.2887E-12  0.8000E+01
    -11.650  0.9104E-12  0.8000E+01
    -11.640  0.2709E-11  0.8000E+01
    -11.630  0.7971E-11  0.8000E+01
    -11.620  0.2303E-10  0.8000E+01
    -11.610  0.6515E-10  0.8000E+01
    -11.600  0.1807E-09  0.8000E+01
    -11.590  0.4912E-09  0.8000E+01
    -11.580  0.1309E-08  0.8000E+01
    -11.570  0.3419E-08  0.8000E+01
    -11.560  0.8755E-08  0.8000E+01
    -11.550  0.2198E-07  0.8000E+01
    -11.540  0.5407E-07  0.8000E+01
    -11.530  0.1304E-06  0.8000E+01
    -11.520  0.3082E-06  0.8000E+01
    -11.510  0.7143E-06  0.8000E+01
    -11.500  0.1622E-05  0.8000E+01
    -11.490  0.3613E-05  0.8000E+01
    -11.480  0.7885E-05  0.8000E+01
    -11.470  0.1687E-04  0.8000E+01
    -11.460  0.3537E-04  0.8000E+01
    -11.450  0.7272E-04  0.8000E+01
    -11.440  0.1465E-03  0.8000E+01
    -11.430  0.2894E-03  0.8000E+01
    -11.420  0.5603E-03  0.8000E+01
    -11.410  0.1063E-02  0.8000E+01
    -11.400  0.1978E-02  0.8000E+01
    -11.390  0.3608E-02  0.8000E+01
    -11.380  0.6449E-02  0.8000E+01
    -11.370  0.1130E-01  0.8000E+01
    -11.360  0.1941E-01  0.8000E+01
    -11.350  0.3268E-01  0.8001E+01
    -11.340  0.5393E-01  0.8001E+01
    -11.330  0.8726E-01  0.8002E+01
    -11.320  0.1384E+00  0.8004E+01
    -11.310  0.2151E+00  0.8006E+01
    -11.300  0.3279E+00  0.8009E+01
    -11.290  0.4898E+00  0.8014E+01
    -11.280  0.7174E+00  0.8021E+01
    -11.270  0.1030E+01  0.8031E+01
    -11.260  0.1450E+01  0.8046E+01
    -11.250  0.2002E+01  0.8066E+01
    -11.240  0.2709E+01  0.8093E+01
    -11.230  0.3595E+01  0.8129E+01
    -11.220  0.4680E+01  0.8176E+01
    -11.210  0.5975E+01  0.8235E+01
    -11.200  0.7484E+01  0.8310E+01
    -11.190  0.9201E+01  0.8402E+01
    -11.180  0.1111E+02  0.8513E+01
    -11.170  0.1316E+02  0.8645E+01
    -11.160  0.1534E+02  0.8798E+01
    -11.150  0.1757E+02  0.8974E+01
    -11.140  0.1982E+02  0.9172E+01
    -11.130  0.2203E+02  0.9393E+01
    -11.120  0.2416E+02  0.9634E+01
    -11.110  0.2619E+02  0.9896E+01
    -11.100  0.2811E+02  0.1018E+02
    -11.090  0.2993E+02  0.1048E+02
    -11.080  0.3168E+02  0.1079E+02
    -11.070  0.3339E+02  0.1113E+02
    -11.060  0.3510E+02  0.1148E+02
    -11.050  0.3685E+02  0.1185E+02
    -11.040  0.3865E+02  0.1223E+02
    -11.030  0.4048E+02  0.1264E+02
    -11.020  0.4231E+02  0.1306E+02
    -11.010  0.4407E+02  0.1350E+02
    -11.000  0.4567E+02  0.1396E+02
    -10.990  0.4698E+02  0.1443E+02
    -10.980  0.4790E+02  0.1491E+02
    -10.970  0.4830E+02  0.1539E+02
    -10.960  0.4810E+02  0.1587E+02
    -10.950  0.4724E+02  0.1634E+02
    -10.940  0.4570E+02  0.1680E+02
    -10.930  0.4352E+02  0.1724E+02
    -10.920  0.4075E+02  0.1764E+02
    -10.910  0.3750E+02  0.1802E+02
    -10.900  0.3390E+02  0.1836E+02
    -10.890  0.3009E+02  0.1866E+02
    -10.880  0.2623E+02  0.1892E+02
    -10.870  0.2244E+02  0.1914E+02
    -10.860  0.1884E+02  0.1933E+02
    -10.850  0.1552E+02  0.1949E+02
    -10.840  0.1255E+02  0.1961E+02
    -10.830  0.9950E+01  0.1971E+02
    -10.820  0.7742E+01  0.1979E+02
    -10.810  0.5910E+01  0.1985E+02
    -10.800  0.4426E+01  0.1989E+02
    -10.790  0.3252E+01  0.1993E+02
    -10.780  0.2343E+01  0.1995E+02
    -10.770  0.1657E+01  0.1997E+02
    -10.760  0.1149E+01  0.1998E+02
    -10.750  0.7817E+00  0.1999E+02
    -10.740  0.5217E+00  0.1999E+02
    -10.730  0.3415E+00  0.1999E+02
    -10.720  0.2193E+00  0.2000E+02
    -10.710  0.1382E+00  0.2000E+02
    -10.700  0.8538E-01  0.2000E+02
    -10.690  0.5176E-01  0.2000E+02
    -10.680  0.3078E-01  0.2000E+02
    -10.670  0.1795E-01  0.2000E+02
    -10.660  0.1027E-01  0.2000E+02
    -10.650  0.5765E-02  0.2000E+02
    -10.640  0.3174E-02  0.2000E+02
    -10.630  0.1714E-02  0.2000E+02
    -10.620  0.9078E-03  0.2000E+02
    -10.610  0.4716E-03  0.2000E+02
    -10.600  0.2403E-03  0.2000E+02
    -10.590  0.1201E-03  0.2000E+02
    -10.580  0.5890E-04  0.2000E+02
    -10.570  0.2832E-04  0.2000E+02
    -10.560  0.1336E-04  0.2000E+02
    -10.550  0.6179E-05  0.2000E+02
    -10.540  0.2803E-05  0.2000E+02
    -10.530  0.1247E-05  0.2000E+02
    -10.520  0.5444E-06  0.2000E+02
    -10.510  0.2330E-06  0.2000E+02
    -10.500  0.9779E-07  0.2000E+02
    -10.490  0.4026E-07  0.2000E+02
    -10.480  0.1625E-07  0.2000E+02
    -10.470  0.6434E-08  0.2000E+02
    -10.460  0.2498E-08  0.2000E+02
    -10.450  0.9510E-09  0.2000E+02
    -10.440  0.3550E-09  0.2000E+02
    -10.430  0.1300E-09  0.2000E+02
    -10.420  0.4665E-10  0.2000E+02
    -10.410  0.1643E-10  0.2000E+02
    -10.400  0.5662E-11  0.2000E+02
    -10.390  0.1910E-11  0.2000E+02
    -10.380  0.7105E-12  0.2000E+02
    -10.370  0.1776E-12  0.2000E+02
    -10.360  0.6661E-13  0.2000E+02
    -10.350  0.2220E-13  0.2000E+02
    -10.340  0.0000E+00  0.2000E+02
    -10.330  0.0000E+00  0.2000E+02
    -10.320  0.0000E+00  0.2000E+02
    -10.310  0.0000E+00  0.2000E+02
    -10.300  0.0000E+00  0.2000E+02
    -10.290  0.0000E+00  0.2000E+02
    -10.280  0.0000E+00  0.2000E+02
    -10.270  0.0000E+00  0.2000E+02
    -10.260  0.0000E+00  0.2000E+02
    -10.250  0.0000E+00  0.2000E+02
    -10.240  0.0000E+00  0.2000E+02
    -10.230  0.0000E+00  0.2000E+02
    -10.220  0.0000E+00  0.2000E+02
    -10.210  0.0000E+00  0.2000E+02
    -10.200  0.0000E+00  0.2000E+02
    -10.190  0.0000E+00  0.2000E+02
    -10.180  0.0000E+00  0.2000E+02
    -10.170  0.0000E+00  0.2000E+02
    -10.160  0.0000E+00  0.2000E+02
    -10.150  0.0000E+00  0.2000E+02
    -10.140  0.0000E+00  0.2000E+02
    -10.130  0.0000E+00  0.2000E+02
    -10.120  0.0000E+00  0.2000E+02
    -10.110  0.0000E+00  0.2000E+02
    -10.100  0.0000E+00  0.2000E+02
    -10.090  0.0000E+00  0.2000E+02
    -10.080  0.0000E+00  0.2000E+02
    -10.070  0.0000E+00  0.2000E+02
    -10.060  0.0000E+00  0.2000E+02
    -10.050  0.0000E+00  0.2000E+02
    -10.040  0.0000E+00  0.2000E+02
    -10.030  0.0000E+00  0.2000E+02
    -10.020  0.0000E+00  0.2000E+02
    -10.010  0.0000E+00  0.2000E+02
    -10.000  0.0000E+00  0.2000E+02
     -9.990  0.0000E+00  0.2000E+02
     -9.980  0.0000E+00  0.2000E+02
     -9.970  0.0000E+00  0.2000E+02
     -9.960  0.0000E+00  0.2000E+02
     -9.950  0.0000E+00  0.2000E+02
     -9.940  0.0000E+00  0.2000E+02
     -9.930  0.0000E+00  0.2000E+02
     -9.920  0.0000E+00  0.2000E+02
     -9.910  0.0000E+00  0.2000E+02
     -9.900  0.0000E+00  0.2000E+02
     -9.890  0.0000E+00  0.2000E+02
     -9.880  0.0000E+00  0.2000E+02
     -9.870  0.0000E+00  0.2000E+02
     -9.860  0.0000E+00  0.2000E+02
     -9.850  0.0000E+00  0.2000E+02
     -9.840  0.0000E+00  0.2000E+02
     -9.830  0.0000E+00  0.2000E+02
     -9.820  0.0000E+00  0.2000E+02
     -9.810  0.0000E+00  0.2000E+02
     -9.800  0.0000E+00  0.2000E+02
     -9.790  0.0000E+00  0.2000E+02
     -9.780  0.0000E+00  0.2000E+02
     -9.770  0.0000E+00  0.2000E+02
     -9.760  0.0000E+00  0.2000E+02
     -9.750  0.0000E+00  0.2000E+02
     -9.740  0.0000E+00  0.2000E+02
     -9.730  0.0000E+00  0.2000E+02
     -9.720  0.0000E+00  0.2000E+02
     -9.710  0.0000E+00  0.2000E+02
     -9.700  0.0000E+00  0.2000E+02
     -9.690  0.0000E+00  0.2000E+02
     -9.680  0.0000E+00  0.2000E+02
     -9.670  0.0000E+00  0.2000E+02
     -9.660  0.0000E+00  0.2000E+02
     -9.650  0.0000E+00  0.2000E+02
     -9.640  0.0000E+00  0.2000E+02
     -9.630  0.0000E+00  0.2000E+02
     -9.620  0.0000E+00  0.2000E+02
     -9.610  0.0000E+00  0.2000E+02
     -9.600  0.0000E+00  0.2000E+02
     -9.590  0.0000E+00  0.2000E+02
     -9.580  0.0000E+00  0.2000E+02
     -9.570  0.0000E+00  0.2000E+02
     -9.560  0.0000E+00  0.2000E+02
     -9.550  0.0000E+00  0.2000E+02
     -9.540  0.3331E-13  0.2000E+02
     -9.530  0.6661E-13  0.2000E+02
     -9.520  0.1998E-12  0.2000E+02
     -9.510  0.5995E-12  0.2000E+02
     -9.500  0.1865E-11  0.2000E+02
     -9.490  0.5607E-11  0.2000E+02
     -9.480  0.1640E-10  0.2000E+02
     -9.470  0.4703E-10  0.2000E+02
     -9.460  0.1323E-09  0.2000E+02
     -9.450  0.3647E-09  0.2000E+02
     -9.440  0.9858E-09  0.2000E+02
     -9.430  0.2612E-08  0.2000E+02
     -9.420  0.6782E-08  0.2000E+02
     -9.410  0.1726E-07  0.2000E+02
     -9.400  0.4308E-07  0.2000E+02
     -9.390  0.1054E-06  0.2000E+02
     -9.380  0.2526E-06  0.2000E+02
     -9.370  0.5937E-06  0.2000E+02
     -9.360  0.1368E-05  0.2000E+02
     -9.350  0.3088E-05  0.2000E+02
     -9.340  0.6836E-05  0.2000E+02
     -9.330  0.1483E-04  0.2000E+02
     -9.320  0.3154E-04  0.2000E+02
     -9.310  0.6576E-04  0.2000E+02
     -9.300  0.1344E-03  0.2000E+02
     -9.290  0.2692E-03  0.2000E+02
     -9.280  0.5286E-03  0.2000E+02
     -9.270  0.1017E-02  0.2000E+02
     -9.260  0.1920E-02  0.2000E+02
     -9.250  0.3550E-02  0.2000E+02
     -9.240  0.6436E-02  0.2000E+02
     -9.230  0.1144E-01  0.2000E+02
     -9.220  0.1992E-01  0.2000E+02
     -9.210  0.3401E-01  0.2000E+02
     -9.200  0.5692E-01  0.2000E+02
     -9.190  0.9339E-01  0.2000E+02
     -9.180  0.1502E+00  0.2000E+02
     -9.170  0.2367E+00  0.2001E+02
     -9.160  0.3658E+00  0.2001E+02
     -9.150  0.5541E+00  0.2002E+02
     -9.140  0.8227E+00  0.2002E+02
     -9.130  0.1197E+01  0.2004E+02
     -9.120  0.1708E+01  0.2005E+02
     -9.110  0.2388E+01  0.2008E+02
     -9.100  0.3274E+01  0.2011E+02
     -9.090  0.4399E+01  0.2015E+02
     -9.080  0.5794E+01  0.2021E+02
     -9.070  0.7480E+01  0.2029E+02
     -9.060  0.9466E+01  0.2038E+02
     -9.050  0.1174E+02  0.2050E+02
     -9.040  0.1428E+02  0.2064E+02
     -9.030  0.1702E+02  0.2081E+02
     -9.020  0.1989E+02  0.2101E+02
     -9.010  0.2278E+02  0.2124E+02
     -9.000  0.2557E+02  0.2149E+02
     -8.990  0.2814E+02  0.2177E+02
     -8.980  0.3035E+02  0.2208E+02
     -8.970  0.3209E+02  0.2240E+02
     -8.960  0.3326E+02  0.2273E+02
     -8.950  0.3379E+02  0.2307E+02
     -8.940  0.3366E+02  0.2341E+02
     -8.930  0.3285E+02  0.2373E+02
     -8.920  0.3144E+02  0.2405E+02
     -8.910  0.2949E+02  0.2434E+02
     -8.900  0.2711E+02  0.2462E+02
     -8.890  0.2444E+02  0.2486E+02
     -8.880  0.2159E+02  0.2508E+02
     -8.870  0.1870E+02  0.2526E+02
     -8.860  0.1587E+02  0.2542E+02
     -8.850  0.1321E+02  0.2555E+02
     -8.840  0.1077E+02  0.2566E+02
     -8.830  0.8612E+01  0.2575E+02
     -8.820  0.6749E+01  0.2581E+02
     -8.810  0.5185E+01  0.2587E+02
     -8.800  0.3904E+01  0.2591E+02
     -8.790  0.2882E+01  0.2593E+02
     -8.780  0.2085E+01  0.2596E+02
     -8.770  0.1479E+01  0.2597E+02
     -8.760  0.1028E+01  0.2598E+02
     -8.750  0.7007E+00  0.2599E+02