   14   14    1    1
  0.3783029E+03  0.1743101E-08  0.1743101E-08  0.1743101E-08  0.5000000E-15
  1.000000000000000E-004
  CAR 
 unknown system                          
     56      1     36
 
  0.0000000E+00  0.0000000E+00  0.0000000E+00  0.1000000E+01
    1      -14.433212   1.000000
    2      -13.361034   1.000000
    3      -13.361010   1.000000
    4      -13.361001   1.000000
    5      -11.099112   1.000000
    6      -11.099112   1.000000
    7      -10.966028   1.000000
    8      -10.966013   1.000000
    9      -10.966005   1.000000
   10      -10.938946   1.000000
   11       -8.952070   1.000000
   12       -8.952060   1.000000
   13       -8.952053   1.000000
   14       -6.844072   1.000000
   15       -6.844069   1.000000
   16       -6.844065   1.000000
   17       -6.664228   1.000000
   18       -6.335130   1.000000
   19       -5.534164   1.000000
   20       -5.534162   1.000000
   21       -5.534157   1.000000
   22       -5.278105   1.000000
   23       -5.278098   1.000000
   24       -5.278086   1.000000
   25       -3.998861   0.995176
   26       -3.998860   0.995176
   27       -3.904526   0.895095
   28       -3.904525   0.895093
   29       -3.713129   0.073157
   30       -3.713113   0.073126
   31       -3.713099   0.073098
   32       -3.529906   0.000026
   33       -3.529904   0.000026
   34       -3.529891   0.000026
   35       -3.298826   0.000000
   36       -3.018863   0.000000
