unknown system                          
   1.00000000000000     
    17.431010    0.000000    0.000000
     0.000000   17.431010    0.000000
     0.000000    0.000000   17.431010
   Si
    14
Direct
  0.000000  0.000000  0.000000
  0.155786  0.155786  0.000000
  0.077893  0.077893  0.077893
  0.233679  0.233679  0.077893
  0.000000  0.155786  0.155786
  0.155786  0.000000  0.155786
  0.077893  0.233679  0.233679
  0.233679  0.077893  0.233679
  0.155786  0.155786  0.311572
  0.155786  0.311572  0.155786
  0.000000  0.311572  0.311572
  0.311572  0.155786  0.155786
  0.311572  0.000000  0.311572
  0.311572  0.311572  0.000000
 
   70   70   70
 0.19786     0.21860     0.43776     0.63664     0.68641     0.61490     0.49369     0.37254     0.25773     0.16640    
 0.10646     0.65671E-01 0.39937E-01 0.22980E-01 0.13437E-01 0.75301E-02 0.46070E-02 0.27093E-02 0.18730E-02 0.10926E-02
 0.82923E-03 0.37115E-03 0.24656E-03 0.12159E-03 0.16874E-03 0.96672E-04 0.11991E-03 0.97634E-04 0.32044E-03 0.14086E-03
 0.67803E-03 0.13539E-03 0.10932E-03 0.30796E-03 0.23418E-04 0.27454E-05 0.36926E-05 0.47259E-06 0.10454E-05 0.34585E-06
 0.17741E-06 0.10901E-06 0.26914E-05 0.62561E-08 0.32906E-08 0.22606E-08 0.25116E-08 0.29269E-08 0.28692E-08 0.28543E-07
 0.26266E-07 0.76201E-05 0.25919E-05 0.49140E-04 0.41053E-03 0.87761E-03 0.74474     0.18683E-01 0.13428     0.13920    
 0.35359     0.46926     0.68037     0.82049     0.89761     0.93522     0.94945     0.93291     0.82915     0.48193    
 0.21860     0.30248     0.54951     0.70884     0.73039     0.65660     0.54734     0.42927     0.31067     0.21140    
 0.13957     0.88378E-01 0.55675E-01 0.34341E-01 0.21370E-01 0.12438E-01 0.76306E-02 0.45366E-02 0.30373E-02 0.17589E-02
 0.13410E-02 0.75157E-03 0.54620E-03 0.27602E-03 0.28244E-03 0.21111E-03 0.25122E-03 0.18377E-03 0.46494E-03 0.30611E-03
 0.97344E-03 0.17123E-03 0.24565E-01 0.18604E-03 0.52214E-04 0.10377E-04 0.77542E-04 0.76792E-06 0.75869E-06 0.31495E-06
 0.16227E-06 0.10433E-06 0.90969E-03 0.76927E-08 0.45559E-08 0.22113E-08 0.22005E-08 0.25652E-08 0.25761E-08 0.20228E-07
 0.22319E-07 0.78397E-05 0.25293E-05 0.45266E-04 0.37956E-03 0.78704E-03 0.88647     0.15064E-01 0.11119     0.11616    
 0.30407     0.41550     0.62861     0.77681     0.86505     0.91097     0.92818     0.90272     0.76543     0.42099    
 0.43776     0.54950     0.71112     0.78001     0.76016     0.68217     0.57996     0.45870     0.33898     0.24250    
 0.17121     0.11756     0.79326E-01 0.53629E-01 0.36261E-01 0.22744E-01 0.14079E-01 0.86441E-02 0.55269E-02 0.31317E-02
 0.19828E-02 0.11226E-02 0.76131E-03 0.47464E-03 0.44424E-03 0.42035E-03 0.47797E-03 0.40239E-03 0.62061E-03 0.59202E-03
 0.10328E-02 0.29349E-03 0.61141E-03 0.17895E-03 0.22014     0.51651E-03 0.48590E-04 0.18048E-04 0.99289E-06 0.11028E-05
 0.35623E-06 0.35959E-06 0.76158E-06 0.45035E-07 0.61910E-07 0.14223E-07 0.14545E-07 0.19786E-07 0.14397E-07 0.26990E-06
 0.10092E-06 0.41835E-05 0.94443E-05 0.64962E-04 0.16305E-02 0.11598E-02 0.72896E-01 0.14652E-01 0.68652E-01 0.94509E-01
 0.22918     0.34300     0.53569     0.69627     0.80346     0.86308     0.88833     0.86465     0.75236     0.54110    
 0.63664     0.70884     0.78001     0.79328     0.75324     0.67995     0.57841     0.45879     0.35389     0.27661    
 0.22035     0.17197     0.12903     0.95667E-01 0.69029E-01 0.45750E-01 0.28563E-01 0.17555E-01 0.10665E-01 0.58625E-02
 0.32135E-02 0.18366E-02 0.12415E-02 0.89481E-03 0.73029E-03 0.69846E-03 0.85386E-03 0.85669E-03 0.87948E-03 0.10068E-02
 0.13732E-02 0.64759E-03 0.60952E-03 0.32174E-03 0.41730E-03 0.91990E-04 0.10022E-03 0.72774E-04 0.36905E-05 0.11389E-02
 0.28384E-05 0.87945E-05 0.15081E-05 0.23492E-05 0.43438E-05 0.26589E-05 0.27062E-04 0.12839E-04 0.15845E-05 0.44537E-05
 0.64200E-05 0.10543E-04 0.68200E-03 0.17856E-03 0.13963E-01 0.20744E-02 0.11935E-01 0.15015E-01 0.40627E-01 0.72134E-01
 0.15398     0.25755     0.40892     0.56957     0.69752     0.77454     0.81252     0.80619     0.74591     0.65775    
 0.68640     0.73039     0.76016     0.75324     0.71422     0.64357     0.54545     0.45198     0.38450     0.34061    
 0.30802     0.27044     0.22649     0.18352     0.14028     0.95960E-01 0.58964E-01 0.34448E-01 0.19503E-01 0.10319E-01
 0.52772E-02 0.28229E-02 0.17932E-02 0.14162E-02 0.12379E-02 0.11482E-02 0.13416E-02 0.15556E-02 0.15007E-02 0.13416E-02
 0.15902E-02 0.10775E-02 0.10557E-02 0.56929E-03 0.73981E-03 0.94588E-04 0.10543E-02 0.20171E-04 0.13004E-01 0.18603E-05
 0.14126E-04 0.14057E-04 0.22178E-03 0.97274E-05 0.15629E-02 0.83833E-05 0.54716E-05 0.25863E-04 0.41437E-05 0.16325E-03
 0.33374E-05 0.34022E-02 0.86932E-04 0.59052E-03 0.87878E-03 0.22115E-02 0.42946E-02 0.11333E-01 0.23542E-01 0.46813E-01
 0.92566E-01 0.17022     0.27577     0.40773     0.53856     0.63059     0.68117     0.69938     0.68889     0.67181    
 0.61490     0.65660     0.68217     0.67995     0.64357     0.57598     0.50744     0.46530     0.44861     0.44761    
 0.44465     0.42313     0.38392     0.33257     0.26792     0.19153     0.11825     0.64899E-01 0.33761E-01 0.16826E-01
 0.84416E-02 0.45566E-02 0.28944E-02 0.22784E-02 0.20317E-02 0.18067E-02 0.19696E-02 0.23210E-02 0.24756E-02 0.19840E-02
 0.18992E-02 0.12886E-02 0.14808E-02 0.72998E-03 0.19322E-02 0.10908E-03 0.69924E-02 0.14018E-04 0.34762E-04 0.10641E-05
 0.10233E-05 0.14705E-04 0.15633E-05 0.26237E-04 0.88730E-06 0.65813E-06 0.68120E-05 0.84272E-06 0.37368E-05 0.12280E-05
 0.11825E-05 0.42537E-04 0.24867E-04 0.10553E-02 0.38967E-03 0.18182E-02 0.21393E-02 0.66315E-02 0.12903E-01 0.26206E-01
 0.49128E-01 0.94650E-01 0.16117     0.24807     0.34746     0.43898     0.50137     0.53628     0.55613     0.57818    
 0.49369     0.54733     0.57997     0.57841     0.54545     0.50744     0.49448     0.51323     0.55488     0.59885    
 0.61769     0.60473     0.57000     0.51528     0.43384     0.32721     0.21146     0.11532     0.56644E-01 0.27141E-01
 0.13545E-01 0.73678E-02 0.45902E-02 0.34842E-02 0.31649E-02 0.28145E-02 0.26602E-02 0.28508E-02 0.31073E-02 0.27541E-02
 0.25149E-02 0.14861E-02 0.13549E-02 0.67766E-03 0.19213E-02 0.16850E-03 0.28327E-02 0.17569E-04 0.44587E-04 0.17218E-05
 0.66260E-06 0.95217E-05 0.78342E-06 0.46454E-04 0.40635E-06 0.34764E-06 0.10712E-05 0.38339E-06 0.33226E-05 0.69507E-06
 0.81988E-06 0.21168E-04 0.13253E-04 0.15499E-02 0.25259E-03 0.15042E-02 0.12457E-02 0.36534E-02 0.68271E-02 0.13599E-01
 0.23266E-01 0.44086E-01 0.80123E-01 0.12968     0.18406     0.24914     0.31429     0.36136     0.39564     0.43818    
 0.37254     0.42927     0.45871     0.45879     0.45199     0.46530     0.51323     0.59499     0.68317     0.73350    
 0.73415     0.70768     0.67964     0.64628     0.58055     0.46664     0.32046     0.18307     0.90626E-01 0.43434E-01
 0.22259E-01 0.12560E-01 0.78804E-02 0.56630E-02 0.47973E-02 0.42410E-02 0.36569E-02 0.32577E-02 0.31892E-02 0.29551E-02
 0.28089E-02 0.17796E-02 0.12194E-02 0.69396E-03 0.10640E-02 0.26311E-03 0.57456E-03 0.31651E-04 0.43187E-03 0.32793E-05
 0.16392E-05 0.21162E-05 0.15165E-05 0.28679E-05 0.82054E-06 0.71143E-06 0.19111E-05 0.81614E-06 0.30017E-05 0.13171E-05
 0.76223E-06 0.22124E-04 0.11490E-04 0.13636E-02 0.15340E-03 0.78197E-03 0.67071E-03 0.19041E-02 0.34216E-02 0.66314E-02
 0.10495E-01 0.18941E-01 0.35534E-01 0.60427E-01 0.86069E-01 0.12001     0.16713     0.21430     0.25681     0.30902    
 0.25773     0.31067     0.33898     0.35389     0.38450     0.44861     0.55488     0.68316     0.76753     0.77789    
 0.73106     0.67268     0.65753     0.67277     0.65905     0.57418     0.41874     0.25187     0.13021     0.64855E-01
 0.35186E-01 0.21291E-01 0.13615E-01 0.92918E-02 0.71096E-02 0.59765E-02 0.49154E-02 0.39883E-02 0.33589E-02 0.30093E-02
 0.25226E-02 0.18660E-02 0.11128E-02 0.86638E-03 0.60261E-03 0.38016E-03 0.14693E-03 0.11275E-03 0.95233E-04 0.12977E-04
 0.12900E-04 0.19047E-05 0.15696E-03 0.17300E-05 0.64763E-03 0.97269E-05 0.32067E-04 0.15861E-04 0.59402E-05 0.13023    
 0.16197E-05 0.76437E-02 0.15057E-04 0.45373E-03 0.97315E-04 0.35066E-03 0.38416E-03 0.10526E-02 0.16828E-02 0.32000E-02
 0.49070E-02 0.85089E-02 0.15176E-01 0.26143E-01 0.38196E-01 0.55167E-01 0.82052E-01 0.11595     0.15306     0.19981    
 0.16640     0.21140     0.24250     0.27661     0.34061     0.44761     0.59885     0.73350     0.77789     0.72672    
 0.59486     0.48174     0.50401     0.61139     0.67553     0.63844     0.49379     0.31021     0.16970     0.90282E-01
 0.52758E-01 0.35185E-01 0.23851E-01 0.15952E-01 0.10760E-01 0.80992E-02 0.61477E-02 0.48365E-02 0.37593E-02 0.32418E-02
 0.22668E-02 0.17735E-02 0.89479E-03 0.10587E-02 0.38216E-03 0.89461E-03 0.61946E-04 0.48359E-03 0.15118E-04 0.96533E-05
 0.10237E-05 0.16126E-06 0.68076E-06 0.13369E-06 0.28090E-06 0.74084E-06 0.21002E-06 0.15370E-04 0.34084E-06 0.56215E-06
 0.14768E-05 0.98695E-06 0.40648E-02 0.29751E-04 0.15827E-03 0.14043E-03 0.34959E-03 0.62850E-03 0.96981E-03 0.16344E-02
 0.26460E-02 0.43148E-02 0.69776E-02 0.11505E-01 0.17355E-01 0.26115E-01 0.40853E-01 0.62649E-01 0.89415E-01 0.12293    
 0.10646     0.13958     0.17121     0.22035     0.30802     0.44465     0.61769     0.73415     0.73106     0.59486    
 0.36081     0.23802     0.31785     0.53003     0.67270     0.67450     0.54516     0.35825     0.21160     0.12385    
 0.79264E-01 0.57322E-01 0.40827E-01 0.27830E-01 0.17771E-01 0.11841E-01 0.79539E-02 0.58489E-02 0.42541E-02 0.35576E-02
 0.22883E-02 0.18330E-02 0.80961E-03 0.10973E-02 0.30403E-03 0.43826E-02 0.49095E-04 0.40296E-04 0.85283E-05 0.90347E-06
 0.18798E-05 0.78193E-08 0.16508E-07 0.48745E-08 0.50570E-08 0.36660E-08 0.38942E-08 0.85224E-08 0.72837E-08 0.78195E-06
 0.32934E-07 0.18333E-06 0.18354E-05 0.56868E-05 0.82342E-03 0.48844E-04 0.57593E-03 0.38066E-03 0.77114E-03 0.93487E-03
 0.17444E-02 0.26211E-02 0.39964E-02 0.59883E-02 0.89505E-02 0.13399E-01 0.21204E-01 0.34341E-01 0.53025E-01 0.76633E-01
 0.65671E-01 0.88379E-01 0.11756     0.17197     0.27044     0.42313     0.60473     0.70768     0.67268     0.48174    
 0.23802     0.16252     0.28464     0.54168     0.69887     0.70355     0.57706     0.39614     0.25580     0.16784    
 0.11963     0.92139E-01 0.67844E-01 0.47703E-01 0.31029E-01 0.19607E-01 0.12092E-01 0.82003E-02 0.55327E-02 0.42171E-02
 0.26713E-02 0.21593E-02 0.97952E-03 0.10689E-02 0.32399E-03 0.45874E-02 0.61388E-04 0.70731E-04 0.74287E-05 0.84820E-06
 0.31435E-05 0.53352E-08 0.10571E-07 0.28063E-08 0.27384E-08 0.14714E-08 0.16433E-08 0.26209E-08 0.29208E-08 0.57187E-07
 0.13943E-07 0.13327E-06 0.50153E-06 0.39722E-05 0.46078E-04 0.27867E-04 0.85928E-03 0.29414E-03 0.77041E-03 0.67527E-03
 0.13040E-02 0.19298E-02 0.29843E-02 0.40686E-02 0.56640E-02 0.79746E-02 0.12103E-01 0.19160E-01 0.30490E-01 0.46119E-01
 0.39937E-01 0.55675E-01 0.79327E-01 0.12903     0.22649     0.38392     0.57000     0.67964     0.65753     0.50400    
 0.31785     0.28464     0.44569     0.65635     0.75081     0.72253     0.58460     0.41723     0.29472     0.21880    
 0.17672     0.14496     0.10898     0.78591E-01 0.54269E-01 0.35383E-01 0.21698E-01 0.14024E-01 0.91495E-02 0.62861E-02
 0.38513E-02 0.28325E-02 0.14872E-02 0.11937E-02 0.47896E-03 0.12402E-02 0.11006E-03 0.71977E-01 0.12722E-04 0.48366E-05
 0.20174E-05 0.42813E-07 0.15248E-06 0.17188E-07 0.27587E-07 0.11831E-07 0.11934E-07 0.24722E-07 0.17614E-07 0.30091E-03
 0.86130E-07 0.13815E-06 0.15657E-05 0.53415E-05 0.40012E-03 0.38455E-04 0.35528E-03 0.31864E-03 0.69602E-03 0.68439E-03
 0.10980E-02 0.17040E-02 0.26238E-02 0.34922E-02 0.44477E-02 0.58225E-02 0.80981E-02 0.11637E-01 0.17556E-01 0.27168E-01
 0.22980E-01 0.34341E-01 0.53630E-01 0.95668E-01 0.18352     0.33257     0.51528     0.64628     0.67277     0.61140    
 0.53003     0.54168     0.65635     0.75727     0.77837     0.70721     0.56209     0.42467     0.33359     0.28203    
 0.25395     0.22045     0.17200     0.12740     0.93027E-01 0.65418E-01 0.42726E-01 0.27711E-01 0.18563E-01 0.12251E-01
 0.71710E-02 0.44826E-02 0.26092E-02 0.17469E-02 0.88911E-03 0.74294E-03 0.23230E-03 0.26281E-03 0.52745E-04 0.15866E-02
 0.77848E-05 0.12018E-03 0.57968E-05 0.36816E-03 0.47763E-04 0.27848E-05 0.60151E-05 0.15864E-05 0.77326E-04 0.17201E-05
 0.36996E-04 0.28660E-05 0.80092E-05 0.37505E-04 0.52646E-04 0.19390E-03 0.13229E-03 0.47066E-03 0.55390E-03 0.90185E-03
 0.10888E-02 0.18498E-02 0.24983E-02 0.32569E-02 0.38524E-02 0.48729E-02 0.62157E-02 0.79643E-02 0.10505E-01 0.15383E-01
 0.13437E-01 0.21370E-01 0.36262E-01 0.69031E-01 0.14028     0.26792     0.43385     0.58055     0.65905     0.67553    
 0.67270     0.69887     0.75081     0.77837     0.74544     0.64540     0.52457     0.43683     0.38878     0.36943    
 0.35694     0.32338     0.26632     0.20783     0.16166     0.12351     0.87528E-01 0.59425E-01 0.41912E-01 0.28024E-01
 0.15972E-01 0.87107E-02 0.52661E-02 0.31724E-02 0.18488E-02 0.85400E-03 0.50424E-03 0.20194E-03 0.32085E-03 0.30728E-04
 0.62966E-03 0.16418E-05 0.18752E-05 0.95204E-06 0.60311E-06 0.50630E-03 0.68361E-06 0.24472E-05 0.36661E-05 0.35691E-06
 0.14290E-02 0.85791E-06 0.81212E-06 0.36698E-04 0.17610E-04 0.38145E-01 0.86588E-04 0.89005E-03 0.49292E-03 0.10874E-02
 0.11218E-02 0.21830E-02 0.25803E-02 0.31154E-02 0.33362E-02 0.39955E-02 0.48371E-02 0.58250E-02 0.68588E-02 0.90811E-02
 0.75303E-02 0.12438E-01 0.22745E-01 0.45751E-01 0.95962E-01 0.19153     0.32721     0.46664     0.57418     0.63844    
 0.67450     0.70355     0.72253     0.70721     0.64540     0.56229     0.49782     0.46820     0.47001     0.48336    
 0.47960     0.44330     0.38356     0.32160     0.27281     0.23053     0.18032     0.13017     0.94333E-01 0.64400E-01
 0.37449E-01 0.19368E-01 0.11512E-01 0.63764E-02 0.39687E-02 0.14177E-02 0.11886E-02 0.30831E-03 0.22250E-02 0.23094E-04
 0.36140E-04 0.16080E-05 0.31293E-06 0.14885E-05 0.10624E-06 0.45352E-06 0.12592E-06 0.16431E-06 0.20339E-06 0.82059E-07
 0.23348E-04 0.29170E-06 0.34789E-06 0.41059E-05 0.11249E-04 0.26327E-03 0.59762E-04 0.21684E-02 0.46881E-03 0.12241E-02
 0.10116E-02 0.22635E-02 0.26406E-02 0.31544E-02 0.30950E-02 0.32394E-02 0.34841E-02 0.40696E-02 0.44841E-02 0.53459E-02
 0.46071E-02 0.76308E-02 0.14080E-01 0.28563E-01 0.58966E-01 0.11825     0.21146     0.32047     0.41875     0.49379    
 0.54516     0.57706     0.58460     0.56209     0.52457     0.49783     0.49652     0.52672     0.57346     0.60297    
 0.59696     0.55973     0.50638     0.45576     0.41901     0.38628     0.33701     0.26778     0.19808     0.13653    
 0.84090E-01 0.44810E-01 0.25038E-01 0.12748E-01 0.79562E-02 0.25962E-02 0.23349E-02 0.47031E-03 0.94853E-02 0.26764E-04
 0.28851E-04 0.17877E-05 0.20972E-06 0.15639E-05 0.58398E-07 0.18247E-06 0.58808E-07 0.67270E-07 0.64589E-07 0.43239E-07
 0.10276E-05 0.13986E-06 0.35697E-06 0.96662E-06 0.66679E-05 0.43488E-04 0.32123E-04 0.12030E-01 0.40359E-03 0.20193E-02
 0.88173E-03 0.20931E-02 0.21355E-02 0.29828E-02 0.28759E-02 0.27979E-02 0.24507E-02 0.26862E-02 0.29626E-02 0.34021E-02
 0.27093E-02 0.45367E-02 0.86443E-02 0.17555E-01 0.34448E-01 0.64901E-01 0.11532     0.18308     0.25188     0.31021    
 0.35826     0.39614     0.41723     0.42467     0.43684     0.46820     0.52672     0.60510     0.66933     0.69894    
 0.69696     0.66832     0.62769     0.59829     0.58350     0.56544     0.52873     0.46183     0.36370     0.25596    
 0.16605     0.94528E-01 0.50726E-01 0.24468E-01 0.14542E-01 0.48255E-02 0.34644E-02 0.68030E-03 0.66042E-02 0.43811E-04
 0.46043E-04 0.23818E-05 0.30276E-06 0.11187E-05 0.88372E-07 0.43284E-06 0.69693E-07 0.86516E-07 0.63021E-07 0.48293E-07
 0.57322E-06 0.13892E-06 0.60438E-06 0.50829E-06 0.46925E-05 0.18433E-04 0.21981E-04 0.65706     0.27895E-03 0.33203E-02
 0.77334E-03 0.20203E-02 0.15075E-02 0.21200E-02 0.21709E-02 0.22141E-02 0.17404E-02 0.17017E-02 0.18575E-02 0.21049E-02
 0.18730E-02 0.30374E-02 0.55270E-02 0.10665E-01 0.19503E-01 0.33762E-01 0.56645E-01 0.90627E-01 0.13021     0.16971    
 0.21161     0.25581     0.29472     0.33360     0.38879     0.47001     0.57346     0.66933     0.73373     0.76804    
 0.76588     0.72541     0.68183     0.68166     0.71116     0.72460     0.70423     0.64879     0.55029     0.41169    
 0.27736     0.16655     0.92603E-01 0.43165E-01 0.25569E-01 0.85929E-02 0.66524E-02 0.10381E-02 0.37889E-01 0.66530E-04
 0.46611E-04 0.28783E-05 0.36784E-06 0.14522E-05 0.97300E-07 0.53196E-06 0.58289E-07 0.70576E-07 0.56023E-07 0.46844E-07
 0.62346E-06 0.14467E-06 0.89301E-06 0.39620E-06 0.21284E-05 0.82756E-05 0.16497E-04 0.10009E-01 0.14138E-03 0.22882E-02
 0.54693E-03 0.17839E-02 0.12079E-02 0.14110E-02 0.12802E-02 0.14607E-02 0.11587E-02 0.10630E-02 0.11595E-02 0.14278E-02
 0.10926E-02 0.17589E-02 0.31317E-02 0.58625E-02 0.10319E-01 0.16826E-01 0.27142E-01 0.43435E-01 0.64856E-01 0.90284E-01
 0.12385     0.16784     0.21881     0.28203     0.36943     0.48336     0.60297     0.69893     0.76804     0.79653    
 0.76284     0.67099     0.60603     0.66097     0.76773     0.82633     0.82722     0.78424     0.70283     0.56686    
 0.40434     0.24660     0.15358     0.62292E-01 0.46699E-01 0.10176E-01 0.39861E-01 0.79365E-03 0.82741E-03 0.34063E-04
 0.44694E-05 0.18016E-05 0.37888E-07 0.19996E-06 0.57618E-08 0.69720E-08 0.23961E-08 0.19883E-08 0.21911E-08 0.32507E-08
 0.16618E-07 0.11993E-07 0.13641E-04 0.55155E-07 0.46185E-06 0.55761E-06 0.38575E-05 0.40884E-04 0.34622E-04 0.38320    
 0.21986E-03 0.17725E-02 0.74589E-03 0.11998E-02 0.67579E-03 0.83873E-03 0.70929E-03 0.64675E-03 0.63962E-03 0.80629E-03
 0.82922E-03 0.13410E-02 0.19828E-02 0.32135E-02 0.52772E-02 0.84417E-02 0.13545E-01 0.22259E-01 0.35187E-01 0.52759E-01
 0.79266E-01 0.11963     0.17673     0.25395     0.35694     0.47960     0.59695     0.69695     0.76587     0.76284    
 0.65707     0.46812     0.39308     0.55943     0.78624     0.88272     0.89671     0.86618     0.80360     0.68718    
 0.52367     0.32183     0.23170     0.75669E-01 0.95612E-01 0.86523E-02 0.73164E-01 0.37884E-03 0.88562E-04 0.16800E-04
 0.54971E-06 0.18549E-02 0.31678E-08 0.22949E-08 0.29290E-09 0.19483E-09 0.95514E-10 0.70044E-10 0.70995E-10 0.12529E-09
 0.30630E-09 0.42825E-09 0.38421E-08 0.30613E-08 0.11368E-06 0.17509E-07 0.13879E-05 0.10657E-05 0.54960E-05 0.39570E-04
 0.50987E-04 0.39801     0.20785E-03 0.14611E-02 0.31517E-03 0.47725E-03 0.34566E-03 0.41978E-03 0.38341E-03 0.55636E-03
 0.37115E-03 0.75156E-03 0.11226E-02 0.18366E-02 0.28228E-02 0.45566E-02 0.73679E-02 0.12560E-01 0.21291E-01 0.35185E-01
 0.57323E-01 0.92141E-01 0.14496     0.22045     0.32338     0.44330     0.55972     0.66831     0.72539     0.67098    
 0.46811     0.23564     0.21223     0.48855     0.81553     0.91835     0.93271     0.91049     0.86155     0.76297    
 0.60867     0.38649     0.30639     0.90646E-01 0.17674     0.86801E-02 0.13475E-01 0.27330E-03 0.42331E-04 0.13740E-04
 0.21974E-06 0.55277E-06 0.10376E-08 0.51088E-09 0.79217E-10 0.47649E-10 0.24337E-10 0.14650E-10 0.11151E-10 0.18234E-10
 0.35833E-10 0.58982E-10 0.31024E-09 0.47221E-09 0.26986E-08 0.18435E-08 0.80010E-06 0.72730E-07 0.31341E-05 0.19061E-05
 0.13704E-04 0.11044E-03 0.53074E-04 0.10302E-01 0.12404E-03 0.33156E-03 0.13044E-03 0.25541E-03 0.18428E-03 0.27323E-03
 0.24655E-03 0.54618E-03 0.76128E-03 0.12415E-02 0.17932E-02 0.28943E-02 0.45901E-02 0.78804E-02 0.13615E-01 0.23851E-01
 0.40827E-01 0.67845E-01 0.10898     0.17200     0.26631     0.38355     0.50637     0.62767     0.68181     0.60602    
 0.39307     0.21223     0.25495     0.60158     0.87528     0.94371     0.95136     0.93285     0.89153     0.80327    
 0.65338     0.43772     0.34216     0.11091     0.17293     0.11797E-01 0.27663E-01 0.36288E-03 0.67225E-04 0.14946E-04
 0.33900E-06 0.44767E-05 0.18948E-08 0.11854E-08 0.13998E-09 0.92538E-10 0.41549E-10 0.20383E-10 0.12863E-10 0.19435E-10
 0.39077E-10 0.63095E-10 0.23795E-09 0.40053E-09 0.16464E-08 0.15443E-08 0.49815E-07 0.18838E-07 0.14577E-03 0.43249E-06
 0.71573E-05 0.15076E-04 0.19656E-04 0.43662E-02 0.65206E-04 0.22628E-03 0.49473E-04 0.15504E-03 0.10579E-03 0.20150E-03
 0.12158E-03 0.27601E-03 0.47463E-03 0.89479E-03 0.14162E-02 0.22784E-02 0.34842E-02 0.56630E-02 0.92919E-02 0.15952E-01
 0.27830E-01 0.47703E-01 0.78590E-01 0.12740     0.20782     0.32159     0.45573     0.59827     0.68164     0.66095    
 0.55943     0.48856     0.60158     0.82217     0.93146     0.96009     0.96020     0.94223     0.90313     0.81729    
 0.66695     0.46839     0.33195     0.12619     0.11283     0.18510E-01 0.62900     0.80854E-03 0.36363E-03 0.30288E-04
 0.19307E-05 0.21772E-05 0.14909E-07 0.48990E-07 0.15674E-08 0.14029E-08 0.48634E-09 0.26443E-09 0.18690E-09 0.23190E-09
 0.47880E-09 0.66970E-09 0.20307E-08 0.27907E-08 0.18159E-07 0.11440E-07 0.18303E-05 0.43022E-07 0.29942E-05 0.83484E-06
 0.40708E-05 0.20895E-04 0.91615E-05 0.51916E-03 0.34989E-04 0.75029E-04 0.26030E-04 0.65826E-04 0.54435E-04 0.89446E-04
 0.16874E-03 0.28243E-03 0.44422E-03 0.73028E-03 0.12379E-02 0.20317E-02 0.31649E-02 0.47973E-02 0.71097E-02 0.10760E-01
 0.17771E-01 0.31029E-01 0.54269E-01 0.93024E-01 0.16165     0.27279     0.41899     0.58348     0.71115     0.76773    
 0.78624     0.81554     0.87528     0.93146     0.95977     0.96750     0.96168     0.94160     0.89902     0.80737    
 0.65663     0.47061     0.30080     0.12936     0.86884E-01 0.27093E-01 0.32833E-01 0.20818E-02 0.12784E-01 0.10405E-03
 0.27040E-04 0.31424E-05 0.28326E-06 0.12140E-05 0.85272E-07 0.22277E-06 0.29801E-07 0.26615E-07 0.25291E-07 0.25362E-07
 0.60839E-07 0.64276E-07 0.41672E-06 0.17052E-06 0.12048E-04 0.19499E-05 0.19587E-05 0.25777E-05 0.11379E-05 0.10850E-03
 0.37111E-05 0.39214E-04 0.60149E-05 0.18418E-04 0.13498E-04 0.16313E-04 0.15928E-04 0.31294E-04 0.48898E-04 0.93453E-04
 0.96667E-04 0.21110E-03 0.42034E-03 0.69845E-03 0.11482E-02 0.18067E-02 0.28145E-02 0.42411E-02 0.59766E-02 0.80993E-02
 0.11841E-01 0.19607E-01 0.35383E-01 0.65416E-01 0.12351     0.23052     0.38627     0.56543     0.72459     0.82633    
 0.88272     0.91836     0.94371     0.96009     0.96750     0.96634     0.95551     0.93019     0.87737     0.77349    
 0.62430     0.44360     0.26178     0.12598     0.78709E-01 0.32138E-01 0.16277E-01 0.39945E-02 0.10331E-01 0.27523E-03
 0.29782E-02 0.12015E-04 0.80432E-04 0.19672E-05 0.17787E-04 0.29552E-04 0.33105E-05 0.83990E-05 0.36276E-04 0.18649E-04
 0.92338E-04 0.22461E-04 0.36922E-04 0.35798E-04 0.51762E-05 0.27580E-04 0.48460E-05 0.29512E-04 0.41834E-05 0.41003E-05
 0.27023E-05 0.63043E-05 0.33271E-05 0.65411E-05 0.63844E-05 0.54449E-05 0.87292E-05 0.16525E-04 0.27568E-04 0.43850E-04
 0.11991E-03 0.25121E-03 0.47796E-03 0.85386E-03 0.13416E-02 0.19696E-02 0.26603E-02 0.36570E-02 0.49155E-02 0.61479E-02
 0.79541E-02 0.12092E-01 0.21698E-01 0.42725E-01 0.87525E-01 0.18031     0.33701     0.52873     0.70424     0.82723    
 0.89672     0.93272     0.95136     0.96021     0.96169     0.95551     0.93883     0.90372     0.83434     0.71784    
 0.56663     0.38649     0.21264     0.11534     0.64077E-01 0.27224E-01 0.97248E-02 0.49314E-02 0.22054E-02 0.45846E-03
 0.17037E-03 0.74571E-04 0.63792E-05 0.89565E-05 0.27222E-04 0.42485E-04 0.83085E-04 0.66671E-04 0.47028E-04 0.41532E-04
 0.38759E-04 0.50334E-04 0.46827E-04 0.40646E-04 0.15733E-04 0.13860E-04 0.11648E-04 0.12699E-04 0.78126E-05 0.73282E-05
 0.28111E-05 0.25499E-05 0.20653E-05 0.31017E-05 0.30086E-05 0.30307E-05 0.43634E-05 0.86188E-05 0.19877E-04 0.51179E-04
 0.97620E-04 0.18376E-03 0.40237E-03 0.85669E-03 0.15556E-02 0.23211E-02 0.28510E-02 0.32578E-02 0.39885E-02 0.48367E-02
 0.58491E-02 0.82006E-02 0.14024E-01 0.27711E-01 0.59425E-01 0.13017     0.26778     0.46184     0.64880     0.78425    
 0.86619     0.91049     0.93286     0.94223     0.94160     0.93019     0.90372     0.85300     0.76532     0.63770    
 0.47608     0.30054     0.16217     0.92790E-01 0.47428E-01 0.18571E-01 0.75916E-02 0.39523E-02 0.14760E-02 0.36426E-03
 0.92021E-04 0.51428E-04 0.84987E-05 0.15970E-04 0.15159E-04 0.33309E-04 0.20445E-04 0.61488E-04 0.37919E-04 0.96581E-04
 0.55384E-04 0.21568E-04 0.29521E-04 0.17373E-04 0.27589E-04 0.17797E-04 0.16434E-04 0.16129E-04 0.11035E-04 0.10297E-04
 0.66227E-05 0.23064E-05 0.23983E-05 0.16186E-05 0.11428E-05 0.17741E-05 0.32701E-05 0.66609E-05 0.19054E-04 0.54390E-04
 0.32043E-03 0.46494E-03 0.62060E-03 0.87948E-03 0.15007E-02 0.24757E-02 0.31075E-02 0.31894E-02 0.33591E-02 0.37595E-02
 0.42543E-02 0.55330E-02 0.91498E-02 0.18563E-01 0.41913E-01 0.94334E-01 0.19808     0.36371     0.55030     0.70285    
 0.80361     0.86157     0.89154     0.90314     0.89903     0.87737     0.83434     0.76533     0.66302     0.52130    
 0.35752     0.21271     0.12173     0.67211E-01 0.34652E-01 0.13769E-01 0.74496E-02 0.30181E-02 0.96549E-03 0.34513E-03
 0.72100E-04 0.20013E-04 0.20308E-04 0.99504E-05 0.19707E-04 0.10106E-04 0.30707E-04 0.17627E-04 0.35943E-04 0.38362E-04
 0.38712E-04 0.20906E-04 0.17972E-04 0.39070E-04 0.22532E-04 0.34724E-04 0.13624E-04 0.16526E-04 0.19504E-04 0.81332E-05
 0.79847E-05 0.54311E-05 0.36041E-05 0.25164E-05 0.10235E-05 0.13273E-05 0.37571E-05 0.69288E-05 0.21626E-04 0.11839E-03
 0.14083E-03 0.30608E-03 0.59201E-03 0.10068E-02 0.13417E-02 0.19841E-02 0.27543E-02 0.29554E-02 0.30095E-02 0.32421E-02
 0.35579E-02 0.42174E-02 0.62865E-02 0.12252E-01 0.28026E-01 0.64403E-01 0.13653     0.25598     0.41171     0.56689    
 0.68721     0.76299     0.80329     0.81731     0.80738     0.77350     0.71785     0.63771     0.52130     0.37650    
 0.24369     0.15065     0.89021E-01 0.47267E-01 0.21524E-01 0.11353E-01 0.50453E-02 0.19788E-02 0.49371E-03 0.28851E-03
 0.36922E-04 0.14685E-04 0.22845E-04 0.20001E-04 0.25264E-04 0.15802E-04 0.18318E-04 0.21893E-04 0.24686E-04 0.38424E-04
 0.25110E-04 0.24409E-04 0.25196E-04 0.17106E-04 0.51221E-04 0.18614E-04 0.31856E-04 0.15666E-04 0.28820E-04 0.13420E-04
 0.89696E-05 0.11774E-04 0.82190E-05 0.50789E-05 0.26043E-05 0.18357E-05 0.33086E-05 0.78276E-05 0.12935E-04 0.36570E-04
 0.67826E-03 0.97367E-03 0.10329E-02 0.13733E-02 0.15903E-02 0.18993E-02 0.25151E-02 0.28092E-02 0.25229E-02 0.22670E-02
 0.22885E-02 0.26715E-02 0.38516E-02 0.71714E-02 0.15973E-01 0.37452E-01 0.84096E-01 0.16606     0.27738     0.40436    
 0.52370     0.60870     0.65341     0.66698     0.65665     0.62432     0.56664     0.47610     0.35753     0.24369    
 0.16240     0.10543     0.58588E-01 0.28410E-01 0.13198E-01 0.71641E-02 0.31145E-02 0.10172E-02 0.32151E-03 0.75834E-04
 0.30258E-04 0.10353E-04 0.34954E-04 0.35172E-04 0.35789E-04 0.36517E-04 0.23421E-04 0.28816E-04 0.36426E-04 0.23639E-04
 0.29892E-04 0.18942E-04 0.25290E-04 0.21633E-04 0.37018E-04 0.55851E-04 0.33038E-04 0.42382E-04 0.28570E-04 0.20098E-04
 0.18755E-04 0.21610E-04 0.24857E-04 0.72225E-05 0.32311E-05 0.22997E-05 0.22675E-05 0.31287E-05 0.10828E-04 0.77706E-04
 0.13534E-03 0.17120E-03 0.29348E-03 0.64759E-03 0.10775E-02 0.12888E-02 0.14863E-02 0.17798E-02 0.18662E-02 0.17737E-02
 0.18332E-02 0.21595E-02 0.28327E-02 0.44831E-02 0.87116E-02 0.19370E-01 0.44815E-01 0.94539E-01 0.16657     0.24662    
 0.32186     0.38652     0.43775     0.46842     0.47064     0.44363     0.38651     0.30056     0.21272     0.15066    
 0.10544     0.62471E-01 0.32475E-01 0.15616E-01 0.86725E-02 0.38985E-02 0.21676E-02 0.50861E-03 0.24162E-03 0.45495E-04
 0.84072E-05 0.14340E-04 0.19710E-04 0.55787E-04 0.42030E-04 0.34722E-04 0.41730E-04 0.53457E-04 0.32346E-04 0.44895E-04
 0.22029E-04 0.28318E-04 0.20074E-04 0.40616E-04 0.40274E-04 0.46035E-04 0.40834E-04 0.42986E-04 0.45466E-04 0.37574E-04
 0.30680E-04 0.41391E-04 0.17395E-04 0.10491E-04 0.53370E-05 0.22903E-05 0.28345E-05 0.11802E-04 0.29412E-04 0.92707E-04
 0.10919E-03 0.24471E-01 0.61149E-03 0.60956E-03 0.10558E-02 0.14809E-02 0.13550E-02 0.12195E-02 0.11129E-02 0.89490E-03
 0.80971E-03 0.97963E-03 0.14874E-02 0.26095E-02 0.52668E-02 0.11514E-01 0.25042E-01 0.50733E-01 0.92616E-01 0.15360    
 0.23173     0.30642     0.34220     0.33198     0.30083     0.26181     0.21265     0.16219     0.12174     0.89026E-01
 0.58591E-01 0.32476E-01 0.16221E-01 0.93915E-02 0.45238E-02 0.22955E-02 0.67009E-03 0.40880E-03 0.60846E-04 0.52819E-04
 0.10322E-04 0.23007E-04 0.25193E-04 0.40910E-04 0.77328E-04 0.48562E-04 0.57789E-04 0.41376E-04 0.51541E-04 0.33484E-04
 0.39606E-04 0.28196E-04 0.54554E-04 0.43943E-04 0.34966E-04 0.34664E-04 0.40589E-04 0.42085E-04 0.47046E-04 0.99638E-04
 0.94746E-04 0.25268E-04 0.16802E-04 0.78119E-05 0.81118E-05 0.73633E-05 0.28436E-05 0.18681E-05 0.63172E-05 0.10427E-02
 0.30817E-03 0.18597E-03 0.17890E-03 0.32172E-03 0.56929E-03 0.73000E-03 0.67774E-03 0.69406E-03 0.86652E-03 0.10589E-02
 0.10975E-02 0.10690E-02 0.11939E-02 0.17472E-02 0.31729E-02 0.63774E-02 0.12750E-01 0.24472E-01 0.43172E-01 0.62302E-01
 0.75681E-01 0.90659E-01 0.11092     0.12621     0.12938     0.12600     0.11535     0.92801E-01 0.67218E-01 0.47271E-01
 0.28412E-01 0.15616E-01 0.93915E-02 0.48737E-02 0.23700E-02 0.90747E-03 0.39022E-03 0.11171E-03 0.45710E-04 0.15745E-04
 0.38503E-04 0.19299E-04 0.44955E-04 0.26688E-04 0.80068E-04 0.47963E-04 0.49417E-04 0.41532E-04 0.42228E-04 0.48207E-04
 0.43894E-04 0.39728E-04 0.43733E-04 0.44866E-04 0.36928E-04 0.35007E-04 0.48670E-04 0.47037E-04 0.85330E-04 0.64261E-04
 0.87740E-04 0.31630E-04 0.21763E-04 0.14647E-04 0.92375E-05 0.95461E-05 0.75378E-05 0.74070E-05 0.10416E-04 0.46046E-04
 0.23363E-04 0.52115E-04 0.22537     0.41743E-03 0.74000E-03 0.19324E-02 0.19213E-02 0.10641E-02 0.60266E-03 0.38219E-03
 0.30407E-03 0.32404E-03 0.47904E-03 0.88927E-03 0.18491E-02 0.39695E-02 0.79577E-02 0.14544E-01 0.25575E-01 0.46710E-01
 0.95635E-01 0.17678     0.17297     0.11285     0.86902E-01 0.78724E-01 0.64089E-01 0.47437E-01 0.34657E-01 0.21526E-01
 0.13199E-01 0.86728E-02 0.45237E-02 0.23700E-02 0.99650E-03 0.47050E-03 0.23806E-03 0.99726E-04 0.17551E-04 0.12102E-04