PROCAR lm decomposed
# of k-points:    1         # of bands:  36         # of ions:  14

 k-point    1 :    0.00000000 0.00000000 0.00000000     weight = 1.00000000

band   1 # energy  -14.43321231 # occ.  2.00000000
 
ion      s     py     pz     px    dxy    dyz    dz2    dxz    dx2    tot
  1  0.005  0.000  0.000  0.000  0.000  0.000  0.000  0.000  0.000  0.006
  2  0.030  0.000  0.003  0.000  0.000  0.000  0.000  0.000  0.000  0.032
  3  0.057  0.000  0.000  0.000  0.000  0.000  0.000  0.000  0.000  0.058
  4  0.057  0.000  0.000  0.000  0.000  0.000  0.000  0.000  0.000  0.058
  5  0.030  0.000  0.000  0.003  0.000  0.000  0.000  0.000  0.000  0.032
  6  0.030  0.003  0.000  0.000  0.000  0.000  0.000  0.000  0.000  0.032
  7  0.057  0.000  0.000  0.000  0.000  0.000  0.000  0.000  0.000  0.058
  8  0.057  0.000  0.000  0.000  0.000  0.000  0.000  0.000  0.000  0.058
  9  0.030  0.000  0.003  0.000  0.000  0.000  0.000  0.000  0.000  0.032
 10  0.030  0.003  0.000  0.000  0.000  0.000  0.000  0.000  0.000  0.032
 11  0.005  0.000  0.000  0.000  0.000  0.000  0.000  0.000  0.000  0.006
 12  0.030  0.000  0.000  0.003  0.000  0.000  0.000  0.000  0.000  0.032
 13  0.005  0.000  0.000  0.000  0.000  0.000  0.000  0.000  0.000  0.006
 14  0.005  0.000  0.000  0.000  0.000  0.000  0.000  0.000  0.000  0.006
tot  0.430  0.007  0.007  0.007  0.000  0.000  0.000  0.000  0.000  0.452
 
band   2 # energy  -13.36103447 # occ.  2.00000000
 
ion      s     py     pz     px    dxy    dyz    dz2    dxz    dx2    tot
  1  0.044  0.002  0.002  0.002  0.000  0.000  0.000  0.000  0.000  0.050
  2  0.020  0.003  0.001  0.003  0.000  0.000  0.000  0.000  0.000  0.026
  3  0.181  0.000  0.000  0.000  0.000  0.000  0.000  0.000  0.000  0.181
  4  0.024  0.001  0.001  0.000  0.000  0.000  0.000  0.000  0.000  0.026
  5  0.018  0.003  0.003  0.001  0.000  0.000  0.000  0.000  0.000  0.024
  6  0.028  0.001  0.002  0.002  0.000  0.000  0.000  0.000  0.000  0.034
  7  0.029  0.001  0.000  0.001  0.000  0.000  0.000  0.000  0.000  0.030
  8  0.010  0.001  0.000  0.000  0.000  0.000  0.000  0.000  0.000  0.012
  9  0.020  0.000  0.001  0.000  0.000  0.000  0.000  0.000  0.000  0.021
 10  0.028  0.001  0.000  0.000  0.000  0.000  0.000  0.000  0.000  0.030
 11  0.007  0.000  0.000  0.000  0.000  0.000  0.000  0.000  0.000  0.008
 12  0.018  0.000  0.000  0.001  0.000  0.000  0.000  0.000  0.000  0.019
 13  0.003  0.000  0.000  0.000  0.000  0.000  0.000  0.000  0.000  0.003
 14  0.006  0.000  0.000  0.000  0.000  0.000  0.000  0.000  0.000  0.007
tot  0.434  0.014  0.012  0.011  0.000  0.000  0.000  0.000  0.000  0.470
 
band   3 # energy  -13.36101027 # occ.  2.00000000
 
ion      s     py     pz     px    dxy    dyz    dz2    dxz    dx2    tot
  1  0.000  0.000  0.000  0.000  0.000  0.000  0.000  0.000  0.000  0.000
  2  0.029  0.001  0.001  0.001  0.000  0.000  0.000  0.000  0.000  0.032
  3  0.000  0.000  0.001  0.001  0.000  0.000  0.000  0.000  0.000  0.002
  4  0.115  0.000  0.000  0.000  0.000  0.000  0.000  0.000  0.000  0.116
  5  0.037  0.001  0.001  0.002  0.000  0.000  0.000  0.000  0.000  0.040
  6  0.000  0.000  0.000  0.000  0.000  0.000  0.000  0.000  0.000  0.000
  7  0.128  0.000  0.000  0.000  0.000  0.000  0.000  0.000  0.000  0.128
  8  0.001  0.000  0.001  0.001  0.000  0.000  0.000  0.000  0.000  0.003
  9  0.029  0.001  0.001  0.001  0.000  0.000  0.000  0.000  0.000  0.033
 10  0.000  0.000  0.004  0.004  0.000  0.000  0.000  0.000  0.000  0.008
 11  0.031  0.002  0.001  0.001  0.000  0.000  0.000  0.000  0.000  0.035
 12  0.037  0.001  0.001  0.002  0.000  0.000  0.000  0.000  0.000  0.040
 13  0.000  0.000  0.000  0.000  0.000  0.000  0.000  0.000  0.000  0.000
 14  0.028  0.001  0.001  0.001  0.000  0.000  0.000  0.000  0.000  0.032
tot  0.434  0.007  0.014  0.016  0.000  0.000  0.000  0.000  0.000  0.470
 
band   4 # energy  -13.36100065 # occ.  2.00000000
 
ion      s     py     pz     px    dxy    dyz    dz2    dxz    dx2    tot
  1  0.000  0.000  0.000  0.000  0.000  0.000  0.000  0.000  0.000  0.000
  2  0.017  0.000  0.001  0.000  0.000  0.000  0.000  0.000  0.000  0.018
  3  0.002  0.001  0.000  0.000  0.000  0.000  0.000  0.000  0.000  0.004
  4  0.044  0.001  0.000  0.001  0.000  0.000  0.000  0.000  0.000  0.045
  5  0.011  0.000  0.000  0.001  0.000  0.000  0.000  0.000  0.000  0.012
  6  0.037  0.002  0.002  0.002  0.000  0.000  0.000  0.000  0.000  0.043
  7  0.027  0.001  0.001  0.000  0.000  0.000  0.000  0.000  0.000  0.028
  8  0.172  0.000  0.000  0.000  0.000  0.000  0.000  0.000  0.000  0.172
  9  0.017  0.003  0.001  0.002  0.000  0.000  0.000  0.000  0.000  0.023
 10  0.037  0.002  0.000  0.000  0.000  0.000  0.000  0.000  0.000  0.039
 11  0.006  0.000  0.000  0.000  0.000  0.000  0.000  0.000  0.000  0.007
 12  0.011  0.003  0.003  0.001  0.000  0.000  0.000  0.000  0.000  0.018
 13  0.041  0.002  0.002  0.002  0.000  0.000  0.000  0.000  0.000  0.047
 14  0.011  0.000  0.000  0.001  0.000  0.000  0.000  0.000  0.000  0.012
tot  0.434  0.016  0.011  0.009  0.000  0.000  0.000  0.000  0.000  0.470
 
band   5 # energy  -11.09911190 # occ.  2.00000000
 
ion      s     py     pz     px    dxy    dyz    dz2    dxz    dx2    tot
  1  0.000  0.000  0.000  0.000  0.000  0.000  0.000  0.000  0.000  0.000
  2  0.001  0.000  0.000  0.000  0.000  0.000  0.000  0.000  0.000  0.001
  3  0.000  0.007  0.000  0.009  0.000  0.000  0.000  0.000  0.000  0.016
  4  0.000  0.007  0.000  0.009  0.000  0.000  0.000  0.000  0.000  0.016
  5  0.114  0.000  0.000  0.001  0.000  0.000  0.000  0.000  0.000  0.115
  6  0.094  0.001  0.000  0.000  0.000  0.000  0.000  0.000  0.000  0.095
  7  0.000  0.007  0.000  0.009  0.000  0.000  0.000  0.000  0.000  0.016
  8  0.000  0.007  0.000  0.009  0.000  0.000  0.000  0.000  0.000  0.016
  9  0.001  0.000  0.000  0.000  0.000  0.000  0.000  0.000  0.000  0.001
 10  0.094  0.001  0.000  0.000  0.000  0.000  0.000  0.000  0.000  0.095
 11  0.000  0.000  0.000  0.000  0.000  0.000  0.000  0.000  0.000  0.000
 12  0.114  0.000  0.000  0.001  0.000  0.000  0.000  0.000  0.000  0.115
 13  0.000  0.000  0.000  0.000  0.000  0.000  0.000  0.000  0.000  0.000
 14  0.000  0.000  0.000  0.000  0.000  0.000  0.000  0.000  0.000  0.000
tot  0.417  0.031  0.000  0.037  0.000  0.000  0.000  0.000  0.000  0.486
 
band   6 # energy  -11.09911164 # occ.  2.00000000
 
ion      s     py     pz     px    dxy    dyz    dz2    dxz    dx2    tot
  1  0.000  0.000  0.000  0.000  0.000  0.000  0.000  0.000  0.000  0.000
  2  0.138  0.000  0.001  0.000  0.000  0.000  0.000  0.000  0.000  0.140
  3  0.000  0.003  0.010  0.002  0.000  0.000  0.000  0.000  0.000  0.016
  4  0.000  0.003  0.010  0.002  0.000  0.000  0.000  0.000  0.000  0.016
  5  0.025  0.000  0.000  0.000  0.000  0.000  0.000  0.000  0.000  0.026
  6  0.045  0.000  0.000  0.000  0.000  0.000  0.000  0.000  0.000  0.046
  7  0.000  0.003  0.010  0.002  0.000  0.000  0.000  0.000  0.000  0.016
  8  0.000  0.003  0.010  0.002  0.000  0.000  0.000  0.000  0.000  0.016
  9  0.138  0.000  0.001  0.000  0.000  0.000  0.000  0.000  0.000  0.140
 10  0.045  0.000  0.000  0.000  0.000  0.000  0.000  0.000  0.000  0.046
 11  0.000  0.000  0.000  0.000  0.000  0.000  0.000  0.000  0.000  0.000
 12  0.025  0.000  0.000  0.000  0.000  0.000  0.000  0.000  0.000  0.026
 13  0.000  0.000  0.000  0.000  0.000  0.000  0.000  0.000  0.000  0.000
 14  0.000  0.000  0.000  0.000  0.000  0.000  0.000  0.000  0.000  0.000
tot  0.417  0.015  0.045  0.008  0.000  0.000  0.000  0.000  0.000  0.486
 
band   7 # energy  -10.96602760 # occ.  2.00000000
 
ion      s     py     pz     px    dxy    dyz    dz2    dxz    dx2    tot
  1  0.019  0.000  0.000  0.000  0.000  0.000  0.000  0.000  0.000  0.020
  2  0.027  0.001  0.001  0.000  0.000  0.000  0.000  0.000  0.000  0.029
  3  0.000  0.000  0.011  0.000  0.000  0.000  0.000  0.000  0.000  0.011
  4  0.003  0.009  0.007  0.006  0.000  0.000  0.000  0.000  0.000  0.025
  5  0.039  0.000  0.000  0.001  0.000  0.000  0.000  0.000  0.000  0.040
  6  0.018  0.000  0.000  0.000  0.000  0.000  0.000  0.000  0.000  0.019
  7  0.001  0.012  0.000  0.000  0.000  0.000  0.000  0.000  0.000  0.013
  8  0.000  0.000  0.001  0.009  0.000  0.000  0.000  0.000  0.000  0.010
  9  0.027  0.000  0.001  0.000  0.000  0.000  0.000  0.000  0.000  0.029
 10  0.018  0.000  0.001  0.001  0.000  0.000  0.000  0.000  0.000  0.020
 11  0.036  0.000  0.000  0.000  0.000  0.000  0.000  0.000  0.000  0.037
 12  0.039  0.000  0.000  0.001  0.000  0.000  0.000  0.000  0.000  0.041
 13  0.007  0.000  0.000  0.000  0.000  0.000  0.000  0.000  0.000  0.008
 14  0.171  0.001  0.001  0.001  0.000  0.000  0.000  0.000  0.000  0.175
tot  0.407  0.026  0.023  0.020  0.000  0.000  0.000  0.000  0.000  0.475
 
band   8 # energy  -10.96601314 # occ.  2.00000000
 
ion      s     py     pz     px    dxy    dyz    dz2    dxz    dx2    tot
  1  0.105  0.001  0.001  0.001  0.000  0.000  0.000  0.000  0.000  0.108
  2  0.029  0.000  0.001  0.001  0.000  0.000  0.000  0.000  0.000  0.031
  3  0.002  0.001  0.003  0.014  0.000  0.000  0.000  0.000  0.000  0.019
  4  0.000  0.004  0.005  0.000  0.000  0.000  0.000  0.000  0.000  0.010
  5  0.000  0.001  0.001  0.000  0.000  0.000  0.000  0.000  0.000  0.002
  6  0.055  0.001  0.000  0.000  0.000  0.000  0.000  0.000  0.000  0.056
  7  0.002  0.002  0.004  0.013  0.000  0.000  0.000  0.000  0.000  0.021
  8  0.000  0.003  0.006  0.000  0.000  0.000  0.000  0.000  0.000  0.010
  9  0.029  0.000  0.001  0.001  0.000  0.000  0.000  0.000  0.000  0.031
 10  0.055  0.001  0.000  0.000  0.000  0.000  0.000  0.000  0.000  0.056
 11  0.123  0.001  0.001  0.001  0.000  0.000  0.000  0.000  0.000  0.125
 12  0.000  0.000  0.000  0.000  0.000  0.000  0.000  0.000  0.000  0.001
 13  0.004  0.000  0.000  0.000  0.000  0.000  0.000  0.000  0.000  0.004
 14  0.002  0.000  0.000  0.000  0.000  0.000  0.000  0.000  0.000  0.002
tot  0.407  0.016  0.023  0.030  0.000  0.000  0.000  0.000  0.000  0.475
 
band   9 # energy  -10.96600478 # occ.  2.00000000
 
ion      s     py     pz     px    dxy    dyz    dz2    dxz    dx2    tot
  1  0.051  0.000  0.000  0.001  0.000  0.000  0.000  0.000  0.000  0.052
  2  0.028  0.000  0.001  0.000  0.000  0.000  0.000  0.000  0.000  0.029
  3  0.001  0.013  0.000  0.000  0.000  0.000  0.000  0.000  0.000  0.014
  4  0.000  0.000  0.001  0.008  0.000  0.000  0.000  0.000  0.000  0.010
  5  0.045  0.000  0.000  0.001  0.000  0.000  0.000  0.000  0.000  0.047
  6  0.012  0.000  0.001  0.001  0.000  0.000  0.000  0.000  0.000  0.013
  7  0.000  0.000  0.010  0.001  0.000  0.000  0.000  0.000  0.000  0.011
  8  0.003  0.011  0.007  0.005  0.000  0.000  0.000  0.000  0.000  0.025
  9  0.028  0.001  0.001  0.000  0.000  0.000  0.000  0.000  0.000  0.029
 10  0.012  0.000  0.000  0.000  0.000  0.000  0.000  0.000  0.000  0.012
 11  0.017  0.000  0.000  0.000  0.000  0.000  0.000  0.000  0.000  0.017
 12  0.045  0.000  0.000  0.001  0.000  0.000  0.000  0.000  0.000  0.047
 13  0.164  0.001  0.001  0.001  0.000  0.000  0.000  0.000  0.000  0.167
 14  0.003  0.000  0.000  0.000  0.000  0.000  0.000  0.000  0.000  0.003
tot  0.407  0.027  0.023  0.018  0.000  0.000  0.000  0.000  0.000  0.475
 
band  10 # energy  -10.93894559 # occ.  2.00000000
 
ion      s     py     pz     px    dxy    dyz    dz2    dxz    dx2    tot
  1  0.090  0.001  0.001  0.001  0.000  0.000  0.000  0.000  0.000  0.091
  2  0.007  0.000  0.001  0.000  0.000  0.000  0.000  0.000  0.000  0.008
  3  0.000  0.004  0.004  0.004  0.000  0.000  0.000  0.000  0.000  0.014
  4  0.000  0.004  0.004  0.004  0.000  0.000  0.000  0.000  0.000  0.014
  5  0.007  0.000  0.000  0.001  0.000  0.000  0.000  0.000  0.000  0.008
  6  0.007  0.001  0.000  0.000  0.000  0.000  0.000  0.000  0.000  0.008
  7  0.000  0.004  0.004  0.004  0.000  0.000  0.000  0.000  0.000  0.014
  8  0.000  0.004  0.004  0.004  0.000  0.000  0.000  0.000  0.000  0.014
  9  0.007  0.000  0.001  0.000  0.000  0.000  0.000  0.000  0.000  0.008
 10  0.007  0.001  0.000  0.000  0.000  0.000  0.000  0.000  0.000  0.008
 11  0.090  0.001  0.001  0.001  0.000  0.000  0.000  0.000  0.000  0.091
 12  0.007  0.000  0.000  0.001  0.000  0.000  0.000  0.000  0.000  0.008
 13  0.090  0.001  0.001  0.001  0.000  0.000  0.000  0.000  0.000  0.092
 14  0.089  0.001  0.001  0.001  0.000  0.000  0.000  0.000  0.000  0.091
tot  0.402  0.022  0.022  0.022  0.000  0.000  0.000  0.000  0.000  0.469
 
band  11 # energy   -8.95206971 # occ.  2.00000000
 
ion      s     py     pz     px    dxy    dyz    dz2    dxz    dx2    tot
  1  0.003  0.000  0.000  0.000  0.000  0.000  0.000  0.000  0.000  0.004
  2  0.017  0.009  0.000  0.006  0.000  0.000  0.000  0.000  0.000  0.032
  3  0.003  0.001  0.008  0.007  0.000  0.000  0.000  0.000  0.000  0.019
  4  0.087  0.000  0.003  0.003  0.000  0.000  0.000  0.000  0.000  0.093
  5  0.017  0.003  0.000  0.000  0.000  0.000  0.000  0.000  0.000  0.020
  6  0.003  0.000  0.001  0.001  0.000  0.000  0.000  0.000  0.000  0.005
  7  0.036  0.003  0.004  0.004  0.000  0.000  0.000  0.000  0.000  0.048
  8  0.003  0.001  0.006  0.009  0.000  0.000  0.000  0.000  0.000  0.019
  9  0.017  0.003  0.000  0.000  0.000  0.000  0.000  0.000  0.000  0.020
 10  0.003  0.000  0.015  0.014  0.000  0.000  0.000  0.000  0.000  0.032
 11  0.040  0.000  0.001  0.001  0.000  0.000  0.000  0.000  0.000  0.042
 12  0.017  0.009  0.006  0.000  0.000  0.000  0.000  0.000  0.000  0.032
 13  0.003  0.000  0.000  0.000  0.000  0.000  0.000  0.000  0.000  0.004
 14  0.098  0.001  0.001  0.001  0.000  0.000  0.000  0.000  0.000  0.101
tot  0.345  0.030  0.047  0.048  0.000  0.000  0.000  0.000  0.000  0.471
 
band  12 # energy   -8.95206019 # occ.  2.00000000
 
ion      s     py     pz     px    dxy    dyz    dz2    dxz    dx2    tot
  1  0.033  0.001  0.000  0.000  0.000  0.000  0.000  0.000  0.000  0.034
  2  0.002  0.002  0.000  0.008  0.000  0.000  0.000  0.000  0.000  0.012
  3  0.029  0.011  0.000  0.002  0.000  0.000  0.000  0.000  0.000  0.042
  4  0.009  0.013  0.001  0.001  0.000  0.000  0.000  0.000  0.000  0.025
  5  0.002  0.008  0.014  0.000  0.000  0.000  0.000  0.000  0.000  0.024
  6  0.033  0.001  0.000  0.000  0.000  0.000  0.000  0.000  0.000  0.034
  7  0.060  0.009  0.000  0.000  0.000  0.000  0.000  0.000  0.000  0.069
  8  0.029  0.011  0.002  0.000  0.000  0.000  0.000  0.000  0.000  0.042
  9  0.002  0.008  0.000  0.014  0.000  0.000  0.000  0.000  0.000  0.024
 10  0.033  0.001  0.001  0.001  0.000  0.000  0.000  0.000  0.000  0.037
 11  0.068  0.002  0.000  0.000  0.000  0.000  0.000  0.000  0.000  0.071
 12  0.002  0.002  0.008  0.000  0.000  0.000  0.000  0.000  0.000  0.012
 13  0.033  0.001  0.000  0.000  0.000  0.000  0.000  0.000  0.000  0.035
 14  0.010  0.001  0.000  0.000  0.000  0.000  0.000  0.000  0.000  0.011
tot  0.345  0.069  0.028  0.028  0.000  0.000  0.000  0.000  0.000  0.471
 
band  13 # energy   -8.95205328 # occ.  2.00000000
 
ion      s     py     pz     px    dxy    dyz    dz2    dxz    dx2    tot
  1  0.072  0.000  0.001  0.001  0.000  0.000  0.000  0.000  0.000  0.075
  2  0.018  0.006  0.000  0.002  0.000  0.000  0.000  0.000  0.000  0.027
  3  0.064  0.001  0.004  0.004  0.000  0.000  0.000  0.000  0.000  0.073
  4  0.000  0.000  0.008  0.008  0.000  0.000  0.000  0.000  0.000  0.016
  5  0.018  0.006  0.002  0.000  0.000  0.000  0.000  0.000  0.000  0.027
  6  0.000  0.000  0.016  0.016  0.000  0.000  0.000  0.000  0.000  0.032
  7  0.000  0.000  0.008  0.008  0.000  0.000  0.000  0.000  0.000  0.016
  8  0.064  0.001  0.004  0.004  0.000  0.000  0.000  0.000  0.000  0.073
  9  0.018  0.006  0.000  0.002  0.000  0.000  0.000  0.000  0.000  0.027
 10  0.000  0.000  0.001  0.001  0.000  0.000  0.000  0.000  0.000  0.002
 11  0.000  0.000  0.000  0.000  0.000  0.000  0.000  0.000  0.000  0.001
 12  0.018  0.006  0.002  0.000  0.000  0.000  0.000  0.000  0.000  0.027
 13  0.072  0.000  0.001  0.001  0.000  0.000  0.000  0.000  0.000  0.075
 14  0.000  0.000  0.000  0.000  0.000  0.000  0.000  0.000  0.000  0.001
tot  0.345  0.026  0.050  0.049  0.000  0.000  0.000  0.000  0.000  0.471
 
band  14 # energy   -6.84407195 # occ.  2.00000000
 
ion      s     py     pz     px    dxy    dyz    dz2    dxz    dx2    tot
  1  0.000  0.001  0.000  0.001  0.000  0.000  0.000  0.000  0.000  0.001
  2  0.000  0.001  0.000  0.003  0.000  0.000  0.000  0.000  0.000  0.004
  3  0.000  0.007  0.000  0.006  0.000  0.000  0.000  0.000  0.000  0.012
  4  0.000  0.018  0.000  0.016  0.000  0.000  0.000  0.000  0.000  0.034
  5  0.000  0.009  0.002  0.000  0.000  0.000  0.000  0.000  0.000  0.011
  6  0.000  0.000  0.002  0.011  0.000  0.000  0.000  0.000  0.000  0.013
  7  0.000  0.018  0.043  0.006  0.000  0.000  0.000  0.000  0.000  0.066
  8  0.000  0.007  0.043  0.016  0.000  0.000  0.000  0.000  0.000  0.066
  9  0.000  0.037  0.000  0.038  0.000  0.000  0.000  0.000  0.000  0.076
 10  0.000  0.000  0.011  0.020  0.000  0.000  0.000  0.000  0.000  0.032
 11  0.000  0.002  0.005  0.001  0.000  0.000  0.000  0.000  0.000  0.007
 12  0.000  0.018  0.010  0.000  0.000  0.000  0.000  0.000  0.000  0.028
 13  0.000  0.001  0.005  0.002  0.000  0.000  0.000  0.000  0.000  0.007
 14  0.000  0.002  0.000  0.002  0.000  0.000  0.000  0.000  0.000  0.004
tot  0.000  0.120  0.121  0.120  0.000  0.000  0.000  0.000  0.000  0.362
 
band  15 # energy   -6.84406862 # occ.  2.00000000
 
ion      s     py     pz     px    dxy    dyz    dz2    dxz    dx2    tot
  1  0.000  0.004  0.000  0.002  0.000  0.000  0.000  0.000  0.000  0.006
  2  0.000  0.001  0.000  0.002  0.000  0.000  0.000  0.000  0.000  0.003
  3  0.000  0.033  0.002  0.020  0.000  0.000  0.000  0.000  0.000  0.055
  4  0.000  0.011  0.002  0.022  0.000  0.000  0.000  0.000  0.000  0.035
  5  0.000  0.010  0.027  0.000  0.000  0.000  0.000  0.000  0.000  0.036
  6  0.000  0.000  0.038  0.022  0.000  0.000  0.000  0.000  0.000  0.060
  7  0.000  0.011  0.001  0.020  0.000  0.000  0.000  0.000  0.000  0.032
  8  0.000  0.033  0.001  0.022  0.000  0.000  0.000  0.000  0.000  0.056
  9  0.000  0.001  0.000  0.002  0.000  0.000  0.000  0.000  0.000  0.002
 10  0.000  0.000  0.019  0.003  0.000  0.000  0.000  0.000  0.000  0.023
 11  0.000  0.001  0.000  0.002  0.000  0.000  0.000  0.000  0.000  0.003
 12  0.000  0.012  0.029  0.000  0.000  0.000  0.000  0.000  0.000  0.040
 13  0.000  0.004  0.000  0.002  0.000  0.000  0.000  0.000  0.000  0.006
 14  0.000  0.001  0.000  0.002  0.000  0.000  0.000  0.000  0.000  0.004
tot  0.000  0.122  0.119  0.121  0.000  0.000  0.000  0.000  0.000  0.362
 
band  16 # energy   -6.84406482 # occ.  2.00000000
 
ion      s     py     pz     px    dxy    dyz    dz2    dxz    dx2    tot
  1  0.000  0.000  0.005  0.002  0.000  0.000  0.000  0.000  0.000  0.007
  2  0.000  0.039  0.000  0.036  0.000  0.000  0.000  0.000  0.000  0.075
  3  0.000  0.004  0.043  0.019  0.000  0.000  0.000  0.000  0.000  0.066
  4  0.000  0.016  0.043  0.007  0.000  0.000  0.000  0.000  0.000  0.065
  5  0.000  0.022  0.013  0.000  0.000  0.000  0.000  0.000  0.000  0.035
  6  0.000  0.000  0.001  0.008  0.000  0.000  0.000  0.000  0.000  0.009
  7  0.000  0.016  0.000  0.019  0.000  0.000  0.000  0.000  0.000  0.035
  8  0.000  0.004  0.000  0.007  0.000  0.000  0.000  0.000  0.000  0.011
  9  0.000  0.003  0.000  0.001  0.000  0.000  0.000  0.000  0.000  0.004
 10  0.000  0.000  0.011  0.017  0.000  0.000  0.000  0.000  0.000  0.028
 11  0.000  0.002  0.000  0.002  0.000  0.000  0.000  0.000  0.000  0.004
 12  0.000  0.011  0.002  0.000  0.000  0.000  0.000  0.000  0.000  0.013
 13  0.000  0.000  0.000  0.001  0.000  0.000  0.000  0.000  0.000  0.001
 14  0.000  0.002  0.005  0.001  0.000  0.000  0.000  0.000  0.000  0.007
tot  0.000  0.120  0.121  0.120  0.000  0.000  0.000  0.000  0.000  0.362
 
band  17 # energy   -6.66422770 # occ.  2.00000000
 
ion      s     py     pz     px    dxy    dyz    dz2    dxz    dx2    tot
  1  0.000  0.001  0.001  0.001  0.000  0.000  0.000  0.000  0.000  0.002
  2  0.035  0.000  0.016  0.000  0.000  0.000  0.000  0.000  0.000  0.051
  3  0.024  0.001  0.001  0.001  0.000  0.000  0.000  0.000  0.000  0.026
  4  0.024  0.001  0.001  0.001  0.000  0.000  0.000  0.000  0.000  0.026
  5  0.035  0.000  0.000  0.016  0.000  0.000  0.000  0.000  0.000  0.051
  6  0.035  0.016  0.000  0.000  0.000  0.000  0.000  0.000  0.000  0.051
  7  0.024  0.001  0.001  0.001  0.000  0.000  0.000  0.000  0.000  0.026
  8  0.024  0.001  0.001  0.001  0.000  0.000  0.000  0.000  0.000  0.026
  9  0.035  0.000  0.016  0.000  0.000  0.000  0.000  0.000  0.000  0.051
 10  0.035  0.016  0.000  0.000  0.000  0.000  0.000  0.000  0.000  0.051
 11  0.000  0.001  0.001  0.001  0.000  0.000  0.000  0.000  0.000  0.002
 12  0.035  0.000  0.000  0.016  0.000  0.000  0.000  0.000  0.000  0.051
 13  0.000  0.001  0.001  0.001  0.000  0.000  0.000  0.000  0.000  0.002
 14  0.000  0.001  0.001  0.001  0.000  0.000  0.000  0.000  0.000  0.002
tot  0.310  0.037  0.037  0.037  0.000  0.000  0.000  0.000  0.000  0.420
 
band  18 # energy   -6.33512977 # occ.  2.00000000
 
ion      s     py     pz     px    dxy    dyz    dz2    dxz    dx2    tot
  1  0.021  0.010  0.010  0.010  0.000  0.000  0.000  0.000  0.000  0.051
  2  0.001  0.000  0.003  0.000  0.000  0.000  0.000  0.000  0.000  0.004
  3  0.012  0.008  0.008  0.008  0.000  0.000  0.000  0.000  0.000  0.037
  4  0.012  0.008  0.008  0.008  0.000  0.000  0.000  0.000  0.000  0.037
  5  0.001  0.000  0.000  0.003  0.000  0.000  0.000  0.000  0.000  0.004
  6  0.001  0.003  0.000  0.000  0.000  0.000  0.000  0.000  0.000  0.004
  7  0.012  0.008  0.008  0.008  0.000  0.000  0.000  0.000  0.000  0.037
  8  0.012  0.008  0.008  0.008  0.000  0.000  0.000  0.000  0.000  0.037
  9  0.001  0.000  0.003  0.000  0.000  0.000  0.000  0.000  0.000  0.004
 10  0.001  0.003  0.000  0.000  0.000  0.000  0.000  0.000  0.000  0.004
 11  0.021  0.010  0.010  0.010  0.000  0.000  0.000  0.000  0.000  0.051
 12  0.001  0.000  0.000  0.003  0.000  0.000  0.000  0.000  0.000  0.004
 13  0.021  0.010  0.010  0.010  0.000  0.000  0.000  0.000  0.000  0.051
 14  0.021  0.010  0.010  0.010  0.000  0.000  0.000  0.000  0.000  0.051
tot  0.137  0.080  0.080  0.080  0.000  0.000  0.000  0.000  0.000  0.376
 
band  19 # energy   -5.53416441 # occ.  2.00000000
 
ion      s     py     pz     px    dxy    dyz    dz2    dxz    dx2    tot
  1  0.000  0.000  0.000  0.000  0.000  0.000  0.000  0.000  0.000  0.001
  2  0.017  0.000  0.024  0.001  0.000  0.000  0.000  0.000  0.000  0.043
  3  0.000  0.002  0.010  0.001  0.000  0.000  0.000  0.000  0.000  0.013
  4  0.006  0.004  0.002  0.007  0.000  0.000  0.000  0.000  0.000  0.020
  5  0.005  0.018  0.017  0.007  0.000  0.000  0.000  0.000  0.000  0.047
  6  0.011  0.016  0.012  0.013  0.000  0.000  0.000  0.000  0.000  0.052
  7  0.001  0.011  0.002  0.000  0.000  0.000  0.000  0.000  0.000  0.013
  8  0.002  0.000  0.000  0.013  0.000  0.000  0.000  0.000  0.000  0.015
  9  0.017  0.009  0.024  0.010  0.000  0.000  0.000  0.000  0.000  0.061
 10  0.011  0.016  0.000  0.002  0.000  0.000  0.000  0.000  0.000  0.029
 11  0.000  0.000  0.001  0.000  0.000  0.000  0.000  0.000  0.000  0.001
 12  0.005  0.001  0.000  0.007  0.000  0.000  0.000  0.000  0.000  0.013
 13  0.001  0.001  0.001  0.000  0.000  0.000  0.000  0.000  0.000  0.002
 14  0.002  0.002  0.002  0.001  0.000  0.000  0.000  0.000  0.000  0.007
tot  0.079  0.079  0.095  0.063  0.000  0.000  0.000  0.000  0.000  0.316
 
band  20 # energy   -5.53416151 # occ.  2.00000000
 
ion      s     py     pz     px    dxy    dyz    dz2    dxz    dx2    tot
  1  0.000  0.000  0.000  0.000  0.000  0.000  0.000  0.000  0.000  0.000
  2  0.000  0.021  0.000  0.019  0.000  0.000  0.000  0.000  0.000  0.040
  3  0.000  0.006  0.000  0.006  0.000  0.000  0.000  0.000  0.000  0.013
  4  0.000  0.008  0.000  0.005  0.000  0.000  0.000  0.000  0.000  0.013
  5  0.021  0.002  0.004  0.030  0.000  0.000  0.000  0.000  0.000  0.057
  6  0.012  0.017  0.009  0.006  0.000  0.000  0.000  0.000  0.000  0.044
  7  0.004  0.002  0.011  0.000  0.000  0.000  0.000  0.000  0.000  0.018
  8  0.004  0.001  0.012  0.000  0.000  0.000  0.000  0.000  0.000  0.017
  9  0.000  0.001  0.000  0.000  0.000  0.000  0.000  0.000  0.000  0.002
 10  0.012  0.017  0.007  0.004  0.000  0.000  0.000  0.000  0.000  0.041
 11  0.002  0.001  0.001  0.002  0.000  0.000  0.000  0.000  0.000  0.005
 12  0.021  0.004  0.005  0.030  0.000  0.000  0.000  0.000  0.000  0.060
 13  0.002  0.001  0.000  0.001  0.000  0.000  0.000  0.000  0.000  0.005
 14  0.000  0.000  0.000  0.000  0.000  0.000  0.000  0.000  0.000  0.001
tot  0.079  0.082  0.050  0.105  0.000  0.000  0.000  0.000  0.000  0.316
 
band  21 # energy   -5.53415713 # occ.  2.00000000
 
ion      s     py     pz     px    dxy    dyz    dz2    dxz    dx2    tot
  1  0.003  0.002  0.002  0.001  0.000  0.000  0.000  0.000  0.000  0.007
  2  0.016  0.000  0.023  0.000  0.000  0.000  0.000  0.000  0.000  0.039
  3  0.006  0.005  0.003  0.006  0.000  0.000  0.000  0.000  0.000  0.020
  4  0.000  0.001  0.011  0.001  0.000  0.000  0.000  0.000  0.000  0.013
  5  0.007  0.001  0.000  0.010  0.000  0.000  0.000  0.000  0.000  0.018
  6  0.010  0.014  0.000  0.001  0.000  0.000  0.000  0.000  0.000  0.026
  7  0.001  0.000  0.000  0.013  0.000  0.000  0.000  0.000  0.000  0.014
  8  0.001  0.012  0.001  0.000  0.000  0.000  0.000  0.000  0.000  0.014
  9  0.016  0.010  0.023  0.011  0.000  0.000  0.000  0.000  0.000  0.060
 10  0.010  0.014  0.013  0.014  0.000  0.000  0.000  0.000  0.000  0.052
 11  0.001  0.001  0.001  0.000  0.000  0.000  0.000  0.000  0.000  0.002
 12  0.007  0.016  0.015  0.010  0.000  0.000  0.000  0.000  0.000  0.049
 13  0.000  0.000  0.001  0.000  0.000  0.000  0.000  0.000  0.000  0.001
 14  0.000  0.000  0.000  0.000  0.000  0.000  0.000  0.000  0.000  0.001
tot  0.079  0.076  0.092  0.069  0.000  0.000  0.000  0.000  0.000  0.316
 
band  22 # energy   -5.27810516 # occ.  2.00000000
 
ion      s     py     pz     px    dxy    dyz    dz2    dxz    dx2    tot
  1  0.003  0.004  0.017  0.002  0.000  0.000  0.000  0.000  0.000  0.027
  2  0.001  0.004  0.001  0.001  0.000  0.000  0.000  0.000  0.000  0.007
  3  0.000  0.008  0.000  0.012  0.000  0.000  0.000  0.000  0.000  0.021
  4  0.002  0.024  0.024  0.031  0.000  0.000  0.000  0.000  0.000  0.081
  5  0.002  0.003  0.003  0.002  0.000  0.000  0.000  0.000  0.000  0.010
  6  0.001  0.001  0.006  0.003  0.000  0.000  0.000  0.000  0.000  0.011
  7  0.000  0.000  0.008  0.012  0.000  0.000  0.000  0.000  0.000  0.021
  8  0.000  0.003  0.003  0.002  0.000  0.000  0.000  0.000  0.000  0.008
  9  0.001  0.006  0.001  0.003  0.000  0.000  0.000  0.000  0.000  0.011
 10  0.001  0.001  0.004  0.001  0.000  0.000  0.000  0.000  0.000  0.007
 11  0.003  0.017  0.004  0.002  0.000  0.000  0.000  0.000  0.000  0.026
 12  0.002  0.002  0.002  0.002  0.000  0.000  0.000  0.000  0.000  0.008
 13  0.000  0.000  0.000  0.006  0.000  0.000  0.000  0.000  0.000  0.007
 14  0.017  0.036  0.036  0.030  0.000  0.000  0.000  0.000  0.000  0.120
tot  0.035  0.109  0.109  0.111  0.000  0.000  0.000  0.000  0.000  0.363
 
band  23 # energy   -5.27809839 # occ.  2.00000000
 
ion      s     py     pz     px    dxy    dyz    dz2    dxz    dx2    tot
  1  0.012  0.019  0.019  0.035  0.000  0.000  0.000  0.000  0.000  0.084
  2  0.002  0.000  0.002  0.005  0.000  0.000  0.000  0.000  0.000  0.009
  3  0.001  0.024  0.023  0.009  0.000  0.000  0.000  0.000  0.000  0.057
  4  0.000  0.003  0.003  0.000  0.000  0.000  0.000  0.000  0.000  0.007
  5  0.000  0.003  0.004  0.000  0.000  0.000  0.000  0.000  0.000  0.007
  6  0.002  0.002  0.000  0.004  0.000  0.000  0.000  0.000  0.000  0.009
  7  0.001  0.024  0.024  0.010  0.000  0.000  0.000  0.000  0.000  0.059
  8  0.000  0.004  0.003  0.000  0.000  0.000  0.000  0.000  0.000  0.007
  9  0.002  0.000  0.002  0.005  0.000  0.000  0.000  0.000  0.000  0.009
 10  0.002  0.002  0.000  0.004  0.000  0.000  0.000  0.000  0.000  0.009
 11  0.012  0.019  0.020  0.035  0.000  0.000  0.000  0.000  0.000  0.086
 12  0.000  0.006  0.006  0.000  0.000  0.000  0.000  0.000  0.000  0.011
 13  0.000  0.002  0.003  0.000  0.000  0.000  0.000  0.000  0.000  0.005
 14  0.000  0.002  0.002  0.000  0.000  0.000  0.000  0.000  0.000  0.005
tot  0.035  0.111  0.111  0.106  0.000  0.000  0.000  0.000  0.000  0.363
 
band  24 # energy   -5.27808587 # occ.  2.00000000
 
ion      s     py     pz     px    dxy    dyz    dz2    dxz    dx2    tot
  1  0.003  0.016  0.003  0.002  0.000  0.000  0.000  0.000  0.000  0.024
  2  0.001  0.005  0.001  0.003  0.000  0.000  0.000  0.000  0.000  0.010
  3  0.000  0.000  0.008  0.011  0.000  0.000  0.000  0.000  0.000  0.019
  4  0.000  0.004  0.005  0.001  0.000  0.000  0.000  0.000  0.000  0.010
  5  0.002  0.003  0.003  0.002  0.000  0.000  0.000  0.000  0.000  0.010
  6  0.001  0.001  0.003  0.002  0.000  0.000  0.000  0.000  0.000  0.007
  7  0.000  0.008  0.000  0.010  0.000  0.000  0.000  0.000  0.000  0.018
  8  0.002  0.025  0.026  0.030  0.000  0.000  0.000  0.000  0.000  0.083
  9  0.001  0.003  0.001  0.002  0.000  0.000  0.000  0.000  0.000  0.007
 10  0.001  0.001  0.005  0.003  0.000  0.000  0.000  0.000  0.000  0.011
 11  0.003  0.003  0.015  0.002  0.000  0.000  0.000  0.000  0.000  0.022
 12  0.002  0.002  0.002  0.002  0.000  0.000  0.000  0.000  0.000  0.008
 13  0.018  0.037  0.036  0.032  0.000  0.000  0.000  0.000  0.000  0.123
 14  0.001  0.000  0.000  0.009  0.000  0.000  0.000  0.000  0.000  0.010
tot  0.035  0.109  0.109  0.111  0.000  0.000  0.000  0.000  0.000  0.363
 
band  25 # energy   -3.99886077 # occ.  1.99035166
 