unknown system                          
           1
    17.431010    0.000000    0.000000
     0.000000   17.431010    0.000000
     0.000000    0.000000   17.431010
   Si
  14
Direct configuration=     1
   0.00000000  0.00000000  0.00000000
   0.15578558  0.15578558  0.00000000
   0.07789279  0.07789279  0.07789279
   0.23367894  0.23367894  0.07789279
   0.00000000  0.15578558  0.15578558
   0.15578558  0.00000000  0.15578558
   0.07789279  0.23367894  0.23367894
   0.23367894  0.07789279  0.23367894
   0.15578558  0.15578558  0.31157173
   0.15578558  0.31157173  0.15578558
   0.00000000  0.31157173  0.31157173
   0.31157173  0.15578558  0.15578558
   0.31157173  0.00000000  0.31157173
   0.31157173  0.31157173  0.00000000
