unknown system                          
   2.80000000000000     
     0.987555    0.000000    0.000000
    -0.493778    0.855248    0.000000
     0.000000    0.000000    1.708967
   Pt
     2
Direct
  0.333333  0.666667  0.250000
  0.666667  0.333333  0.750000
 
   32   32   56
  3.9773      4.0137      4.1235      4.3080      4.5686      4.9048      5.3137      5.7884      6.3177      6.8859    
  7.4718      8.0492      8.5876      9.0537      9.4151      9.6443      9.7229      9.6443      9.4151      9.0537    
  8.5876      8.0492      7.4718      6.8859      6.3177      5.7884      5.3137      4.9048      4.5686      4.3080    
  4.1235      4.0137      4.0137      4.0137      4.0868      4.2340      4.4566      4.7552      5.1284      5.5712    
  6.0751      6.6267      7.2078      7.7946      8.3584      8.8667      9.2859      9.5854      9.7415      9.7415    
  9.5854      9.2859      8.8667      8.3584      7.7946      7.2078      6.6267      6.0750      5.5712      5.1284    
  4.7553      4.4566      4.2340      4.0868      4.1235      4.0868      4.1235      4.2340      4.4193      4.6802    
  5.0164      5.4249      5.8997      6.4303      7.0015      7.5924      8.1762      8.7215      9.1942      9.5608    
  9.7934      9.8731      9.7934      9.5608      9.1942      8.7215      8.1762      7.5924      7.0015      6.4303    
  5.8996      5.4249      5.0164      4.6802      4.4193      4.2340      4.3080      4.2340      4.2340      4.3080    
  4.4566      4.6802      4.9789      5.3512      5.7932      6.2977      6.8527      7.4405      8.0370      8.6123    
  9.1320      9.5610      9.8676      10.027      10.027      9.8676      9.5610      9.1320      8.6123      8.0370    
  7.4405      6.8527      6.2977      5.7932      5.3512      4.9789      4.6802      4.4566      4.5686      4.4566    
  4.4193      4.4566      4.5686      4.7553      5.0164      5.3512      5.7575      6.2308      6.7625      7.3385    
  7.9381      8.5334      9.0910      9.5747      9.9499      10.188      10.269      10.188      9.9499      9.5747    
  9.0910      8.5334      7.9381      7.3386      6.7625      6.2308      5.7575      5.3512      5.0164      4.7552    
  4.9048      4.7553      4.6802      4.6802      4.7552      4.9048      5.1284      5.4249      5.7933      6.2308    
  6.7322      7.2871      7.8785      8.4817      9.0648      9.5919      10.027      10.337      10.498      10.498    
  10.337      10.027      9.5919      9.0648      8.4817      7.8786      7.2872      6.7322      6.2308      5.7932    
  5.4249      5.1284      5.3137      5.1284      5.0164      4.9789      5.0164      5.1284      5.3137      5.5712    
  5.8997      6.2977      6.7625      7.2872      7.8586      8.4559      9.0499      9.6060      10.087      10.459    
  10.694      10.774      10.694      10.459      10.087      9.6060      9.0499      8.4559      7.8586      7.2871    
  6.7625      6.2977      5.8997      5.5712      5.7884      5.5712      5.4249      5.3512      5.3512      5.4249    
  5.5712      5.7884      6.0750      6.4303      6.8527      7.3386      7.8786      8.4559      9.0451      9.6136    
  10.125      10.545      10.842      10.996      10.996      10.842      10.545      10.125      9.6136      9.0451    
  8.4559      7.8786      7.3385      6.8527      6.4303      6.0751      6.3177      6.0750      5.8997      5.7933    
  5.7575      5.7932      5.8997      6.0751      6.3177      6.6267      7.0015      7.4405      7.9381      8.4817    
  9.0500      9.6136      10.138      10.588      10.934      11.151      11.224      11.151      10.934      10.588    
  10.138      9.6136      9.0500      8.4817      7.9381      7.4405      7.0015      6.6267      6.8859      6.6267    
  6.4303      6.2977      6.2308      6.2308      6.2977      6.4303      6.6267      6.8859      7.2078      7.5924    
  8.0370      8.5334      9.0648      9.6060      10.125      10.588      10.965      11.229      11.366      11.366    
  11.229      10.965      10.588      10.125      9.6060      9.0648      8.5334      8.0370      7.5924      7.2078    
  7.4718      7.2078      7.0015      6.8527      6.7625      6.7322      6.7625      6.8527      7.0015      7.2078    
  7.4718      7.7946      8.1762      8.6123      9.0910      9.5919      10.087      10.545      10.934      11.229    
  11.413      11.476      11.413      11.229      10.934      10.545      10.087      9.5919      9.0910      8.6123    
  8.1762      7.7946      8.0492      7.7946      7.5924      7.4405      7.3386      7.2872      7.2871      7.3385    
  7.4405      7.5924      7.7946      8.0492      8.3584      8.7216      9.1320      9.5747      10.027      10.459    
  10.842      11.151      11.366      11.476      11.476      11.366      11.151      10.842      10.459      10.027    
  9.5747      9.1320      8.7215      8.3584      8.5876      8.3584      8.1762      8.0370      7.9381      7.8786    
  7.8586      7.8785      7.9381      8.0370      8.1762      8.3584      8.5876      8.8667      9.1942      9.5610    
  9.9499      10.337      10.694      10.996      11.224      11.366      11.413      11.366      11.224      10.996    
  10.694      10.337      9.9499      9.5611      9.1942      8.8667      9.0537      8.8667      8.7215      8.6123    
  8.5334      8.4817      8.4559      8.4559      8.4817      8.5334      8.6123      8.7215      8.8667      9.0537    
  9.2859      9.5608      9.8676      10.188      10.498      10.774      10.996      11.151      11.229      11.229    
  11.151      10.996      10.774      10.498      10.188      9.8676      9.5608      9.2859      9.4151      9.2859    
  9.1942      9.1320      9.0910      9.0648      9.0499      9.0451      9.0499      9.0648      9.0910      9.1320    
  9.1942      9.2859      9.4151      9.5854      9.7934      10.027      10.269      10.498      10.694      10.842    
  10.934      10.965      10.934      10.842      10.694      10.498      10.269      10.027      9.7934      9.5854    
  9.6443      9.5854      9.5608      9.5611      9.5747      9.5919      9.6060      9.6136      9.6136      9.6060    
  9.5919      9.5747      9.5611      9.5608      9.5854      9.6443      9.7415      9.8731      10.027      10.188    
  10.337      10.459      10.545      10.588      10.588      10.545      10.459      10.337      10.188      10.027    
  9.8731      9.7415      9.7229      9.7415      9.7934      9.8676      9.9499      10.027      10.087      10.125    
  10.138      10.125      10.087      10.027      9.9499      9.8676      9.7934      9.7415      9.7229      9.7415    
  9.7934      9.8676      9.9499      10.027      10.087      10.125      10.138      10.125      10.087      10.027    
  9.9499      9.8676      9.7934      9.7415      9.6443      9.7415      9.8731      10.027      10.188      10.337    
  10.459      10.545      10.588      10.588      10.545      10.459      10.337      10.188      10.027      9.8731    
  9.7415      9.6443      9.5854      9.5608      9.5611      9.5747      9.5919      9.6060      9.6136      9.6136    
  9.6060      9.5919      9.5747      9.5611      9.5608      9.5854      9.4151      9.5854      9.7934      10.027    
  10.269      10.498      10.694      10.842      10.934      10.965      10.934      10.842      10.694      10.498    
  10.269      10.027      9.7934      9.5854      9.4151      9.2859      9.1942      9.1320      9.0910      9.0648    
  9.0499      9.0451      9.0499      9.0648      9.0910      9.1320      9.1942      9.2859      9.0537      9.2859    
  9.5608      9.8676      10.188      10.498      10.774      10.996      11.151      11.229      11.229      11.151    
  10.996      10.774      10.498      10.188      9.8676      9.5608      9.2859      9.0537      8.8667      8.7215    
  8.6123      8.5334      8.4817      8.4559      8.4559      8.4817      8.5334      8.6123      8.7215      8.8667    
  8.5876      8.8667      9.1942      9.5611      9.9499      10.337      10.694      10.996      11.224      11.366    
  11.413      11.366      11.224      10.996      10.694      10.337      9.9499      9.5610      9.1942      8.8667    
  8.5876      8.3584      8.1762      8.0370      7.9381      7.8785      7.8586      7.8786      7.9381      8.0370    
  8.1762      8.3584      8.0492      8.3584      8.7215      9.1320      9.5747      10.027      10.459      10.842    
  11.151      11.366      11.476      11.476      11.366      11.151      10.842      10.459      10.027      9.5747    
  9.1320      8.7216      8.3584      8.0492      7.7946      7.5924      7.4405      7.3385      7.2871      7.2872    
  7.3386      7.4405      7.5924      7.7946      7.4718      7.7946      8.1762      8.6123      9.0910      9.5919    
  10.087      10.545      10.934      11.229      11.413      11.476      11.413      11.229      10.934      10.545    
  10.087      9.5919      9.0910      8.6123      8.1762      7.7946      7.4718      7.2078      7.0015      6.8527    
  6.7625      6.7322      6.7625      6.8527      7.0015      7.2078      6.8859      7.2078      7.5924      8.0370    
  8.5334      9.0648      9.6060      10.125      10.588      10.965      11.229      11.366      11.366      11.229    
  10.965      10.588      10.125      9.6060      9.0648      8.5334      8.0370      7.5924      7.2078      6.8859    
  6.6267      6.4303      6.2977      6.2308      6.2308      6.2977      6.4303      6.6267      6.3177      6.6267    
  7.0015      7.4405      7.9381      8.4817      9.0500      9.6136      10.138      10.588      10.934      11.151    
  11.224      11.151      10.934      10.588      10.138      9.6136      9.0500      8.4817      7.9381      7.4405    
  7.0015      6.6267      6.3177      6.0751      5.8997      5.7932      5.7575      5.7933      5.8997      6.0750    
  5.7884      6.0751      6.4303      6.8527      7.3385      7.8786      8.4559      9.0451      9.6136      10.125    
  10.545      10.842      10.996      10.996      10.842      10.545      10.125      9.6136      9.0451      8.4559    
  7.8786      7.3386      6.8527      6.4303      6.0750      5.7884      5.5712      5.4249      5.3512      5.3512    
  5.4249      5.5712      5.3137      5.5712      5.8997      6.2977      6.7625      7.2871      7.8586      8.4559    
  9.0499      9.6060      10.087      10.459      10.694      10.774      10.694      10.459      10.087      9.6060    
  9.0499      8.4559      7.8586      7.2872      6.7625      6.2977      5.8997      5.5712      5.3137      5.1284    
  5.0164      4.9789      5.0164      5.1284      4.9048      5.1284      5.4249      5.7932      6.2308      6.7322    
  7.2872      7.8785      8.4817      9.0648      9.5919      10.027      10.337      10.498      10.498      10.337    
  10.027      9.5919      9.0648      8.4817      7.8785      7.2871      6.7322      6.2308      5.7933      5.4249    
  5.1284      4.9048      4.7552      4.6802      4.6802      4.7553      4.5686      4.7552      5.0164      5.3512    
  5.7575      6.2308      6.7625      7.3386      7.9381      8.5334      9.0910      9.5747      9.9499      10.188    
  10.269      10.188      9.9499      9.5747      9.0910      8.5334      7.9381      7.3385      6.7625      6.2308    
  5.7575      5.3512      5.0164      4.7553      4.5686      4.4566      4.4193      4.4566      4.3080      4.4566    
  4.6802      4.9789      5.3512      5.7932      6.2977      6.8527      7.4405      8.0370      8.6123      9.1320    
  9.5610      9.8676      10.027      10.027      9.8676      9.5610      9.1320      8.6123      8.0370      7.4405    
  6.8527      6.2977      5.7932      5.3512      4.9789      4.6802      4.4566      4.3080      4.2340      4.2340    
  4.1235      4.2340      4.4193      4.6802      5.0164      5.4249      5.8996      6.4303      7.0015      7.5924    
  8.1762      8.7215      9.1942      9.5608      9.7934      9.8731      9.7934      9.5608      9.1942      8.7215    
  8.1762      7.5924      7.0015      6.4303      5.8997      5.4249      5.0164      4.6802      4.4193      4.2340    
  4.1235      4.0868      4.0137      4.0868      4.2340      4.4566      4.7553      5.1284      5.5712      6.0750    
  6.6267      7.2078      7.7946      8.3584      8.8667      9.2859      9.5854      9.7415      9.7415      9.5854    
  9.2859      8.8667      8.3584      7.7946      7.2078      6.6267      6.0751      5.5712      5.1284      4.7552    
  4.4566      4.2340      4.0868      4.0137      4.0217      4.0589      4.1712      4.3597      4.6253      4.9678    
  5.3844      5.8690      6.4111      6.9952      7.6000      8.1984      8.7579      9.2435      9.6206      9.8600    
  9.9421      9.8600      9.6206      9.2435      8.7579      8.1984      7.6000      6.9952      6.4111      5.8690    
  5.3844      4.9678      4.6253      4.3597      4.1712      4.0589      4.0589      4.0589      4.1303      4.2742    
  4.4919      4.7839      5.1487      5.5816      6.0736      6.6119      7.1784      7.7501      8.2991      8.7937    
  9.2017      9.4930      9.6449      9.6449      9.4930      9.2017      8.7937      8.2991      7.7501      7.1784    
  6.6119      6.0736      5.5815      5.1487      4.7839      4.4919      4.2742      4.1303      4.1712      4.1371    
  4.1712      4.2742      4.4473      4.6917      5.0068      5.3895      5.8328      6.3261      6.8542      7.3975    
  7.9317      8.4288      8.8585      9.1913      9.4022      9.4745      9.4022      9.1913      8.8585      8.4288    
  7.9317      7.3975      6.8542      6.3261      5.8328      5.3895      5.0068      4.6917      4.4473      4.2742    
  4.3597      4.2940      4.2940      4.3597      4.4919      4.6917      4.9594      5.2931      5.6878      6.1353    
  6.6232      7.1351      7.6500      8.1431      8.5864      8.9512      9.2115      9.3470      9.3470      9.2115    
  8.9512      8.5864      8.1431      7.6500      7.1351      6.6232      6.1353      5.6878      5.2931      4.9594    
  4.6917      4.4919      4.6253      4.5307      4.4992      4.5307      4.6253      4.7839      5.0068      5.2931    
  5.6393      6.0396      6.4842      6.9601      7.4495      7.9309      8.3788      8.7659      9.0655      9.2553    
  9.3204      9.2553      9.0655      8.7659      8.3788      7.9309      7.4495      6.9601      6.4842      6.0396    
  5.6393      5.2931      5.0068      4.7839      4.9678      4.8473      4.7872      4.7872      4.8473      4.9678    
  5.1487      5.3895      5.6878      6.0396      6.4378      6.8722      7.3289      7.7894      8.2312      8.6290    
  8.9566      9.1903      9.3121      9.3121      9.1903      8.9566      8.6290      8.2312      7.7894      7.3289    
  6.8722      6.4378      6.0396      5.6878      5.3895      5.1487      5.3844      5.2430      5.1580      5.1296    
  5.1580      5.2430      5.3844      5.5815      5.8328      6.1353      6.4843      6.8722      7.2885      7.7182    
  8.1422      8.5376      8.8797      9.1448      9.3127      9.3703      9.3127      9.1448      8.8797      8.5376    
  8.1422      7.7182      7.2885      6.8722      6.4842      6.1353      5.8328      5.5815      5.8690      5.7141    
  5.6102      5.5581      5.5581      5.6102      5.7141      5.8690      6.0736      6.3261      6.6232      6.9601    
  7.3289      7.7182      8.1123      8.4915      8.8334      9.1149      9.3158      9.4203      9.4203      9.3158    
  9.1149      8.8334      8.4915      8.1123      7.7182      7.3289      6.9601      6.6232      6.3261      6.0736    
  6.4111      6.2534      6.1399      6.0715      6.0486      6.0715      6.1399      6.2534      6.4111      6.6119    
  6.8542      7.1351      7.4495      7.7894      8.1422      8.4915      8.8178      9.0999      9.3181      9.4561    
  9.5033      9.4561      9.3181      9.0999      8.8178      8.4915      8.1422      7.7894      7.4495      7.1351    
  6.8542      6.6119      6.9952      6.8485      6.7384      6.6648      6.6280      6.6280      6.6648      6.7384    
  6.8485      6.9952      7.1784      7.3975      7.6500      7.9309      8.2312      8.5376      8.8334      9.0999    
  9.3189      9.4745      9.5553      9.5553      9.4745      9.3189      9.0999      8.8333      8.5376      8.2312    
  7.9309      7.6500      7.3975      7.1784      7.6001      7.4808      7.3904      7.3271      7.2896      7.2772    
  7.2896      7.3271      7.3904      7.4808      7.6001      7.7501      7.9317      8.1431      8.3788      8.6290    
  8.8797      9.1149      9.3181      9.4745      9.5730      9.6065      9.5729      9.4745      9.3181      9.1149    
  8.8797      8.6290      8.3788      8.1431      7.9317      7.7501      8.1984      8.1244      8.0727      8.0385    
  8.0179      8.0082      8.0082      8.0179      8.0385      8.0727      8.1244      8.1984      8.2991      8.4288    
  8.5864      8.7658      8.9566      9.1448      9.3158      9.4561      9.5553      9.6065      9.6065      9.5553    
  9.4561      9.3158      9.1448      8.9566      8.7659      8.5864      8.4288      8.2991      8.7579      8.7470    
  8.7536      8.7691      8.7859      8.7983      8.8028      8.7983      8.7859      8.7691      8.7536      8.7470    
  8.7579      8.7937      8.8585      8.9512      9.0655      9.1903      9.3127      9.4203      9.5033      9.5553    
  9.5729      9.5553      9.5033      9.4203      9.3127      9.1903      9.0655      8.9512      8.8585      8.7937    
  9.2435      9.3112      9.3943      9.4799      9.5556      9.6115      9.6411      9.6411      9.6115      9.5556    
  9.4799      9.3943      9.3112      9.2435      9.2017      9.1913      9.2115      9.2553      9.3121      9.3703    
  9.4203      9.4561      9.4745      9.4745      9.4561      9.4203      9.3703      9.3121      9.2553      9.2115    
  9.1913      9.2016      9.6206      9.7782      9.9524      10.126      10.280      10.401      10.478      10.504    
  10.478      10.401      10.280      10.126      9.9524      9.7782      9.6206      9.4930      9.4022      9.3470    
  9.3204      9.3121      9.3127      9.3158      9.3181      9.3189      9.3181      9.3158      9.3127      9.3121    
  9.3204      9.3470      9.4022      9.4930      9.8600      10.113      10.387      10.660      10.910      11.115    
  11.259      11.333      11.333      11.259      11.115      10.910      10.660      10.387      10.113      9.8600    
  9.6449      9.4745      9.3470      9.2553      9.1903      9.1448      9.1149      9.0999      9.0999      9.1149    
  9.1448      9.1903      9.2553      9.3470      9.4745      9.6450      9.9421      10.287      10.663      11.043    
  11.398      11.701      11.931      12.075      12.124      12.075      11.931      11.701      11.398      11.043    
  10.663      10.287      9.9421      9.6449      9.4022      9.2115      9.0655      8.9566      8.8797      8.8333    
  8.8178      8.8334      8.8797      8.9566      9.0655      9.2115      9.4022      9.6449      9.8600      10.287    
  10.757      11.242      11.708      12.118      12.450      12.684      12.805      12.805      12.684      12.450    
  12.118      11.708      11.242      10.757      10.287      9.8600      9.4930      9.1913      8.9512      8.7659    
  8.6290      8.5376      8.4915      8.4915      8.5376      8.6290      8.7659      8.9512      9.1913      9.4930    
  9.6206      10.113      10.663      11.242      11.813      12.335      12.778      13.118      13.333      13.406    
  13.333      13.118      12.778      12.335      11.813      11.242      10.663      10.113      9.6206      9.2016    
  8.8585      8.5864      8.3788      8.2312      8.1422      8.1123      8.1422      8.2312      8.3788      8.5864    
  8.8585      9.2017      9.2435      9.7782      10.387      11.043      11.708      12.335      12.891      13.345    
  13.666      13.833      13.833      13.666      13.345      12.891      12.335      11.708      11.043      10.387    
  9.7782      9.2435      8.7937      8.4288      8.1431      7.9309      7.7894      7.7182      7.7182      7.7894    
  7.9309      8.1431      8.4288      8.7937      8.7579      9.3112      9.9524      10.660      11.398      12.118    
  12.778      13.345      13.781      14.055      14.148      14.055      13.781      13.345      12.778      12.118    
  11.398      10.660      9.9524      9.3112      8.7579      8.2990      7.9317      7.6500      7.4495      7.3289    
  7.2885      7.3289      7.4495      7.6500      7.9317      8.2991      8.1984      8.7470      9.3943      10.126    
  10.910      11.701      12.450      13.118      13.666      14.055      14.255      14.255      14.055      13.666    
  13.118      12.450      11.701      10.910      10.126      9.3943      8.7470      8.1984      7.7501      7.3975    
  7.1351      6.9601      6.8722      6.8722      6.9601      7.1351      7.3975      7.7501      7.6001      8.1244    
  8.7536      9.4799      10.280      11.115      11.931      12.684      13.333      13.833      14.148      14.255    
  14.148      13.833      13.333      12.684      11.931      11.115      10.280      9.4799      8.7536      8.1244    
  7.6001      7.1784      6.8542      6.6232      6.4842      6.4378      6.4842      6.6232      6.8542      7.1784    
  6.9952      7.4808      8.0727      8.7691      9.5556      10.401      11.259      12.075      12.805      13.406    
  13.833      14.055      14.055      13.833      13.406      12.805      12.075      11.259      10.401      9.5556    
  8.7691      8.0727      7.4808      6.9952      6.6119      6.3261      6.1353      6.0396      6.0396      6.1353    
  6.3261      6.6119      6.4111      6.8485      7.3904      8.0385      8.7859      9.6115      10.478      11.333    
  12.124      12.805      13.333      13.666      13.781      13.666      13.333      12.805      12.124      11.333    
  10.478      9.6115      8.7859      8.0385      7.3904      6.8485      6.4111      6.0737      5.8328      5.6878    
  5.6393      5.6878      5.8328      6.0736      5.8690      6.2534      6.7384      7.3271      8.0179      8.7983    
  9.6411      10.504      11.333      12.075      12.684      13.118      13.345      13.345      13.118      12.684    
  12.075      11.333      10.504      9.6411      8.7983      8.0179      7.3271      6.7384      6.2534      5.8690    
  5.5816      5.3895      5.2931      5.2931      5.3895      5.5815      5.3844      5.7141      6.1399      6.6648    
  7.2896      8.0082      8.8028      9.6411      10.478      11.259      11.931      12.450      12.778      12.891    
  12.778      12.450      11.931      11.259      10.478      9.6411      8.8028      8.0082      7.2896      6.6648    
  6.1399      5.7141      5.3844      5.1487      5.0068      4.9594      5.0068      5.1487      4.9678      5.2430    
  5.6102      6.0715      6.6280      7.2772      8.0082      8.7983      9.6115      10.401      11.115      11.701    
  12.118      12.335      12.335      12.118      11.701      11.115      10.401      9.6115      8.7983      8.0082    
  7.2772      6.6280      6.0715      5.6102      5.2430      4.9678      4.7839      4.6917      4.6917      4.7839    
  4.6253      4.8473      5.1580      5.5581      6.0486      6.6280      7.2896      8.0179      8.7859      9.5556    
  10.280      10.910      11.398      11.708      11.813      11.708      11.398      10.910      10.280      9.5556    
  8.7859      8.0179      7.2896      6.6280      6.0486      5.5581      5.1580      4.8473      4.6253      4.4919    
  4.4473      4.4919      4.3597      4.5307      4.7872      5.1296      5.5581      6.0715      6.6648      7.3271    
  8.0385      8.7691      9.4799      10.126      10.660      11.043      11.242      11.242      11.043      10.660    
  10.126      9.4799      8.7691      8.0385      7.3271      6.6648      6.0714      5.5581      5.1296      4.7872    
  4.5307      4.3597      4.2742      4.2742      4.1712      4.2940      4.4992      4.7872      5.1580      5.6102    
  6.1399      6.7384      7.3904      8.0727      8.7536      9.3943      9.9524      10.387      10.663      10.757    
  10.663      10.387      9.9524      9.3943      8.7536      8.0727      7.3904      6.7384      6.1399      5.6102    
  5.1580      4.7872      4.4992      4.2940      4.1712      4.1303      4.0589      4.1371      4.2940      4.5307    
  4.8473      5.2430      5.7141      6.2534      6.8485      7.4808      8.1244      8.7470      9.3112      9.7782    
  10.113      10.287      10.287      10.113      9.7782      9.3112      8.7470      8.1244      7.4808      6.8485    
  6.2534      5.7141      5.2430      4.8473      4.5307      4.2940      4.1371      4.0589      4.1543      4.1941    
  4.3138      4.5138      4.7947      5.1563      5.5973      6.1134      6.6959      7.3302      7.9940      8.6567    
  9.2810      9.8257      10.250      10.520      10.613      10.520      10.250      9.8257      9.2810      8.6567    
  7.9940      7.3302      6.6959      6.1133      5.5973      5.1563      4.7947      4.5138      4.3138      4.1941    
  4.1941      4.1941      4.2672      4.4142      4.6357      4.9322      5.3021      5.7418      6.2436      6.7959    
  7.3810      7.9755      8.5497      9.0696      9.4999      9.8080      9.9688      9.9688      9.8080      9.4999    
  9.0696      8.5497      7.9755      7.3810      6.7959      6.2436      5.7418      5.3021      4.9322      4.6357    
  4.4142      4.2672      4.3138      4.2805      4.3138      4.4142      4.5827      4.8203      5.1263      5.4977    
  5.9281      6.4076      6.9219      7.4523      7.9752      8.4630      8.8855      9.2133      9.4212      9.4926    
  9.4212      9.2133      8.8855      8.4630      7.9752      7.4523      6.9219      6.4076      5.9281      5.4977    
  5.1263      4.8203      4.5827      4.4142      4.5138      4.4533      4.4533      4.5138      4.6357      4.8203    
  5.0679      5.3764      5.7412      6.1538      6.6027      7.0726      7.5445      7.9959      8.4016      8.7356    
  8.9739      9.0981      9.0981      8.9739      8.7356      8.4016      7.9959      7.5445      7.0726      6.6027    
  6.1538      5.7412      5.3764      5.0679      4.8203      4.6357      4.7947      4.7130      4.6860      4.7130    
  4.7947      4.9322      5.1263      5.3764      5.6792      6.0282      6.4142      6.8248      7.2447      7.6558    
  8.0370      8.3659      8.6205      8.7817      8.8370      8.7817      8.6205      8.3659      8.0370      7.6558    
  7.2447      6.8248      6.4142      6.0282      5.6792      5.3764      5.1263      4.9322      5.1563      5.0601    
  5.0125      5.0125      5.0601      5.1563      5.3021      5.4977      5.7412      6.0282      6.3518      6.7021    
  7.0673      7.4328      7.7815      8.0945      8.3519      8.5357      8.6314      8.6314      8.5357      8.3519    
  8.0945      7.7815      7.4328      7.0673      6.7021      6.3518      6.0282      5.7412      5.4977      5.3021    
  5.5973      5.4952      5.4347      5.4146      5.4347      5.4952      5.5973      5.7417      5.9281      6.1538    
  6.4142      6.7022      7.0085      7.3221      7.6294      7.9149      8.1618      8.3531      8.4746      8.5162    
  8.4746      8.3531      8.1618      7.9149      7.6294      7.3221      7.0085      6.7021      6.4142      6.1538    
  5.9281      5.7418      6.1133      6.0172      5.9543      5.9233      5.9233      5.9543      6.0172      6.1133    
  6.2436      6.4076      6.6027      6.8248      7.0673      7.3221      7.5788      7.8252      8.0475      8.2311    
  8.3625      8.4310      8.4310      8.3624      8.2311      8.0475      7.8252      7.5788      7.3221      7.0673    
  6.8248      6.6027      6.4076      6.2436      6.6959      6.6215      6.5709      6.5418      6.5324      6.5418    
  6.5709      6.6215      6.6959      6.7959      6.9219      7.0726      7.2447      7.4328      7.6294      7.8252    
  8.0092      8.1695      8.2944      8.3738      8.4011      8.3738      8.2944      8.1695      8.0092      7.8252    
  7.6294      7.4328      7.2447      7.0726      6.9219      6.7959      7.3302      7.2974      7.2785      7.2691    
  7.2655      7.2655      7.2691      7.2785      7.2974      7.3302      7.3810      7.4523      7.5445      7.6558    
  7.7815      7.9149      8.0475      8.1695      8.2715      8.3448      8.3832      8.3832      8.3448      8.2715    
  8.1695      8.0475      7.9149      7.7815      7.6558      7.5445      7.4523      7.3810      7.9940      8.0251    
  8.0612      8.0944      8.1175      8.1258      8.1175      8.0944      8.0612      8.0251      7.9940      7.9755    
  7.9752      7.9959      8.0370      8.0945      8.1618      8.2311      8.2944      8.3448      8.3772      8.3883    
  8.3772      8.3448      8.2944      8.2311      8.1618      8.0945      8.0370      7.9959      7.9752      7.9755    
  8.6567      8.7746      8.8911      8.9931      9.0686      9.1087      9.1087      9.0686      8.9931      8.8911    
  8.7746      8.6567      8.5497      8.4630      8.4016      8.3659      8.3519      8.3532      8.3624      8.3738    
  8.3832      8.3883      8.3883      8.3832      8.3738      8.3625      8.3531      8.3519      8.3659      8.4016    
  8.4630      8.5497      9.2810      9.5063      9.7274      9.9249      10.080      10.180      10.214      10.180    
  10.080      9.9249      9.7274      9.5063      9.2810      9.0696      8.8855      8.7356      8.6205      8.5357    