unknown system                          
   2.80000000000000     
     0.987555    0.000000    0.000000
    -0.493778    0.855248    0.000000
     0.000000    0.000000    1.708967
   Pt
     2
Direct
  0.333333  0.666667  0.250000
  0.666667  0.333333  0.750000
 
   32   32   56
 0.39773424191E+01 0.40137223616E+01 0.41234698445E+01 0.43080164951E+01 0.45685830470E+01
 0.49048492406E+01 0.53137137776E+01 0.57883742207E+01 0.63177152544E+01 0.68858516552E+01
 0.74717631684E+01 0.80492394730E+01 0.85876066033E+01 0.90536882919E+01 0.94150886320E+01
 0.96443281437E+01 0.97229167122E+01 0.96443281781E+01 0.94150887130E+01 0.90536884395E+01
 0.85876068380E+01 0.80492398055E+01 0.74717635917E+01 0.68858521425E+01 0.63177157645E+01
 0.57883747091E+01 0.53137142084E+01 0.49048495932E+01 0.45685833163E+01 0.43080166860E+01
 0.41234699656E+01 0.40137224202E+01 0.40137225404E+01 0.40137220391E+01 0.40867883463E+01
 0.42339570001E+01 0.44565970221E+01 0.47552486275E+01 0.51283563593E+01 0.55711906589E+01
 0.60750546178E+01 0.66266879080E+01 0.72077666134E+01 0.77946007814E+01 0.83584125000E+01
 0.88666921952E+01 0.92859136544E+01 0.95853925188E+01 0.97415479565E+01 0.97415460213E+01
 0.95853899252E+01 0.92859161506E+01 0.88667011410E+01 0.83584229344E+01 0.77946060392E+01
 0.72077640274E+01 0.66266803365E+01 0.60750474351E+01 0.55711874488E+01 0.51283568991E+01
 0.47552504611E+01 0.44565984535E+01 0.42339580808E+01 0.40867893923E+01 0.41234704833E+01
 0.40867885253E+01 0.41234703617E+01 0.42339583018E+01 0.44192788025E+01 0.46802443628E+01
 0.50163935800E+01 0.54249103295E+01 0.58996528539E+01 0.64302897047E+01 0.70015050498E+01
 0.75923712534E+01 0.81762259321E+01 0.87215414562E+01 0.91941528715E+01 0.95607967632E+01
 0.97933921062E+01 0.98731285809E+01 0.97933874022E+01 0.95607937487E+01 0.91941562563E+01
 0.87215490656E+01 0.81762319637E+01 0.75923720556E+01 0.70015010409E+01 0.64302840786E+01
 0.58996494579E+01 0.54249110158E+01 0.50163966666E+01 0.46802466995E+01 0.44192793140E+01
 0.42339582009E+01 0.43080175257E+01 0.42339578409E+01 0.42339575214E+01 0.43080178899E+01
 0.44565997179E+01 0.46802471333E+01 0.49789298628E+01 0.53512040983E+01 0.57932425335E+01
 0.62977408612E+01 0.68527380175E+01 0.74405277522E+01 0.80370479171E+01 0.86122667625E+01
 0.91319792918E+01 0.95610469305E+01 0.98676125298E+01 0.10027440685E+02 0.10027438608E+02
 0.98676085791E+01 0.95610439542E+01 0.91319763819E+01 0.86122626739E+01 0.80370451515E+01
 0.74405291035E+01 0.68527420772E+01 0.62977447056E+01 0.57932459153E+01 0.53512074865E+01
 0.49789315162E+01 0.46802458598E+01 0.44565977340E+01 0.45685833163E+01 0.44565993529E+01
 0.44192784062E+01 0.44565966762E+01 0.45685835238E+01 0.47552521153E+01 0.50163990425E+01
 0.53512085043E+01 0.57575409414E+01 0.62308120498E+01 0.67625009859E+01 0.73385440289E+01
 0.79381121170E+01 0.85334078524E+01 0.90909925154E+01 0.95747346977E+01 0.99499351979E+01
 0.10187792578E+02 0.10269291301E+02 0.10187793341E+02 0.99499365951E+01 0.95747326361E+01
 0.90909836805E+01 0.85333980534E+01 0.79381111344E+01 0.73385522659E+01 0.67625097345E+01
 0.62308162831E+01 0.57575427814E+01 0.53512089087E+01 0.50163961490E+01 0.47552480790E+01
 0.49048469473E+01 0.47552516546E+01 0.46802471946E+01 0.46802437689E+01 0.47552472682E+01
 0.49048483297E+01 0.51283573977E+01 0.54249138917E+01 0.57932505631E+01 0.62308206618E+01
 0.67322171795E+01 0.72871451305E+01 0.78785448182E+01 0.84816697734E+01 0.90648164221E+01
 0.95919181057E+01 0.10026562587E+02 0.10336528145E+02 0.10497870988E+02 0.10497872181E+02
 0.10336533311E+02 0.10026569942E+02 0.95919193137E+01 0.90648096610E+01 0.84816657508E+01
 0.78785504046E+01 0.72871519485E+01 0.67322160676E+01 0.62308158991E+01 0.57932494008E+01
 0.54249136616E+01 0.51283541331E+01 0.53137086688E+01 0.51283568106E+01 0.50163998859E+01
 0.49789308831E+01 0.50163936232E+01 0.51283548130E+01 0.53137110605E+01 0.55711849346E+01
 0.58996501822E+01 0.62977495031E+01 0.67625157434E+01 0.72871541606E+01 0.78586096250E+01
 0.84558705615E+01 0.90499482487E+01 0.96059721033E+01 0.10087036632E+02 0.10458795191E+02
 0.10693680167E+02 0.10773998088E+02 0.10693677487E+02 0.10458799650E+02 0.10087046935E+02
 0.96059766243E+01 0.90499465513E+01 0.84558725052E+01 0.78586137245E+01 0.72871493027E+01
 0.67625041949E+01 0.62977455452E+01 0.58996555151E+01 0.55711875689E+01 0.57883694161E+01
 0.55711856336E+01 0.54249159237E+01 0.53512104621E+01 0.53512056458E+01 0.54249113626E+01
 0.55711902886E+01 0.57883714757E+01 0.60750424370E+01 0.64302800286E+01 0.68527415008E+01
 0.73385550263E+01 0.78785539364E+01 0.84558747278E+01 0.90450823824E+01 0.96135781281E+01
 0.10125139704E+02 0.10544552282E+02 0.10841986281E+02 0.10996175477E+02 0.10996167360E+02
 0.10841975420E+02 0.10544555054E+02 0.10125148410E+02 0.96135793245E+01 0.90450808566E+01
 0.84558777981E+01 0.78785530517E+01 0.73385447111E+01 0.68527359445E+01 0.64302893716E+01
 0.60750528482E+01 0.63177157645E+01 0.60750455677E+01 0.58996526688E+01 0.57932513048E+01
 0.57575411496E+01 0.57932440223E+01 0.58996558359E+01 0.60750571385E+01 0.63177147480E+01
 0.66266753657E+01 0.70014941802E+01 0.74405242334E+01 0.79381112396E+01 0.84816706070E+01
 0.90499527831E+01 0.96135829686E+01 0.10138082878E+02 0.10588453329E+02 0.10933773087E+02
 0.11150545551E+02 0.11224392842E+02 0.11150528721E+02 0.10933764051E+02 0.10588458077E+02
 0.10138083404E+02 0.96135752695E+01 0.90499520908E+01 0.84816777447E+01 0.79381111344E+01
 0.74405189158E+01 0.70015005233E+01 0.66266895644E+01 0.68858598259E+01 0.66266807573E+01
 0.64302823554E+01 0.62977479726E+01 0.62308176893E+01 0.62308105135E+01 0.62977419676E+01
 0.64302931144E+01 0.66266924570E+01 0.68858552639E+01 0.72077636374E+01 0.75923675469E+01
 0.80370395918E+01 0.85333959697E+01 0.90648120497E+01 0.96059791440E+01 0.10125145967E+02
 0.10588451104E+02 0.10964753408E+02 0.11229325804E+02 0.11365650248E+02 0.11365641373E+02
 0.11229315498E+02 0.10964758533E+02 0.10588456412E+02 0.10125135433E+02 0.96059689409E+01
 0.90648199902E+01 0.85334079987E+01 0.80370383078E+01 0.75923643722E+01 0.72077715906E+01
 0.74717753777E+01 0.72077671038E+01 0.70014940853E+01 0.68527391006E+01 0.67625129710E+01
 0.67322147048E+01 0.67624985712E+01 0.68527363429E+01 0.70015060724E+01 0.72077713813E+01
 0.74717696848E+01 0.77946098941E+01 0.81762313423E+01 0.86122591104E+01 0.90909804039E+01
 0.95919174899E+01 0.10087044875E+02 0.10544551335E+02 0.10933760476E+02 0.11229315867E+02
 0.11413396450E+02 0.11475885942E+02 0.11413390578E+02 0.11229323181E+02 0.10933775837E+02
 0.10544549761E+02 0.10087029610E+02 0.95919166679E+01 0.90909954665E+01 0.86122635136E+01
 0.81762206953E+01 0.77946061594E+01 0.80492482223E+01 0.77946093787E+01 0.75923630854E+01
 0.74405203715E+01 0.73385548650E+01 0.72871563292E+01 0.72871458736E+01 0.73385414470E+01
 0.74405234290E+01 0.75923683873E+01 0.77946015409E+01 0.80492437144E+01 0.83584279906E+01
 0.87215520280E+01 0.91319753932E+01 0.95747291500E+01 0.10026567794E+02 0.10458801329E+02
 0.10841979356E+02 0.11150530888E+02 0.11365639485E+02 0.11475881450E+02 0.11475877525E+02
 0.11365640640E+02 0.11150546486E+02 0.10841989130E+02 0.10458791233E+02 0.10026558879E+02
 0.95747387911E+01 0.91319839590E+01 0.87215406487E+01 0.83584146377E+01 0.85876068380E+01
 0.83584236947E+01 0.81762255963E+01 0.80370361211E+01 0.79381122227E+01 0.78785586480E+01
 0.78586152526E+01 0.78785482348E+01 0.79381113582E+01 0.80370431316E+01 0.81762196703E+01
 0.83584085483E+01 0.85876072535E+01 0.88667047864E+01 0.91941592098E+01 0.95610438167E+01
 0.99499353437E+01 0.10336535225E+02 0.10693683851E+02 0.10996173865E+02 0.11224393110E+02
 0.11365642164E+02 0.11413384664E+02 0.11365631469E+02 0.11224392842E+02 0.10996183749E+02
 0.10693683027E+02 0.10336524862E+02 0.99499365951E+01 0.95610542103E+01 0.91941557386E+01
 0.88666899251E+01 0.90536818289E+01 0.88666990678E+01 0.87215481841E+01 0.86122593979E+01
 0.85333990387E+01 0.84816737826E+01 0.84558772179E+01 0.84558734726E+01 0.84816734350E+01
 0.85334103846E+01 0.86122658597E+01 0.87215371285E+01 0.88666871599E+01 0.90536855830E+01
 0.92859163846E+01 0.95607952978E+01 0.98676092952E+01 0.10187793020E+02 0.10497872562E+02
 0.10774000417E+02 0.10996178351E+02 0.11150545916E+02 0.11229322478E+02 0.11229311510E+02
 0.11150529592E+02 0.10996176794E+02 0.10774004699E+02 0.10497868216E+02 0.10187788992E+02
 0.98676160294E+01 0.95608003594E+01 0.92859094198E+01 0.94150819488E+01 0.92859138537E+01
 0.91941602178E+01 0.91319801760E+01 0.90909857781E+01 0.90648137934E+01 0.90499494920E+01
 0.90450771225E+01 0.90499460795E+01 0.90648198313E+01 0.90909990905E+01 0.91319839687E+01
 0.91941525922E+01 0.92859098646E+01 0.94150853301E+01 0.95853894522E+01 0.97933885828E+01
 0.10027438269E+02 0.10269287810E+02 0.10497865952E+02 0.10693677087E+02 0.10841987773E+02
 0.10933779026E+02 0.10964761091E+02 0.10933766323E+02 0.10841980988E+02 0.10693681392E+02
 0.10497868343E+02 0.10269284537E+02 0.10027439448E+02 0.97933946839E+01 0.95853900453E+01
 0.96443256675E+01 0.95853899222E+01 0.95607993016E+01 0.95610502996E+01 0.95747344609E+01
 0.95919182509E+01 0.96059746280E+01 0.96135753710E+01 0.96135711555E+01 0.96059690275E+01
 0.95919201197E+01 0.95747402382E+01 0.95610525845E+01 0.95607995629E+01 0.95853920629E+01
 0.96443266320E+01 0.97415458786E+01 0.98731298802E+01 0.10027440779E+02 0.10187788920E+02
 0.10336521618E+02 0.10458790401E+02 0.10544553845E+02 0.10588461298E+02 0.10588460166E+02
 0.10544555065E+02 0.10458797701E+02 0.10336528009E+02 0.10187787805E+02 0.10027437335E+02
 0.98731310915E+01 0.97415486520E+01 0.97229167121E+01 0.97415478384E+01 0.97933915924E+01
 0.98676116961E+01 0.99499352084E+01 0.10026565251E+02 0.10087042199E+02 0.10125145036E+02
 0.10138082931E+02 0.10125138357E+02 0.10087033193E+02 0.10026559523E+02 0.99499355297E+01
 0.98676161097E+01 0.97933955258E+01 0.97415484948E+01 0.97229155108E+01 0.97415483892E+01
 0.97933953469E+01 0.98676159059E+01 0.99499353437E+01 0.10026559377E+02 0.10087033089E+02
 0.10125138284E+02 0.10138082878E+02 0.10125144996E+02 0.10087042171E+02 0.10026565233E+02
 0.99499351979E+01 0.98676116901E+01 0.97933915886E+01 0.97415478363E+01 0.96443256331E+01
 0.97415486245E+01 0.98731310761E+01 0.10027437335E+02 0.10187787822E+02 0.10336528044E+02
 0.10458797753E+02 0.10544555132E+02 0.10588460244E+02 0.10588461387E+02 0.10544553949E+02
 0.10458790532E+02 0.10336521787E+02 0.10187789125E+02 0.10027440995E+02 0.98731300642E+01
 0.97415459842E+01 0.96443266320E+01 0.95853919627E+01 0.95607993978E+01 0.95610524019E+01
 0.95747400775E+01 0.95919200004E+01 0.96059689501E+01 0.96135711100E+01 0.96135753457E+01
 0.96059746138E+01 0.95919182410E+01 0.95747344490E+01 0.95610502808E+01 0.95607992738E+01
 0.95853898881E+01 0.94150818679E+01 0.95853899779E+01 0.97933946423E+01 0.10027439438E+02
 0.10269284559E+02 0.10497868394E+02 0.10693681468E+02 0.10841981084E+02 0.10933766432E+02
 0.10964761206E+02 0.10933779145E+02 0.10841987902E+02 0.10693677238E+02 0.10497866135E+02
 0.10269288022E+02 0.10027438485E+02 0.97933887617E+01 0.95853895523E+01 0.94150853301E+01
 0.92859097739E+01 0.91941524457E+01 0.91319838101E+01 0.90909989540E+01 0.90648197331E+01
 0.90499460190E+01 0.90450770894E+01 0.90499494732E+01 0.90648137762E+01 0.90909857513E+01
 0.91319801315E+01 0.91941601532E+01 0.92859137746E+01 0.90536816812E+01 0.92859092910E+01
 0.95608002717E+01 0.98676159947E+01 0.10187789010E+02 0.10497868278E+02 0.10774004795E+02
 0.10996176915E+02 0.11150529728E+02 0.11229311653E+02 0.11229322620E+02 0.11150546055E+02
 0.10996178493E+02 0.10774000574E+02 0.10497872745E+02 0.10187793225E+02 0.98676094991E+01
 0.95607954628E+01 0.92859164753E+01 0.90536855829E+01 0.88666870800E+01 0.87215370005E+01
 0.86122657211E+01 0.85334102638E+01 0.84816733444E+01 0.84558734101E+01 0.84558771722E+01
 0.84816737382E+01 0.85333989798E+01 0.86122593122E+01 0.87215480669E+01 0.88666989260E+01
 0.85876066033E+01 0.88666897085E+01 0.91941555749E+01 0.95610541222E+01 0.99499365870E+01
 0.10336524921E+02 0.10693683135E+02 0.10996183887E+02 0.11224392998E+02 0.11365631634E+02
 0.11413384829E+02 0.11365642321E+02 0.11224393257E+02 0.10996174008E+02 0.10693684002E+02
 0.10336535394E+02 0.99499355297E+01 0.95610439993E+01 0.91941593563E+01 0.88667048663E+01
 0.85876072535E+01 0.83584084780E+01 0.81762195563E+01 0.80370430041E+01 0.79381112395E+01
 0.78785481336E+01 0.78586151645E+01 0.78785585598E+01 0.79381121170E+01 0.80370359817E+01
 0.81762254144E+01 0.83584234756E+01 0.80492478898E+01 0.83584143121E+01 0.87215403770E+01
 0.91319837799E+01 0.95747387210E+01 0.10026558909E+02 0.10458791337E+02 0.10841989278E+02
 0.11150546656E+02 0.11365640818E+02 0.11475877703E+02 0.11475881621E+02 0.11365639642E+02
 0.11150531028E+02 0.10841979485E+02 0.10458801460E+02 0.10026567940E+02 0.95747293108E+01
 0.91319755519E+01 0.87215521560E+01 0.83584280609E+01 0.80492437144E+01 0.77946014773E+01
 0.75923682804E+01 0.74405233022E+01 0.73385413164E+01 0.72871457438E+01 0.72871561932E+01
 0.73385547077E+01 0.74405201750E+01 0.75923628366E+01 0.77946090780E+01 0.74717749544E+01
 0.77946057202E+01 0.81762202950E+01 0.86122632072E+01 0.90909952900E+01 0.95919166258E+01
 0.10087029678E+02 0.10544549900E+02 0.10933776011E+02 0.11229323367E+02 0.11413390763E+02
 0.11475886120E+02 0.11413396615E+02 0.11229316010E+02 0.10933760595E+02 0.10544551439E+02
 0.10087044979E+02 0.95919176091E+01 0.90909805404E+01 0.86122592491E+01 0.81762314564E+01
 0.77946099577E+01 0.74717696848E+01 0.72077713208E+01 0.70015059662E+01 0.68527362079E+01
 0.67624984179E+01 0.67322145336E+01 0.67625127719E+01 0.68527388572E+01 0.70014937814E+01
 0.72077667335E+01 0.68858593386E+01 0.72077710569E+01 0.75923638456E+01 0.80370378546E+01
 0.85334076762E+01 0.90648198262E+01 0.96059689256E+01 0.10125135528E+02 0.10588456571E+02
 0.10964758716E+02 0.11229315683E+02 0.11365641551E+02 0.11365650413E+02 0.11229325947E+02
 0.10964753523E+02 0.10588451193E+02 0.10125146040E+02 0.96059792214E+01 0.90648121479E+01
 0.85333960906E+01 0.80370397193E+01 0.75923676538E+01 0.72077636979E+01 0.68858552639E+01
 0.66266923971E+01 0.64302930049E+01 0.62977418197E+01 0.62308103325E+01 0.62308174713E+01
 0.62977477049E+01 0.64302820213E+01 0.66266803448E+01 0.63177152544E+01 0.66266889770E+01
 0.70014999014E+01 0.74405183260E+01 0.79381106494E+01 0.84816774181E+01 0.90499519394E+01
 0.96135752703E+01 0.10138083509E+02 0.10588458235E+02 0.10933764225E+02 0.11150528891E+02
 0.11224392998E+02 0.11150545687E+02 0.10933773196E+02 0.10588453407E+02 0.10138082931E+02
 0.96135830141E+01 0.90499528436E+01 0.84816706976E+01 0.79381113582E+01 0.74405243602E+01
 0.70014942864E+01 0.66266754255E+01 0.63177147480E+01 0.60750570780E+01 0.58996557217E+01
 0.57932438609E+01 0.57575409414E+01 0.57932510419E+01 0.58996523362E+01 0.60750451496E+01
 0.57883689277E+01 0.60750522593E+01 0.64302887075E+01 0.68527352603E+01 0.73385440818E+01
 0.78785525507E+01 0.84558774719E+01 0.90450807104E+01 0.96135793254E+01 0.10125148505E+02
 0.10544555193E+02 0.10841975568E+02 0.10996167499E+02 0.10996175597E+02 0.10841986377E+02
 0.10544552349E+02 0.10125139743E+02 0.96135781534E+01 0.90450824155E+01 0.84558747902E+01
 0.78785540376E+01 0.73385551569E+01 0.68527416358E+01 0.64302801381E+01 0.60750424975E+01
 0.57883714757E+01 0.55711902275E+01 0.54249112446E+01 0.53512054732E+01 0.53512102309E+01
 0.54249156224E+01 0.55711852458E+01 0.53137082381E+01 0.55711870273E+01 0.58996548693E+01
 0.62977448302E+01 0.67625034742E+01 0.72871486547E+01 0.78586132187E+01 0.84558721789E+01
 0.90499463999E+01 0.96059766090E+01 0.10087047003E+02 0.10458799754E+02 0.10693677596E+02
 0.10773998184E+02 0.10693680243E+02 0.10458795242E+02 0.10087036660E+02 0.96059721175E+01
 0.90499482674E+01 0.84558706072E+01 0.78586097130E+01 0.72871542904E+01 0.67625158967E+01
 0.62977496510E+01 0.58996502964E+01 0.55711849957E+01 0.53137110605E+01 0.51283547518E+01
 0.50163935029E+01 0.49789307024E+01 0.50163996372E+01 0.51283564794E+01 0.49048465948E+01
 0.51283536723E+01 0.54249130847E+01 0.57932487210E+01 0.62308151588E+01 0.67322153349E+01
 0.72871513006E+01 0.78785499036E+01 0.84816654242E+01 0.90648094969E+01 0.95919192717E+01
 0.10026569972E+02 0.10336533371E+02 0.10497872243E+02 0.10497871039E+02 0.10336528179E+02
 0.10026562605E+02 0.95919181157E+01 0.90648164393E+01 0.84816698179E+01 0.78785449064E+01
 0.72871452665E+01 0.67322173507E+01 0.62308208427E+01 0.57932507244E+01 0.54249140098E+01
 0.51283574588E+01 0.49048483297E+01 0.47552472075E+01 0.46802436477E+01 0.46802470087E+01
 0.47552513935E+01 0.45685830470E+01 0.47552477128E+01 0.50163956704E+01 0.53512083142E+01
 0.57575420903E+01 0.62308155428E+01 0.67625090137E+01 0.73385516366E+01 0.79381106494E+01
 0.85333977310E+01 0.90909835040E+01 0.95747325661E+01 0.99499365871E+01 0.10187793359E+02
 0.10269291323E+02 0.10187792594E+02 0.99499352084E+01 0.95747347096E+01 0.90909925422E+01
 0.85334079113E+01 0.79381122227E+01 0.73385441863E+01 0.67625011850E+01 0.62308122678E+01
 0.57575411496E+01 0.53512086769E+01 0.50163991627E+01 0.47552521759E+01 0.45685835238E+01
 0.44565966163E+01 0.44192782849E+01 0.44565991638E+01 0.43080173347E+01 0.44565974601E+01
 0.46802454869E+01 0.49789310317E+01 0.53512068920E+01 0.57932452355E+01 0.62977439905E+01
 0.68527413929E+01 0.74405285137E+01 0.80370446984E+01 0.86122623675E+01 0.91319762027E+01
 0.95610438662E+01 0.98676085444E+01 0.10027438598E+02 0.10027440685E+02 0.98676125358E+01
 0.95610469494E+01 0.91319793364E+01 0.86122668482E+01 0.80370480566E+01 0.74405279487E+01
 0.68527382610E+01 0.62977411289E+01 0.57932427965E+01 0.53512043295E+01 0.49789300435E+01
 0.46802472545E+01 0.44565997778E+01 0.43080178899E+01 0.42339574621E+01 0.42339577197E+01
 0.41234703621E+01 0.42339580091E+01 0.44192790387E+01 0.46802463266E+01 0.50163961880E+01
 0.54249104388E+01 0.58996488121E+01 0.64302834145E+01 0.70015004190E+01 0.75923715290E+01
 0.81762315634E+01 0.87215487939E+01 0.91941560925E+01 0.95607936611E+01 0.97933873606E+01
 0.98731285655E+01 0.97933921100E+01 0.95607967910E+01 0.91941529361E+01 0.87215415734E+01
 0.81762261140E+01 0.75923715022E+01 0.70015053537E+01 0.64302900388E+01 0.58996531865E+01
 0.54249106308E+01 0.50163938288E+01 0.46802445487E+01 0.44192789239E+01 0.42339583611E+01
 0.41234703617E+01 0.40867884664E+01 0.40137224817E+01 0.40867892712E+01 0.42339578890E+01
 0.44565981796E+01 0.47552500949E+01 0.51283564383E+01 0.55711869072E+01 0.60750468461E+01
 0.66266797491E+01 0.72077634936E+01 0.77946056001E+01 0.83584226088E+01 0.88667009244E+01
 0.92859160219E+01 0.95853898578E+01 0.97415459938E+01 0.97415479585E+01 0.95853925530E+01
 0.92859137336E+01 0.88666923370E+01 0.83584127192E+01 0.77946010820E+01 0.72077669837E+01
 0.66266883205E+01 0.60750550359E+01 0.55711910468E+01 0.51283566904E+01 0.47552488886E+01
 0.44565972112E+01 0.42339571214E+01 0.40867884051E+01 0.40137220391E+01 0.40216722407E+01
 0.40589353638E+01 0.41712177090E+01 0.43596808378E+01 0.46253110275E+01 0.49678002026E+01
 0.53844154023E+01 0.58690021873E+01 0.64111158155E+01 0.69952228916E+01 0.76000470616E+01
 0.81983886817E+01 0.87579348146E+01 0.92434828105E+01 0.96205791406E+01 0.98600058306E+01
 0.99421235766E+01 0.98600061144E+01 0.96205798114E+01 0.92434837702E+01 0.87579357440E+01
 0.81983893557E+01 0.76000474774E+01 0.69952231487E+01 0.64111160939E+01 0.58690027081E+01
 0.53844161144E+01 0.49678006609E+01 0.46253109259E+01 0.43596805000E+01 0.41712176493E+01
 0.40589355407E+01 0.40589355734E+01 0.40589349644E+01 0.41303301615E+01 0.42741772753E+01
 0.44918641664E+01 0.47839211349E+01 0.51487456440E+01 0.55815523874E+01 0.60736478071E+01
 0.66119229159E+01 0.71784300106E+01 0.77501120061E+01 0.82990501992E+01 0.87937336644E+01
 0.92016525440E+01 0.94930262917E+01 0.96449491111E+01 0.96449473030E+01 0.94930240582E+01
 0.92016555804E+01 0.87937432068E+01 0.82990610039E+01 0.77501170784E+01 0.71784266958E+01
 0.66119146345E+01 0.60736405979E+01 0.55815498652E+01 0.51487468946E+01 0.47839230685E+01
 0.44918652098E+01 0.42741780761E+01 0.41303312795E+01 0.41712181364E+01 0.41370910731E+01
 0.41712177080E+01 0.42741779953E+01 0.44473152619E+01 0.46917016915E+01 0.50068352297E+01
 0.53894704188E+01 0.58328177961E+01 0.63260862260E+01 0.68541819473E+01 0.73974606613E+01
 0.79317121729E+01 0.84288155180E+01 0.88584954155E+01 0.91912719111E+01 0.94021841598E+01
 0.94744579092E+01 0.94021794271E+01 0.91912687198E+01 0.88584984386E+01 0.84288226666E+01
 0.79317177054E+01 0.73974609684E+01 0.68541776242E+01 0.63260806886E+01 0.58328148328E+01
 0.53894714992E+01 0.50068383831E+01 0.46917039044E+01 0.44473158103E+01 0.42741781977E+01
 0.43596814103E+01 0.42940410991E+01 0.42940407314E+01 0.43596815483E+01 0.44918661219E+01
 0.46917042388E+01 0.49593929796E+01 0.52930529415E+01 0.56878245311E+01 0.61353068721E+01
 0.66232095279E+01 0.71350599724E+01 0.76500159680E+01 0.81431156579E+01 0.85864116476E+01
 0.89512418962E+01 0.92114624108E+01 0.93470220537E+01 0.93470200346E+01 0.92114585133E+01
 0.89512387007E+01 0.85864080914E+01 0.81431107196E+01 0.76500127222E+01 0.71350616562E+01
 0.66232144995E+01 0.61353113895E+01 0.56878277623E+01 0.52930556387E+01 0.49593941721E+01
 0.46917030830E+01 0.44918645099E+01 0.46253109259E+01 0.45306558649E+01 0.44992175564E+01
 0.45306536022E+01 0.46253113326E+01 0.47839244264E+01 0.50068405081E+01 0.52930570345E+01
 0.56393401159E+01 0.60395655018E+01 0.64842378690E+01 0.69600600187E+01 0.74495461348E+01
 0.79309333327E+01 0.83788183115E+01 0.87658523073E+01 0.90654843045E+01 0.92553198790E+01
 0.93203586466E+01 0.92553205502E+01 0.90654856203E+01 0.87658502706E+01 0.83788096791E+01
 0.79309240248E+01 0.74495459674E+01 0.69600690901E+01 0.64842468952E+01 0.60395691973E+01
 0.56393411013E+01 0.52930570674E+01 0.50068378960E+01 0.47839206968E+01 0.49677979370E+01
 0.48473181118E+01 0.47871996846E+01 0.47871965426E+01 0.48473142509E+01 0.49677994711E+01
 0.51487469552E+01 0.53894737494E+01 0.56878322796E+01 0.60395742507E+01 0.64377730156E+01
 0.68722341496E+01 0.73288862134E+01 0.77893629885E+01 0.82311893633E+01 0.86289542102E+01
 0.89565681524E+01 0.91903154268E+01 0.93120920280E+01 0.93120930657E+01 0.91903202737E+01
 0.89565754104E+01 0.86289559450E+01 0.82311837579E+01 0.77893601743E+01 0.73288922957E+01
 0.68722404738E+01 0.64377709063E+01 0.60395688124E+01 0.56878312188E+01 0.53894741343E+01
 0.51487441380E+01 0.53844106248E+01 0.52429881790E+01 0.51579883170E+01 0.51296375792E+01
 0.51579821282E+01 0.52429863069E+01 0.53844131048E+01 0.55815472201E+01 0.58328149996E+01
 0.61353155593E+01 0.64842527204E+01 0.68722431236E+01 0.72885201131E+01 0.77182242537E+01
 0.81421789757E+01 0.85375739299E+01 0.88797344764E+01 0.91447884152E+01 0.93127356747E+01
 0.93702701769E+01 0.93127331893E+01 0.91447931132E+01 0.88797449868E+01 0.85375785965E+01
 0.81421771757E+01 0.77182256520E+01 0.72885234404E+01 0.68722378388E+01 0.64842414056E+01
 0.61353122110E+01 0.58328208095E+01 0.55815499868E+01 0.58689975816E+01 0.57141158357E+01
 0.56102494046E+01 0.55581374959E+01 0.55581326388E+01 0.56102447609E+01 0.57141205477E+01
 0.58689999955E+01 0.60736358442E+01 0.63260761559E+01 0.66232127954E+01 0.69600708408E+01
 0.73288958014E+01 0.77182289354E+01 0.81123494657E+01 0.84915303042E+01 0.88333507701E+01
 0.91149454065E+01 0.93157707912E+01 0.94203335440E+01 0.94203256329E+01 0.93157603611E+01
 0.91149484655E+01 0.88333593107E+01 0.84915306852E+01 0.81123466000E+01 0.77182308674E+01
 0.73288948761E+01 0.69600616245E+01 0.66232084626E+01 0.63260859040E+01 0.60736459349E+01
 0.64111160939E+01 0.62534105876E+01 0.61399200005E+01 0.60714585503E+01 0.60485668708E+01
 0.60714509956E+01 0.61399228173E+01 0.62534221573E+01 0.64111155999E+01 0.66119100057E+01
 0.68541706513E+01 0.71350563246E+01 0.74495455820E+01 0.77893646921E+01 0.81421831940E+01
 0.84915342334E+01 0.88177578440E+01 0.90998883101E+01 0.93180841113E+01 0.94560957635E+01
 0.95033156823E+01 0.94560789676E+01 0.93180748411E+01 0.90998926517E+01 0.88177582390E+01
 0.84915267234E+01 0.81421826653E+01 0.77893719866E+01 0.74495459674E+01 0.71350516575E+01
 0.68541771371E+01 0.66119236901E+01 0.69952306014E+01 0.68485133534E+01 0.67383618428E+01
 0.66648054315E+01 0.66279599659E+01 0.66279525220E+01 0.66647987809E+01 0.67383720553E+01
 0.68485251030E+01 0.69952266626E+01 0.71784268830E+01 0.73974571443E+01 0.76500076279E+01
 0.79309215802E+01 0.82311848207E+01 0.85375796511E+01 0.88333562967E+01 0.90998860632E+01
 0.93188611251E+01 0.94744926023E+01 0.95553013256E+01 0.95552926832E+01 0.94744824440E+01
 0.93188657761E+01 0.90998910161E+01 0.88333465537E+01 0.85375710549E+01 0.82311939346E+01
 0.79309338165E+01 0.76500060020E+01 0.73974534268E+01 0.71784341158E+01 0.76000590934E+01
 0.74807567828E+01 0.73903809620E+01 0.73271016482E+01 0.72895975238E+01 0.72771571518E+01
 0.72895835437E+01 0.73270990039E+01 0.73903925180E+01 0.74807606948E+01 0.76000535853E+01
 0.77501214454E+01 0.79317176560E+01 0.81431073510E+01 0.83788061503E+01 0.86289537237E+01
 0.88797426943E+01 0.91149446471E+01 0.93180710046E+01 0.94744822854E+01 0.95729518095E+01
 0.96065451452E+01 0.95729464153E+01 0.94744899856E+01 0.93180864571E+01 0.91149432501E+01
 0.88797278812E+01 0.86289533100E+01 0.83788212951E+01 0.81431115410E+01 0.79317065765E+01
 0.77501172000E+01 0.81983978141E+01 0.81244180333E+01 0.80726974710E+01 0.80384985230E+01
 0.80178799881E+01 0.80081993110E+01 0.80081897304E+01 0.80178681053E+01 0.80385019944E+01
 0.80727018478E+01 0.81244091411E+01 0.81983928821E+01 0.82990659931E+01 0.84288255894E+01
 0.85864074023E+01 0.87658476914E+01 0.89565742205E+01 0.91447949593E+01 0.93157637022E+01
 0.94560806496E+01 0.95552909102E+01 0.96065408932E+01 0.96065367757E+01 0.95552918553E+01
 0.94560965144E+01 0.93157739460E+01 0.91447847437E+01 0.89565644059E+01 0.87658563900E+01
 0.85864156395E+01 0.84288142970E+01 0.82990527560E+01 0.87579357439E+01 0.87470248454E+01
 0.87535862467E+01 0.87691205014E+01 0.87859408702E+01 0.87982986835E+01 0.88027813044E+01
 0.87982885411E+01 0.87859403712E+01 0.87691276242E+01 0.87535799502E+01 0.87470090290E+01
 0.87579355744E+01 0.87937464187E+01 0.88585013164E+01 0.89512388473E+01 0.90654847896E+01
 0.91903224468E+01 0.93127395838E+01 0.94203322044E+01 0.95033163107E+01 0.95552937336E+01
 0.95729401935E+01 0.95552825911E+01 0.95033156823E+01 0.94203420412E+01 0.93127386789E+01
 0.91903117158E+01 0.90654856203E+01 0.89512490721E+01 0.88584979515E+01 0.87937318923E+01
 0.92434768673E+01 0.93112048352E+01 0.93942901715E+01 0.94798832264E+01 0.95556099175E+01
 0.96115476690E+01 0.96411073150E+01 0.96411026095E+01 0.96115457909E+01 0.95556211468E+01
 0.94798907923E+01 0.93942798474E+01 0.93111928027E+01 0.92434803470E+01 0.92016553812E+01
 0.91912698504E+01 0.92114585681E+01 0.92553196778E+01 0.93120935123E+01 0.93702729727E+01
 0.94203365833E+01 0.94560958331E+01 0.94744890994E+01 0.94744782467E+01 0.94560797723E+01
 0.94203351426E+01 0.93702769909E+01 0.93120888868E+01 0.92553159863E+01 0.92114661487E+01
 0.91912755337E+01 0.92016486448E+01 0.96205725919E+01 0.97781914041E+01 0.99523849619E+01
 0.10125670469E+02 0.10280261425E+02 0.10401140194E+02 0.10477671732E+02 0.10503816787E+02
 0.10477667186E+02 0.10401145638E+02 0.10280275346E+02 0.10125675047E+02 0.99523776538E+01
 0.97781877206E+01 0.96205763058E+01 0.94930232821E+01 0.94021802217E+01 0.93470192953E+01
 0.93203547927E+01 0.93120866984E+01 0.93127323643E+01 0.93157720717E+01 0.93180898401E+01
 0.93188686667E+01 0.93180768918E+01 0.93157655758E+01 0.93127374046E+01 0.93120893929E+01
 0.93203514270E+01 0.93470208560E+01 0.94021871337E+01 0.94930241798E+01 0.98600033019E+01
 0.10112534657E+02 0.10386667582E+02 0.10660403138E+02 0.10910074993E+02 0.11114739000E+02
 0.11258903708E+02 0.11333113034E+02 0.11333108762E+02 0.11258898224E+02 0.11114741184E+02
 0.10910080571E+02 0.10660404673E+02 0.10386667687E+02 0.10112537630E+02 0.98600049099E+01
 0.96449473367E+01 0.94744594586E+01 0.93470221967E+01 0.92553157653E+01 0.91903083524E+01
 0.91447836884E+01 0.91149475485E+01 0.90998965062E+01 0.90998945859E+01 0.91149477205E+01
 0.91447913166E+01 0.91903156932E+01 0.92553147275E+01 0.93470183308E+01 0.94744608106E+01
 0.96449503260E+01 0.99421235766E+01 0.10287077713E+02 0.10662617356E+02 0.11042918553E+02
 0.11398385905E+02 0.11701420544E+02 0.11931083600E+02 0.12074614613E+02 0.12123507511E+02
 0.12074607614E+02 0.11931074731E+02 0.11701415081E+02 0.11398385534E+02 0.11042921708E+02
 0.10662620986E+02 0.10287079082E+02 0.99421226881E+01 0.96449496904E+01 0.94021874412E+01
 0.92114659297E+01 0.90654847896E+01 0.89565653033E+01 0.88797310783E+01 0.88333493028E+01
 0.88177578439E+01 0.88333554378E+01 0.88797399660E+01 0.89565713351E+01 0.90654843045E+01
 0.92114610416E+01 0.94021836727E+01 0.96449495371E+01 0.98600035396E+01 0.10287078770E+02
 0.10757283335E+02 0.11242402830E+02 0.11707574492E+02 0.12118311959E+02 0.12449797941E+02
 0.12683812525E+02 0.12805038734E+02 0.12805039514E+02 0.12683811093E+02 0.12449791390E+02
 0.12118306278E+02 0.11707575111E+02 0.11242405317E+02 0.10757281998E+02 0.10287076332E+02
 0.98600042106E+01 0.94930254843E+01 0.91912744623E+01 0.89512478380E+01 0.87658582631E+01
 0.86289559258E+01 0.85375699074E+01 0.84915228541E+01 0.84915272908E+01 0.85375761320E+01
 0.86289546430E+01 0.87658523552E+01 0.89512449198E+01 0.91912741132E+01 0.94930239680E+01
 0.96205726214E+01 0.10112535482E+02 0.10662620320E+02 0.11242404110E+02 0.11813416413E+02
 0.12335062227E+02 0.12778350920E+02 0.13118485534E+02 0.13332583151E+02 0.13405651185E+02
 0.13332596136E+02 0.13118492966E+02 0.12778347291E+02 0.12335060081E+02 0.11813419667E+02
 0.11242403115E+02 0.10662614467E+02 0.10112534729E+02 0.96205756055E+01 0.92016485673E+01
 0.88584947972E+01 0.85864157718E+01 0.83788242854E+01 0.82311923623E+01 0.81421766749E+01
 0.81123442503E+01 0.81421800052E+01 0.82311867283E+01 0.83788117923E+01 0.85864124690E+01