   2   2   0   0
  0.1584278E+02  0.2765155E-09  0.2765155E-09  0.4785109E-09  0.5000000E-15
  1.000000000000000E-004
  CAR 
 unknown system                          
     25.26246937     -4.52696140  301      7.13710182      1.00000000
     -4.527  0.0000E+00  0.0000E+00
     -4.428  0.0000E+00  0.0000E+00
     -4.328  0.0000E+00  0.0000E+00
     -4.229  0.0000E+00  0.0000E+00
     -4.130  0.0000E+00  0.0000E+00
     -4.030  0.0000E+00  0.0000E+00
     -3.931  0.0000E+00  0.0000E+00
     -3.832  0.0000E+00  0.0000E+00
     -3.733  0.0000E+00  0.0000E+00
     -3.633  0.0000E+00  0.0000E+00
     -3.534  0.0000E+00  0.0000E+00
     -3.435  0.0000E+00  0.0000E+00
     -3.335  0.0000E+00  0.0000E+00
     -3.236  0.0000E+00  0.0000E+00
     -3.137  0.0000E+00  0.0000E+00
     -3.037  0.0000E+00  0.0000E+00
     -2.938  0.0000E+00  0.0000E+00
     -2.839  0.0000E+00  0.0000E+00
     -2.740  0.0000E+00  0.0000E+00
     -2.640  0.0000E+00  0.0000E+00
     -2.541  0.0000E+00  0.0000E+00
     -2.442  0.3987E-02  0.1133E-03
     -2.342  0.1868E-01  0.1149E-02
     -2.243  0.4342E-01  0.4169E-02
     -2.144  0.7326E-01  0.9927E-02
     -2.045  0.9634E-01  0.1863E-01
     -1.945  0.1024E+00  0.2854E-01
     -1.846  0.1044E+00  0.3877E-01
     -1.747  0.1177E+00  0.4979E-01
     -1.647  0.1315E+00  0.6216E-01
     -1.548  0.1454E+00  0.7591E-01
     -1.449  0.1587E+00  0.9101E-01
     -1.349  0.1716E+00  0.1074E+00
     -1.250  0.1840E+00  0.1251E+00
     -1.151  0.1971E+00  0.1440E+00
     -1.052  0.2100E+00  0.1642E+00
     -0.952  0.2225E+00  0.1857E+00
     -0.853  0.2356E+00  0.2084E+00
     -0.754  0.2507E+00  0.2325E+00
     -0.654  0.2683E+00  0.2583E+00
     -0.555  0.2880E+00  0.2859E+00
     -0.456  0.3098E+00  0.3156E+00
     -0.356  0.3352E+00  0.3475E+00
     -0.257  0.3610E+00  0.3821E+00
     -0.158  0.3888E+00  0.4193E+00
     -0.059  0.4225E+00  0.4595E+00
      0.041  0.4667E+00  0.5036E+00
      0.140  0.5361E+00  0.5529E+00
      0.239  0.6411E+00  0.6112E+00
      0.339  0.7533E+00  0.6805E+00
      0.438  0.9031E+00  0.7621E+00
      0.537  0.1221E+01  0.8629E+00
      0.637  0.1751E+01  0.1014E+01
      0.736  0.2064E+01  0.1204E+01
      0.835  0.2106E+01  0.1416E+01
      0.934  0.2361E+01  0.1633E+01
      1.034  0.2382E+01  0.1868E+01
      1.133  0.2515E+01  0.2110E+01
      1.232  0.2742E+01  0.2369E+01
      1.332  0.2714E+01  0.2647E+01
      1.431  0.2723E+01  0.2910E+01
      1.530  0.2336E+01  0.3168E+01
      1.630  0.2163E+01  0.3392E+01
      1.729  0.2065E+01  0.3604E+01
      1.828  0.1543E+01  0.3785E+01
      1.927  0.1709E+01  0.3940E+01
      2.027  0.2240E+01  0.4132E+01
      2.126  0.4039E+01  0.4472E+01
      2.225  0.3878E+01  0.4862E+01
      2.325  0.3151E+01  0.5274E+01
      2.424  0.2405E+01  0.5538E+01
      2.523  0.2427E+01  0.5776E+01
      2.623  0.2830E+01  0.6038E+01
      2.722  0.3158E+01  0.6335E+01
      2.821  0.3845E+01  0.6673E+01
      2.920  0.3417E+01  0.7048E+01
      3.020  0.2419E+01  0.7343E+01
      3.119  0.2056E+01  0.7563E+01
      3.218  0.1809E+01  0.7754E+01
      3.318  0.2443E+01  0.7965E+01
      3.417  0.3371E+01  0.8254E+01
      3.516  0.4567E+01  0.8678E+01
      3.615  0.3616E+01  0.9051E+01
      3.715  0.3437E+01  0.9405E+01
      3.814  0.3176E+01  0.9722E+01
      3.913  0.4021E+01  0.1008E+02
      4.013  0.4324E+01  0.1052E+02
      4.112  0.3220E+01  0.1090E+02
      4.211  0.2755E+01  0.1120E+02
      4.311  0.3014E+01  0.1148E+02
      4.410  0.3600E+01  0.1181E+02
      4.509  0.3738E+01  0.1218E+02
      4.608  0.4800E+01  0.1259E+02
      4.708  0.3446E+01  0.1308E+02
      4.807  0.3377E+01  0.1339E+02
      4.906  0.2768E+01  0.1368E+02
      5.006  0.2409E+01  0.1394E+02
      5.105  0.2195E+01  0.1416E+02
      5.204  0.2466E+01  0.1440E+02
      5.304  0.2817E+01  0.1466E+02
      5.403  0.2246E+01  0.1492E+02
      5.502  0.2344E+01  0.1515E+02
      5.601  0.2250E+01  0.1538E+02
      5.701  0.2199E+01  0.1560E+02
      5.800  0.2192E+01  0.1582E+02
      5.899  0.2248E+01  0.1604E+02
      5.999  0.2288E+01  0.1626E+02
      6.098  0.2911E+01  0.1650E+02
      6.197  0.2730E+01  0.1679E+02
      6.297  0.2643E+01  0.1705E+02
      6.396  0.2952E+01  0.1732E+02
      6.495  0.3115E+01  0.1763E+02
      6.594  0.3057E+01  0.1793E+02
      6.694  0.3552E+01  0.1826E+02
      6.793  0.3486E+01  0.1860E+02
      6.892  0.3745E+01  0.1896E+02
      6.992  0.5076E+01  0.1942E+02
      7.091  0.3913E+01  0.1982E+02
      7.190  0.4037E+01  0.2021E+02
      7.290  0.3936E+01  0.2061E+02
      7.389  0.1789E+01  0.2092E+02
      7.488  0.6419E+00  0.2103E+02
      7.587  0.6621E+00  0.2109E+02
      7.687  0.6785E+00  0.2116E+02
      7.786  0.6912E+00  0.2123E+02
      7.885  0.6980E+00  0.2130E+02
      7.985  0.6989E+00  0.2137E+02
      8.084  0.7001E+00  0.2144E+02
      8.183  0.6883E+00  0.2150E+02
      8.282  0.6544E+00  0.2157E+02
      8.382  0.6411E+00  0.2164E+02
      8.481  0.6305E+00  0.2170E+02
      8.580  0.6217E+00  0.2176E+02
      8.680  0.6163E+00  0.2182E+02
      8.779  0.6112E+00  0.2188E+02
      8.878  0.6063E+00  0.2194E+02
      8.978  0.5996E+00  0.2200E+02
      9.077  0.5915E+00  0.2206E+02
      9.176  0.5831E+00  0.2212E+02
      9.275  0.5749E+00  0.2218E+02
      9.375  0.5672E+00  0.2224E+02
      9.474  0.5599E+00  0.2229E+02
      9.573  0.5528E+00  0.2235E+02
      9.673  0.5454E+00  0.2240E+02
      9.772  0.5395E+00  0.2245E+02
      9.871  0.5425E+00  0.2251E+02
      9.971  0.5810E+00  0.2256E+02
     10.070  0.6321E+00  0.2262E+02
     10.169  0.6358E+00  0.2269E+02
     10.268  0.5577E+00  0.2275E+02
     10.368  0.5436E+00  0.2280E+02
     10.467  0.5292E+00  0.2286E+02
     10.566  0.5146E+00  0.2291E+02
     10.666  0.5053E+00  0.2296E+02
     10.765  0.4983E+00  0.2301E+02
     10.864  0.4921E+00  0.2306E+02
     10.964  0.4871E+00  0.2311E+02
     11.063  0.4831E+00  0.2315E+02
     11.162  0.5084E+00  0.2320E+02
     11.261  0.5362E+00  0.2325E+02
     11.361  0.5306E+00  0.2331E+02
     11.460  0.5243E+00  0.2336E+02
     11.559  0.5133E+00  0.2341E+02
     11.659  0.5008E+00  0.2346E+02
     11.758  0.5028E+00  0.2351E+02
     11.857  0.5507E+00  0.2356E+02
     11.957  0.5744E+00  0.2362E+02
     12.056  0.5975E+00  0.2368E+02
     12.155  0.6274E+00  0.2374E+02
     12.254  0.6630E+00  0.2380E+02
     12.354  0.7046E+00  0.2387E+02
     12.453  0.7101E+00  0.2394E+02
     12.552  0.3432E+00  0.2400E+02
     12.652  0.2655E+00  0.2403E+02
     12.751  0.2186E+00  0.2405E+02
     12.850  0.1758E+00  0.2407E+02
     12.950  0.1370E+00  0.2409E+02
     13.049  0.1215E+00  0.2410E+02
     13.148  0.1245E+00  0.2411E+02
     13.247  0.1310E+00  0.2412E+02
     13.347  0.1395E+00  0.2414E+02
     13.446  0.1470E+00  0.2415E+02
     13.545  0.2177E+00  0.2417E+02
     13.645  0.4051E+00  0.2420E+02
     13.744  0.6810E+00  0.2425E+02
     13.843  0.8332E+00  0.2433E+02
     13.942  0.9585E+00  0.2442E+02
     14.042  0.1039E+01  0.2452E+02
     14.141  0.1096E+01  0.2462E+02
     14.240  0.1176E+01  0.2474E+02
     14.340  0.1190E+01  0.2486E+02
     14.439  0.1154E+01  0.2497E+02
     14.538  0.1058E+01  0.2508E+02
     14.638  0.8908E+00  0.2518E+02
     14.737  0.7856E+00  0.2526E+02
     14.836  0.7100E+00  0.2534E+02
     14.935  0.6567E+00  0.2540E+02
     15.035  0.6365E+00  0.2547E+02
     15.134  0.6260E+00  0.2553E+02
     15.233  0.6258E+00  0.2559E+02
     15.333  0.6573E+00  0.2566E+02
     15.432  0.8330E+00  0.2573E+02
     15.531  0.8451E+00  0.2581E+02
     15.631  0.8094E+00  0.2589E+02
     15.730  0.8693E+00  0.2598E+02
     15.829  0.8382E+00  0.2606E+02
     15.928  0.7492E+00  0.2614E+02
     16.028  0.6811E+00  0.2621E+02
     16.127  0.6429E+00  0.2628E+02
     16.226  0.6087E+00  0.2634E+02
     16.326  0.5764E+00  0.2640E+02
     16.425  0.5461E+00  0.2646E+02
     16.524  0.5179E+00  0.2651E+02
     16.624  0.4917E+00  0.2656E+02
     16.723  0.4676E+00  0.2661E+02
     16.822  0.4456E+00  0.2665E+02
     16.921  0.4254E+00  0.2669E+02
     17.021  0.4080E+00  0.2674E+02
     17.120  0.3926E+00  0.2678E+02
     17.219  0.3785E+00  0.2681E+02
     17.319  0.3661E+00  0.2685E+02
     17.418  0.3553E+00  0.2689E+02
     17.517  0.3457E+00  0.2692E+02
     17.617  0.3372E+00  0.2696E+02
     17.716  0.3296E+00  0.2699E+02
     17.815  0.3221E+00  0.2702E+02
     17.914  0.3147E+00  0.2705E+02
     18.014  0.3074E+00  0.2708E+02
     18.113  0.3001E+00  0.2711E+02
     18.212  0.2928E+00  0.2714E+02
     18.312  0.2841E+00  0.2717E+02
     18.411  0.2741E+00  0.2720E+02
     18.510  0.2643E+00  0.2723E+02
     18.609  0.2549E+00  0.2725E+02
     18.709  0.2468E+00  0.2728E+02
     18.808  0.2406E+00  0.2730E+02
     18.907  0.2345E+00  0.2732E+02
     19.007  0.2286E+00  0.2735E+02
     19.106  0.2229E+00  0.2737E+02
     19.205  0.2172E+00  0.2739E+02
     19.305  0.2161E+00  0.2741E+02
     19.404  0.2174E+00  0.2743E+02
     19.503  0.2187E+00  0.2746E+02
     19.602  0.2205E+00  0.2748E+02
     19.702  0.2230E+00  0.2750E+02
     19.801  0.1939E+00  0.2752E+02
     19.900  0.1818E+00  0.2754E+02
     20.000  0.1769E+00  0.2756E+02
     20.099  0.1722E+00  0.2757E+02
     20.198  0.1675E+00  0.2759E+02
     20.298  0.1630E+00  0.2761E+02
     20.397  0.1586E+00  0.2762E+02
     20.496  0.1544E+00  0.2764E+02
     20.595  0.1506E+00  0.2765E+02
     20.695  0.1472E+00  0.2767E+02
     20.794  0.1444E+00  0.2768E+02
     20.893  0.1420E+00  0.2770E+02
     20.993  0.1403E+00  0.2771E+02
     21.092  0.1390E+00  0.2773E+02
     21.191  0.1383E+00  0.2774E+02
     21.291  0.1381E+00  0.2775E+02
     21.390  0.1387E+00  0.2777E+02
     21.489  0.1402E+00  0.2778E+02
     21.588  0.1426E+00  0.2780E+02
     21.688  0.1457E+00  0.2781E+02
     21.787  0.1496E+00  0.2782E+02
     21.886  0.1552E+00  0.2784E+02
     21.986  0.1577E+00  0.2785E+02
     22.085  0.1561E+00  0.2787E+02
     22.184  0.1506E+00  0.2789E+02
     22.284  0.1410E+00  0.2790E+02
     22.383  0.1308E+00  0.2791E+02
     22.482  0.1232E+00  0.2793E+02
     22.581  0.1300E+00  0.2794E+02
     22.681  0.1315E+00  0.2795E+02
     22.780  0.1173E+00  0.2796E+02
     22.879  0.1061E+00  0.2798E+02
     22.979  0.9131E-01  0.2799E+02
     23.078  0.6798E-01  0.2799E+02
     23.177  0.3538E-01  0.2800E+02
     23.277  0.0000E+00  0.2800E+02
     23.376  0.0000E+00  0.2800E+02
     23.475  0.0000E+00  0.2800E+02
     23.574  0.0000E+00  0.2800E+02
     23.674  0.0000E+00  0.2800E+02
     23.773  0.0000E+00  0.2800E+02
     23.872  0.0000E+00  0.2800E+02
     23.972  0.0000E+00  0.2800E+02
     24.071  0.0000E+00  0.2800E+02
     24.170  0.0000E+00  0.2800E+02
     24.269  0.0000E+00  0.2800E+02
     24.369  0.0000E+00  0.2800E+02
     24.468  0.0000E+00  0.2800E+02
     24.567  0.0000E+00  0.2800E+02
     24.667  0.0000E+00  0.2800E+02
     24.766  0.0000E+00  0.2800E+02
     24.865  0.0000E+00  0.2800E+02
     24.965  0.0000E+00  0.2800E+02
     25.064  0.0000E+00  0.2800E+02
     25.163  0.0000E+00  0.2800E+02
     25.262  0.0000E+00  0.2800E+02
