    2    2    1    1
  0.1584278E+02  0.2765155E-09  0.2765155E-09  0.4785109E-09  0.5000000E-15
  1.000000000000000E-004
  CAR 
 unknown system                          
     20     48     14
 
  0.0000000E+00  0.0000000E+00  0.0000000E+00  0.2057613E-02
    1       -2.526961   1.000000
    2        0.123656   1.000000
    3        3.238477   1.000000
    4        3.748174   1.000000
    5        3.748174   1.000000
    6        4.115907   1.000000
    7        4.115907   1.000000
    8        5.332808   1.000000
    9        5.332808   1.000000
   10        6.456763   1.000000
   11        6.918826   1.000000
   12        6.918826   0.156303
   13       11.831528   0.000000
   14       22.930782   0.000000
 
  0.1111111E+00  0.0000000E+00  0.0000000E+00  0.1234568E-01
    1       -2.088142   1.000000
    2        0.518234   1.000000
    3        3.151408   1.000000
    4        3.758894   1.000000
    5        3.959771   1.000000
    6        4.086805   1.000000
    7        4.437289   1.000000
    8        4.619054   1.000000
    9        5.128942   1.000000
   10        5.266100   1.000000
   11        6.992039   1.000000
   12        8.920839  -0.017361
   13       11.791761   0.000000
   14       23.262469   0.000000
 
  0.2222222E+00  0.1387779E-16  0.0000000E+00  0.1234568E-01
    1       -0.923593   1.000000
    2        1.273882   1.000000
    3        2.972827   1.000000
    4        3.155439   1.000000
    5        3.412479   1.000000
    6        4.571715   1.000000
    7        4.698931   1.000000
    8        4.704237   1.000000
    9        5.029010   1.000000
   10        5.322535   1.000000
   11        7.096939   0.999654
   12       11.348904   0.000000
   13       11.744242   0.000000
   14       20.436168   0.000000
 
  0.3333333E+00  0.2775558E-16  0.0000000E+00  0.1234568E-01
    1        0.320190   1.000000
    2        1.188290   1.000000
    3        2.108864   1.000000
    4        3.318712   1.000000
    5        3.854080   1.000000
    6        4.174901   1.000000
    7        4.292525   1.000000
    8        6.054875   1.000023
    9        6.302301   1.042540
   10        6.504212   1.073218
   11        7.142740   0.440775
   12       12.070078   0.000000
   13       13.777490   0.000000
   14       16.152780   0.000000
 
  0.4444444E+00  0.2775558E-16  0.0000000E+00  0.1234568E-01
    1        0.758027   1.000000
    2        0.886032   1.000000
    3        1.570797   1.000000
    4        3.859123   1.000000
    5        4.034523   1.000000
    6        4.056434   1.000000
    7        4.521386   1.000000
    8        7.148638   0.987409
    9        7.281109   0.314942
   10        7.470282   0.031091
   11        8.396477  -0.004206
   12       12.047927   0.000000
   13       13.733392   0.000000
   14       15.697520   0.000000
 
  0.1111111E+00  0.1111111E+00  0.0000000E+00  0.1234568E-01
    1       -1.270701   1.000000
    2        1.183682   1.000000
    3        2.828644   1.000000
    4        3.581881   1.000000
    5        3.614293   1.000000
    6        4.056682   1.000000
    7        4.470579   1.000000
    8        4.805349   1.000000
    9        5.165943   1.000000
   10        5.180417   1.000000
   11        7.002773   1.000000
   12       10.715896   0.000000
   13       11.752059   0.000000
   14       22.472326   0.000000
 
  0.2222222E+00  0.1111111E+00  0.0000000E+00  0.2469136E-01
    1        0.064704   1.000000
    2        1.675994   1.000000
    3        2.519502   1.000000
    4        2.775815   1.000000
    5        3.444763   1.000000
    6        3.961143   1.000000
    7        4.749860   1.000000
    8        4.802433   1.000000
    9        6.029111   1.000000
   10        6.499098   1.010976
   11        6.984118   0.691100
   12       11.931835   0.000000
   13       13.048933   0.000000
   14       18.266496   0.000000
 
  0.3333333E+00  0.1111111E+00  0.0000000E+00  0.2469136E-01
    1        0.995198   1.000000
    2        1.313668   1.000000
    3        1.816301   1.000000
    4        3.470453   1.000000
    5        3.733832   1.000000
    6        4.080977   1.000000
    7        4.215678   1.000000
    8        6.099766   1.000094
    9        6.957464   1.000275
   10        7.032576   0.867480
   11        8.171063  -0.073339
   12       13.031237   0.000000
   13       14.100011   0.000000
   14       15.349819   0.000000
 
  0.4444444E+00  0.1111111E+00  0.0000000E+00  0.1234568E-01
    1        1.101107   1.000000
    2        1.175093   1.000000
    3        1.573819   1.000000
    4        3.798470   1.000000
    5        3.864384   1.000000
    6        4.184929   1.000000
    7        4.296112   1.000000
    8        6.942848   1.001721
    9        7.098438   0.793738
   10        7.223639   0.035990
   11        9.955080   0.000000
   12       11.151675   0.000000
   13       15.014426   0.000000
   14       16.066882   0.000000
 
  0.2222222E+00  0.2222222E+00  0.0000000E+00  0.1234568E-01
    1        1.353625   1.000000
    2        2.024748   1.000000
    3        2.293110   1.000000
    4        2.304365   1.000000
    5        3.511516   1.000000
    6        3.844120   1.000000
    7        4.382515   1.000000
    8        5.197602   1.000000
    9        6.754252   1.000000
   10        6.993957   1.073072
   11        8.267503  -0.073279
   12       12.955630   0.000000
   13       15.315122   0.000000
   14       15.745538   0.000000
 
  0.3333333E+00  0.2222222E+00  0.0000000E+00  0.2469136E-01
    1        1.758094   1.000000
    2        1.870401   1.000000
    3        1.979195   1.000000
    4        3.217657   1.000000
    5        3.484751   1.000000
    6        3.865187   1.000000
    7        4.378737   1.000000
    8        6.062443   1.000000
    9        6.608536   1.000000
   10        7.028324   1.035828
   11       10.135893   0.000000
   12       12.387636   0.000000
   13       14.520105   0.000000
   14       15.881471   0.000000
 
  0.3333333E+00  0.3333333E+00  0.0000000E+00  0.4115226E-02
    1        1.789919   1.000000
    2        2.427041   1.000000
    3        2.427041   1.000000
    4        2.906427   1.000000
    5        3.532150   1.000000
    6        3.532150   1.000000
    7        4.607513   1.000000
    8        6.407861   1.000000
    9        6.407861   1.000000
   10        6.446565   1.083670
   11       11.572170   0.000000
   12       11.572170   0.000000
   13       12.982196   0.000000
   14       19.143310   0.000000
 
  0.0000000E+00  0.0000000E+00  0.1666667E+00  0.4115226E-02
    1       -2.291416   1.000000
    2        0.085466   1.000000
    3        3.181330   1.000000
    4        3.715228   1.000000
    5        3.715229   1.000000
    6        4.048040   1.000000
    7        4.048040   1.000000
    8        5.462433   1.000000
    9        5.503772   1.000000
   10        5.503772   1.000000
   11        6.868866   1.000000
   12        6.868866   0.400512
   13       13.275065   0.000000
   14       22.250776   0.000000
 
  0.1111111E+00  0.0000000E+00  0.1666667E+00  0.2469136E-01
    1       -1.858318   1.000000
    2        0.493950   1.000000
    3        3.164185   1.000000
    4        3.603400   1.000000
    5        3.734984   1.000000
    6        4.034544   1.000000
    7        4.360585   1.000000
    8        4.526232   1.000000
    9        5.337474   1.000000
   10        5.347180   1.000000
   11        6.919821   1.000000
   12        8.041673  -0.051523
   13       13.432044   0.000000
   14       22.783552   0.000000
 
  0.2222222E+00  0.1387779E-16  0.1666667E+00  0.2469136E-01
    1       -0.732677   1.000000
    2        1.298856   1.000000
    3        2.852179   1.000000
    4        3.055396   1.000000
    5        3.317288   1.000000
    6        4.262530   1.000000
    7        4.646368   1.000000
    8        5.146514   1.000000
    9        5.160677   1.000000
   10        5.342049   1.000000
   11        6.985325   1.000125
   12        9.492632  -0.000001
   13       14.037269   0.000000
   14       20.676132   0.000000
 
  0.3333333E+00  0.2775558E-16  0.1666667E+00  0.2469136E-01
    1        0.349219   1.000000
    2        1.231125   1.000000
    3        2.172064   1.000000
    4        2.886784   1.000000
    5        3.906533   1.000000
    6        4.421969   1.000000
    7        4.620053   1.000000
    8        6.048587   1.000011
    9        6.307105   1.030308
   10        6.393112   1.094405
   11        7.046617   0.518365
   12       10.637037   0.000000
   13       14.912665   0.000000
   14       16.896198   0.000000
 
  0.4444444E+00  0.2775558E-16  0.1666667E+00  0.2469136E-01
    1        0.609952   1.000000
    2        0.884487   1.000000
    3        1.882143   1.000000
    4        2.876403   1.000000
    5        4.213417   1.000000
    6        4.326834   1.000000
    7        5.550168   1.000000
    8        6.832690   1.002317
    9        7.308803   0.338275
   10        7.486905   0.035568
   11        8.144966  -0.009499
   12       11.355448   0.000000
   13       13.472467   0.000000
   14       15.777763   0.000000
 
  0.1111111E+00  0.1111111E+00  0.1666667E+00  0.2469136E-01
    1       -1.060234   1.000000
    2        1.194011   1.000000
    3        2.888178   1.000000
    4        3.093455   1.000000
    5        3.641722   1.000000
    6        3.883612   1.000000
    7        4.627827   1.000000
    8        4.820402   1.000000
    9        5.229554   1.000000
   10        5.371488   1.000000
   11        6.908630   1.000000
   12        9.171280  -0.000183
   13       13.832002   0.000000
   14       22.552797   0.000000
 
  0.2222222E+00  0.1111111E+00  0.1666667E+00  0.4938272E-01
    1        0.189768   1.000000
    2        1.745866   1.000000
    3        2.323950   1.000000
    4        2.859450   1.000000
    5        3.310691   1.000000
    6        4.005513   1.000000
    7        4.610951   1.000000
    8        5.079040   1.000000
    9        6.179850   1.000000
   10        6.309974   1.047142
   11        6.969544   0.701971
   12       10.360779   0.000000
   13       14.794545   0.000000
   14       18.674110   0.000000
 
  0.3333333E+00  0.1111111E+00  0.1666667E+00  0.4938272E-01
    1        0.873018   1.000000
    2        1.364204   1.000000
    3        2.058302   1.000000
    4        2.807355   1.000000
    5        3.882471   1.000000
    6        4.407925   1.000000
    7        4.553619   1.000000
    8        6.087040   1.000034
    9        6.638195   1.047845
   10        7.158907   0.449489
   11        8.185109  -0.072737
   12       11.795313   0.000000
   13       14.134081   0.000000
   14       16.724714   0.000000
 
  0.4444444E+00  0.1111111E+00  0.1666667E+00  0.2469136E-01
    1        0.891836   1.000000
    2        1.161684   1.000000
    3        2.013637   1.000000
    4        2.870979   1.000000
    5        3.743381   1.000000
    6        4.636455   1.000000
    7        5.142934   1.000000
    8        6.614413   1.001927
    9        7.080316   0.820371
   10        7.278238  -0.033758
   11        9.828789   0.000000
   12       11.065816   0.000000
   13       14.652515   0.000000
   14       14.861395   0.000000
 
  0.2222222E+00  0.2222222E+00  0.1666667E+00  0.2469136E-01
    1        1.355824   1.000000
    2        1.867475   1.000000
    3        2.302854   1.000000
    4        2.531627   1.000000
    5        3.607751   1.000000
    6        3.791955   1.000000
    7        4.219714   1.000000
    8        5.414691   1.000000
    9        6.422934   1.000000
   10        7.175000   0.504587
   11        8.343255  -0.073963
   12       11.902980   0.000000
   13       15.155842   0.000000
   14       17.060483   0.000000
 
  0.3333333E+00  0.2222222E+00  0.1666667E+00  0.4938272E-01
    1        1.530809   1.000000
    2        2.010279   1.000000
    3        2.259381   1.000000
    4        2.781321   1.000000
    5        3.480934   1.000000
    6        4.028817   1.000000
    7        4.550786   1.000000
    8        6.148232   1.000000
    9        6.271567   1.000000
   10        7.170765   0.337816
   11       10.248894   0.000000
   12       12.557074   0.000000
   13       14.257771   0.000000
   14       15.372101   0.000000
 
  0.3333333E+00  0.3333333E+00  0.1666667E+00  0.8230453E-02
    1        1.928624   1.000000
    2        2.337465   1.000000
    3        2.337466   1.000000
    4        2.914109   1.000000
    5        3.524864   1.000000
    6        3.524864   1.000000
    7        4.586348   1.000000
    8        6.086572   1.000000
    9        6.563675   1.000000
   10        6.563675   1.258983
   11       11.791464   0.000000
   12       11.791464   0.000000
   13       13.457510   0.000000
   14       17.349934   0.000000
 
  0.0000000E+00  0.0000000E+00  0.3333333E+00  0.4115226E-02
    1       -1.639659   1.000000
    2       -0.146642   1.000000
    3        3.087869   1.000000
    4        3.689322   1.000000
    5        3.689322   1.000000
    6        3.893748   1.000000
    7        3.893748   1.000000
    8        4.001293   1.000000
    9        5.904886   1.000000
   10        5.904886   1.000000
   11        6.687566   1.000000
   12        6.687566   0.934534
   13       16.139126   0.000000
   14       21.332957   0.000000
 
  0.1111111E+00  0.0000000E+00  0.3333333E+00  0.2469136E-01
    1       -1.218285   1.000000
    2        0.283179   1.000000
    3        3.101572   1.000000
    4        3.259556   1.000000
    5        3.452814   1.000000
    6        3.990435   1.000000
    7        4.016911   1.000000
    8        4.197975   1.000000
    9        5.791936   1.000000
   10        5.837570   1.000000
   11        6.685321   1.000000
   12        7.134022   0.444419
   13       16.340071   0.000000
   14       21.809486   0.000000
 
  0.2222222E+00  0.1387779E-16  0.3333333E+00  0.2469136E-01
    1       -0.196665   1.000000
    2        1.172168   1.000000
    3        2.483836   1.000000
    4        2.973297   1.000000
    5        3.241572   1.000000
    6        3.933214   1.000000
    7        4.663844   1.000000
    8        5.008010   1.000000
    9        5.723591   1.000000
   10        5.853126   1.000000
   11        6.670477   1.008107
   12        7.936094  -0.046195
   13       16.811562   0.000000
   14       21.371468   0.000000
 
  0.3333333E+00  0.2775558E-16  0.3333333E+00  0.2469136E-01
    1        0.504067   1.000000
    2        1.192598   1.000000
    3        2.124770   1.000000
    4        2.515802   1.000000
    5        4.231306   1.000000
    6        4.789616   1.000000
    7        4.970474   1.000000
    8        5.907634   1.000000
    9        6.289382   1.037766
   10        6.478578   1.091911
   11        6.851909   0.629618
   12        8.762835  -0.023145
   13       16.198033   0.000000
   14       18.407376   0.000000
 
  0.4444444E+00  0.2775558E-16  0.3333333E+00  0.2469136E-01
    1        0.512186   1.000000
    2        0.905060   1.000000
    3        2.069359   1.000000
    4        2.172165   1.000000
    5        4.665320   1.000000
    6        4.971735   1.000000
    7        6.140781   1.000000
    8        6.967975   1.000000
    9        7.354614   0.284153
   10        7.367328   0.066092
   11        7.465253   0.006664
   12        9.854366   0.000000
   13       13.680628   0.000000
   14       15.114771   0.000000
 
  0.1111111E+00  0.1111111E+00  0.3333333E+00  0.2469136E-01
    1       -0.468109   1.000000
    2        1.029535   1.000000
    3        2.643746   1.000000
    4        3.063391   1.000000
    5        3.127299   1.000000
    6        3.752611   1.000000
    7        4.534647   1.000000
    8        4.798386   1.000000
    9        5.745061   1.000000
   10        5.833215   1.000000
   11        6.629622   1.000000
   12        7.758068  -0.018381
   13       16.712926   0.000000
   14       22.288900   0.000000
 
  0.2222222E+00  0.1111111E+00  0.3333333E+00  0.4938272E-01
    1        0.547985   1.000000
    2        1.647285   1.000000
    3        2.172134   1.000000
    4        2.860103   1.000000
    5        3.221268   1.000000
    6        3.818265   1.000000
    7        4.708757   1.000000
    8        5.557674   1.000000
    9        6.093852   1.001768
   10        6.464203   1.062211
   11        6.873057   0.728570
   12        8.593636  -0.041142
   13       17.057674   0.000000
   14       19.813688   0.000000
 
  0.3333333E+00  0.1111111E+00  0.3333333E+00  0.4938272E-01
    1        0.832147   1.000000
    2        1.365119   1.000000
    3        2.092813   1.000000
    4        2.504049   1.000000
    5        4.017067   1.000000
    6        4.751055   1.000000
    7        5.109564   1.000000
    8        5.842701   1.000000
    9        6.405613   1.079983
   10        7.378320   0.167480
   11        8.194370  -0.067893
   12        9.941880  -0.000014
   13       14.839389   0.000000
   14       17.036467   0.000000
 
  0.4444444E+00  0.1111111E+00  0.3333333E+00  0.2469136E-01
    1        0.767070   1.000000
    2        1.209060   1.000000
    3        2.160619   1.000000
    4        2.318169   1.000000
    5        3.945856   1.000000
    6        5.342640   1.000000
    7        5.586665   1.000000
    8        6.132247   1.000000
    9        7.039623   0.841098
   10        7.310738  -0.033119
   11        9.693383   0.000000
   12       10.741225   0.000000
   13       13.893085   0.000000
   14       13.970746   0.000000
 
  0.2222222E+00  0.2222222E+00  0.3333333E+00  0.2469136E-01
    1        1.386986   1.000000
    2        1.671939   1.000000
    3        2.435058   1.000000
    4        2.836942   1.000000
    5        3.482512   1.000000
    6        3.603475   1.000000
    7        4.301628   1.000000
    8        5.584068   1.000000
    9        6.279885   1.020812
   10        7.424107   0.135404
   11        8.463330  -0.073628
   12       10.122478  -0.000265
   13       16.078645   0.000000
   14       17.685242   0.000000
 
  0.3333333E+00  0.2222222E+00  0.3333333E+00  0.4938272E-01
    1        1.448523   1.000000
    2        2.010105   1.000000
    3        2.262332   1.000000
    4        3.015334   1.000000
    5        3.140145   1.000000
    6        4.164810   1.000000
    7        4.811177   1.000000
    8        5.514517   1.000000
    9        6.570016   1.011447
   10        7.323828  -0.010891
   11       10.592040   0.000000
   12       12.378915   0.000000
   13       13.649037   0.000000
   14       15.586468   0.000000
 
  0.3333333E+00  0.3333333E+00  0.3333333E+00  0.8230453E-02
    1        2.170049   1.000000
    2        2.170049   1.000000
    3        2.291873   1.000000
    4        2.888578   1.000000
    5        3.521017   1.000000
    6        3.521017   1.000000
    7        4.580141   1.000000
    8        5.349173   1.000000
    9        6.842826   1.000000
   10        6.842826   1.140062
   11       12.497135   0.000000
   12       12.497135   0.000000
   13       14.573813   0.000000
   14       15.387840   0.000000
 
  0.0000000E+00  0.0000000E+00  0.5000000E+00  0.2057613E-02
    1       -0.785697   1.000000
    2       -0.785697   1.000000
    3        3.218939   1.000000
    4        3.218939   1.000000
    5        3.750425   1.000000
    6        3.750425   1.000000
    7        3.750425   1.000000
    8        3.750425   1.000000
    9        6.346940   1.000000
   10        6.346940   1.000000
   11        6.346940   1.000000
   12        6.346940   1.000000
   13       19.200840   0.000000
   14       19.200840   0.000000
 
  0.1111111E+00  0.0000000E+00  0.5000000E+00  0.1234568E-01
    1       -0.364056   1.000000
    2       -0.364056   1.000000
    3        2.985987   1.000000
    4        2.985987   1.000000
    5        3.633093   1.000000
    6        3.633093   1.000000
    7        4.049730   1.000000
    8        4.049730   1.000000
    9        6.286110   1.000000
   10        6.286110   1.000000
   11        6.461291   1.000000
   12        6.461291   1.038803
   13       19.438876   0.000000
   14       19.438876   0.000000
 
  0.2222222E+00  0.1387779E-16  0.5000000E+00  0.1234568E-01
    1        0.550893   1.000000
    2        0.550893   1.000000
    3        2.595229   1.000000
    4        2.595229   1.000000
    5        3.558000   1.000000
    6        3.558000   1.000000
    7        4.802934   1.000000
    8        4.802934   1.000000
    9        6.216395   1.000000
   10        6.216395   1.000000
   11        6.762902   1.019182
   12        6.762902   0.663149
   13       19.710149   0.000000
   14       19.710149   0.000000
 
  0.3333333E+00  0.2775558E-16  0.5000000E+00  0.1234568E-01
    1        0.839347   1.000000
    2        0.839347   1.000000
    3        2.262798   1.000000
    4        2.262798   1.000000
    5        4.728592   1.000000
    6        4.728592   1.000000
    7        5.327974   1.000000
    8        5.327974   1.000000
    9        6.651714   1.027551
   10        6.651714   1.063045
   11        7.232815   0.346981
   12        7.232815   0.044904
   13       17.584297   0.000000
   14       17.584297   0.000000
 
  0.4444444E+00  0.2775558E-16  0.5000000E+00  0.1234568E-01
    1        0.683659   1.000000
    2        0.683659   1.000000
    3        2.023274   1.000000
    4        2.023274   1.000000
    5        5.349328   1.000000
    6        5.349328   1.000000
    7        6.143642   1.000000
    8        6.143643   1.000000
    9        7.412719   0.128647
   10        7.412719   0.016907
   11        8.394770  -0.009154
   12        8.394770   0.000000
   13       14.289699   0.000000
   14       14.289699   0.000000
 
  0.1111111E+00  0.1111111E+00  0.5000000E+00  0.1234568E-01
    1        0.355700   1.000000
    2        0.355700   1.000000
    3        2.701275   1.000000
    4        2.701275   1.000000
    5        3.387517   1.000000
    6        3.387517   1.000000
    7        4.637209   1.000000
    8        4.637209   1.000000
    9        6.204316   1.000000
   10        6.204316   1.000000
   11        6.701157   1.000000
   12        6.701157   0.808649
   13       19.775148   0.000000
   14       19.775148   0.000000
 
  0.2222222E+00  0.1111111E+00  0.5000000E+00  0.2469136E-01
    1        1.081683   1.000000
    2        1.081683   1.000000
    3        2.510489   1.000000
    4        2.510489   1.000000
    5        3.476352   1.000000
    6        3.476352   1.000000
    7        5.148599   1.000000
    8        5.148599   1.000000
    9        6.675669   1.001316
   10        6.675669   1.045953
   11        7.127058   0.593851
   12        7.127058   0.134246
   13       19.234731   0.000000
   14       19.234731   0.000000
 
  0.3333333E+00  0.1111111E+00  0.5000000E+00  0.2469136E-01
    1        1.046985   1.000000
    2        1.046985   1.000000
    3        2.267920   1.000000
    4        2.267920   1.000000
    5        4.596431   1.000000
    6        4.596431   1.000000
    7        5.317227   1.000000
    8        5.317228   1.000000
    9        7.116541   0.871752
   10        7.116541   0.477027
   11        8.607986  -0.070716
   12        8.607986  -0.000023
   13       15.926427   0.000000
   14       15.926427   0.000000
 
  0.4444444E+00  0.1111111E+00  0.5000000E+00  0.1234568E-01
    1        0.949255   1.000000
    2        0.949255   1.000000
    3        2.158269   1.000000
    4        2.158269   1.000000
    5        4.725637   1.000000
    6        4.725637   1.000000
    7        6.057419   1.000000
    8        6.057419   1.000000
    9        7.078481   0.767690
   10        7.078481   0.363012
   11       10.129885   0.000000
   12       10.129885   0.000000
   13       13.616267   0.000000
   14       13.616267   0.000000
 
  0.2222222E+00  0.2222222E+00  0.5000000E+00  0.1234568E-01
    1        1.497182   1.000000
    2        1.497182   1.000000
    3        2.729273   1.000000
    4        2.729273   1.000000
    5        3.435836   1.000000
    6        3.435836   1.000000
    7        4.837401   1.000000
    8        4.837401   1.000000
    9        7.202196   0.903089
   10        7.202196   0.307774
   11        8.824318  -0.081275
   12        8.824318  -0.000555
   13       17.373980   0.000000
   14       17.373980   0.000000
 
  0.3333333E+00  0.2222222E+00  0.5000000E+00  0.2469136E-01
    1        1.614552   1.000000
    2        1.614552   1.000000
    3        2.631804   1.000000
    4        2.631804   1.000000
    5        3.782125   1.000000
    6        3.782125   1.000000
    7        5.021287   1.000000
    8        5.021287   1.000000
    9        7.102695   0.977145
   10        7.102695   0.477067
   11       11.292869   0.000000
   12       11.292869   0.000000
   13       14.590751   0.000000
   14       14.590751   0.000000
 
  0.3333333E+00  0.3333333E+00  0.5000000E+00  0.4115226E-02
    1        2.091760   1.000000
    2        2.091760   1.000000
    3        2.690674   1.000000
    4        2.690674   1.000000
    5        3.522490   1.000000
    6        3.522490   1.000000
    7        4.774278   1.000000
    8        4.774278   1.000000
    9        6.967745   1.000000
   10        6.967745   1.032893
   11       13.724606   0.000000
   12       13.724606   0.000000
   13       13.724715   0.000000
   14       13.724715   0.000000
