Automatically generated mesh
      48
Reciprocal lattice
    0.00000000000000    0.00000000000000    0.00000000000000             1
    0.11111111111111    0.00000000000000    0.00000000000000             6
    0.22222222222222    0.00000000000000    0.00000000000000             6
    0.33333333333333    0.00000000000000    0.00000000000000             6
    0.44444444444444    0.00000000000000    0.00000000000000             6
    0.11111111111111    0.11111111111111    0.00000000000000             6
    0.22222222222222    0.11111111111111    0.00000000000000            12
    0.33333333333333    0.11111111111111    0.00000000000000            12
    0.44444444444444    0.11111111111111    0.00000000000000             6
    0.22222222222222    0.22222222222222    0.00000000000000             6
    0.33333333333333    0.22222222222222    0.00000000000000            12
    0.33333333333333    0.33333333333333    0.00000000000000             2
    0.00000000000000    0.00000000000000    0.16666666666667             2
    0.11111111111111    0.00000000000000    0.16666666666667            12
    0.22222222222222    0.00000000000000    0.16666666666667            12
    0.33333333333333    0.00000000000000    0.16666666666667            12
    0.44444444444444    0.00000000000000    0.16666666666667            12
    0.11111111111111    0.11111111111111    0.16666666666667            12
    0.22222222222222    0.11111111111111    0.16666666666667            24
    0.33333333333333    0.11111111111111    0.16666666666667            24
    0.44444444444444    0.11111111111111    0.16666666666667            12
    0.22222222222222    0.22222222222222    0.16666666666667            12
    0.33333333333333    0.22222222222222    0.16666666666667            24
    0.33333333333333    0.33333333333333    0.16666666666667             4
    0.00000000000000    0.00000000000000    0.33333333333333             2
    0.11111111111111    0.00000000000000    0.33333333333333            12
    0.22222222222222    0.00000000000000    0.33333333333333            12
    0.33333333333333    0.00000000000000    0.33333333333333            12
    0.44444444444444    0.00000000000000    0.33333333333333            12
    0.11111111111111    0.11111111111111    0.33333333333333            12
    0.22222222222222    0.11111111111111    0.33333333333333            24
    0.33333333333333    0.11111111111111    0.33333333333333            24
    0.44444444444444    0.11111111111111    0.33333333333333            12
    0.22222222222222    0.22222222222222    0.33333333333333            12
    0.33333333333333    0.22222222222222    0.33333333333333            24
    0.33333333333333    0.33333333333333    0.33333333333333             4
    0.00000000000000    0.00000000000000    0.50000000000000             1
    0.11111111111111    0.00000000000000    0.50000000000000             6
    0.22222222222222    0.00000000000000    0.50000000000000             6
    0.33333333333333    0.00000000000000    0.50000000000000             6
    0.44444444444444    0.00000000000000    0.50000000000000             6
    0.11111111111111    0.11111111111111    0.50000000000000             6
    0.22222222222222    0.11111111111111    0.50000000000000            12
    0.33333333333333    0.11111111111111    0.50000000000000            12
    0.44444444444444    0.11111111111111    0.50000000000000             6
    0.22222222222222    0.22222222222222    0.50000000000000             6
    0.33333333333333    0.22222222222222    0.50000000000000            12
    0.33333333333333    0.33333333333333    0.50000000000000             2
Tetrahedra
       492    0.00034293552812
         8         2         2         6        14
         8         1         2         2        14
         4         1         2        13        14
         4         2         6        14        18
         8         2        14        14        18
         8         2        13        14        14
         8         3         6         7        18
         8         2         3         6        18
         4         2         3        14        18
         4         3         7        18        19
         8         3        15        18        19
         8         3        14        15        18
         8         4         7         8        19
         8         3         4         7        19
         4         3         4        15        19
         4         4         8        19        20
         8         4        16        19        20
         8         4        15        16        19
         8         5         8         9        20
         8         4         5         8        20
         4         4         5        16        20
         4         5         9        20        21
         8         5        17        20        21
         8         5        16        17        20
         8         5         8         9        21
         4         5         5         9        21
         4         5         5        17        21
         4         5         8        20        21
         8         5        17        17        21
         8         4         7         8        20
         4         4         5        17        20
         4         4         7        19        20
         8         4        16        17        20
         8         3         6         7        19
         4         3         4        16        19
         4         3         6        18        19
         8         3        15        16        19
         4         2         2         6        18
         4         2         3        15        18
         4         2         2        14        18
         8         2        14        15        18
         4         1         2        14        14
         4         1        13        14        14
         8         3         6         7        15
         8         2         3         6        15
         4         2         6        14        15
         4         6         7        15        19
         8         6        15        18        19
         8         6        14        15        18
         8         7         7        10        19
         8         6         7         7        19
         4         6         7        18        19
         4         7        10        19        22
         8         7        19        19        22
         8         7        18        19        19
         8         8        10        11        22
         8         7         8        10        22
         4         7         8        19        22
         4         8        11        22        23
         8         8        20        22        23
         8         8        19        20        22
         8         9        11        11        23
         8         8         9        11        23
         4         8         9        20        23
         4         9        11        23        23
         4         9        21        23        23
         8         9        20        21        23
         8         8        10        11        23
         4         8         9        21        23
         4         8        10        22        23
         8         8        20        21        23
         4         7         7        10        22
         4         7         8        20        22
         4         7         7        19        22
         8         7        19        20        22
         4         6         7        19        19
         4         3         6        15        19
         4         6        18        19        19
         4         2         6        15        18
         8         4         7         8        16
         8         3         4         7        16
         4         3         7        15        16
         4         7         8        16        20
         8         7        16        19        20
         8         7        15        16        19
         8         8        10        11        20
         8         7         8        10        20
         4         7        10        19        20
         4        10        11        20        23
         8        10        20        22        23
         8        10        19        20        22
        16        11        11        12        23
         8        10        11        11        23
         4        10        11        22        23
         8        11        12        23        24
        16        11        23        23        24
         8        11        22        23        23
         8        11        11        12        24
         8        11        11        23        24
         4        10        11        23        23
         4         8        10        20        23
         4        10        22        23        23
         4         7        10        20        22
         4         4         7        16        20
         4         3         7        16        19
         8         5         8         9        17
         8         4         5         8        17
         4         4         8        16        17
         4         8         9        17        21
         8         8        17        20        21
         8         8        16        17        20
         4         9        11        11        21
         8         8         9        11        21
         4         8        11        20        21
         4        11        11        21        23
         8        11        21        23        23
         8        11        20        21        23
         8        11        12        23        23
         8        12        23        23        24
         4         9        11        21        23
         4         8        11        21        23
         4         5         8        17        21
         4         4         8        17        20
         8         5         5         9        17
         4         5         9        17        17
         4         8         9        17        20
         8         9        17        20        21
         4         9        17        17        21
         8         8         9        11        20
         4         9        11        20        21
         4        10        11        20        22
         8        11        20        22        23
         4        10        11        11        22
         4        11        11        22        23
         4         8        11        20        22
         4         9        11        20        23
         4         5         9        17        20
         4         5         9        17        21
         8         4         5         8        16
         4         5         8        16        17
         4         7         8        16        19
         8         8        16        19        20
         8         7         8        10        19
         4         8        10        19        20
         4         7        10        19        19
         4        10        19        19        22
         4         8        10        19        22
         4         4         8        16        19
         4         5         8        16        20
         8         3         4         7        15
         4         4         7        15        16
         4         6         7        15        18
         8         7        15        18        19
         4         6         7         7        18
         4         7         7        18        19
         4         3         7        15        18
         4         4         7        15        19
         8         2         3         6        14
         4         3         6        14        15
         4         2         6        14        14
         4         6        14        14        18
         4         3         6        14        18
         4         1         2         2        13
         4         2         2        13        14
         8        14        14        18        26
         8        13        14        14        26
         4        13        14        25        26
         4        14        18        26        30
         8        14        26        26        30
         8        14        25        26        26
         8        15        18        19        30
         8        14        15        18        30
         4        14        15        26        30
         4        15        19        30        31
         8        15        27        30        31
         8        15        26        27        30
         8        16        19        20        31
         8        15        16        19        31
         4        15        16        27        31
         4        16        20        31        32
         8        16        28        31        32
         8        16        27        28        31
         8        17        20        21        32
         8        16        17        20        32
         4        16        17        28        32
         4        17        21        32        33
         8        17        29        32        33
         8        17        28        29        32
         8        17        20        21        33
         4        17        17        21        33
         4        17        17        29        33
         4        17        20        32        33
         8        17        29        29        33
         8        16        19        20        32
         4        16        17        29        32
         4        16        19        31        32
         8        16        28        29        32
         8        15        18        19        31
         4        15        16        28        31
         4        15        18        30        31
         8        15        27        28        31
         4        14        14        18        30
         4        14        15        27        30
         4        14        14        26        30
         8        14        26        27        30
         4        13        14        26        26
         4        13        25        26        26
         8        15        18        19        27
         8        14        15        18        27
         4        14        18        26        27
         4        18        19        27        31
         8        18        27        30        31
         8        18        26        27        30
         8        19        19        22        31
         8        18        19        19        31
         4        18        19        30        31
         4        19        22        31        34
         8        19        31        31        34
         8        19        30        31        31
         8        20        22        23        34
         8        19        20        22        34
         4        19        20        31        34
         4        20        23        34        35
         8        20        32        34        35
         8        20        31        32        34
         8        21        23        23        35
         8        20        21        23        35
         4        20        21        32        35
         4        21        23        35        35
         4        21        33        35        35
         8        21        32        33        35
         8        20        22        23        35
         4        20        21        33        35
         4        20        22        34        35
         8        20        32        33        35
         4        19        19        22        34
         4        19        20        32        34
         4        19        19        31        34
         8        19        31        32        34
         4        18        19        31        31
         4        15        18        27        31
         4        18        30        31        31
         4        14        18        27        30
         8        16        19        20        28
         8        15        16        19        28
         4        15        19        27        28
         4        19        20        28        32
         8        19        28        31        32
         8        19        27        28        31
         8        20        22        23        32
         8        19        20        22        32
         4        19        22        31        32
         4        22        23        32        35
         8        22        32        34        35
         8        22        31        32        34
        16        23        23        24        35
         8        22        23        23        35
         4        22        23        34        35
         8        23        24        35        36
        16        23        35        35        36
         8        23        34        35        35
         8        23        23        24        36
         8        23        23        35        36
         4        22        23        35        35
         4        20        22        32        35
         4        22        34        35        35
         4        19        22        32        34
         4        16        19        28        32
         4        15        19        28        31
         8        17        20        21        29
         8        16        17        20        29
         4        16        20        28        29
         4        20        21        29        33
         8        20        29        32        33
         8        20        28        29        32
         4        21        23        23        33
         8        20        21        23        33
         4        20        23        32        33
         4        23        23        33        35
         8        23        33        35        35
         8        23        32        33        35
         8        23        24        35        35
         8        24        35        35        36
         4        21        23        33        35
         4        20        23        33        35
         4        17        20        29        33
         4        16        20        29        32
         8        17        17        21        29
         4        17        21        29        29
         4        20        21        29        32
         8        21        29        32        33
         4        21        29        29        33
         8        20        21        23        32
         4        21        23        32        33
         4        22        23        32        34
         8        23        32        34        35
         4        22        23        23        34
         4        23        23        34        35
         4        20        23        32        34
         4        21        23        32        35
         4        17        21        29        32
         4        17        21        29        33
         8        16        17        20        28
         4        17        20        28        29
         4        19        20        28        31
         8        20        28        31        32
         8        19        20        22        31
         4        20        22        31        32
         4        19        22        31        31
         4        22        31        31        34
         4        20        22        31        34
         4        16        20        28        31
         4        17        20        28        32
         8        15        16        19        27
         4        16        19        27        28
         4        18        19        27        30
         8        19        27        30        31
         4        18        19        19        30
         4        19        19        30        31
         4        15        19        27        30
         4        16        19        27        31
         8        14        15        18        26
         4        15        18        26        27
         4        14        18        26        26
         4        18        26        26        30
         4        15        18        26        30
         4        13        14        14        25
         4        14        14        25        26
         8        26        26        30        38
         8        25        26        26        38
         4        25        26        37        38
         4        26        30        38        42
         8        26        38        38        42
         8        26        37        38        38
         8        27        30        31        42
         8        26        27        30        42
         4        26        27        38        42
         4        27        31        42        43
         8        27        39        42        43
         8        27        38        39        42
         8        28        31        32        43
         8        27        28        31        43
         4        27        28        39        43
         4        28        32        43        44
         8        28        40        43        44
         8        28        39        40        43
         8        29        32        33        44
         8        28        29        32        44
         4        28        29        40        44
         4        29        33        44        45
         8        29        41        44        45
         8        29        40        41        44
         8        29        32        33        45
         4        29        29        33        45
         4        29        29        41        45
         4        29        32        44        45
         8        29        41        41        45
         8        28        31        32        44
         4        28        29        41        44
         4        28        31        43        44
         8        28        40        41        44
         8        27        30        31        43
         4        27        28        40        43
         4        27        30        42        43
         8        27        39        40        43
         4        26        26        30        42
         4        26        27        39        42
         4        26        26        38        42
         8        26        38        39        42
         4        25        26        38        38
         4        25        37        38        38
         8        27        30        31        39
         8        26        27        30        39
         4        26        30        38        39
         4        30        31        39        43
         8        30        39        42        43
         8        30        38        39        42
         8        31        31        34        43
         8        30        31        31        43
         4        30        31        42        43
         4        31        34        43        46
         8        31        43        43        46
         8        31        42        43        43
         8        32        34        35        46
         8        31        32        34        46
         4        31        32        43        46
         4        32        35        46        47
         8        32        44        46        47
         8        32        43        44        46
         8        33        35        35        47
         8        32        33        35        47
         4        32        33        44        47
         4        33        35        47        47
         4        33        45        47        47
         8        33        44        45        47
         8        32        34        35        47
         4        32        33        45        47
         4        32        34        46        47
         8        32        44        45        47
         4        31        31        34        46
         4        31        32        44        46
         4        31        31        43        46
         8        31        43        44        46
         4        30        31        43        43
         4        27        30        39        43
         4        30        42        43        43
         4        26        30        39        42
         8        28        31        32        40
         8        27        28        31        40
         4        27        31        39        40
         4        31        32        40        44
         8        31        40        43        44
         8        31        39        40        43
         8        32        34        35        44
         8        31        32        34        44
         4        31        34        43        44
         4        34        35        44        47
         8        34        44        46        47
         8        34        43        44        46
        16        35        35        36        47
         8        34        35        35        47
         4        34        35        46        47
         8        35        36        47        48
        16        35        47        47        48
         8        35        46        47        47
         8        35        35        36        48
         8        35        35        47        48
         4        34        35        47        47
         4        32        34        44        47
         4        34        46        47        47
         4        31        34        44        46
         4        28        31        40        44
         4        27        31        40        43
         8        29        32        33        41
         8        28        29        32        41
         4        28        32        40        41
         4        32        33        41        45
         8        32        41        44        45
         8        32        40        41        44
         4        33        35        35        45
         8        32        33        35        45
         4        32        35        44        45
         4        35        35        45        47
         8        35        45        47        47
         8        35        44        45        47
         8        35        36        47        47
         8        36        47        47        48
         4        33        35        45        47
         4        32        35        45        47
         4        29        32        41        45
         4        28        32        41        44
         8        29        29        33        41
         4        29        33        41        41
         4        32        33        41        44
         8        33        41        44        45
         4        33        41        41        45
         8        32        33        35        44
         4        33        35        44        45
         4        34        35        44        46
         8        35        44        46        47
         4        34        35        35        46
         4        35        35        46        47
         4        32        35        44        46
         4        33        35        44        47
         4        29        33        41        44
         4        29        33        41        45
         8        28        29        32        40
         4        29        32        40        41
         4        31        32        40        43
         8        32        40        43        44
         8        31        32        34        43
         4        32        34        43        44
         4        31        34        43        43
         4        34        43        43        46
         4        32        34        43        46
         4        28        32        40        43
         4        29        32        40        44
         8        27        28        31        39
         4        28        31        39        40
         4        30        31        39        42
         8        31        39        42        43
         4        30        31        31        42
         4        31        31        42        43
         4        27        31        39        42
         4        28        31        39        43
         8        26        27        30        38
         4        27        30        38        39
         4        26        30        38        38
         4        30        38        38        42
         4        27        30        38        42
         4        25        26        26        37
         4        26        26        37        38
