Starting job 28217977 ("jobfile") on c16-29 at Fri Sep 20 09:57:55 CEST 2019
 running on    4 total cores
 distrk:  each k-point on    4 cores,    1 groups
 distr:  one band on    2 cores,    2 groups
 using from now: INCAR     
 vasp.5.4.1 05Feb16 (build Mar 02 2016 14:09:44) complex                        
  
 POSCAR found type information on POSCAR  Pt
 POSCAR found :  1 types and       2 ions

 ----------------------------------------------------------------------------- 
|                                                                             |
|  ADVICE TO THIS USER RUNNING 'VASP/VAMP'   (HEAR YOUR MASTER'S VOICE ...):  |
|                                                                             |
|      You have a (more or less) 'small supercell' and for smaller cells      |
|      it is recommended  to use the reciprocal-space projection scheme!      |
|      The real space optimization is not  efficient for small cells and it   |
|      is also less accurate ...                                              |
|      Therefore set LREAL=.FALSE. in the  INCAR file                         |
|                                                                             |
 ----------------------------------------------------------------------------- 

 LDA part: xc-table for Pade appr. of Perdew
 POSCAR, INCAR and KPOINTS ok, starting setup
 WARNING: small aliasing (wrap around) errors must be expected
 FFT: planning ...
 WAVECAR not read
 entering main loop
       N       E                     dE             d eps       ncg     rms          rms(c)
DAV:   1     0.194565481692E+03    0.19457E+03   -0.96347E+03  1344   0.140E+03
DAV:   2    -0.421009726666E+01   -0.19878E+03   -0.18499E+03  1362   0.417E+02
DAV:   3    -0.126019594608E+02   -0.83919E+01   -0.80173E+01  1716   0.905E+01
DAV:   4    -0.127707981410E+02   -0.16884E+00   -0.16431E+00  1524   0.124E+01
DAV:   5    -0.127737334276E+02   -0.29353E-02   -0.29347E-02  1768   0.154E+00    0.512E+00
RMM:   6    -0.120982100542E+02    0.67552E+00   -0.12856E+00  1344   0.152E+01    0.159E+00
RMM:   7    -0.120404063732E+02    0.57804E-01   -0.34436E-01  1398   0.567E+00    0.402E-01
RMM:   8    -0.120339786015E+02    0.64278E-02   -0.13312E-02  1402   0.173E+00    0.143E-01
RMM:   9    -0.120332113531E+02    0.76725E-03   -0.24638E-03  1509   0.404E-01    0.263E-02
RMM:  10    -0.120332370466E+02   -0.25694E-04   -0.14736E-04  1408   0.148E-01    0.212E-02
RMM:  11    -0.120333344504E+02   -0.97404E-04   -0.10221E-04  1401   0.137E-01    0.123E-02
RMM:  12    -0.120332895681E+02    0.44882E-04   -0.14341E-05   759   0.622E-02    0.110E-03
RMM:  13    -0.120332905365E+02   -0.96845E-06   -0.21831E-06   725   0.152E-02
   1 F= -.12033291E+02 E0= -.12033291E+02  d E =0.000000E+00

Currently Loaded Modulefiles:
  1) intel/2016.1       2) vasp/5.4.1.Feb16

Job script resource usage:
       JobID  MaxVMSize     MaxRSS 
------------ ---------- ---------- 
28217977.ba+    216752K      2389K 

Job step resource usage:
       JobID    JobName  AllocCPUS  MaxVMSize     MaxRSS    Elapsed ExitCode 
------------ ---------- ---------- ---------- ---------- ---------- -------- 
28217977        jobfile          4                         00:00:08      0:0 
28217977.0    pmi_proxy          1    279832K       522K   00:00:07      0:0 

Job 28217977 ("jobfile") completed on c16-29 at Fri Sep 20 09:58:02 CEST 2019
