unknown system                          
   1.00000000000000     
     2.573869    0.000000    0.000000
     1.286934    2.229036    0.000000
     0.000000    0.000000   30.304665
   Cu   H 
     4     1
Direct
  0.000000  0.000000  0.395979
  0.333333  0.333333  0.465326
  0.666667  0.666667  0.534674
  0.000000  0.000000  0.604021
  0.961148  0.000000  0.663418
 
   20   20  240
 -.59793E-02 -.57415E-02 -.45995E-02 -.28311E-02 -.91640E-03 0.55571E-03 0.10731E-02 0.45883E-03 -.94211E-03 -.23455E-02
 -.29300E-02 -.23308E-02 -.86765E-03 0.66785E-03 0.14916E-02 0.12198E-02 -.46763E-04 -.18888E-02 -.37875E-02 -.52689E-02
 -.56209E-02 -.49213E-02 -.34496E-02 -.16218E-02 -.57928E-04 0.58430E-03 -.96418E-04 -.19427E-02 -.41673E-02 -.56781E-02
 -.56765E-02 -.41382E-02 -.18231E-02 0.19087E-03 0.10968E-02 0.68217E-03 -.73424E-03 -.25791E-02 -.42777E-02 -.53828E-02
 -.43858E-02 -.33565E-02 -.18388E-02 -.48082E-03 -.15794E-03 -.16111E-02 -.49332E-02 -.92475E-02 -.12927E-01 -.14376E-01
 -.12917E-01 -.91917E-02 -.47704E-02 -.12737E-02 0.39210E-03 0.25346E-03 -.10335E-02 -.26579E-02 -.39780E-02 -.46085E-02
 -.25781E-02 -.14852E-02 -.43252E-03 -.44681E-03 -.26815E-02 -.77103E-02 -.14828E-01 -.21952E-01 -.26437E-01 -.26434E-01
 -.21930E-01 -.14752E-01 -.75252E-02 -.23325E-02 0.80279E-04 0.21579E-03 -.84374E-03 -.21037E-02 -.29553E-02 -.31304E-02
 -.68169E-03 0.72943E-04 -.10217E-03 -.26664E-02 -.88004E-02 -.18365E-01 -.29296E-01 -.38110E-01 -.41501E-01 -.38107E-01
 -.29273E-01 -.18286E-01 -.86167E-02 -.23440E-02 0.34783E-03 0.57844E-03 -.23844E-03 -.10948E-02 -.15150E-02 -.13546E-02
 0.73147E-03 0.67849E-03 -.15712E-02 -.76973E-02 -.18362E-01 -.32110E-01 -.45287E-01 -.53415E-01 -.53417E-01 -.45288E-01
 -.32091E-01 -.18290E-01 -.75364E-02 -.13065E-02 0.10185E-02 0.10752E-02 0.38388E-03 -.17476E-03 -.26980E-03 0.12728E-03
 0.11770E-02 -.46217E-04 -.49139E-02 -.14820E-01 -.29292E-01 -.45284E-01 -.57952E-01 -.62789E-01 -.57957E-01 -.45287E-01
 -.29276E-01 -.14760E-01 -.47885E-02 0.14296E-03 0.13980E-02 0.88294E-03 0.59336E-04 -.32605E-03 -.57402E-04 0.68545E-03
 0.50272E-03 -.19262E-02 -.92423E-02 -.21948E-01 -.38105E-01 -.53411E-01 -.62787E-01 -.62791E-01 -.53420E-01 -.38108E-01
 -.21932E-01 -.91948E-02 -.18417E-02 0.61725E-03 0.57631E-04 -.15010E-02 -.26355E-02 -.26713E-02 -.15956E-02 -.64035E-04
 -.93404E-03 -.41679E-02 -.12928E-01 -.26434E-01 -.41497E-01 -.53414E-01 -.57956E-01 -.53420E-01 -.41504E-01 -.26435E-01
 -.12914E-01 -.41341E-02 -.88151E-03 -.18943E-02 -.49165E-02 -.77426E-02 -.88708E-02 -.77761E-02 -.49727E-02 -.19565E-02
 -.23510E-02 -.56834E-02 -.14378E-01 -.26434E-01 -.38108E-01 -.45290E-01 -.45291E-01 -.38111E-01 -.26436E-01 -.14375E-01
 -.56690E-02 -.23245E-02 -.41719E-02 -.92911E-02 -.14927E-01 -.18511E-01 -.18516E-01 -.14944E-01 -.93185E-02 -.42036E-02
 -.29382E-02 -.56841E-02 -.12925E-01 -.21940E-01 -.29287E-01 -.32107E-01 -.29291E-01 -.21944E-01 -.12921E-01 -.56716E-02
 -.29210E-02 -.57027E-02 -.13003E-01 -.22097E-01 -.29512E-01 -.32358E-01 -.29514E-01 -.22103E-01 -.13014E-01 -.57185E-02
 -.23437E-02 -.41560E-02 -.92165E-02 -.14786E-01 -.18328E-01 -.18336E-01 -.14801E-01 -.92259E-02 -.41525E-02 -.23322E-02
 -.57045E-02 -.14464E-01 -.26611E-01 -.38380E-01 -.45624E-01 -.45623E-01 -.38378E-01 -.26609E-01 -.14467E-01 -.57140E-02
 -.89583E-03 -.18663E-02 -.48316E-02 -.76047E-02 -.87098E-02 -.76323E-02 -.48735E-02 -.19049E-02 -.91927E-03 -.41888E-02
 -.13008E-01 -.26611E-01 -.41794E-01 -.53810E-01 -.58386E-01 -.53804E-01 -.41787E-01 -.26608E-01 -.13006E-01 -.41805E-02
 0.61113E-03 0.10388E-03 -.13941E-02 -.24835E-02 -.25139E-02 -.14753E-02 -.23667E-05 0.51143E-03 -.19574E-02 -.93203E-02
 -.22107E-01 -.38382E-01 -.53810E-01 -.63260E-01 -.63256E-01 -.53801E-01 -.38372E-01 -.22090E-01 -.92831E-02 -.18870E-02
 0.13946E-02 0.94932E-03 0.19192E-03 -.16367E-03 0.82395E-04 0.76375E-03 0.11859E-02 -.92270E-04 -.50040E-02 -.14967E-01
 -.29526E-01 -.45628E-01 -.58388E-01 -.63257E-01 -.58381E-01 -.45612E-01 -.29492E-01 -.14895E-01 -.48771E-02 0.89545E-04
 0.10761E-02 0.46496E-03 -.36404E-04 -.12812E-03 0.21641E-03 0.74019E-03 0.61456E-03 -.16833E-02 -.78447E-02 -.18556E-01
 -.32375E-01 -.45628E-01 -.53807E-01 -.53803E-01 -.45612E-01 -.32332E-01 -.18460E-01 -.76645E-02 -.14097E-02 0.95309E-03
 -.23242E-03 -.10151E-02 -.14029E-02 -.12709E-02 -.67339E-03 -.32732E-05 -.23751E-03 -.28270E-02 -.89715E-02 -.18557E-01
 -.29527E-01 -.38382E-01 -.41789E-01 -.38373E-01 -.29490E-01 -.18456E-01 -.87615E-02 -.24797E-02 0.22964E-03 0.50839E-03
 -.20940E-02 -.28955E-02 -.30712E-02 -.25712E-02 -.15556E-02 -.56850E-03 -.61325E-03 -.28451E-02 -.78592E-02 -.14972E-01
 -.22109E-01 -.26610E-01 -.26607E-01 -.22086E-01 -.14886E-01 -.76500E-02 -.24659E-02 -.59476E-04 0.97014E-04 -.90595E-03
 -.39710E-02 -.45805E-02 -.43787E-02 -.34026E-02 -.19431E-02 -.62028E-03 -.29875E-03 -.17300E-02 -.50284E-02 -.93317E-02
 -.13013E-01 -.14463E-01 -.12999E-01 -.92680E-02 -.48502E-02 -.13704E-02 0.27595E-03 0.13465E-03 -.11256E-02 -.27002E-02
 -.53804E-02 -.56155E-02 -.49363E-02 -.34986E-02 -.16989E-02 -.14239E-03 0.51202E-03 -.15034E-03 -.19843E-02 -.42042E-02
 -.57118E-02 -.57053E-02 -.41643E-02 -.18545E-02 0.14537E-03 0.10353E-02 0.61219E-03 -.79909E-03 -.26248E-02 -.42968E-02
 0.15667E-02 0.14487E-02 0.12472E-02 0.10202E-02 0.80420E-03 0.61164E-03 0.44521E-03 0.31015E-03 0.21429E-03 0.16105E-03
 0.14577E-03 0.15935E-03 0.19649E-03 0.26315E-03 0.37794E-03 0.56216E-03 0.81939E-03 0.11165E-02 0.13849E-02 0.15492E-02
 0.14668E-02 0.13311E-02 0.11521E-02 0.94874E-03 0.71873E-03 0.45989E-03 0.18893E-03 -.59177E-04 -.24632E-03 -.34556E-03
 -.34675E-03 -.25549E-03 -.88470E-04 0.13454E-03 0.39849E-03 0.69180E-03 0.99400E-03 0.12648E-02 0.14520E-02 0.15189E-02
 0.12588E-02 0.11503E-02 0.10023E-02 0.79303E-03 0.49945E-03 0.12681E-03 -.27868E-03 -.64332E-03 -.89346E-03 -.98018E-03
 -.89169E-03 -.65293E-03 -.31422E-03 0.66937E-04 0.44224E-03 0.77801E-03 0.10496E-02 0.12363E-02 0.13261E-02 0.13254E-02
 0.10093E-02 0.93464E-03 0.78550E-03 0.51405E-03 0.99684E-04 -.42505E-03 -.97294E-03 -.14272E-02 -.16813E-02 -.16767E-02
 -.14219E-02 -.98545E-03 -.46740E-03 0.36212E-04 0.45822E-03 0.76664E-03 0.95817E-03 0.10494E-02 0.10696E-02 0.10504E-02
 0.77324E-03 0.69585E-03 0.48837E-03 0.97127E-04 -.47770E-03 -.11627E-02 -.18222E-02 -.22992E-02 -.24701E-02 -.22924E-02
 -.18201E-02 -.11807E-02 -.52276E-03 0.35316E-04 0.43318E-03 0.66719E-03 0.77184E-03 0.79835E-03 0.79532E-03 0.79009E-03
 0.57589E-03 0.43876E-03 0.11878E-03 -.42551E-03 -.11613E-02 -.19682E-02 -.26642E-02 -.30668E-02 -.30633E-02 -.26580E-02
 -.19698E-02 -.11814E-02 -.46687E-03 0.65506E-04 0.38996E-03 0.54392E-03 0.59279E-03 0.59910E-03 0.60245E-03 0.60701E-03
 0.41945E-03 0.17684E-03 -.28114E-03 -.97067E-03 -.18193E-02 -.26627E-02 -.32897E-02 -.35209E-02 -.32865E-02 -.26589E-02
 -.18210E-02 -.98561E-03 -.31237E-03 0.13522E-03 0.37941E-03 0.48582E-03 0.52160E-03 0.53251E-03 0.53533E-03 0.51429E-03
 0.29910E-03 -.62774E-04 -.64274E-03 -.14247E-02 -.22967E-02 -.30658E-02 -.35214E-02 -.35232E-02 -.30677E-02 -.22945E-02
 -.14219E-02 -.64982E-03 -.85346E-04 0.26752E-03 0.46452E-03 0.56660E-03 0.61186E-03 0.61668E-03 0.58275E-03 0.49228E-03
 0.21302E-03 -.24678E-03 -.89371E-03 -.16809E-02 -.24698E-02 -.30645E-02 -.32893E-02 -.30702E-02 -.24739E-02 -.16788E-02
 -.89034E-03 -.25097E-03 0.19919E-03 0.49592E-03 0.69073E-03 0.80904E-03 0.85078E-03 0.81351E-03 0.70203E-03 0.51243E-03
 0.16230E-03 -.34688E-03 -.98217E-03 -.16778E-02 -.22931E-02 -.26603E-02 -.26630E-02 -.22985E-02 -.16809E-02 -.98169E-03
 -.34620E-03 0.15991E-03 0.54409E-03 0.83816E-03 0.10531E-02 0.11710E-02 0.11709E-02 0.10541E-02 0.84171E-03 0.54872E-03
 0.14656E-03 -.34784E-03 -.89196E-03 -.14202E-02 -.18178E-02 -.19688E-02 -.18217E-02 -.14233E-02 -.89141E-03 -.34684E-03
 0.14346E-03 0.57154E-03 0.94933E-03 0.12673E-02 0.14862E-02 0.15631E-02 0.14823E-02 0.12652E-02 0.95300E-03 0.57782E-03
 0.16196E-03 -.25186E-03 -.64658E-03 -.97649E-03 -.11707E-02 -.11720E-02 -.97743E-03 -.64365E-03 -.24786E-03 0.15982E-03
 0.57007E-03 0.98595E-03 0.13849E-02 0.17088E-02 0.18899E-02 0.18869E-02 0.17048E-02 0.13882E-02 0.99709E-03 0.58036E-03
 0.20390E-03 -.78060E-04 -.30075E-03 -.45135E-03 -.50450E-03 -.44685E-03 -.29242E-03 -.69150E-04 0.20801E-03 0.54507E-03
 0.94602E-03 0.13821E-02 0.17846E-02 0.20693E-02 0.21712E-02 0.20685E-02 0.17868E-02 0.13894E-02 0.95482E-03 0.54884E-03
 0.27283E-03 0.14552E-03 0.79006E-04 0.51237E-04 0.56304E-04 0.93381E-04 0.16601E-03 0.29349E-03 0.51055E-03 0.84086E-03
 0.12633E-02 0.17046E-02 0.20677E-02 0.22712E-02 0.22721E-02 0.20707E-02 0.17087E-02 0.12652E-02 0.83574E-03 0.49618E-03
 0.37934E-03 0.39517E-03 0.43710E-03 0.45915E-03 0.44836E-03 0.42103E-03 0.41856E-03 0.49886E-03 0.71079E-03 0.10583E-02
 0.14834E-02 0.18864E-02 0.21703E-02 0.22728E-02 0.21736E-02 0.18913E-02 0.14838E-02 0.10453E-02 0.67996E-03 0.45686E-03
 0.54167E-03 0.65863E-03 0.74213E-03 0.74464E-03 0.67224E-03 0.57623E-03 0.53171E-03 0.60753E-03 0.83318E-03 0.11784E-02
 0.15617E-02 0.18848E-02 0.20689E-02 0.20726E-02 0.18925E-02 0.15639E-02 0.11625E-02 0.79272E-03 0.55049E-03 0.47765E-03
 0.77091E-03 0.92694E-03 0.98318E-03 0.91709E-03 0.77138E-03 0.62861E-03 0.57311E-03 0.65608E-03 0.87545E-03 0.11778E-02
 0.14806E-02 0.17028E-02 0.17873E-02 0.17104E-02 0.14847E-02 0.11625E-02 0.83203E-03 0.59336E-03 0.51551E-03 0.59861E-03
 0.10499E-02 0.11781E-02 0.11566E-02 0.10054E-02 0.80296E-03 0.64143E-03 0.58659E-03 0.65863E-03 0.83369E-03 0.10571E-02
 0.12614E-02 0.13850E-02 0.13884E-02 0.12647E-02 0.10442E-02 0.79197E-03 0.59442E-03 0.52802E-03 0.62069E-03 0.82840E-03
 0.13236E-02 0.13722E-02 0.12580E-02 0.10408E-02 0.81288E-03 0.64996E-03 0.58588E-03 0.61634E-03 0.71433E-03 0.84033E-03
 0.94778E-03 0.99310E-03 0.95179E-03 0.83193E-03 0.67631E-03 0.55115E-03 0.52360E-03 0.63181E-03 0.85823E-03 0.11248E-02
 0.15157E-02 0.14680E-02 0.12860E-02 0.10446E-02 0.81913E-03 0.65284E-03 0.55442E-03 0.51418E-03 0.51746E-03 0.54569E-03
 0.57394E-03 0.57703E-03 0.54381E-03 0.48899E-03 0.45263E-03 0.48534E-03 0.62353E-03 0.86411E-03 0.11527E-02 0.13985E-02
 0.63735E-02 0.61395E-02 0.50045E-02 0.32426E-02 0.13299E-02 -.14635E-03 -.67383E-03 -.73504E-04 0.13125E-02 0.27035E-02
 0.32821E-02 0.26862E-02 0.12354E-02 -.28241E-03 -.10894E-02 -.80702E-03 0.46156E-03 0.22986E-02 0.41895E-02 0.56646E-02
 0.60188E-02 0.53226E-02 0.38590E-02 0.20373E-02 0.47059E-03 -.18239E-03 0.48598E-03 0.23226E-02 0.45391E-02 0.60416E-02
 0.60350E-02 0.45015E-02 0.22018E-02 0.20676E-03 -.68622E-03 -.26789E-03 0.11466E-02 0.29883E-02 0.46831E-02 0.57835E-02
 0.47912E-02 0.37665E-02 0.22524E-02 0.89243E-03 0.56144E-03 0.20038E-02 0.53171E-02 0.96261E-02 0.13303E-01 0.14749E-01
 0.13290E-01 0.95690E-02 0.51572E-02 0.16717E-02 0.14322E-04 0.15667E-03 0.14433E-02 0.30652E-02 0.43824E-02 0.50117E-02
 0.29904E-02 0.19021E-02 0.84519E-03 0.85005E-03 0.30766E-02 0.81002E-02 0.15213E-01 0.22331E-01 0.26813E-01 0.26812E-01
 0.22314E-01 0.15139E-01 0.79139E-02 0.27254E-02 0.32116E-03 0.19401E-03 0.12550E-02 0.25094E-02 0.33564E-02 0.35345E-02
 0.10963E-02 0.34166E-03 0.50763E-03 0.30626E-02 0.91932E-02 0.18756E-01 0.29680E-01 0.38484E-01 0.41872E-01 0.38484E-01
 0.29659E-01 0.18675E-01 0.90052E-02 0.27367E-02 0.56674E-04 -.16386E-03 0.65223E-03 0.14999E-02 0.19157E-02 0.17609E-02
 -.32114E-03 -.27479E-03 0.19660E-02 0.80891E-02 0.18754E-01 0.32495E-01 0.45657E-01 0.53774E-01 0.53778E-01 0.45661E-01
 0.32477E-01 0.18678E-01 0.79249E-02 0.17028E-02 -.60946E-03 -.65961E-03 0.26947E-04 0.57766E-03 0.67210E-03 0.28089E-03
 -.77732E-03 0.43670E-03 0.52992E-02 0.15207E-01 0.29677E-01 0.45655E-01 0.58302E-01 0.63131E-01 0.58310E-01 0.45661E-01
 0.29661E-01 0.15146E-01 0.51736E-02 0.24964E-03 -.99490E-03 -.47710E-03 0.34088E-03 0.72204E-03 0.45645E-03 -.28224E-03
 -.11757E-03 0.23059E-02 0.96213E-02 0.22329E-01 0.38480E-01 0.53769E-01 0.63128E-01 0.63131E-01 0.53776E-01 0.38484E-01
 0.22315E-01 0.95741E-02 0.22168E-02 -.23778E-03 0.32986E-03 0.18913E-02 0.30226E-02 0.30564E-02 0.19829E-02 0.45290E-03
 0.13040E-02 0.45390E-02 0.13303E-01 0.26811E-01 0.41868E-01 0.53774E-01 0.58308E-01 0.53775E-01 0.41871E-01 0.26811E-01
 0.13289E-01 0.45018E-02 0.12461E-02 0.22632E-02 0.52925E-02 0.81221E-02 0.92492E-02 0.81518E-02 0.53463E-02 0.23280E-02
 0.27091E-02 0.60467E-02 0.14751E-01 0.26812E-01 0.38485E-01 0.45663E-01 0.45663E-01 0.38486E-01 0.26812E-01 0.14745E-01
 0.60299E-02 0.26825E-02 0.45350E-02 0.96624E-02 0.15303E-01 0.18888E-01 0.18892E-01 0.15316E-01 0.96857E-02 0.45643E-02
 0.32911E-02 0.60433E-02 0.13298E-01 0.22324E-01 0.29673E-01 0.32492E-01 0.29676E-01 0.22327E-01 0.13296E-01 0.60330E-02
 0.32745E-02 0.60612E-02 0.13374E-01 0.22477E-01 0.29891E-01 0.32734E-01 0.29889E-01 0.22478E-01 0.13384E-01 0.60774E-02
 0.27003E-02 0.45205E-02 0.95950E-02 0.15174E-01 0.18718E-01 0.18724E-01 0.15187E-01 0.96059E-02 0.45214E-02 0.26912E-02
 0.60634E-02 0.14832E-01 0.26987E-01 0.38756E-01 0.45994E-01 0.45991E-01 0.38752E-01 0.26987E-01 0.14839E-01 0.60755E-02
 0.12645E-02 0.22460E-02 0.52194E-02 0.79941E-02 0.90984E-02 0.80207E-02 0.52588E-02 0.22809E-02 0.12850E-02 0.45526E-02
 0.13379E-01 0.26988E-01 0.42164E-01 0.54167E-01 0.58737E-01 0.54164E-01 0.42160E-01 0.26985E-01 0.13377E-01 0.45450E-02
 -.22565E-03 0.29408E-03 0.17925E-02 0.28763E-02 0.29058E-02 0.18704E-02 0.39423E-03 -.13180E-03 0.23267E-02 0.96914E-02
 0.22485E-01 0.38757E-01 0.54167E-01 0.63600E-01 0.63597E-01 0.54160E-01 0.38746E-01 0.22464E-01 0.96502E-02 0.22576E-02
 -.99286E-03 -.53858E-03 0.21484E-03 0.56469E-03 0.32046E-03 -.35696E-03 -.78445E-03 0.47932E-03 0.53801E-02 0.15343E-01
 0.29904E-01 0.45997E-01 0.58739E-01 0.63599E-01 0.58731E-01 0.45980E-01 0.29868E-01 0.15268E-01 0.52488E-02 0.29413E-03
 -.66352E-03 -.49937E-04 0.44746E-03 0.53791E-03 0.19669E-03 -.32686E-03 -.21034E-03 0.20733E-02 0.82249E-02 0.18934E-01
 0.32750E-01 0.45996E-01 0.54167E-01 0.54163E-01 0.45981E-01 0.32708E-01 0.18837E-01 0.80427E-02 0.17953E-02 -.55285E-03
 0.64782E-03 0.14291E-02 0.18144E-02 0.16830E-02 0.10867E-02 0.41284E-03 0.63692E-03 0.32146E-02 0.93513E-02 0.18934E-01
 0.29903E-01 0.38756E-01 0.42163E-01 0.38748E-01 0.29867E-01 0.18835E-01 0.91426E-02 0.28675E-02 0.16965E-03 -.97937E-04
 0.25050E-02 0.33066E-02 0.34805E-02 0.29784E-02 0.19613E-02 0.97128E-03 0.10092E-02 0.32310E-02 0.82363E-02 0.15346E-01
 0.22485E-01 0.26988E-01 0.26985E-01 0.22460E-01 0.15260E-01 0.80297E-02 0.28545E-02 0.45683E-03 0.30696E-03 0.13144E-02
 0.43740E-02 0.49873E-02 0.47846E-02 0.38049E-02 0.23445E-02 0.10229E-02 0.69803E-03 0.21178E-02 0.54026E-02 0.96994E-02
 0.13382E-01 0.14835E-01 0.13369E-01 0.96356E-02 0.52233E-02 0.17575E-02 0.12431E-03 0.26956E-03 0.15267E-02 0.30997E-02
 0.57765E-02 0.60167E-02 0.53401E-02 0.39029E-02 0.21052E-02 0.55049E-03 -.10882E-03 0.53937E-03 0.23561E-02 0.45647E-02
 0.60700E-02 0.60657E-02 0.45280E-02 0.22253E-02 0.23932E-03 -.63403E-03 -.20132E-03 0.12073E-02 0.30239E-02 0.46906E-02
 -.12998E-02 -.11568E-02 -.90700E-03 -.63943E-03 -.40894E-03 -.22196E-03 -.62149E-04 0.78342E-04 0.19067E-03 0.26128E-03
 0.28429E-03 0.26338E-03 0.20653E-03 0.11867E-03 -.60029E-05 -.18626E-03 -.43951E-03 -.75225E-03 -.10602E-02 -.12671E-02
 -.11768E-02 -.10072E-02 -.78447E-03 -.55535E-03 -.32351E-03 -.67647E-04 0.21832E-03 0.50344E-03 0.73277E-03 0.85757E-03
 0.85644E-03 0.73803E-03 0.53159E-03 0.27253E-03 -.12418E-04 -.31200E-03 -.61963E-03 -.91085E-03 -.11335E-02 -.12297E-02
 -.92161E-03 -.78339E-03 -.61310E-03 -.39682E-03 -.93821E-04 0.31873E-03 0.80583E-03 0.12739E-02 0.16093E-02 0.17274E-02
 0.16044E-02 0.12806E-02 0.84027E-03 0.37562E-03 -.46669E-04 -.39923E-03 -.67962E-03 -.88383E-03 -.99588E-03 -.10040E-02
 -.63219E-03 -.54185E-03 -.38872E-03 -.10380E-03 0.37159E-03 0.10266E-02 0.17554E-02 0.23862E-02 0.27493E-02 0.27448E-02
 0.23800E-02 0.17643E-02 0.10618E-02 0.42425E-03 -.62241E-04 -.38743E-03 -.58427E-03 -.68760E-03 -.71819E-03 -.69300E-03
 -.38223E-03 -.30116E-03 -.81516E-04 0.37511E-03 0.11081E-02 0.20395E-02 0.29748E-02 0.36691E-02 0.39235E-02 0.36642E-02
 0.29729E-02 0.20527E-02 0.11429E-02 0.42378E-03 -.39669E-04 -.28467E-03 -.39076E-03 -.42482E-03 -.42505E-03 -.41074E-03
 -.19076E-03 -.47348E-04 0.32798E-03 0.10284E-02 0.20386E-02 0.31934E-02 0.42148E-02 0.48153E-02 0.48140E-02 0.42127E-02
 0.31963E-02 0.20547E-02 0.10620E-02 0.37355E-03 -.37340E-05 -.16134E-03 -.20784E-03 -.21632E-03 -.21941E-03 -.22106E-03
 -.40105E-04 0.22943E-03 0.80906E-03 0.17541E-02 0.29722E-02 0.42132E-02 0.51472E-02 0.54948E-02 0.51467E-02 0.42124E-02
 0.29746E-02 0.17670E-02 0.83695E-03 0.26801E-03 -.22841E-05 -.97812E-04 -.12232E-03 -.12962E-03 -.13517E-03 -.12473E-03
 0.87721E-04 0.50657E-03 0.12739E-02 0.23845E-02 0.36669E-02 0.48138E-02 0.54947E-02 0.54952E-02 0.48136E-02 0.36637E-02
 0.23816E-02 0.12787E-02 0.52350E-03 0.11243E-03 -.64562E-04 -.12742E-03 -.14840E-03 -.15323E-03 -.14224E-03 -.87749E-04
 0.19231E-03 0.73364E-03 0.16102E-02 0.27499E-02 0.39236E-02 0.48147E-02 0.51484E-02 0.48152E-02 0.39221E-02 0.27451E-02
 0.16049E-02 0.73272E-03 0.19850E-03 -.64859E-04 -.17450E-03 -.21856E-03 -.23356E-03 -.22558E-03 -.18604E-03 -.76215E-04
 0.26123E-03 0.85978E-03 0.17303E-02 0.27470E-02 0.36658E-02 0.42149E-02 0.42155E-02 0.36667E-02 0.27467E-02 0.17286E-02
 0.85795E-03 0.26155E-03 -.68453E-04 -.21919E-03 -.28132E-03 -.30609E-03 -.30854E-03 -.28733E-03 -.22558E-03 -.72286E-04
 0.28440E-03 0.85838E-03 0.16056E-02 0.23796E-02 0.29720E-02 0.31960E-02 0.29752E-02 0.23825E-02 0.16059E-02 0.85876E-03
 0.28869E-03 -.63204E-04 -.23990E-03 -.31296E-03 -.33813E-03 -.34349E-03 -.33806E-03 -.31590E-03 -.24706E-03 -.71173E-04
 0.26148E-03 0.73533E-03 0.12755E-02 0.17570E-02 0.20446E-02 0.20470E-02 0.17600E-02 0.12734E-02 0.73023E-03 0.26212E-03
 -.61551E-04 -.24108E-03 -.31755E-03 -.33769E-03 -.33604E-03 -.33319E-03 -.33445E-03 -.32243E-03 -.25355E-03 -.71726E-04
 0.20056E-03 0.52291E-03 0.82875E-03 0.10481E-02 0.11275E-02 0.10450E-02 0.81971E-03 0.50929E-03 0.19084E-03 -.69006E-04
 -.23666E-03 -.31497E-03 -.33054E-03 -.31777E-03 -.30686E-03 -.31367E-03 -.33027E-03 -.32307E-03 -.24683E-03 -.70630E-04
 0.11161E-03 0.26465E-03 0.36678E-03 0.41268E-03 0.40669E-03 0.34992E-03 0.24125E-03 0.89519E-04 -.77859E-04 -.22159E-03
 -.30945E-03 -.33402E-03 -.31648E-03 -.29336E-03 -.29342E-03 -.31814E-03 -.33883E-03 -.31451E-03 -.22004E-03 -.64921E-04
 -.41965E-05 -.47483E-05 -.36879E-04 -.58512E-04 -.49962E-04 -.29592E-04 -.36362E-04 -.94821E-04 -.19211E-03 -.28576E-03
 -.33549E-03 -.33306E-03 -.30626E-03 -.29404E-03 -.31288E-03 -.34181E-03 -.33902E-03 -.27741E-03 -.16994E-03 -.63352E-04
 -.16267E-03 -.27366E-03 -.35736E-03 -.35936E-03 -.28359E-03 -.18741E-03 -.13776E-03 -.16344E-03 -.23927E-03 -.31149E-03
 -.34118E-03 -.33079E-03 -.31395E-03 -.31960E-03 -.34245E-03 -.34622E-03 -.29828E-03 -.20560E-03 -.11901E-03 -.97953E-04
 -.38804E-03 -.54683E-03 -.60595E-03 -.53544E-03 -.38236E-03 -.23591E-03 -.16704E-03 -.18742E-03 -.25454E-03 -.31267E-03
 -.33432E-03 -.33112E-03 -.33003E-03 -.33975E-03 -.33870E-03 -.29706E-03 -.21379E-03 -.13361E-03 -.12275E-03 -.21772E-03
 -.68242E-03 -.81809E-03 -.79605E-03 -.63446E-03 -.41966E-03 -.24925E-03 -.17618E-03 -.19037E-03 -.24304E-03 -.28835E-03
 -.31008E-03 -.31761E-03 -.32130E-03 -.31345E-03 -.27483E-03 -.20265E-03 -.13304E-03 -.13032E-03 -.24232E-03 -.45438E-03
 -.99565E-03 -.10479E-02 -.92013E-03 -.68022E-03 -.43240E-03 -.25702E-03 -.17818E-03 -.17192E-03 -.19723E-03 -.22383E-03
 -.24100E-03 -.24869E-03 -.24370E-03 -.21655E-03 -.16577E-03 -.11789E-03 -.12887E-03 -.25257E-03 -.49278E-03 -.77914E-03
 -.12315E-02 -.11746E-02 -.95871E-03 -.68010E-03 -.43160E-03 -.25872E-03 -.15862E-03 -.10681E-03 -.81302E-04 -.70208E-04
 -.67693E-04 -.68496E-04 -.66403E-04 -.59312E-04 -.60439E-04 -.10596E-03 -.24249E-03 -.49047E-03 -.80784E-03 -.10919E-02
 -.60053E-02 -.57609E-02 -.46061E-02 -.28331E-02 -.92326E-03 0.54586E-03 0.10688E-02 0.46130E-03 -.94140E-03 -.23525E-02
 -.29387E-02 -.23313E-02 -.86079E-03 0.67007E-03 0.14815E-02 0.12044E-02 -.54609E-04 -.18880E-02 -.37908E-02 -.52866E-02
 -.56398E-02 -.49314E-02 -.34538E-02 -.16297E-02 -.70920E-04 0.57481E-03 -.96892E-04 -.19411E-02 -.41741E-02 -.56922E-02
 -.56851E-02 -.41338E-02 -.18142E-02 0.18884E-03 0.10809E-02 0.66481E-03 -.74190E-03 -.25809E-02 -.42860E-02 -.54012E-02
 -.43916E-02 -.33603E-02 -.18464E-02 -.49601E-03 -.17509E-03 -.16205E-02 -.49334E-02 -.92480E-02 -.12937E-01 -.14391E-01
 -.12927E-01 -.91922E-02 -.47697E-02 -.12826E-02 0.37408E-03 0.23667E-03 -.10416E-02 -.26604E-02 -.39821E-02 -.46155E-02
 -.25794E-02 -.14925E-02 -.44748E-03 -.46673E-03 -.26994E-02 -.77205E-02 -.14831E-01 -.21955E-01 -.26444E-01 -.26444E-01
 -.21940E-01 -.14761E-01 -.75363E-02 -.23489E-02 0.61262E-04 0.20041E-03 -.85132E-03 -.21045E-02 -.29531E-02 -.31286E-02
 -.68874E-03 0.60280E-04 -.11921E-03 -.26845E-02 -.88159E-02 -.18376E-01 -.29302E-01 -.38114E-01 -.41505E-01 -.38112E-01
 -.29281E-01 -.18297E-01 -.86327E-02 -.23634E-02 0.32880E-03 0.56430E-03 -.24573E-03 -.10968E-02 -.15153E-02 -.13569E-02
 0.72032E-03 0.66878E-03 -.15807E-02 -.77082E-02 -.18374E-01 -.32119E-01 -.45292E-01 -.53418E-01 -.53420E-01 -.45292E-01
 -.32096E-01 -.18297E-01 -.75462E-02 -.13203E-02 0.10032E-02 0.10624E-02 0.37508E-03 -.18209E-03 -.27889E-03 0.11606E-03
 0.11714E-02 -.46953E-04 -.49141E-02 -.14825E-01 -.29299E-01 -.45290E-01 -.57953E-01 -.62788E-01 -.57960E-01 -.45294E-01
 -.29282E-01 -.14762E-01 -.47875E-02 0.14146E-03 0.13912E-02 0.87269E-03 0.48442E-04 -.33710E-03 -.69034E-04 0.67512E-03
 0.50526E-03 -.19239E-02 -.92422E-02 -.21951E-01 -.38110E-01 -.53414E-01 -.62786E-01 -.62789E-01 -.53423E-01 -.38117E-01
 -.21941E-01 -.91967E-02 -.18350E-02 0.62581E-03 0.59731E-04 -.15075E-02 -.26457E-02 -.26791E-02 -.15984E-02 -.63098E-04
 -.93164E-03 -.41730E-02 -.12936E-01 -.26441E-01 -.41501E-01 -.53416E-01 -.57957E-01 -.53422E-01 -.41509E-01 -.26444E-01
 -.12925E-01 -.41395E-02 -.87802E-03 -.18856E-02 -.49112E-02 -.77450E-02 -.88768E-02 -.77775E-02 -.49668E-02 -.19486E-02
 -.23562E-02 -.56958E-02 -.14393E-01 -.26444E-01 -.38112E-01 -.45293E-01 -.45296E-01 -.38119E-01 -.26446E-01 -.14384E-01
 -.56779E-02 -.23324E-02 -.41763E-02 -.92910E-02 -.14925E-01 -.18510E-01 -.18518E-01 -.14945E-01 -.93171E-02 -.42029E-02
 -.29468E-02 -.56922E-02 -.12935E-01 -.21950E-01 -.29294E-01 -.32112E-01 -.29298E-01 -.21953E-01 -.12932E-01 -.56809E-02
 -.29285E-02 -.57111E-02 -.13013E-01 -.22105E-01 -.29515E-01 -.32357E-01 -.29516E-01 -.22112E-01 -.13027E-01 -.57303E-02
 -.23457E-02 -.41523E-02 -.92177E-02 -.14795E-01 -.18340E-01 -.18342E-01 -.14804E-01 -.92298E-02 -.41599E-02 -.23412E-02
 -.57130E-02 -.14473E-01 -.26621E-01 -.38389E-01 -.45628E-01 -.45624E-01 -.38383E-01 -.26625E-01 -.14487E-01 -.57280E-02
 -.88997E-03 -.18582E-02 -.48316E-02 -.76161E-02 -.87254E-02 -.76415E-02 -.48730E-02 -.19002E-02 -.91832E-03 -.41946E-02
 -.13018E-01 -.26621E-01 -.41801E-01 -.53815E-01 -.58389E-01 -.53808E-01 -.41795E-01 -.26621E-01 -.13018E-01 -.41843E-02
 0.61427E-03 0.10239E-03 -.14030E-02 -.24996E-02 -.25319E-02 -.14870E-02 -.26059E-05 0.51928E-03 -.19506E-02 -.93213E-02
 -.22114E-01 -.38390E-01 -.53814E-01 -.63262E-01 -.63259E-01 -.53807E-01 -.38378E-01 -.22092E-01 -.92808E-02 -.18826E-02
 0.13868E-02 0.93517E-03 0.17443E-03 -.18230E-03 0.64980E-04 0.75129E-03 0.11815E-02 -.89584E-04 -.49995E-02 -.14966E-01
 -.29529E-01 -.45631E-01 -.58390E-01 -.63260E-01 -.58386E-01 -.45618E-01 -.29494E-01 -.14892E-01 -.48722E-02 0.89504E-04
 0.10626E-02 0.44917E-03 -.52849E-04 -.14363E-03 0.20309E-03 0.72946E-03 0.60622E-03 -.16892E-02 -.78477E-02 -.18556E-01
 -.32373E-01 -.45629E-01 -.53811E-01 -.53809E-01 -.45618E-01 -.32335E-01 -.18460E-01 -.76663E-02 -.14151E-02 0.94323E-03
 -.24010E-03 -.10225E-02 -.14113E-02 -.12792E-02 -.68052E-03 -.11023E-04 -.24765E-03 -.28377E-02 -.89785E-02 -.18560E-01
 -.29529E-01 -.38387E-01 -.41798E-01 -.38379E-01 -.29492E-01 -.18457E-01 -.87666E-02 -.24913E-02 0.21589E-03 0.49745E-03
 -.20943E-02 -.28982E-02 -.30747E-02 -.25727E-02 -.15572E-02 -.57463E-03 -.62375E-03 -.28539E-02 -.78622E-02 -.14974E-01
 -.22116E-01 -.26624E-01 -.26619E-01 -.22089E-01 -.14882E-01 -.76507E-02 -.24761E-02 -.73893E-04 0.87552E-04 -.90825E-03
 -.39755E-02 -.45900E-02 -.43840E-02 -.34010E-02 -.19424E-02 -.62729E-03 -.30896E-03 -.17334E-02 -.50242E-02 -.93309E-02
 -.13024E-01 -.14480E-01 -.13010E-01 -.92661E-02 -.48459E-02 -.13751E-02 0.26411E-03 0.12664E-03 -.11248E-02 -.26977E-02
 -.53986E-02 -.56347E-02 -.49444E-02 -.34974E-02 -.17003E-02 -.15134E-03 0.50368E-03 -.14939E-03 -.19781E-02 -.42047E-02
 -.57227E-02 -.57168E-02 -.41666E-02 -.18509E-02 0.14358E-03 0.10248E-02 0.60230E-03 -.79966E-03 -.26214E-02 -.43024E-02
 0.17766E-02 0.16264E-02 0.13641E-02 0.10768E-02 0.82720E-03 0.63113E-03 0.46678E-03 0.30574E-03 0.14620E-03 0.21935E-04
 -.23405E-04 0.24643E-04 0.13753E-03 0.27275E-03 0.41852E-03 0.60645E-03 0.87374E-03 0.12091E-02 0.15353E-02 0.17476E-02
 0.16496E-02 0.14680E-02 0.12283E-02 0.97855E-03 0.72951E-03 0.46069E-03 0.15102E-03 -.18589E-03 -.48753E-03 -.66676E-03
 -.66369E-03 -.48626E-03 -.20266E-03 0.11041E-03 0.41774E-03 0.72903E-03 0.10566E-02 0.13731E-02 0.16121E-02 0.17100E-02
 0.13840E-02 0.12295E-02 0.10374E-02 0.79621E-03 0.46345E-03 0.34162E-05 -.56571E-03 -.11476E-02 -.15908E-02 -.17557E-02
 -.15892E-02 -.11544E-02 -.59181E-03 -.38906E-04 0.43102E-03 0.81094E-03 0.11159E-02 0.13425E-02 0.14672E-02 0.14756E-02
 0.10759E-02 0.96875E-03 0.78948E-03 0.46320E-03 -.85595E-04 -.86642E-03 -.17726E-02 -.25900E-02 -.30764E-02 -.30736E-02
 -.25876E-02 -.17834E-02 -.89825E-03 -.12885E-03 0.43475E-03 0.80089E-03 0.10202E-02 0.11360E-02 0.11718E-02 0.11453E-02
 0.80663E-03 0.71171E-03 0.45351E-03 -.88449E-04 -.98036E-03 -.21523E-02 -.33698E-02 -.42979E-02 -.46421E-02 -.42890E-02
 -.33638E-02 -.21638E-02 -.10143E-02 -.13322E-03 0.42018E-03 0.70567E-03 0.82353E-03 0.85629E-03 0.85328E-03 0.83796E-03
 0.60483E-03 0.44487E-03 -.28550E-05 -.86701E-03 -.21513E-02 -.36628E-02 -.50337E-02 -.58530E-02 -.58494E-02 -.50255E-02
 -.36581E-02 -.21614E-02 -.89767E-03 -.46560E-04 0.40603E-03 0.58469E-03 0.62543E-03 0.62186E-03 0.62054E-03 0.62860E-03
 0.44784E-03 0.14312E-03 -.56629E-03 -.17699E-02 -.33668E-02 -.50321E-02 -.63068E-02 -.67856E-02 -.63057E-02 -.50292E-02
 -.33657E-02 -.17785E-02 -.58992E-03 0.10926E-03 0.41608E-03 0.49908E-03 0.49888E-03 0.49323E-03 0.50707E-03 0.51929E-03
 0.29814E-03 -.18750E-03 -.11462E-02 -.25874E-02 -.42952E-02 -.58512E-02 -.67852E-02 -.67856E-02 -.58519E-02 -.42956E-02
 -.25889E-02 -.11520E-02 -.19965E-03 0.28080E-03 0.44129E-03 0.45397E-03 0.43700E-03 0.44193E-03 0.46742E-03 0.45936E-03
 0.14610E-03 -.48764E-03 -.15915E-02 -.30770E-02 -.46422E-02 -.58499E-02 -.63069E-02 -.58532E-02 -.46445E-02 -.30754E-02
 -.15886E-02 -.48843E-03 0.13978E-03 0.38823E-03 0.42102E-03 0.38329E-03 0.36225E-03 0.38615E-03 0.42746E-03 0.39679E-03
 0.23752E-04 -.66768E-03 -.17584E-02 -.30766E-02 -.42917E-02 -.50285E-02 -.50326E-02 -.42984E-02 -.30767E-02 -.17516E-02
 -.66297E-03 0.20011E-04 0.31358E-03 0.34683E-03 0.27047E-03 0.20000E-03 0.19752E-03 0.26747E-03 0.35000E-03 0.32141E-03
 -.22253E-04 -.66382E-03 -.15896E-02 -.25879E-02 -.33646E-02 -.36599E-02 -.33681E-02 -.25909E-02 -.15895E-02 -.66334E-03
 -.25173E-04 0.25998E-03 0.25894E-03 0.10807E-03 -.51697E-04 -.11877E-03 -.54426E-04 0.10714E-03 0.26269E-03 0.26568E-03
 0.26311E-04 -.48249E-03 -.11484E-02 -.17765E-02 -.21576E-02 -.21564E-02 -.17747E-02 -.11492E-02 -.48725E-03 0.19627E-04
 0.25908E-03 0.22146E-03 -.10111E-04 -.29392E-03 -.48262E-03 -.48240E-03 -.29331E-03 -.87795E-05 0.22457E-03 0.26465E-03
 0.14192E-03 -.19458E-03 -.58065E-03 -.88552E-03 -.10008E-02 -.88339E-03 -.57616E-03 -.18929E-03 0.14434E-03 0.31293E-03
 0.25635E-03 -.11635E-04 -.39278E-03 -.72703E-03 -.86022E-03 -.72690E-03 -.39004E-03 -.52701E-05 0.26334E-03 0.31599E-03
 0.27823E-03 0.11661E-03 -.32207E-04 -.12003E-03 -.11920E-03 -.26105E-04 0.13248E-03 0.29949E-03 0.39689E-03 0.34619E-03
 0.10380E-03 -.29661E-03 -.72723E-03 -.10094E-02 -.10096E-02 -.72489E-03 -.28847E-03 0.11295E-03 0.34577E-03 0.38227E-03
 0.41614E-03 0.40857E-03 0.41791E-03 0.42600E-03 0.42487E-03 0.42682E-03 0.44582E-03 0.46737E-03 0.43432E-03 0.27107E-03
 -.56627E-04 -.48595E-03 -.85993E-03 -.10081E-02 -.85615E-03 -.47899E-03 -.51429E-04 0.26562E-03 0.41301E-03 0.43553E-03
 0.58264E-03 0.68941E-03 0.76513E-03 0.76615E-03 0.69662E-03 0.60332E-03 0.53316E-03 0.48566E-03 0.40066E-03 0.20257E-03
 -.12339E-03 -.48624E-03 -.72685E-03 -.72258E-03 -.47731E-03 -.11955E-03 0.19144E-03 0.37179E-03 0.44693E-03 0.49850E-03
 0.82072E-03 0.98126E-03 0.10372E-02 0.96390E-03 0.80635E-03 0.64505E-03 0.53670E-03 0.47137E-03 0.38088E-03 0.20082E-03
 -.58658E-04 -.29750E-03 -.39101E-03 -.28714E-03 -.50041E-04 0.19191E-03 0.34775E-03 0.42471E-03 0.49945E-03 0.63501E-03
 0.11356E-02 0.12753E-02 0.12479E-02 0.10748E-02 0.84296E-03 0.64731E-03 0.53344E-03 0.47452E-03 0.40160E-03 0.26896E-03
 0.10291E-03 -.12528E-04 -.68464E-05 0.11234E-03 0.26485E-03 0.37158E-03 0.42615E-03 0.49557E-03 0.65042E-03 0.89106E-03
 0.14663E-02 0.15198E-02 0.13832E-02 0.11254E-02 0.85334E-03 0.65235E-03 0.54539E-03 0.49338E-03 0.43653E-03 0.34840E-03
 0.25866E-03 0.22217E-03 0.26189E-03 0.34328E-03 0.41021E-03 0.44816E-03 0.50831E-03 0.66252E-03 0.92887E-03 0.12372E-02
 0.17090E-02 0.16489E-02 0.14226E-02 0.11243E-02 0.85201E-03 0.66132E-03 0.54982E-03 0.47585E-03 0.39980E-03 0.31828E-03
 0.26278E-03 0.26341E-03 0.31403E-03 0.37814E-03 0.43335E-03 0.50750E-03 0.66188E-03 0.93003E-03 0.12682E-02 0.15656E-02
 0.63588E-02 0.61230E-02 0.49910E-02 0.32330E-02 0.13214E-02 -.15553E-03 -.68134E-03 -.75802E-04 0.13157E-02 0.27091E-02
 0.32872E-02 0.26905E-02 0.12389E-02 -.28206E-03 -.10948E-02 -.81742E-03 0.45078E-03 0.22910E-02 0.41835E-02 0.56552E-02
 0.60036E-02 0.53104E-02 0.38497E-02 0.20280E-02 0.46086E-03 -.18969E-03 0.48394E-03 0.23249E-02 0.45424E-02 0.60445E-02
 0.60389E-02 0.45070E-02 0.22059E-02 0.20497E-03 -.69449E-03 -.27865E-03 0.11373E-02 0.29798E-02 0.46719E-02 0.57686E-02