unknown system                          
   1.00000000000000     
     2.573869    0.000000    0.000000
     1.286934    2.229036    0.000000
     0.000000    0.000000   30.304665
   Cu   H 
     4     1
Direct
  0.000000  0.000000  0.395979
  0.333333  0.333333  0.465326
  0.666667  0.666667  0.534674
  0.000000  0.000000  0.604021
  0.961148  0.000000  0.663418
 
   20   20  240
 -.59793253280E-02 -.57415287170E-02 -.45995109214E-02 -.28311208334E-02 -.91639624793E-03
 0.55571325291E-03 0.10731363126E-02 0.45883317031E-03 -.94211467384E-03 -.23455068954E-02
 -.29299887702E-02 -.23308224529E-02 -.86764775635E-03 0.66785075158E-03 0.14916429093E-02
 0.12198017972E-02 -.46762787292E-04 -.18887751853E-02 -.37875263226E-02 -.52689384737E-02
 -.56208811293E-02 -.49213254354E-02 -.34495625398E-02 -.16218249913E-02 -.57927848644E-04
 0.58430299413E-03 -.96418245271E-04 -.19427045844E-02 -.41673202297E-02 -.56781410385E-02
 -.56765016537E-02 -.41382328140E-02 -.18230746657E-02 0.19086611556E-03 0.10967803226E-02
 0.68216890475E-03 -.73423854803E-03 -.25791450570E-02 -.42777403045E-02 -.53828489367E-02
 -.43858168416E-02 -.33564731649E-02 -.18388383163E-02 -.48082375582E-03 -.15794434975E-03
 -.16110982447E-02 -.49332381584E-02 -.92474682448E-02 -.12927421139E-01 -.14375822194E-01
 -.12917054429E-01 -.91917256496E-02 -.47703627434E-02 -.12737152647E-02 0.39210033586E-03
 0.25345557637E-03 -.10335029543E-02 -.26579391595E-02 -.39780174599E-02 -.46084859536E-02
 -.25780520443E-02 -.14852487169E-02 -.43252417234E-03 -.44681403142E-03 -.26815083933E-02
 -.77102869084E-02 -.14827533650E-01 -.21951630382E-01 -.26436828271E-01 -.26433556247E-01
 -.21930282859E-01 -.14752291994E-01 -.75251897092E-02 -.23325491758E-02 0.80279088280E-04
 0.21578653480E-03 -.84373788235E-03 -.21036752521E-02 -.29552547070E-02 -.31303664277E-02
 -.68169064275E-03 0.72942888494E-04 -.10216676354E-03 -.26663542356E-02 -.88004173833E-02
 -.18365394065E-01 -.29295776289E-01 -.38109737098E-01 -.41501267942E-01 -.38107319847E-01
 -.29273412047E-01 -.18286324812E-01 -.86167457728E-02 -.23439676467E-02 0.34782744396E-03
 0.57844498556E-03 -.23843876801E-03 -.10948218385E-02 -.15150328524E-02 -.13545893475E-02
 0.73147045435E-03 0.67848944209E-03 -.15711760192E-02 -.76973103938E-02 -.18362107983E-01
 -.32110166778E-01 -.45286670397E-01 -.53415397774E-01 -.53417493213E-01 -.45287680832E-01
 -.32091468317E-01 -.18290387939E-01 -.75363745443E-02 -.13065044948E-02 0.10184937119E-02
 0.10751878620E-02 0.38387966214E-03 -.17476296102E-03 -.26980460268E-03 0.12728262070E-03
 0.11770440280E-02 -.46217008624E-04 -.49139170184E-02 -.14820441954E-01 -.29291811540E-01
 -.45284307538E-01 -.57952002295E-01 -.62789059656E-01 -.57957180851E-01 -.45287490419E-01
 -.29275755034E-01 -.14759983574E-01 -.47884882453E-02 0.14296481505E-03 0.13979762565E-02
 0.88293550883E-03 0.59336167823E-04 -.32605028974E-03 -.57402349910E-04 0.68544923516E-03
 0.50272432640E-03 -.19261561142E-02 -.92423313979E-02 -.21947955332E-01 -.38105038977E-01
 -.53411343324E-01 -.62787219357E-01 -.62791219128E-01 -.53419604390E-01 -.38107572969E-01
 -.21931585302E-01 -.91948350280E-02 -.18417140999E-02 0.61725347859E-03 0.57630940375E-04
 -.15010438944E-02 -.26354549961E-02 -.26712692089E-02 -.15955830210E-02 -.64034755326E-04
 -.93404366935E-03 -.41678702366E-02 -.12927985697E-01 -.26434301553E-01 -.41497040765E-01
 -.53414145907E-01 -.57955840849E-01 -.53419618452E-01 -.41503695685E-01 -.26434711678E-01
 -.12914004094E-01 -.41341238058E-02 -.88150712904E-03 -.18942946243E-02 -.49165462831E-02
 -.77425954373E-02 -.88708263695E-02 -.77760911727E-02 -.49727366948E-02 -.19564743696E-02
 -.23510079921E-02 -.56834230308E-02 -.14378040735E-01 -.26433558313E-01 -.38107551823E-01
 -.45289670229E-01 -.45290812305E-01 -.38110703006E-01 -.26436485756E-01 -.14375231594E-01
 -.56690293164E-02 -.23245143296E-02 -.41719026787E-02 -.92910981552E-02 -.14926699665E-01
 -.18510615324E-01 -.18516092039E-01 -.14943617279E-01 -.93184582680E-02 -.42036493161E-02
 -.29381804346E-02 -.56840659043E-02 -.12924547167E-01 -.21939897099E-01 -.29286646491E-01
 -.32107439837E-01 -.29291425473E-01 -.21943653619E-01 -.12920935713E-01 -.56716083874E-02
 -.29210279536E-02 -.57026741043E-02 -.13003168261E-01 -.22097137997E-01 -.29511962547E-01
 -.32358170867E-01 -.29513958738E-01 -.22102637513E-01 -.13013926497E-01 -.57184939482E-02
 -.23437378681E-02 -.41560180793E-02 -.92165133615E-02 -.14785961817E-01 -.18328079042E-01
 -.18335554025E-01 -.14801344134E-01 -.92259466326E-02 -.41524588403E-02 -.23322260367E-02
 -.57045059988E-02 -.14464009346E-01 -.26610835029E-01 -.38380030281E-01 -.45623593017E-01
 -.45622656315E-01 -.38377511368E-01 -.26608793725E-01 -.14466665635E-01 -.57140480365E-02
 -.89583247557E-03 -.18663271554E-02 -.48315624531E-02 -.76047319670E-02 -.87098332269E-02
 -.76322797420E-02 -.48735238783E-02 -.19048825052E-02 -.91927415300E-03 -.41887927078E-02
 -.13007959106E-01 -.26611341798E-01 -.41793658601E-01 -.53809826077E-01 -.58385736390E-01
 -.53803689717E-01 -.41786570933E-01 -.26607943708E-01 -.13006387562E-01 -.41805234021E-02
 0.61112766160E-03 0.10387848681E-03 -.13941194816E-02 -.24835429293E-02 -.25138748849E-02
 -.14753425573E-02 -.23666750337E-05 0.51142874453E-03 -.19573602598E-02 -.93202691040E-02
 -.22106670313E-01 -.38381945072E-01 -.53810204779E-01 -.63259993893E-01 -.63255844638E-01
 -.53801024412E-01 -.38371740613E-01 -.22090325808E-01 -.92830517680E-02 -.18869692057E-02
 0.13946491925E-02 0.94932476823E-03 0.19191670557E-03 -.16367271277E-03 0.82394818889E-04
 0.76374626188E-03 0.11858957563E-02 -.92269513473E-04 -.50039794688E-02 -.14967218123E-01
 -.29526347743E-01 -.45627861728E-01 -.58387538156E-01 -.63256848649E-01 -.58380724338E-01
 -.45612088269E-01 -.29491873799E-01 -.14895351671E-01 -.48770877926E-02 0.89544810265E-04
 0.10761295231E-02 0.46495515062E-03 -.36404054555E-04 -.12812480466E-03 0.21641354331E-03
 0.74019122965E-03 0.61456230559E-03 -.16833118052E-02 -.78446649759E-02 -.18556280424E-01
 -.32374506588E-01 -.45628458569E-01 -.53806880508E-01 -.53802904995E-01 -.45612484837E-01
 -.32331733726E-01 -.18459538701E-01 -.76645020801E-02 -.14097079446E-02 0.95308778646E-03
 -.23241960531E-03 -.10151365744E-02 -.14028940933E-02 -.12709119205E-02 -.67338624734E-03
 -.32732004911E-05 -.23751086883E-03 -.28270458217E-02 -.89715238985E-02 -.18557490745E-01
 -.29527364539E-01 -.38382282628E-01 -.41789335918E-01 -.38372520892E-01 -.29489989750E-01
 -.18456262797E-01 -.87614511508E-02 -.24796954086E-02 0.22964243131E-03 0.50838634778E-03
 -.20940207148E-02 -.28955392577E-02 -.30712211530E-02 -.25711838822E-02 -.15556113310E-02
 -.56850309019E-03 -.61324795055E-03 -.28450740878E-02 -.78592168938E-02 -.14972499304E-01
 -.22109058956E-01 -.26609815342E-01 -.26607338509E-01 -.22086028061E-01 -.14885531802E-01
 -.76500181991E-02 -.24658584703E-02 -.59476207866E-04 0.97013942479E-04 -.90595440753E-03
 -.39710076653E-02 -.45804884855E-02 -.43787341324E-02 -.34025849884E-02 -.19430663079E-02
 -.62028030334E-03 -.29874540255E-03 -.17299996738E-02 -.50283591799E-02 -.93316827481E-02
 -.13012543397E-01 -.14462650441E-01 -.12999337772E-01 -.92680213930E-02 -.48501917768E-02
 -.13704331173E-02 0.27594931504E-03 0.13465132005E-03 -.11256069012E-02 -.27001533894E-02
 -.53803756584E-02 -.56154520355E-02 -.49363469425E-02 -.34985645243E-02 -.16988610002E-02
 -.14238663309E-03 0.51201926277E-03 -.15034276013E-03 -.19843198742E-02 -.42041861949E-02
 -.57118478076E-02 -.57053005601E-02 -.41642758314E-02 -.18545275145E-02 0.14536575527E-03
 0.10353462321E-02 0.61219293912E-03 -.79908704691E-03 -.26248296928E-02 -.42967778120E-02
 0.15666922545E-02 0.14487016891E-02 0.12472191245E-02 0.10201957524E-02 0.80419770393E-03
 0.61164439282E-03 0.44521430290E-03 0.31015037057E-03 0.21428546366E-03 0.16105047090E-03
 0.14576701142E-03 0.15934780913E-03 0.19648582921E-03 0.26315160007E-03 0.37793507971E-03
 0.56216273472E-03 0.81939384381E-03 0.11165069414E-02 0.13849195758E-02 0.15491984284E-02
 0.14668109009E-02 0.13311320761E-02 0.11521013884E-02 0.94874113898E-03 0.71873326675E-03
 0.45988924612E-03 0.18892728949E-03 -.59176698556E-04 -.24631624892E-03 -.34556344636E-03
 -.34675331653E-03 -.25548587119E-03 -.88469904703E-04 0.13454156367E-03 0.39848524729E-03
 0.69180403838E-03 0.99400267203E-03 0.12647612465E-02 0.14520000774E-02 0.15188780784E-02
 0.12587871233E-02 0.11502892032E-02 0.10022738550E-02 0.79303205752E-03 0.49944612013E-03
 0.12681108468E-03 -.27868287374E-03 -.64331745249E-03 -.89345910282E-03 -.98017810759E-03
 -.89169087705E-03 -.65292952308E-03 -.31421611534E-03 0.66937053234E-04 0.44223789588E-03
 0.77800928932E-03 0.10496363761E-02 0.12363351678E-02 0.13260564020E-02 0.13254000303E-02
 0.10093201348E-02 0.93463513565E-03 0.78549622683E-03 0.51405438842E-03 0.99684199867E-04
 -.42505049169E-03 -.97294440435E-03 -.14271795660E-02 -.16813161740E-02 -.16767490278E-02
 -.14219200856E-02 -.98545442631E-03 -.46740409489E-03 0.36211897466E-04 0.45821934913E-03
 0.76663937722E-03 0.95817297637E-03 0.10494095287E-02 0.10696059561E-02 0.10503972692E-02
 0.77323599470E-03 0.69585167878E-03 0.48837032385E-03 0.97127169518E-04 -.47770398150E-03
 -.11626806907E-02 -.18222464735E-02 -.22992121769E-02 -.24701319935E-02 -.22923550874E-02
 -.18201355341E-02 -.11807131023E-02 -.52276042464E-03 0.35315736724E-04 0.43317756925E-03
 0.66718621562E-03 0.77184333082E-03 0.79835128884E-03 0.79531704148E-03 0.79009482096E-03
 0.57588882029E-03 0.43875734588E-03 0.11877753421E-03 -.42551487804E-03 -.11613010852E-02
 -.19681505304E-02 -.26641781532E-02 -.30667710211E-02 -.30633151270E-02 -.26580195861E-02
 -.19698171297E-02 -.11814479391E-02 -.46686665319E-03 0.65505948953E-04 0.38996103649E-03
 0.54392357208E-03 0.59279006166E-03 0.59910283815E-03 0.60245272866E-03 0.60700628288E-03
 0.41945477538E-03 0.17683749286E-03 -.28114179165E-03 -.97067197127E-03 -.18192532521E-02
 -.26627061117E-02 -.32896789815E-02 -.35209203543E-02 -.32865190469E-02 -.26589418726E-02
 -.18210145545E-02 -.98561112281E-03 -.31236705090E-03 0.13521611335E-03 0.37941298272E-03
 0.48582280974E-03 0.52159582826E-03 0.53250563195E-03 0.53533359878E-03 0.51429189284E-03
 0.29909671641E-03 -.62774057223E-04 -.64273615334E-03 -.14246822010E-02 -.22966907358E-02
 -.30657690027E-02 -.35214192156E-02 -.35232001406E-02 -.30677279114E-02 -.22944645776E-02
 -.14219258254E-02 -.64981547090E-03 -.85345857869E-04 0.26752004865E-03 0.46452393486E-03
 0.56660451997E-03 0.61185664104E-03 0.61667644127E-03 0.58274611199E-03 0.49228214493E-03
 0.21301901034E-03 -.24678247319E-03 -.89371399872E-03 -.16809277194E-02 -.24697619662E-02
 -.30644632303E-02 -.32893385377E-02 -.30701967694E-02 -.24738704687E-02 -.16788243549E-02
 -.89033588508E-03 -.25097473011E-03 0.19919280646E-03 0.49592484832E-03 0.69072628034E-03
 0.80903749925E-03 0.85078434076E-03 0.81350893218E-03 0.70202586380E-03 0.51242544261E-03
 0.16230321995E-03 -.34687816767E-03 -.98216540772E-03 -.16777578157E-02 -.22930817026E-02
 -.26602875552E-02 -.26630257340E-02 -.22984962876E-02 -.16808696226E-02 -.98169363763E-03
 -.34619765945E-03 0.15991497333E-03 0.54408875405E-03 0.83816361212E-03 0.10530616634E-02
 0.11710027656E-02 0.11709384504E-02 0.10540748471E-02 0.84170623732E-03 0.54871546372E-03
 0.14655544148E-03 -.34784462077E-03 -.89195930935E-03 -.14202102550E-02 -.18178144560E-02
 -.19688340854E-02 -.18217456346E-02 -.14232900796E-02 -.89140708070E-03 -.34684267894E-03
 0.14345501464E-03 0.57153729207E-03 0.94933316894E-03 0.12672596154E-02 0.14861942209E-02
 0.15630876015E-02 0.14822755407E-02 0.12652043835E-02 0.95299832258E-03 0.57781805542E-03
 0.16196027278E-03 -.25185908853E-03 -.64658020467E-03 -.97649034617E-03 -.11707456507E-02
 -.11719904191E-02 -.97742930329E-03 -.64365047620E-03 -.24785773559E-03 0.15982428569E-03
 0.57007122829E-03 0.98594946024E-03 0.13848795040E-02 0.17088325577E-02 0.18898990604E-02
 0.18868766115E-02 0.17048107321E-02 0.13882397862E-02 0.99708634173E-03 0.58036187355E-03
 0.20390138436E-03 -.78060181963E-04 -.30074503537E-03 -.45134838064E-03 -.50449914649E-03
 -.44685212666E-03 -.29241503978E-03 -.69149646155E-04 0.20801120120E-03 0.54506607404E-03
 0.94602027270E-03 0.13820787571E-02 0.17846239147E-02 0.20692915681E-02 0.21711949840E-02
 0.20684522249E-02 0.17868366550E-02 0.13894286742E-02 0.95481882705E-03 0.54884105342E-03
 0.27283001437E-03 0.14551723709E-03 0.79006309150E-04 0.51236881689E-04 0.56303670348E-04
 0.93380670620E-04 0.16601407737E-03 0.29348834084E-03 0.51055346204E-03 0.84086213071E-03
 0.12632646821E-02 0.17045581348E-02 0.20677032664E-02 0.22711736426E-02 0.22721108314E-02
 0.20706698556E-02 0.17087405549E-02 0.12651972867E-02 0.83573506820E-03 0.49617775556E-03
 0.37933969062E-03 0.39516847301E-03 0.43710023637E-03 0.45915423419E-03 0.44835887344E-03
 0.42103201984E-03 0.41856113678E-03 0.49886038099E-03 0.71079435431E-03 0.10583339447E-02
 0.14833518709E-02 0.18864164610E-02 0.21703246063E-02 0.22727723255E-02 0.21736223663E-02
 0.18913056706E-02 0.14837828843E-02 0.10452936452E-02 0.67996479881E-03 0.45686366224E-03
 0.54166902146E-03 0.65862713799E-03 0.74212555310E-03 0.74463857570E-03 0.67224328811E-03
 0.57623220505E-03 0.53170631917E-03 0.60752518955E-03 0.83317925782E-03 0.11784000545E-02
 0.15617152712E-02 0.18848063065E-02 0.20689256957E-02 0.20725619099E-02 0.18925006656E-02
 0.15639165216E-02 0.11625205211E-02 0.79271647637E-03 0.55048997535E-03 0.47765119122E-03
 0.77091080368E-03 0.92693585168E-03 0.98317622121E-03 0.91709340995E-03 0.77138460045E-03
 0.62861431169E-03 0.57311461832E-03 0.65607852583E-03 0.87544812448E-03 0.11777634187E-02
 0.14805651701E-02 0.17027788562E-02 0.17873262164E-02 0.17104314504E-02 0.14847388574E-02
 0.11625352936E-02 0.83203074214E-03 0.59335545467E-03 0.51550562068E-03 0.59861440209E-03
 0.10499264929E-02 0.11781180739E-02 0.11565868122E-02 0.10054349052E-02 0.80296306101E-03
 0.64143082608E-03 0.58659139137E-03 0.65862597022E-03 0.83368986342E-03 0.10571150609E-02
 0.12613844585E-02 0.13849782920E-02 0.13884128797E-02 0.12647304366E-02 0.10441539915E-02
 0.79197373665E-03 0.59441717350E-03 0.52801507280E-03 0.62069281694E-03 0.82839656699E-03
 0.13236224172E-02 0.13721960165E-02 0.12580336456E-02 0.10408361658E-02 0.81287992475E-03
 0.64995974964E-03 0.58587522355E-03 0.61633780926E-03 0.71433320338E-03 0.84032923581E-03
 0.94777958105E-03 0.99310448289E-03 0.95179373310E-03 0.83193009636E-03 0.67630530447E-03
 0.55114859720E-03 0.52359828300E-03 0.63181246327E-03 0.85823380698E-03 0.11248005064E-02
 0.15157133023E-02 0.14680174371E-02 0.12860012142E-02 0.10446198148E-02 0.81912610869E-03
 0.65284036569E-03 0.55441547482E-03 0.51417529676E-03 0.51746489036E-03 0.54568978677E-03
 0.57394044628E-03 0.57703172045E-03 0.54381309511E-03 0.48898879021E-03 0.45262976020E-03
 0.48533693816E-03 0.62352804213E-03 0.86410905851E-03 0.11526585432E-02 0.13984816686E-02
 0.63734643967E-02 0.61395057676E-02 0.50045463341E-02 0.32425740993E-02 0.13299266213E-02
 -.14634764756E-03 -.67383202538E-03 -.73504114454E-04 0.13124750513E-02 0.27034978874E-02
 0.32820618804E-02 0.26862067857E-02 0.12354322640E-02 -.28241068560E-03 -.10893965110E-02
 -.80702479877E-03 0.46155646172E-03 0.22986094728E-02 0.41894751163E-02 0.56646028229E-02
 0.60188341246E-02 0.53225995782E-02 0.38590491288E-02 0.20372729587E-02 0.47058642514E-03
 -.18238791438E-03 0.48598316056E-03 0.23225926718E-02 0.45390595274E-02 0.60416051098E-02
 0.60350427176E-02 0.45014923926E-02 0.22017938758E-02 0.20676263872E-03 -.68621580317E-03
 -.26789296311E-03 0.11466423317E-02 0.29883368720E-02 0.46830570811E-02 0.57834512248E-02
 0.47912153768E-02 0.37665348206E-02 0.22523674469E-02 0.89243418725E-03 0.56143934982E-03
 0.20038258002E-02 0.53171220675E-02 0.96260531022E-02 0.13302736468E-01 0.14748658191E-01
 0.13289681816E-01 0.95689867039E-02 0.51572069412E-02 0.16717007516E-02 0.14321861613E-04
 0.15666998016E-03 0.14432842646E-02 0.30651628371E-02 0.43823892087E-02 0.50117384278E-02
 0.29903574275E-02 0.19020927953E-02 0.84518764345E-03 0.85004787684E-03 0.30765522767E-02
 0.81002412890E-02 0.15212766162E-01 0.22331350485E-01 0.26813330905E-01 0.26811939947E-01
 0.22313580353E-01 0.15139161949E-01 0.79138657499E-02 0.27253952328E-02 0.32116387966E-03
 0.19401398322E-03 0.12549606741E-02 0.25093977686E-02 0.33563689942E-02 0.35344927384E-02
 0.10963369653E-02 0.34165864628E-03 0.50762957279E-03 0.30625794446E-02 0.91931786979E-02
 0.18756177787E-01 0.29679603950E-01 0.38483912042E-01 0.41872081160E-01 0.38484476505E-01
 0.29659397893E-01 0.18675431342E-01 0.90051752870E-02 0.27367456838E-02 0.56673680930E-04
 -.16385547667E-03 0.65222646711E-03 0.14999399559E-02 0.19156934801E-02 0.17609312263E-02
 -.32114422632E-03 -.27478570513E-03 0.19660464266E-02 0.80890929682E-02 0.18753842272E-01
 0.32495269262E-01 0.45656842862E-01 0.53773535591E-01 0.53777745287E-01 0.45661408752E-01
 0.32476800968E-01 0.18678422298E-01 0.79249388327E-02 0.17027752448E-02 -.60946489832E-03
 -.65960938437E-03 0.26946791678E-04 0.57766140361E-03 0.67210359921E-03 0.28088748502E-03
 -.77731766836E-03 0.43670210314E-03 0.52992329687E-02 0.15207305429E-01 0.29676836624E-01
 0.45654870375E-01 0.58302216849E-01 0.63130769881E-01 0.58310474435E-01 0.45661193953E-01
 0.29661449017E-01 0.15145717304E-01 0.51735772098E-02 0.24964260911E-03 -.99490241060E-03
 -.47710328050E-03 0.34087567626E-03 0.72203723653E-03 0.45644985204E-03 -.28224305666E-03
 -.11757251751E-03 0.23059172134E-02 0.96212679715E-02 0.22328563675E-01 0.38479983673E-01
 0.53769486567E-01 0.63128442484E-01 0.63131157787E-01 0.53776161854E-01 0.38483913461E-01
 0.22315436432E-01 0.95740692403E-02 0.22167876647E-02 -.23778005102E-03 0.32986390100E-03
 0.18912578601E-02 0.30225884885E-02 0.30564119727E-02 0.19829383751E-02 0.45290060087E-03
 0.13040345608E-02 0.45390084268E-02 0.13303028465E-01 0.26811093460E-01 0.41868058743E-01
 0.53773743701E-01 0.58307808539E-01 0.53775212045E-01 0.41870897022E-01 0.26810514691E-01
 0.13288576693E-01 0.45018214248E-02 0.12460528529E-02 0.22631833675E-02 0.52925363177E-02
 0.81221079787E-02 0.92491969879E-02 0.81517899802E-02 0.53462901528E-02 0.23280052579E-02
 0.27090709361E-02 0.60467068980E-02 0.14750854845E-01 0.26812253738E-01 0.38484779073E-01
 0.45662567975E-01 0.45663007252E-01 0.38485829706E-01 0.26811935326E-01 0.14744519851E-01
 0.60299064224E-02 0.26825245882E-02 0.45350486235E-02 0.96623656809E-02 0.15302976535E-01
 0.18887571241E-01 0.18891610073E-01 0.15316283627E-01 0.96856989791E-02 0.45642647598E-02
 0.32910795120E-02 0.60432936581E-02 0.13297898400E-01 0.22323969611E-01 0.29673023596E-01
 0.32492428248E-01 0.29676386639E-01 0.22327161444E-01 0.13295850243E-01 0.60329741088E-02
 0.32745422162E-02 0.60612031150E-02 0.13374224747E-01 0.22476502938E-01 0.29890806244E-01
 0.32733551664E-01 0.29889069067E-01 0.22478048213E-01 0.13383613666E-01 0.60773613312E-02
 0.27003394811E-02 0.45204588893E-02 0.95949500438E-02 0.15173866466E-01 0.18717780981E-01
 0.18723729347E-01 0.15187253215E-01 0.96059142343E-02 0.45213541484E-02 0.26912325792E-02
 0.60633737292E-02 0.14832172393E-01 0.26987461191E-01 0.38756036601E-01 0.45993534897E-01
 0.45991124116E-01 0.38751663117E-01 0.26987141502E-01 0.14839487034E-01 0.60755217096E-02
 0.12644637853E-02 0.22459680270E-02 0.52193524311E-02 0.79940758345E-02 0.90983921736E-02
 0.80206773869E-02 0.52587999120E-02 0.22808516884E-02 0.12850045911E-02 0.45526277135E-02
 0.13378925642E-01 0.26987598947E-01 0.42163795484E-01 0.54167051131E-01 0.58737474252E-01
 0.54163874276E-01 0.42159794182E-01 0.26985125957E-01 0.13376897979E-01 0.45450494703E-02
 -.22565458472E-03 0.29408405555E-03 0.17925310225E-02 0.28763342093E-02 0.29057746418E-02
 0.18703547639E-02 0.39423388593E-03 -.13179594096E-03 0.23267182080E-02 0.96914265646E-02
 0.22485167639E-01 0.38756988303E-01 0.54167011871E-01 0.63599833347E-01 0.63597452066E-01
 0.54160434266E-01 0.38745712256E-01 0.22463863661E-01 0.96501777786E-02 0.22576015550E-02
 -.99286222675E-03 -.53858216144E-03 0.21483836292E-03 0.56469282018E-03 0.32046000956E-03
 -.35696379022E-03 -.78445411138E-03 0.47932189854E-03 0.53800988045E-02 0.15343169920E-01
 0.29904159897E-01 0.45996768594E-01 0.58738944737E-01 0.63598681214E-01 0.58731096241E-01
 0.45979557966E-01 0.29867832369E-01 0.15268168510E-01 0.52488333032E-02 0.29413241498E-03
 -.66352335412E-03 -.49936715811E-04 0.44745671579E-03 0.53791385866E-03 0.19669231264E-03
 -.32686128752E-03 -.21034425198E-03 0.20733223916E-02 0.82248577009E-02 0.18933666332E-01
 0.32749578795E-01 0.45996430398E-01 0.54167172177E-01 0.54163096002E-01 0.45980710010E-01
 0.32707856166E-01 0.18837475356E-01 0.80427098615E-02 0.17952729235E-02 -.55284862111E-03
 0.64782188798E-03 0.14291008007E-02 0.18144160210E-02 0.16830097781E-02 0.10866888682E-02
 0.41283572750E-03 0.63692031554E-03 0.32146476152E-02 0.93513072301E-02 0.18934317193E-01
 0.29902991894E-01 0.38756442375E-01 0.42162867144E-01 0.38747517647E-01 0.29867307448E-01
 0.18835119033E-01 0.91425961822E-02 0.28675099439E-02 0.16964563494E-03 -.97937487567E-04
 0.25050153467E-02 0.33066368418E-02 0.34804914013E-02 0.29783787419E-02 0.19612626922E-02
 0.97128286811E-03 0.10092335315E-02 0.32309572480E-02 0.82363067047E-02 0.15346473712E-01
 0.22485036255E-01 0.26988073293E-01 0.26984529829E-01 0.22460350233E-01 0.15259847288E-01
 0.80297178524E-02 0.28544588279E-02 0.45682974594E-03 0.30696492533E-03 0.13144462663E-02
 0.43740066021E-02 0.49872932483E-02 0.47846356455E-02 0.38049305686E-02 0.23444855249E-02
 0.10229263218E-02 0.69802924673E-03 0.21178129499E-02 0.54026051035E-02 0.96994378169E-02
 0.13382121055E-01 0.14834825158E-01 0.13369369397E-01 0.96355596313E-02 0.52232732515E-02
 0.17575446819E-02 0.12430890344E-03 0.26955851365E-03 0.15267163334E-02 0.30996621730E-02
 0.57765205588E-02 0.60167094857E-02 0.53401104493E-02 0.39029407401E-02 0.21052358611E-02
 0.55049103887E-03 -.10881691732E-03 0.53937437703E-03 0.23560604459E-02 0.45646816704E-02
 0.60699846927E-02 0.60656668945E-02 0.45280362497E-02 0.22253393598E-02 0.23932249951E-03
 -.63403111295E-03 -.20131735522E-03 0.12073142051E-02 0.30239350365E-02 0.46905848621E-02
 -.12997644033E-02 -.11567717080E-02 -.90700080818E-03 -.63942536838E-03 -.40893975566E-03
 -.22195507412E-03 -.62148888695E-04 0.78342254799E-04 0.19067223230E-03 0.26128111990E-03
 0.28429102737E-03 0.26338212676E-03 0.20652529668E-03 0.11867092341E-03 -.60029051667E-05
 -.18626326374E-03 -.43951430720E-03 -.75224619826E-03 -.10601593628E-02 -.12670566869E-02
 -.11768170764E-02 -.10072102386E-02 -.78447222796E-03 -.55535149943E-03 -.32351091353E-03
 -.67647188892E-04 0.21832170436E-03 0.50344168081E-03 0.73277027833E-03 0.85757024890E-03
 0.85644376988E-03 0.73803492233E-03 0.53158926758E-03 0.27253319995E-03 -.12418308906E-04
 -.31200282670E-03 -.61963142582E-03 -.91084589133E-03 -.11334748068E-02 -.12297221465E-02
 -.92161151224E-03 -.78339394923E-03 -.61310248742E-03 -.39681639316E-03 -.93821294968E-04
 0.31872817119E-03 0.80583090475E-03 0.12739176150E-02 0.16093112961E-02 0.17274119689E-02
 0.16043557140E-02 0.12806279720E-02 0.84027122596E-03 0.37561605193E-03 -.46669462137E-04
 -.39922732466E-03 -.67961836771E-03 -.88383089604E-03 -.99588332176E-03 -.10039705217E-02
 -.63219031597E-03 -.54184878863E-03 -.38872231971E-03 -.10380195775E-03 0.37159107807E-03
 0.10266407179E-02 0.17553536062E-02 0.23861766425E-02 0.27493495793E-02 0.27448071693E-02
 0.23800498392E-02 0.17643035758E-02 0.10617698374E-02 0.42425230356E-03 -.62241383858E-04
 -.38742858578E-03 -.58426866099E-03 -.68759988460E-03 -.71818822374E-03 -.69299815681E-03
 -.38222878055E-03 -.30115641390E-03 -.81516033333E-04 0.37511089631E-03 0.11081477023E-02
 0.20395356818E-02 0.29748134980E-02 0.36691480089E-02 0.39234500779E-02 0.36641878271E-02
 0.29729424061E-02 0.20526659036E-02 0.11429081085E-02 0.42377665457E-03 -.39669383568E-04
 -.28466582161E-03 -.39075834275E-03 -.42482498361E-03 -.42505172070E-03 -.41074022064E-03
 -.19075609649E-03 -.47347718890E-04 0.32798370293E-03 0.10283978454E-02 0.20386358321E-02
 0.31934027359E-02 0.42148435575E-02 0.48152812163E-02 0.48139516599E-02 0.42127171903E-02
 0.31963183116E-02 0.20547226230E-02 0.10620077748E-02 0.37354595592E-03 -.37340360706E-05
 -.16134480553E-03 -.20784107639E-03 -.21632006920E-03 -.21941344195E-03 -.22105878509E-03
 -.40105403642E-04 0.22943042003E-03 0.80905678989E-03 0.17541189305E-02 0.29722131134E-02
 0.42132232776E-02 0.51471741872E-02 0.54948268208E-02 0.51466713758E-02 0.42123640464E-02
 0.29746319432E-02 0.17670061845E-02 0.83695159822E-03 0.26801189917E-03 -.22840654594E-05
 -.97811686864E-04 -.12231685535E-03 -.12961581488E-03 -.13516502655E-03 -.12472642065E-03
 0.87720929969E-04 0.50657374738E-03 0.12738578112E-02 0.23844989802E-02 0.36669350326E-02
 0.48138304830E-02 0.54946920314E-02 0.54952398357E-02 0.48135561589E-02 0.36637112160E-02
 0.23815622126E-02 0.12787434518E-02 0.52349940978E-03 0.11242678571E-03 -.64562255243E-04
 -.12742042698E-03 -.14839916467E-03 -.15322986538E-03 -.14223743315E-03 -.87749474332E-04
 0.19231457415E-03 0.73364182889E-03 0.16102402539E-02 0.27498833213E-02 0.39236116996E-02
 0.48146592114E-02 0.51483682933E-02 0.48151766626E-02 0.39221439625E-02 0.27451473856E-02
 0.16049395737E-02 0.73271942146E-03 0.19849658793E-03 -.64858834936E-04 -.17449563805E-03
 -.21855699461E-03 -.23355903113E-03 -.22558179841E-03 -.18604468985E-03 -.76214617543E-04
 0.26122518048E-03 0.85978061110E-03 0.17302835248E-02 0.27469514352E-02 0.36658258298E-02
 0.42149435277E-02 0.42154667339E-02 0.36666716288E-02 0.27467422020E-02 0.17285910337E-02
 0.85795297684E-03 0.26155084107E-03 -.68452943228E-04 -.21918549293E-03 -.28132472084E-03
 -.30609092944E-03 -.30854285959E-03 -.28733227061E-03 -.22558110525E-03 -.72285565931E-04
 0.28439701872E-03 0.85838397112E-03 0.16055748030E-02 0.23796446747E-02 0.29719520933E-02
 0.31960255879E-02 0.29752370415E-02 0.23825336292E-02 0.16059264773E-02 0.85876395736E-03
 0.28868905385E-03 -.63203885627E-04 -.23989967990E-03 -.31296042484E-03 -.33812674269E-03
 -.34348989296E-03 -.33806442689E-03 -.31590160982E-03 -.24706267348E-03 -.71173042871E-04
 0.26147684382E-03 0.73532686107E-03 0.12754533607E-02 0.17569774081E-02 0.20446478897E-02
 0.20470212059E-02 0.17600426567E-02 0.12733699606E-02 0.73023361370E-03 0.26212489147E-03
 -.61551464203E-04 -.24108179709E-03 -.31755350793E-03 -.33769003889E-03 -.33603878719E-03
 -.33318764831E-03 -.33445300150E-03 -.32243108218E-03 -.25355392842E-03 -.71726085194E-04
 0.20055858560E-03 0.52290643778E-03 0.82874963735E-03 0.10480917059E-02 0.11275164965E-02
 0.10450401725E-02 0.81970769471E-03 0.50929071750E-03 0.19083710516E-03 -.69005739185E-04
 -.23666479184E-03 -.31497254299E-03 -.33053505607E-03 -.31776638723E-03 -.30685667131E-03
 -.31367121842E-03 -.33026801417E-03 -.32306536796E-03 -.24682675234E-03 -.70629545323E-04
 0.11160579497E-03 0.26465494798E-03 0.36678009003E-03 0.41267716866E-03 0.40668511701E-03
 0.34992399058E-03 0.24124873755E-03 0.89519167073E-04 -.77858701800E-04 -.22158667941E-03
 -.30944906491E-03 -.33401963910E-03 -.31648005219E-03 -.29336327767E-03 -.29342359409E-03
 -.31813764263E-03 -.33883437685E-03 -.31451120060E-03 -.22003838734E-03 -.64921272486E-04
 -.41964541495E-05 -.47483147014E-05 -.36878857358E-04 -.58512160990E-04 -.49962346651E-04
 -.29591816357E-04 -.36361891887E-04 -.94821161856E-04 -.19211050368E-03 -.28576137006E-03
 -.33549292887E-03 -.33306206008E-03 -.30626165073E-03 -.29404452694E-03 -.31288194212E-03
 -.34180525635E-03 -.33902206993E-03 -.27740699752E-03 -.16993740521E-03 -.63352385645E-04
 -.16267260038E-03 -.27365994758E-03 -.35735780165E-03 -.35935642492E-03 -.28358872336E-03
 -.18740874897E-03 -.13776280294E-03 -.16343544170E-03 -.23927292474E-03 -.31149028350E-03
 -.34118173802E-03 -.33078999503E-03 -.31394635917E-03 -.31960057278E-03 -.34244568332E-03
 -.34622360763E-03 -.29827810701E-03 -.20559916193E-03 -.11901068851E-03 -.97953244953E-04
 -.38804497444E-03 -.54682897235E-03 -.60594838348E-03 -.53544158857E-03 -.38235572339E-03
 -.23591176728E-03 -.16703952625E-03 -.18741620686E-03 -.25453853971E-03 -.31266531274E-03
 -.33432273892E-03 -.33111519726E-03 -.33002888825E-03 -.33974566143E-03 -.33870282976E-03
 -.29706411360E-03 -.21379308073E-03 -.13360949281E-03 -.12274772780E-03 -.21772409964E-03
 -.68242280105E-03 -.81808642949E-03 -.79605042311E-03 -.63445598283E-03 -.41965544548E-03
 -.24925484075E-03 -.17617966155E-03 -.19037225633E-03 -.24304060033E-03 -.28834651289E-03
 -.31008051713E-03 -.31760903561E-03 -.32129799833E-03 -.31345369069E-03 -.27482676833E-03
 -.20264520773E-03 -.13304303755E-03 -.13031840942E-03 -.24232251224E-03 -.45437739988E-03
 -.99564864723E-03 -.10478809555E-02 -.92012558133E-03 -.68021608416E-03 -.43240114533E-03
 -.25701699590E-03 -.17817917019E-03 -.17191546630E-03 -.19723380685E-03 -.22383332206E-03
 -.24099830594E-03 -.24868849911E-03 -.24369544481E-03 -.21654630471E-03 -.16576521588E-03
 -.11788725102E-03 -.12887105625E-03 -.25257252250E-03 -.49278182661E-03 -.77914279967E-03
 -.12314998560E-02 -.11746007003E-02 -.95870638404E-03 -.68009903885E-03 -.43160485751E-03
 -.25871543313E-03 -.15862441969E-03 -.10680956083E-03 -.81301588722E-04 -.70207712533E-04
 -.67693373108E-04 -.68495524099E-04 -.66403331552E-04 -.59311782877E-04 -.60439318815E-04
 -.10596114278E-03 -.24249384198E-03 -.49046784727E-03 -.80783997993E-03 -.10919382089E-02
 -.60053223275E-02 -.57608680820E-02 -.46060946718E-02 -.28331247995E-02 -.92325689241E-03
 0.54585892359E-03 0.10688014275E-02 0.46129940737E-03 -.94139770450E-03 -.23524827835E-02
 -.29386989034E-02 -.23313486059E-02 -.86078999408E-03 0.67006904071E-03 0.14814521117E-02
 0.12043680644E-02 -.54609306076E-04 -.18879533245E-02 -.37908361891E-02 -.52865702908E-02
 -.56397841277E-02 -.49314470398E-02 -.34538364299E-02 -.16297055187E-02 -.70919590300E-04