    5    5    1    1
  0.3477306E+02  0.2573869E-09  0.2573869E-09  0.3030466E-08  0.5000000E-15
  1.000000000000000E-004
  CAR 
 unknown system                          
     45     52     28
 
  0.0000000E+00  0.0000000E+00  0.0000000E+00  0.1000000E-01
    1      -11.284089   1.000000
    2      -10.142247   1.000000
    3       -8.667411   1.000000
    4       -7.687341   1.000000
    5       -6.998583   1.000000
    6       -5.652056   1.000000
    7       -5.567883   1.000000
    8       -5.521723   1.000000
    9       -5.521381   1.000000
   10       -5.482034   1.000000
   11       -5.480565   1.000000
   12       -5.352000   1.000000
   13       -5.350361   1.000000
   14       -5.252935   1.000000
   15       -5.252108   1.000000
   16       -5.075940   1.000000
   17       -4.771079   1.000000
   18       -4.769951   1.000000
   19       -4.671463   1.000000
   20       -4.670815   1.000000
   21       -4.437466   1.000000
   22       -4.434863   1.000000
   23       -4.240346   1.000000
   24       -4.238958   1.000000
   25       -3.216013   1.000000
   26        0.145602   0.000000
   27        1.770942   0.000000
   28        2.405124   0.000000
 
  0.1000000E+00  0.6938894E-17  0.0000000E+00  0.2000000E-01
    1      -10.970720   1.000000
    2       -9.842207   1.000000
    3       -8.389985   1.000000
    4       -7.462718   1.000000
    5       -6.869860   1.000000
    6       -5.752245   1.000000
    7       -5.667616   1.000000
    8       -5.609167   1.000000
    9       -5.466492   1.000000
   10       -5.415177   1.000000
   11       -5.406161   1.000000
   12       -5.403912   1.000000
   13       -5.349475   1.000000
   14       -5.251519   1.000000
   15       -5.249498   1.000000
   16       -5.156870   1.000000
   17       -4.840311   1.000000
   18       -4.819095   1.000000
   19       -4.664548   1.000000
   20       -4.661942   1.000000
   21       -4.525102   1.000000
   22       -4.431538   1.000000
   23       -4.233771   1.000000
   24       -4.035191   1.000000
   25       -2.586689   0.184827
   26        0.419438   0.000000
   27        2.067185   0.000000
   28        2.720569   0.000000
 
  0.2000000E+00 -0.1387779E-16  0.0000000E+00  0.2000000E-01
    1      -10.068735   1.000000
    2       -9.001117   1.000000
    3       -7.658210   1.000000
    4       -6.919183   1.000000
    5       -6.581391   1.000000
    6       -6.044676   1.000000
    7       -5.869407   1.000000
    8       -5.778574   1.000000
    9       -5.597481   1.000000
   10       -5.498624   1.000000
   11       -5.465049   1.000000
   12       -5.281628   1.000000
   13       -5.247046   1.000000
   14       -5.138463   1.000000
   15       -5.039340   1.000000
   16       -5.030352   1.000000
   17       -4.925385   1.000000
   18       -4.814676   1.000000
   19       -4.782258   1.000000
   20       -4.637158   1.000000
   21       -4.435132   1.000000
   22       -4.360437   1.000000
   23       -4.225483   1.000000
   24       -3.367789   1.000000
   25       -1.440882   0.000000
   26        1.235888   0.000000
   27        2.958971   0.000000
   28        3.654481   0.000000
 
  0.3000000E+00 -0.2775558E-16  0.0000000E+00  0.2000000E-01
    1       -8.753752   1.000000
    2       -7.916696   1.000000
    3       -7.021777   1.000000
    4       -6.609155   1.000000
    5       -6.397622   1.000000
    6       -6.270897   1.000000
    7       -5.980286   1.000000
    8       -5.782302   1.000000
    9       -5.620338   1.000000
   10       -5.427252   1.000000
   11       -5.314880   1.000000
   12       -5.266185   1.000000
   13       -5.107093   1.000000
   14       -4.990836   1.000000
   15       -4.929371   1.000000
   16       -4.752551   1.000000
   17       -4.624305   1.000000
   18       -4.587814   1.000000
   19       -4.521874   1.000000
   20       -4.441899   1.000000
   21       -4.392104   1.000000
   22       -4.211703   1.000000
   23       -3.990797   1.000000
   24       -2.449658   0.002291
   25       -0.098075   0.000000
   26        2.541049   0.000000
   27        4.420279   0.000000
   28        5.050607   0.000000
 
  0.4000000E+00 -0.2775558E-16  0.0000000E+00  0.2000000E-01
    1       -7.617238   1.000000
    2       -7.291353   1.000000
    3       -6.936824   1.000000
    4       -6.724844   1.000000
    5       -6.569769   1.000000
    6       -6.334289   1.000000
    7       -5.883897   1.000000
    8       -5.719420   1.000000
    9       -5.546747   1.000000
   10       -5.400960   1.000000
   11       -5.212689   1.000000
   12       -5.017211   1.000000
   13       -4.825000   1.000000
   14       -4.588356   1.000000
   15       -4.526777   1.000000
   16       -4.339115   1.000000
   17       -4.314937   1.000000
   18       -4.238344   1.000000
   19       -4.194883   1.000000
   20       -4.119713   1.000000
   21       -4.098485   1.000000
   22       -3.621195   1.000000
   23       -3.042612   1.000000
   24       -1.317748   0.000000
   25        0.776763   0.000000
   26        2.436777   0.000000
   27        3.364632   0.000000
   28        4.741419   0.000000
 
  0.5000000E+00 -0.2775558E-16  0.0000000E+00  0.1000000E-01
    1       -7.316567   1.000000
    2       -7.181902   1.000000
    3       -6.859025   1.000000
    4       -6.769983   1.000000
    5       -6.713763   1.000000
    6       -6.396570   1.000000
    7       -5.839727   1.000000
    8       -5.658836   1.000000
    9       -5.573526   1.000000
   10       -5.435551   1.000000
   11       -5.072784   1.000000
   12       -5.033541   1.000000
   13       -4.682135   1.000000
   14       -4.574145   1.000000
   15       -4.312971   1.000000
   16       -4.287234   1.000000
   17       -4.204825   1.000000
   18       -4.153256   1.000000
   19       -4.097758   1.000000
   20       -3.984459   1.000000
   21       -2.880439   0.999437
   22       -2.225213   0.000000
   23       -1.757062   0.000000
   24       -1.238315   0.000000
   25       -0.988797   0.000000
   26        1.671223   0.000000
   27        2.766579   0.000000
   28        4.219176   0.000000
 
  0.0000000E+00  0.1000000E+00  0.0000000E+00  0.2000000E-01
    1      -10.970736   1.000000
    2       -9.842222   1.000000
    3       -8.389910   1.000000
    4       -7.462679   1.000000
    5       -6.869788   1.000000
    6       -5.752710   1.000000
    7       -5.666796   1.000000
    8       -5.609615   1.000000
    9       -5.466896   1.000000
   10       -5.414926   1.000000
   11       -5.405943   1.000000
   12       -5.404200   1.000000
   13       -5.348995   1.000000
   14       -5.252078   1.000000
   15       -5.249486   1.000000
   16       -5.157088   1.000000
   17       -4.840533   1.000000
   18       -4.818506   1.000000
   19       -4.664190   1.000000
   20       -4.660722   1.000000
   21       -4.525064   1.000000
   22       -4.432529   1.000000
   23       -4.234398   1.000000
   24       -4.035377   1.000000
   25       -2.586694   0.184845
   26        0.419695   0.000000
   27        2.067179   0.000000
   28        2.720646   0.000000
 
  0.1000000E+00  0.1000000E+00  0.0000000E+00  0.2000000E-01
    1      -10.970743   1.000000
    2       -9.842212   1.000000
    3       -8.389946   1.000000
    4       -7.462750   1.000000
    5       -6.869864   1.000000
    6       -5.752972   1.000000
    7       -5.666139   1.000000
    8       -5.609666   1.000000
    9       -5.466860   1.000000
   10       -5.415129   1.000000
   11       -5.405655   1.000000
   12       -5.404760   1.000000
   13       -5.348308   1.000000
   14       -5.252810   1.000000
   15       -5.249397   1.000000
   16       -5.157691   1.000000
   17       -4.839992   1.000000
   18       -4.818416   1.000000
   19       -4.662730   1.000000
   20       -4.660534   1.000000
   21       -4.524787   1.000000
   22       -4.433732   1.000000
   23       -4.234981   1.000000
   24       -4.035379   1.000000
   25       -2.586729   0.184978
   26        0.419717   0.000000
   27        2.067168   0.000000
   28        2.721776   0.000000
 
  0.2000000E+00  0.1000000E+00  0.0000000E+00  0.2000000E-01
    1      -10.361410   1.000000
    2       -9.268228   1.000000
    3       -7.876636   1.000000
    4       -7.066314   1.000000
    5       -6.656908   1.000000
    6       -5.896619   1.000000
    7       -5.877143   1.000000
    8       -5.748823   1.000000
    9       -5.572692   1.000000
   10       -5.526286   1.000000
   11       -5.443210   1.000000
   12       -5.339061   1.000000
   13       -5.271614   1.000000
   14       -5.204625   1.000000
   15       -5.049568   1.000000
   16       -5.011348   1.000000
   17       -4.924450   1.000000
   18       -4.857041   1.000000
   19       -4.764859   1.000000
   20       -4.599679   1.000000
   21       -4.564975   1.000000
   22       -4.304208   1.000000
   23       -4.282495   1.000000
   24       -3.556945   1.000000
   25       -1.767342   0.000000
   26        0.967507   0.000000
   27        2.661845   0.000000
   28        3.350571   0.000000
 
  0.3000000E+00  0.1000000E+00  0.0000000E+00  0.2000000E-01
    1       -9.233123   1.000000
    2       -8.267230   1.000000
    3       -7.116199   1.000000
    4       -6.556251   1.000000
    5       -6.410596   1.000000
    6       -6.166147   1.000000
    7       -5.989764   1.000000
    8       -5.884882   1.000000
    9       -5.689835   1.000000
   10       -5.585773   1.000000
   11       -5.524324   1.000000
   12       -5.365073   1.000000
   13       -5.237730   1.000000
   14       -5.120149   1.000000
   15       -4.961603   1.000000
   16       -4.853891   1.000000
   17       -4.762040   1.000000
   18       -4.629460   1.000000
   19       -4.524876   1.000000
   20       -4.504002   1.000000
   21       -4.410396   1.000000
   22       -4.293627   1.000000
   23       -4.052670   1.000000
   24       -2.778593   0.965377
   25       -0.569450   0.000000
   26        2.055145   0.000000
   27        3.853331   0.000000
   28        4.531533   0.000000
 
  0.4000000E+00  0.1000000E+00  0.0000000E+00  0.2000000E-01
    1       -7.923364   1.000000
    2       -7.369687   1.000000
    3       -6.850089   1.000000
    4       -6.577932   1.000000
    5       -6.364602   1.000000
    6       -6.251250   1.000000
    7       -5.973295   1.000000
    8       -5.800765   1.000000
    9       -5.562759   1.000000
   10       -5.463892   1.000000
   11       -5.330043   1.000000
   12       -5.246643   1.000000
   13       -5.095447   1.000000
   14       -4.966691   1.000000
   15       -4.859281   1.000000
   16       -4.661404   1.000000
   17       -4.580158   1.000000
   18       -4.406714   1.000000
   19       -4.308173   1.000000
   20       -4.222853   1.000000
   21       -3.979177   1.000000
   22       -3.856055   1.000000
   23       -3.299931   1.000000
   24       -1.629379   0.000000
   25        0.799849   0.000000
   26        3.329083   0.000000
   27        4.313453   0.000000
   28        5.364510   0.000000
 
  0.5000000E+00  0.1000000E+00  0.0000000E+00  0.2000000E-01
    1       -7.236267   1.000000
    2       -7.088916   1.000000
    3       -6.782092   1.000000
    4       -6.691356   1.000000
    5       -6.551292   1.000000
    6       -6.327431   1.000000
    7       -5.889886   1.000000
    8       -5.679344   1.000000
    9       -5.578983   1.000000
   10       -5.427593   1.000000
   11       -5.298224   1.000000
   12       -4.968413   1.000000
   13       -4.849438   1.000000
   14       -4.702495   1.000000
   15       -4.566313   1.000000
   16       -4.457449   1.000000
   17       -4.353162   1.000000
   18       -4.297650   1.000000
   19       -4.210468   1.000000
   20       -4.129690   1.000000
   21       -2.842341   0.996719
   22       -2.505133   0.020158
   23       -1.936981   0.000000
   24       -0.657669   0.000000
   25        0.219230   0.000000
   26        1.977307   0.000000
   27        3.132316   0.000000
   28        4.436487   0.000000
 
 -0.4000000E+00  0.1000000E+00  0.0000000E+00  0.2000000E-01
    1       -7.236371   1.000000
    2       -7.088941   1.000000
    3       -6.782227   1.000000
    4       -6.691546   1.000000
    5       -6.551217   1.000000
    6       -6.326564   1.000000
    7       -5.890328   1.000000
    8       -5.678290   1.000000
    9       -5.580081   1.000000
   10       -5.428965   1.000000
   11       -5.295442   1.000000
   12       -4.977465   1.000000
   13       -4.842523   1.000000
   14       -4.698413   1.000000
   15       -4.570832   1.000000
   16       -4.455075   1.000000
   17       -4.354579   1.000000
   18       -4.298601   1.000000
   19       -4.210079   1.000000
   20       -4.128576   1.000000
   21       -2.838931   0.996209
   22       -2.508338   0.022472
   23       -1.938992   0.000000
   24       -0.656468   0.000000
   25        0.220252   0.000000
   26        1.976875   0.000000
   27        3.132003   0.000000
   28        4.436325   0.000000
 
 -0.3000000E+00  0.1000000E+00  0.0000000E+00  0.2000000E-01
    1       -7.923391   1.000000
    2       -7.369970   1.000000
    3       -6.850374   1.000000
    4       -6.578148   1.000000
    5       -6.364800   1.000000
    6       -6.247614   1.000000
    7       -5.973511   1.000000
    8       -5.804657   1.000000
    9       -5.562321   1.000000
   10       -5.465796   1.000000
   11       -5.323764   1.000000
   12       -5.248828   1.000000
   13       -5.099492   1.000000
   14       -4.971479   1.000000
   15       -4.848484   1.000000
   16       -4.658814   1.000000
   17       -4.583368   1.000000
   18       -4.409820   1.000000
   19       -4.307795   1.000000
   20       -4.220376   1.000000
   21       -3.977363   1.000000
   22       -3.858005   1.000000
   23       -3.302892   1.000000
   24       -1.628471   0.000000
   25        0.800329   0.000000
   26        3.328918   0.000000
   27        4.313394   0.000000
   28        5.365315   0.000000
 
 -0.2000000E+00  0.1000000E+00  0.0000000E+00  0.2000000E-01
    1       -9.233116   1.000000
    2       -8.267439   1.000000
    3       -7.116491   1.000000
    4       -6.557557   1.000000
    5       -6.404901   1.000000
    6       -6.167567   1.000000
    7       -5.989040   1.000000
    8       -5.887250   1.000000
    9       -5.690209   1.000000
   10       -5.587294   1.000000
   11       -5.525197   1.000000
   12       -5.366055   1.000000
   13       -5.237778   1.000000
   14       -5.116126   1.000000
   15       -4.961946   1.000000
   16       -4.850474   1.000000
   17       -4.761907   1.000000
   18       -4.630931   1.000000
   19       -4.527255   1.000000
   20       -4.504188   1.000000
   21       -4.409831   1.000000
   22       -4.291537   1.000000
   23       -4.056488   1.000000
   24       -2.777729   0.964431
   25       -0.569229   0.000000
   26        2.055242   0.000000
   27        3.853375   0.000000
   28        4.531437   0.000000
 
 -0.1000000E+00  0.1000000E+00  0.0000000E+00  0.2000000E-01
    1      -10.361394   1.000000
    2       -9.268296   1.000000
    3       -7.876584   1.000000
    4       -7.066028   1.000000
    5       -6.656429   1.000000
    6       -5.896813   1.000000
    7       -5.876850   1.000000
    8       -5.749112   1.000000
    9       -5.574754   1.000000
   10       -5.526068   1.000000
   11       -5.443271   1.000000
   12       -5.338755   1.000000
   13       -5.271467   1.000000
   14       -5.204099   1.000000
   15       -5.049024   1.000000
   16       -5.009432   1.000000
   17       -4.923944   1.000000
   18       -4.856385   1.000000
   19       -4.769640   1.000000
   20       -4.599972   1.000000
   21       -4.561981   1.000000
   22       -4.307421   1.000000
   23       -4.281372   1.000000
   24       -3.556073   1.000000
   25       -1.767185   0.000000
   26        0.967706   0.000000
   27        2.661853   0.000000
   28        3.348525   0.000000
 
  0.0000000E+00  0.2000000E+00  0.0000000E+00  0.2000000E-01
    1      -10.068826   1.000000
    2       -9.001229   1.000000
    3       -7.658088   1.000000
    4       -6.919942   1.000000
    5       -6.577474   1.000000
    6       -6.047697   1.000000
    7       -5.868942   1.000000
    8       -5.780622   1.000000
    9       -5.595843   1.000000
   10       -5.499398   1.000000
   11       -5.464555   1.000000
   12       -5.282619   1.000000
   13       -5.246275   1.000000
   14       -5.138059   1.000000
   15       -5.039259   1.000000
   16       -5.030584   1.000000
   17       -4.926007   1.000000
   18       -4.813817   1.000000
   19       -4.781235   1.000000
   20       -4.636807   1.000000
   21       -4.436440   1.000000
   22       -4.359467   1.000000
   23       -4.226079   1.000000
   24       -3.369431   1.000000
   25       -1.441108   0.000000
   26        1.236760   0.000000
   27        2.958967   0.000000
   28        3.654388   0.000000
 
  0.1000000E+00  0.2000000E+00  0.0000000E+00  0.2000000E-01
    1      -10.361463   1.000000
    2       -9.268277   1.000000
    3       -7.876331   1.000000
    4       -7.066198   1.000000
    5       -6.656991   1.000000
    6       -5.896291   1.000000
    7       -5.877455   1.000000
    8       -5.748981   1.000000
    9       -5.571149   1.000000
   10       -5.526984   1.000000
   11       -5.443369   1.000000
   12       -5.339601   1.000000
   13       -5.271631   1.000000
   14       -5.204456   1.000000
   15       -5.049325   1.000000
   16       -5.013169   1.000000
   17       -4.925093   1.000000
   18       -4.857875   1.000000
   19       -4.760932   1.000000
   20       -4.599945   1.000000
   21       -4.567139   1.000000
   22       -4.301404   1.000000
   23       -4.283319   1.000000
   24       -3.558465   1.000000
   25       -1.767491   0.000000
   26        0.968187   0.000000
   27        2.661839   0.000000
   28        3.350124   0.000000
 
  0.2000000E+00  0.2000000E+00  0.0000000E+00  0.2000000E-01
    1      -10.068849   1.000000
    2       -9.001096   1.000000
    3       -7.658241   1.000000
    4       -6.921226   1.000000
    5       -6.575308   1.000000
    6       -6.050647   1.000000
    7       -5.868740   1.000000
    8       -5.783082   1.000000
    9       -5.593419   1.000000
   10       -5.499197   1.000000
   11       -5.463958   1.000000
   12       -5.283738   1.000000
   13       -5.244727   1.000000
   14       -5.138179   1.000000
   15       -5.037835   1.000000
   16       -5.031456   1.000000
   17       -4.926966   1.000000
   18       -4.811518   1.000000
   19       -4.781361   1.000000
   20       -4.636825   1.000000
   21       -4.437159   1.000000
   22       -4.358276   1.000000
   23       -4.226770   1.000000
   24       -3.369954   1.000000
   25       -1.441323   0.000000
   26        1.236550   0.000000
   27        2.958953   0.000000
   28        3.655337   0.000000
 
  0.3000000E+00  0.2000000E+00  0.0000000E+00  0.2000000E-01
    1       -9.233238   1.000000
    2       -8.267135   1.000000
    3       -7.116420   1.000000
    4       -6.565927   1.000000
    5       -6.388297   1.000000
    6       -6.177304   1.000000
    7       -5.984834   1.000000
    8       -5.899543   1.000000
    9       -5.678962   1.000000
   10       -5.590357   1.000000
   11       -5.527332   1.000000
   12       -5.366609   1.000000
   13       -5.232276   1.000000
   14       -5.118976   1.000000
   15       -4.961343   1.000000
   16       -4.850687   1.000000
   17       -4.759661   1.000000
   18       -4.633534   1.000000
   19       -4.527266   1.000000
   20       -4.502243   1.000000
   21       -4.410561   1.000000
   22       -4.293585   1.000000
   23       -4.053416   1.000000
   24       -2.779401   0.966243
   25       -0.569852   0.000000
   26        2.055792   0.000000
   27        3.853347   0.000000
   28        4.531669   0.000000
 
  0.4000000E+00  0.2000000E+00  0.0000000E+00  0.2000000E-01
    1       -8.043208   1.000000
    2       -7.368937   1.000000
    3       -6.723030   1.000000
    4       -6.369841   1.000000
    5       -6.273797   1.000000
    6       -6.112556   1.000000
    7       -5.989080   1.000000
    8       -5.869965   1.000000
    9       -5.768373   1.000000
   10       -5.627168   1.000000
   11       -5.575448   1.000000
   12       -5.392337   1.000000
   13       -5.259506   1.000000
   14       -5.198878   1.000000
   15       -4.939900   1.000000
   16       -4.734694   1.000000
   17       -4.659172   1.000000
   18       -4.515954   1.000000
   19       -4.297444   1.000000
   20       -4.227804   1.000000
   21       -3.904892   1.000000
   22       -3.846126   1.000000
   23       -3.290300   1.000000
   24       -1.709078   0.000000
   25        0.710160   0.000000
   26        3.383002   0.000000
   27        5.308073   0.000000
   28        5.858514   0.000000
 
  0.5000000E+00  0.2000000E+00  0.0000000E+00  0.2000000E-01
    1       -7.063806   1.000000
    2       -6.875291   1.000000
    3       -6.645614   1.000000
    4       -6.475871   1.000000
    5       -6.277201   1.000000
    6       -6.148669   1.000000
    7       -6.014889   1.000000
    8       -5.803630   1.000000
    9       -5.700579   1.000000
   10       -5.431468   1.000000
   11       -5.344069   1.000000
   12       -5.305634   1.000000
   13       -5.194759   1.000000
   14       -5.055730   1.000000
   15       -4.888212   1.000000
   16       -4.728169   1.000000
   17       -4.616479   1.000000
   18       -4.441332   1.000000
   19       -4.233768   1.000000
   20       -4.138111   1.000000
   21       -2.858789   0.998416
   22       -2.657206   0.539882
   23       -1.847570   0.000000
   24       -0.189737   0.000000
   25        1.919457   0.000000
   26        3.056662   0.000000
   27        4.100192   0.000000
   28        5.308354   0.000000
 
 -0.4000000E+00  0.2000000E+00  0.0000000E+00  0.2000000E-01
    1       -6.842582   1.000000
    2       -6.813660   1.000000
    3       -6.544163   1.000000
    4       -6.461103   1.000000
    5       -6.364668   1.000000
    6       -6.179795   1.000000
    7       -6.043317   1.000000
    8       -5.748981   1.000000
    9       -5.665286   1.000000
   10       -5.463320   1.000000
   11       -5.364452   1.000000
   12       -5.099111   1.000000
   13       -5.045206   1.000000
   14       -4.956725   1.000000
   15       -4.850331   1.000000
   16       -4.657731   1.000000
   17       -4.530200   1.000000
   18       -4.324802   1.000000
   19       -4.299478   1.000000
   20       -4.199904   1.000000
   21       -1.978355   0.000000
   22       -0.979176   0.000000
   23       -0.530369   0.000000
   24        0.037044   0.000000
   25        0.585836   0.000000
   26        2.203180   0.000000
   27        3.396055   0.000000
   28        4.847638   0.000000
 
 -0.3000000E+00  0.2000000E+00  0.0000000E+00  0.2000000E-01
    1       -7.064132   1.000000
    2       -6.875812   1.000000
    3       -6.645938   1.000000
    4       -6.475999   1.000000
    5       -6.276368   1.000000
    6       -6.146716   1.000000
    7       -6.014785   1.000000
    8       -5.802527   1.000000
    9       -5.703950   1.000000
   10       -5.439464   1.000000
   11       -5.334363   1.000000
   12       -5.305417   1.000000
   13       -5.195676   1.000000
   14       -5.055935   1.000000
   15       -4.883545   1.000000
   16       -4.732078   1.000000
   17       -4.614757   1.000000
   18       -4.444594   1.000000
   19       -4.233116   1.000000
   20       -4.136730   1.000000
   21       -2.853528   0.997990
   22       -2.662859   0.571455
   23       -1.850275   0.000000
   24       -0.187902   0.000000
   25        1.921750   0.000000
   26        3.055737   0.000000
   27        4.098811   0.000000
   28        5.306391   0.000000
 
 -0.2000000E+00  0.2000000E+00  0.0000000E+00  0.2000000E-01
    1       -8.043205   1.000000
    2       -7.369834   1.000000
    3       -6.724206   1.000000
    4       -6.368158   1.000000
    5       -6.273911   1.000000
    6       -6.111144   1.000000
    7       -5.988705   1.000000
    8       -5.865728   1.000000
    9       -5.768788   1.000000
   10       -5.627442   1.000000
   11       -5.575938   1.000000
   12       -5.405021   1.000000
   13       -5.249249   1.000000
   14       -5.196386   1.000000
   15       -4.945377   1.000000
   16       -4.727291   1.000000
   17       -4.660036   1.000000
   18       -4.521290   1.000000
   19       -4.296488   1.000000
   20       -4.226114   1.000000
   21       -3.902792   1.000000
   22       -3.848437   1.000000
   23       -3.293995   1.000000
   24       -1.708161   0.000000
   25        0.710978   0.000000
   26        3.382555   0.000000
   27        5.308048   0.000000
   28        5.860521   0.000000
 
 -0.1000000E+00  0.2000000E+00  0.0000000E+00  0.2000000E-01
    1       -9.233215   1.000000
    2       -8.267542   1.000000
    3       -7.116685   1.000000
    4       -6.562118   1.000000
    5       -6.392932   1.000000
    6       -6.173256   1.000000
    7       -5.986404   1.000000
    8       -5.893782   1.000000
    9       -5.684208   1.000000
   10       -5.590263   1.000000
   11       -5.526830   1.000000
   12       -5.366828   1.000000
   13       -5.235930   1.000000
   14       -5.115884   1.000000
   15       -4.961675   1.000000
   16       -4.848964   1.000000
   17       -4.760644   1.000000
   18       -4.633006   1.000000
   19       -4.528661   1.000000
   20       -4.503200   1.000000
   21       -4.409889   1.000000
   22       -4.291484   1.000000
   23       -4.057165   1.000000
   24       -2.778607   0.965392
   25       -0.569473   0.000000
   26        2.055910   0.000000
   27        3.853399   0.000000
   28        4.531585   0.000000
 
  0.0000000E+00  0.3000000E+00  0.0000000E+00  0.2000000E-01
    1       -8.754075   1.000000
    2       -7.916847   1.000000
    3       -7.021737   1.000000
    4       -6.611367   1.000000
    5       -6.388293   1.000000
    6       -6.268795   1.000000
    7       -5.987938   1.000000
    8       -5.792367   1.000000
    9       -5.615821   1.000000
   10       -5.421505   1.000000
   11       -5.315637   1.000000
   12       -5.259383   1.000000
   13       -5.106525   1.000000
   14       -4.992239   1.000000
   15       -4.934395   1.000000
   16       -4.752272   1.000000
   17       -4.624668   1.000000
   18       -4.587968   1.000000
   19       -4.521080   1.000000
   20       -4.442357   1.000000
   21       -4.392424   1.000000
   22       -4.212481   1.000000
   23       -3.990960   1.000000
   24       -2.452584   0.002606
   25       -0.099061   0.000000
   26        2.543017   0.000000
   27        4.420625   0.000000
   28        5.049515   0.000000
 
  0.1000000E+00  0.3000000E+00  0.0000000E+00  0.2000000E-01
    1       -9.233313   1.000000
    2       -8.267348   1.000000
    3       -7.115468   1.000000
    4       -6.559027   1.000000
    5       -6.402145   1.000000
    6       -6.169971   1.000000
    7       -5.988074   1.000000
    8       -5.889339   1.000000
    9       -5.684804   1.000000
   10       -5.587995   1.000000
   11       -5.525645   1.000000
   12       -5.365853   1.000000
   13       -5.235497   1.000000
   14       -5.124115   1.000000
   15       -4.961077   1.000000
   16       -4.855118   1.000000
   17       -4.761885   1.000000
   18       -4.629789   1.000000
   19       -4.523266   1.000000
   20       -4.502345   1.000000
   21       -4.410203   1.000000
   22       -4.295703   1.000000
   23       -4.050539   1.000000
   24       -2.781561   0.968471
   25       -0.570001   0.000000
   26        2.056552   0.000000
   27        3.853343   0.000000
   28        4.531514   0.000000
 
  0.2000000E+00  0.3000000E+00  0.0000000E+00  0.2000000E-01
    1       -9.233329   1.000000
    2       -8.267150   1.000000
    3       -7.115491   1.000000
    4       -6.564115   1.000000
    5       -6.391761   1.000000
    6       -6.175489   1.000000
    7       -5.985751   1.000000
    8       -5.897584   1.000000
    9       -5.679843   1.000000
   10       -5.589692   1.000000
   11       -5.526992   1.000000
   12       -5.366591   1.000000
   13       -5.231830   1.000000
   14       -5.123230   1.000000
   15       -4.961082   1.000000
   16       -4.853416   1.000000
   17       -4.760822   1.000000
   18       -4.631790   1.000000
   19       -4.524205   1.000000
   20       -4.501604   1.000000
   21       -4.410309   1.000000
   22       -4.295714   1.000000
   23       -4.050610   1.000000
   24       -2.781493   0.968402
   25       -0.570156   0.000000
   26        2.056543   0.000000
   27        3.853335   0.000000
   28        4.531589   0.000000
 
  0.3000000E+00  0.3000000E+00  0.0000000E+00  0.2000000E-01
    1       -8.754161   1.000000
    2       -7.916132   1.000000
    3       -7.021148   1.000000
    4       -6.614225   1.000000
    5       -6.381200   1.000000
    6       -6.269909   1.000000
    7       -5.997260   1.000000
    8       -5.801698   1.000000
    9       -5.612407   1.000000
   10       -5.417516   1.000000
   11       -5.316433   1.000000
   12       -5.251370   1.000000
   13       -5.104151   1.000000
   14       -4.992157   1.000000
   15       -4.936219   1.000000
   16       -4.752759   1.000000
   17       -4.624668   1.000000
   18       -4.588811   1.000000
   19       -4.521093   1.000000
   20       -4.443156   1.000000
   21       -4.393180   1.000000
   22       -4.213151   1.000000
   23       -3.988278   1.000000
   24       -2.452143   0.002556
   25       -0.099482   0.000000
   26        2.543688   0.000000
   27        4.420794   0.000000
   28        5.049221   0.000000
 
  0.4000000E+00  0.3000000E+00  0.0000000E+00  0.2000000E-01
    1       -7.924309   1.000000
    2       -7.368732   1.000000
    3       -6.847607   1.000000
    4       -6.577117   1.000000