unknown system                          
   1.00000000000000     
     2.573869    0.000000    0.000000
     1.286934    2.229036    0.000000
     0.000000    0.000000   30.304665
   Cu   H 
     4     1
Direct
  0.000000  0.000000  0.395979
  0.333333  0.333333  0.465326
  0.666667  0.666667  0.534674
  0.000000  0.000000  0.604021
  0.961148  0.000000  0.663418
 
   10   10  120
 0.59122E-12 0.25291E-11 0.12152E-12 0.15236E-10 0.41203E-13 0.90509E-11 0.24508E-13 0.13949E-10 0.91590E-12 0.90630E-12
 0.74730E-12 0.45052E-11 0.62547E-13 0.11210E-11 0.51903E-13 0.24966E-11 0.15460E-13 0.20435E-11 0.71338E-12 0.27717E-12
 0.67023E-13 0.12642E-12 0.18127E-12 0.93231E-13 0.57870E-14 0.67918E-13 0.59980E-13 0.29239E-12 0.46449E-13 0.35727E-12
 0.75636E-11 0.82670E-11 0.91038E-13 0.55761E-13 0.12185E-13 0.67864E-12 0.40232E-13 0.43231E-11 0.17078E-11 0.30985E-11
 0.55664E-13 0.41425E-13 0.56621E-14 0.12462E-13 0.18208E-13 0.29796E-13 0.36637E-14 0.40079E-13 0.56524E-13 0.19304E-13
 0.11779E-11 0.46594E-09 0.63463E-13 0.66389E-12 0.30115E-13 0.20032E-11 0.29504E-13 0.59626E-12 0.12861E-12 0.54041E-11
 0.14919E-13 0.23426E-13 0.57926E-13 0.38067E-13 0.36360E-14 0.29046E-13 0.17666E-13 0.11574E-13 0.81601E-14 0.48961E-13
 0.14773E-10 0.22185E-10 0.26976E-12 0.39846E-11 0.39455E-13 0.57841E-12 0.11935E-13 0.52666E-13 0.22342E-12 0.15070E-11
 0.46415E-12 0.32543E-12 0.27686E-13 0.46071E-12 0.56302E-13 0.75592E-13 0.63283E-14 0.11911E-12 0.29662E-12 0.13311E-12
 0.17138E-12 0.52629E-12 0.30706E-12 0.13362E-11 0.15182E-13 0.20319E-11 0.52444E-13 0.80168E-12 0.17230E-12 0.25716E-11
 0.39328E-12 0.39412E-12 0.33462E-12 0.63697E-11 0.94924E-14 0.64987E-12 0.19514E-12 0.24081E-11 0.12341E-12 0.64879E-12
 0.48084E-12 0.28149E-11 0.82115E-13 0.10466E-11 0.24467E-13 0.12170E-11 0.42813E-13 0.22559E-11 0.86360E-12 0.40868E-12
 0.41231E-12 0.17020E-12 0.19147E-12 0.73691E-13 0.33168E-14 0.52180E-13 0.13713E-12 0.33196E-12 0.56614E-13 0.39996E-12
 0.39591E-10 0.37977E-11 0.72664E-13 0.12074E-13 0.40939E-14 0.19586E-12 0.14458E-12 0.41860E-11 0.14153E-11 0.43099E-11
 0.14391E-13 0.20317E-13 0.32335E-14 0.41633E-14 0.73552E-14 0.14808E-13 0.49821E-14 0.23120E-13 0.35416E-13 0.13059E-13
 0.33094E-11 0.63545E-11 0.50668E-13 0.19566E-12 0.14710E-13 0.19209E-11 0.72081E-13 0.19585E-09 0.34782E-12 0.49546E-09
 0.17486E-12 0.68806E-13 0.12911E-12 0.13700E-12 0.48711E-14 0.71415E-13 0.90886E-13 0.63755E-13 0.24730E-13 0.12253E-12
 0.10373E-08 0.16907E-10 0.30663E-12 0.38785E-11 0.22649E-13 0.15708E-09 0.65309E-13 0.12458E-11 0.79259E-12 0.54361E-11
 0.16127E-12 0.38389E-12 0.34049E-13 0.42730E-12 0.36804E-13 0.17276E-12 0.17791E-13 0.30123E-12 0.47311E-12 0.11309E-12
 0.90648E-12 0.82120E-12 0.35686E-12 0.18504E-11 0.10658E-13 0.27853E-10 0.12945E-12 0.22602E-11 0.14844E-12 0.10547E-10
 0.30288E-13 0.26631E-13 0.68806E-13 0.53110E-13 0.20817E-14 0.34389E-13 0.75370E-13 0.42175E-13 0.15002E-13 0.42886E-13
 0.35208E-13 0.13103E-11 0.91954E-13 0.59215E-12 0.10714E-13 0.40414E-12 0.79964E-13 0.20483E-11 0.63823E-12 0.33289E-12
 0.14101E-12 0.19344E-12 0.12203E-12 0.24314E-13 0.16653E-14 0.19915E-13 0.15749E-12 0.31425E-12 0.47205E-13 0.37534E-12
 0.15044E-12 0.14285E-11 0.23967E-13 0.36082E-14 0.15404E-14 0.40634E-13 0.36579E-12 0.41270E-11 0.99250E-12 0.60801E-11
 0.27894E-14 0.91316E-14 0.16237E-14 0.14710E-14 0.30531E-14 0.69389E-14 0.39552E-14 0.10672E-13 0.17486E-13 0.66891E-14
 0.77827E-13 0.82821E-12 0.19026E-13 0.40079E-13 0.69528E-14 0.20850E-11 0.18301E-12 0.31785E-10 0.29723E-12 0.14839E-10
 0.16573E-12 0.14369E-12 0.14784E-12 0.33870E-12 0.38441E-14 0.18102E-12 0.33321E-12 0.20241E-12 0.48128E-13 0.30251E-12
 0.10654E-12 0.11707E-10 0.29358E-12 0.38238E-11 0.10381E-13 0.35769E-10 0.21555E-12 0.67710E-11 0.58263E-12 0.24540E-10
 0.19998E-13 0.28062E-12 0.29816E-13 0.35558E-12 0.18291E-13 0.14602E-12 0.31503E-13 0.23793E-12 0.47130E-12 0.92010E-13
 0.92572E-13 0.60851E-12 0.34125E-12 0.24827E-11 0.57454E-14 0.48683E-09 0.30002E-12 0.56431E-11 0.11600E-12 0.62503E-09
 0.76328E-14 0.70222E-14 0.13253E-13 0.98116E-14 0.84655E-15 0.62172E-14 0.12546E-13 0.85487E-14 0.39274E-14 0.96173E-14
 0.86320E-14 0.92014E-12 0.12917E-12 0.53098E-12 0.71609E-14 0.26965E-12 0.33597E-12 0.21927E-11 0.68662E-12 0.44942E-12
 0.22468E-13 0.28201E-12 0.12178E-12 0.21955E-13 0.11657E-14 0.18111E-13 0.22420E-12 0.37638E-12 0.45824E-13 0.35937E-12
 0.17167E-13 0.96496E-12 0.21677E-13 0.17486E-14 0.81879E-15 0.28491E-13 0.34110E-11 0.39601E-11 0.67298E-12 0.86268E-11
 0.10270E-14 0.61617E-14 0.10547E-14 0.84655E-15 0.17486E-14 0.48017E-14 0.40246E-14 0.76189E-14 0.10283E-13 0.50654E-14
 0.10256E-13 0.41941E-12 0.17472E-13 0.27853E-13 0.48989E-14 0.20583E-11 0.76901E-12 0.14513E-10 0.31559E-12 0.33286E-11
 0.22538E-13 0.73759E-12 0.21218E-12 0.31327E-11 0.40384E-14 0.75887E-12 0.11821E-11 0.18452E-12 0.99531E-13 0.10063E-11
 0.14322E-13 0.93109E-11 0.34885E-12 0.36950E-11 0.73969E-14 0.16133E-10 0.19133E-12 0.49685E-12 0.56123E-12 0.70792E-10
 0.48989E-14 0.30614E-12 0.29837E-13 0.27434E-12 0.10936E-13 0.17020E-12 0.61132E-13 0.26756E-12 0.53842E-12 0.71707E-13
 0.16140E-13 0.82646E-12 0.33396E-12 0.32884E-11 0.44340E-14 0.66836E-11 0.85802E-12 0.53810E-09 0.88957E-13 0.22715E-10
 0.20955E-14 0.20400E-14 0.35111E-14 0.27339E-14 0.34694E-15 0.19706E-14 0.25813E-14 0.24009E-14 0.12629E-14 0.25951E-14
 0.24147E-14 0.61010E-12 0.17433E-12 0.33912E-12 0.40939E-14 0.13293E-12 0.94320E-12 0.22218E-11 0.54685E-12 0.43554E-12
 0.50793E-14 0.39796E-12 0.82004E-13 0.81463E-14 0.59674E-15 0.70499E-14 0.14325E-12 0.39857E-12 0.42188E-13 0.38698E-12
 0.39135E-14 0.52147E-12 0.80908E-14 0.66613E-15 0.37470E-15 0.92565E-14 0.29913E-10 0.38795E-11 0.69009E-12 0.17183E-10
 0.40246E-15 0.36082E-14 0.61062E-15 0.38858E-15 0.83267E-15 0.29282E-14 0.31503E-14 0.39968E-14 0.54817E-14 0.29282E-14
 0.28033E-14 0.17345E-12 0.69250E-14 0.92149E-14 0.29837E-14 0.23000E-11 0.16298E-11 0.31280E-11 0.10655E-12 0.35592E-11
 0.38441E-14 0.25411E-11 0.13370E-12 0.29845E-10 0.31364E-14 0.16102E-11 0.21277E-12 0.30531E-13 0.59355E-13 0.11273E-11
 0.34001E-14 0.74088E-11 0.37222E-12 0.36241E-11 0.39135E-14 0.29972E-11 0.30809E-13 0.36499E-13 0.13965E-12 0.10178E-10
 0.16237E-14 0.25328E-12 0.28519E-13 0.29647E-12 0.57870E-14 0.71304E-13 0.42952E-13 0.89984E-13 0.46260E-12 0.72192E-13
 0.36915E-14 0.78981E-12 0.37499E-12 0.61003E-11 0.26090E-14 0.71522E-11 0.82288E-12 0.38548E-10 0.89345E-13 0.37036E-11
 0.77716E-15 0.80491E-15 0.14433E-14 0.97145E-15 0.20817E-15 0.72164E-15 0.81879E-15 0.86042E-15 0.74940E-15 0.97145E-15
 0.83267E-15 0.45863E-12 0.26151E-12 0.26701E-12 0.24980E-14 0.80790E-13 0.40385E-11 0.22261E-11 0.58059E-12 0.40043E-12
 0.19429E-14 0.63451E-12 0.70013E-13 0.58564E-14 0.40939E-15 0.50931E-14 0.94633E-13 0.47234E-12 0.45630E-13 0.33268E-12
 0.12906E-14 0.36715E-12 0.58148E-14 0.46491E-15 0.23592E-15 0.60785E-14 0.27428E-09 0.36111E-11 0.46704E-12 0.33449E-10
 0.16653E-15 0.22204E-14 0.43021E-15 0.27756E-15 0.58981E-15 0.18596E-14 0.25813E-14 0.26229E-14 0.38719E-14 0.19706E-14
 0.10270E-14 0.96041E-13 0.50238E-14 0.60230E-14 0.19013E-14 0.23505E-11 0.19232E-11 0.49204E-12 0.59563E-13 0.27204E-11
 0.11102E-14 0.12526E-10 0.90594E-13 0.54426E-09 0.25535E-14 0.19301E-11 0.64733E-13 0.85626E-14 0.36124E-13 0.74790E-12
 0.11935E-14 0.59975E-11 0.44523E-12 0.34073E-11 0.24980E-14 0.47873E-12 0.86042E-14 0.92981E-14 0.70138E-13 0.30966E-11
 0.77716E-15 0.27084E-12 0.31641E-13 0.22825E-12 0.40246E-14 0.44909E-13 0.29504E-13 0.52652E-13 0.49691E-12 0.57676E-13
 0.11657E-14 0.68204E-12 0.32277E-12 0.96867E-11 0.18180E-14 0.41991E-11 0.54079E-12 0.51055E-11 0.68917E-13 0.18353E-11
 0.49960E-15 0.61062E-15 0.63838E-15 0.49960E-15 0.97145E-16 0.40246E-15 0.36082E-15 0.49960E-15 0.36082E-15 0.55511E-15
 0.38858E-15 0.32571E-12 0.44115E-12 0.19605E-12 0.16376E-14 0.49780E-13 0.39236E-11 0.21794E-11 0.39402E-12 0.44187E-12
 0.69389E-15 0.12437E-11 0.57440E-13 0.33168E-14 0.27409E-15 0.30254E-14 0.54373E-13 0.54592E-12 0.36054E-13 0.31308E-12
 0.61062E-15 0.24721E-12 0.32960E-14 0.24286E-15 0.13878E-15 0.33307E-14 0.63023E-11 0.35148E-11 0.46355E-12 0.12462E-09
 0.13878E-15 0.15474E-14 0.27409E-15 0.79797E-16 0.35735E-15 0.12768E-14 0.19984E-14 0.19151E-14 0.25535E-14 0.15127E-14
 0.51348E-15 0.55581E-13 0.29837E-14 0.33029E-14 0.12976E-14 0.27513E-11 0.53131E-12 0.84571E-13 0.23176E-13 0.83723E-11
 0.44409E-15 0.51946E-11 0.52541E-13 0.75007E-11 0.19984E-14 0.53377E-12 0.14412E-13 0.25396E-14 0.11324E-13 0.23070E-12
 0.55511E-15 0.48512E-11 0.51192E-12 0.33255E-11 0.18041E-14 0.82712E-13 0.25258E-14 0.27617E-14 0.25382E-13 0.18047E-11
 0.47184E-15 0.20031E-12 0.25785E-13 0.24114E-12 0.26923E-14 0.19262E-13 0.10325E-13 0.21233E-13 0.40851E-12 0.57593E-13
 0.69389E-15 0.76086E-12 0.31120E-12 0.24123E-10 0.13878E-14 0.18072E-10 0.18228E-12 0.24202E-11 0.67807E-13 0.10109E-11
 0.38858E-15 0.44409E-15 0.36082E-15 0.33307E-15 0.83267E-16 0.18041E-15 0.11102E-15 0.19429E-15 0.30531E-15 0.33307E-15
 0.33307E-15 0.25385E-12 0.86070E-12 0.15611E-12 0.11172E-14 0.32016E-13 0.13657E-11 0.21099E-11 0.36654E-12 0.38214E-12
 0.38858E-15 0.32480E-11 0.42508E-13 0.20123E-14 0.21511E-15 0.18874E-14 0.27811E-13 0.64404E-12 0.36832E-13 0.29399E-12
 0.27756E-15 0.18542E-12 0.19984E-14 0.19082E-15 0.83267E-16 0.20539E-14 0.92817E-12 0.32688E-11 0.38022E-12 0.33463E-08
 0.83267E-16 0.99226E-15 0.15092E-15 0.69389E-16 0.22204E-15 0.86736E-15 0.16653E-14 0.13323E-14 0.16931E-14 0.10825E-14
 0.26368E-15 0.34556E-13 0.18596E-14 0.19776E-14 0.81185E-15 0.29065E-11 0.18852E-12 0.32668E-13 0.12573E-13 0.27308E-10
 0.24980E-15 0.11879E-11 0.26937E-13 0.10094E-11 0.15404E-14 0.18989E-12 0.54123E-14 0.10963E-14 0.49821E-14 0.94702E-13
 0.30531E-15 0.40148E-11 0.61665E-12 0.31345E-11 0.12074E-14 0.32613E-13 0.11380E-14 0.12906E-14 0.13170E-13 0.10782E-11
 0.33307E-15 0.19579E-12 0.27395E-13 0.21547E-12 0.16931E-14 0.11005E-13 0.47323E-14 0.11519E-13 0.33523E-12 0.49544E-13
 0.33307E-15 0.62872E-12 0.29890E-12 0.84718E-10 0.99920E-15 0.86734E-10 0.80019E-13 0.12896E-11 0.57593E-13 0.65603E-12
 0.22204E-15 0.24980E-15 0.22204E-15 0.19429E-15 0.41633E-16 0.97145E-16 0.13878E-15 0.22204E-15 0.55511E-16 0.30531E-15
 0.22204E-15 0.19387E-12 0.15670E-11 0.12065E-12 0.77716E-15 0.22315E-13 0.36010E-12 0.19345E-11 0.27398E-12 0.30964E-12
 0.36082E-15 0.89467E-11 0.35763E-13 0.15196E-14 0.15439E-15 0.14017E-14 0.17125E-13 0.63596E-12 0.30226E-13 0.27034E-12
 0.19429E-15 0.13646E-12 0.14849E-14 0.11970E-15 0.79797E-16 0.14780E-14 0.23256E-12 0.31128E-11 0.23678E-12 0.53384E-09
 0.83267E-16 0.80491E-15 0.18388E-15 0.55511E-16 0.13010E-15 0.65919E-15 0.14294E-14 0.77716E-15 0.12768E-14 0.77716E-15
 0.15266E-15 0.23464E-13 0.14017E-14 0.14433E-14 0.62450E-15 0.36766E-11 0.63616E-13 0.15057E-13 0.71193E-14 0.13802E-10
 0.27756E-15 0.29948E-12 0.16903E-13 0.24494E-12 0.12490E-14 0.63921E-13 0.22621E-14 0.48572E-15 0.23037E-14 0.37907E-13
 0.22204E-15 0.33047E-11 0.61753E-12 0.30022E-11 0.76328E-15 0.14697E-13 0.47184E-15 0.59674E-15 0.73830E-14 0.83070E-12
 0.13878E-15 0.15499E-12 0.23009E-13 0.14966E-12 0.11935E-14 0.64393E-14 0.21372E-14 0.67168E-14 0.23881E-12 0.37970E-13
 0.27756E-15 0.48833E-12 0.27384E-12 0.62165E-09 0.72164E-15 0.85585E-11 0.33598E-13 0.94810E-12 0.42966E-13 0.45947E-12
 0.22204E-15 0.19429E-15 0.24980E-15 0.19429E-15 0.41633E-16 0.97145E-16 0.83267E-16 0.11102E-15 0.22204E-15 0.24980E-15
 0.11102E-15 0.16454E-12 0.14886E-10 0.95583E-13 0.66613E-15 0.17729E-13 0.11913E-12 0.19038E-11 0.28827E-12 0.31497E-12
 0.33307E-15 0.66467E-10 0.30621E-13 0.10478E-14 0.81532E-16 0.97145E-15 0.11102E-13 0.87022E-12 0.33334E-13 0.30939E-12
 0.11102E-15 0.10527E-12 0.10270E-14 0.91073E-16 0.76328E-16 0.10131E-14 0.79742E-13 0.29537E-11 0.27148E-12 0.56209E-10
 0.83267E-16 0.70083E-15 0.83267E-16 0.20817E-16 0.14919E-15 0.53429E-15 0.12351E-14 0.83267E-15 0.99920E-15 0.65226E-15
 0.12490E-15 0.18405E-13 0.10131E-14 0.95063E-15 0.47878E-15 0.37015E-11 0.32786E-13 0.80491E-14 0.43437E-14 0.43403E-11
 0.16653E-15 0.10225E-12 0.10811E-13 0.82045E-13 0.11796E-14 0.33029E-13 0.14155E-14 0.31919E-15 0.15266E-14 0.21386E-13
 0.55511E-16 0.28462E-11 0.84099E-12 0.28789E-11 0.62450E-15 0.79520E-14 0.30531E-15 0.34694E-15 0.44964E-14 0.59291E-12
 0.22204E-15 0.17975E-12 0.26729E-13 0.17861E-12 0.90206E-15 0.40037E-14 0.15266E-14 0.40939E-14 0.21938E-12 0.39996E-13
 0.22204E-15 0.47307E-12 0.32435E-12 0.15116E-09 0.62450E-15 0.35671E-11 0.19526E-13 0.63524E-12 0.44881E-13 0.31714E-12
 0.11102E-15 0.13878E-15  0.0000     0.27756E-16 0.13878E-16 0.12490E-15 0.83267E-16 0.55511E-16 -.83267E-16 0.11102E-15
  0.0000     0.12385E-12 0.30042E-09 0.76480E-13 0.41633E-15 0.11102E-13 0.50959E-13 0.16788E-11 0.15815E-12 0.24408E-12
 0.19429E-15 0.12465E-10 0.20296E-13 0.66613E-15 0.55511E-16 0.77716E-15 0.56066E-14 0.84419E-12 0.25258E-13 0.21935E-12
 0.55511E-16 0.81768E-13 0.69389E-15 0.41633E-16 0.97145E-16 0.66613E-15 0.36943E-13 0.28133E-11 0.17686E-12 0.27695E-10
 0.97145E-16 0.48572E-15 0.58981E-16 0.83267E-16 0.86736E-16 0.32613E-15 0.79103E-15 0.55511E-15 0.61062E-15 0.44409E-15
 0.62450E-16 0.11290E-13 0.63838E-15 0.77022E-15 0.35388E-15 0.58798E-11 0.14183E-13 0.40662E-14 0.25674E-14 0.64970E-12
 0.55511E-16 0.44881E-13 0.55789E-14 0.37692E-13 0.77022E-15 0.14426E-13 0.69389E-15 0.19429E-15 0.69389E-15 0.10179E-13
 0.27756E-16 0.23539E-11 0.83020E-12 0.27576E-11 0.55511E-15 0.40384E-14 0.41633E-16 0.22204E-15 0.25674E-14 0.50890E-12
 0.19429E-15 0.10603E-12 0.20844E-13 0.12640E-12 0.59674E-15 0.22760E-14 0.62450E-15 0.23037E-14 0.12465E-12 0.30975E-13
 0.55511E-16 0.35372E-12 0.23256E-12 0.48053E-10 0.43021E-15 0.61225E-12 0.94300E-14 0.53565E-12 0.34028E-13 0.27414E-12
 0.22204E-15 0.27756E-15 0.13878E-15 0.13878E-15 0.69389E-16 0.48572E-16 0.83267E-16 0.11102E-15 0.13878E-15 0.19429E-15
 0.55511E-16 0.10414E-12 0.74246E-11 0.62790E-13 0.38858E-15 0.99851E-14 0.24758E-13 0.15613E-11 0.15044E-12 0.21610E-12
 0.27756E-15 0.23586E-11 0.18804E-13 0.63838E-15 0.48572E-16 0.61062E-15 0.43993E-14 0.10658E-11 0.27311E-13 0.22460E-12
 0.97145E-16 0.65892E-13 0.63838E-15 -.27756E-16 0.55511E-16 0.65226E-15 0.18874E-13 0.25945E-11 0.17825E-12 0.14234E-10
 0.11102E-15 0.43021E-15 0.62450E-16  0.0000     0.83267E-16 0.33307E-15 0.80491E-15 0.55511E-15 0.58287E-15 0.44409E-15
 0.12490E-15 0.99920E-14 0.58287E-15 0.70777E-15 0.34694E-15 0.57953E-11 0.92357E-14 0.33862E-14 0.21580E-14 0.44575E-12
 0.11102E-15 0.22621E-13 0.42605E-14 0.19235E-13 0.74246E-15 0.92565E-14 0.61062E-15 0.22204E-15 0.63838E-15 0.70360E-14
 0.13878E-15 0.20104E-11 0.10374E-11 0.25792E-11 0.47184E-15 0.33029E-14 0.17347E-15 0.20817E-15 0.22621E-14 0.40412E-12
 0.19429E-15 0.10864E-12 0.22954E-13 0.13128E-12 0.47184E-15 0.19568E-14 0.63838E-15 0.19845E-14 0.11668E-12 0.30004E-13
 0.19429E-15 0.30825E-12 0.24286E-12 0.17714E-10 0.40246E-15 0.41772E-12 0.65989E-14 0.41496E-12 0.32946E-13 0.21250E-12
 0.27756E-16 0.27756E-16 -.27756E-16 0.41633E-16  0.0000     0.27756E-16 0.83267E-16  0.0000     0.16653E-15 0.13878E-16
 0.83267E-16 0.85723E-13 0.22823E-11 0.51702E-13 0.25674E-15 0.71956E-14 0.13933E-13 0.14125E-11 0.12146E-12 0.18729E-12
 0.16653E-15 0.12530E-11 0.14391E-13 0.44409E-15 0.41633E-16 0.33307E-15 0.27339E-14 0.11564E-11 0.25729E-13 0.20545E-12
 0.41633E-16 0.53645E-13 0.40939E-15 0.48572E-16 0.27756E-16 0.48572E-15 0.11269E-13 0.25202E-11 0.13056E-12 0.90046E-11
 0.41633E-16 0.34694E-15 0.90206E-16 -.27756E-16 0.41633E-16 0.22204E-15 0.66613E-15 0.38858E-15 0.44409E-15 0.40939E-15
  0.0000     0.72789E-14 0.36082E-15 0.47878E-15 0.24980E-15 0.10645E-10 0.54054E-14 0.20678E-14 0.13392E-14 0.18388E-12
 0.69389E-16 0.12941E-13 0.26507E-14 0.11324E-13 0.58981E-15 0.53776E-14 0.33307E-15 0.15959E-15 0.30531E-15 0.42188E-14
 0.16653E-15 0.17212E-11 0.11404E-11 0.25146E-11 0.33307E-15 0.18735E-14 0.69389E-17 0.12490E-15 0.13739E-14 0.35407E-12
 0.11102E-15 0.93370E-13 0.22315E-13 0.10184E-12 0.34694E-15 0.12282E-14 0.38858E-15 0.13115E-14 0.83031E-13 0.25112E-13
 0.13878E-16 0.25432E-12 0.22277E-12 0.10120E-10 0.36082E-15 0.18160E-12 0.41911E-14 0.35805E-12 0.27034E-13 0.17561E-12
 0.16653E-15 0.15266E-15 0.16653E-15 0.41633E-16 -.69389E-16 -.27756E-16 -.55511E-16 0.13184E-15 0.13878E-15 0.48572E-16
 0.13184E-15 0.70915E-13 0.92564E-12 0.42029E-13 0.26368E-15 0.57176E-14 0.77993E-14 0.12601E-11 0.97450E-13 0.11555E-12
 0.18041E-15 0.66511E-12 0.12754E-13 0.30531E-15  0.0000     0.34694E-15 0.21302E-14 0.13642E-11 0.21219E-13 0.20377E-12
  0.0000     0.43125E-13 0.38858E-15 0.97145E-16 0.90206E-16 0.33307E-15 0.66197E-14 0.21884E-11 0.10690E-12 0.62148E-11
 -.55511E-16 0.26368E-15 0.97145E-16 0.11102E-15 0.76328E-16 0.20123E-15 0.55511E-15 0.37470E-15 0.35388E-15 0.23592E-15
 0.55511E-16 0.56968E-14 0.36776E-15 0.34694E-15 0.22204E-15 0.11517E-10 0.34209E-14 0.14710E-14 0.10061E-14 0.11722E-12
 0.55511E-16 0.73691E-14 0.20400E-14 0.66058E-14 0.47184E-15 0.33584E-14 0.21511E-15 0.18735E-15 0.21511E-15 0.29005E-14
 0.83267E-16 0.14681E-11 0.13537E-11 0.22204E-11 0.22204E-15 0.13878E-14 0.13184E-15 0.97145E-16 0.10825E-14 0.31229E-12
 0.15959E-15 0.81629E-13 0.18888E-13 0.87139E-13 0.29143E-15 0.95757E-15 0.26368E-15 0.92287E-15 0.75918E-13 0.22302E-13
 0.18041E-15 0.15879E-12 0.22347E-12 0.64793E-11 0.20123E-15 0.11238E-12 0.27339E-14 0.31363E-12 0.23641E-13 0.14484E-12
 0.83267E-16 0.41633E-16 -.41633E-16 0.62450E-16 -.27756E-16 0.55511E-16 0.55511E-16 0.34694E-16 -.27756E-16 0.34694E-16
 -.48572E-16 0.59605E-13 0.47633E-12 0.34660E-13 0.20817E-15 0.48642E-14 0.49960E-14 0.11385E-11 0.82247E-13 0.10253E-12
 0.76328E-16 0.39658E-12 0.10318E-13 0.22204E-15 -.13878E-16 0.33307E-15 0.14919E-14 0.18344E-11 0.22510E-13 0.19253E-12
 0.48572E-16 0.35590E-13 0.24286E-15 0.34694E-16  0.0000     0.23592E-15 0.43576E-14 0.21253E-11 0.99282E-13 0.44735E-11
 0.20817E-16 0.18041E-15 0.90206E-16 0.41633E-16 0.69389E-16 0.15959E-15 0.39552E-15 0.20123E-15 0.27062E-15 0.23592E-15
 0.69389E-17 0.48850E-14 0.23592E-15 0.34694E-15 0.24286E-15 0.21529E-10 0.24702E-14 0.11519E-14 0.73899E-15 0.72359E-13
 0.13878E-16 0.48087E-14 0.14364E-14 0.43923E-14 0.38164E-15 0.23731E-14 0.22898E-15 0.12663E-15 0.16653E-15 0.20955E-14
 0.83267E-16 0.12715E-11 0.18609E-11 0.21675E-11 0.20817E-15 0.10686E-14 0.36429E-16 0.10408E-15 0.76675E-15 0.28298E-12
 0.12490E-15 0.71117E-13 0.20456E-13 0.85071E-13 0.23592E-15 0.79450E-15 0.19082E-15 0.72858E-15 0.47164E-13 0.20442E-13
 0.48572E-16 0.13517E-12 0.21230E-12 0.44742E-11 0.18041E-15 0.72393E-13 0.20053E-14 0.28238E-12 0.21573E-13 0.12105E-12
 0.55511E-16 0.55511E-16 -.34694E-16 0.20817E-16 -.41633E-16 -.55511E-16 -.62450E-16 0.20817E-16 -.69389E-16 -.27756E-16
 0.20817E-16 0.47587E-13 0.28229E-12 0.29685E-13 0.12490E-15 0.32543E-14 0.33584E-14 0.10042E-11 0.51875E-13 0.65448E-13
 0.13878E-16 0.25452E-12 0.82712E-14 0.15266E-15 0.20817E-16 0.20123E-15 0.10617E-14 0.28201E-11 0.16584E-13 0.14806E-12
 -.34694E-16 0.30101E-13 0.13184E-15 0.27756E-16 0.20817E-16 0.18735E-15 0.30115E-14 0.18915E-11 0.84210E-13 0.34541E-11
 -.27756E-16 0.11102E-15  0.0000     0.62450E-16  0.0000     0.12490E-15 0.38858E-15 0.24980E-15 0.17347E-15 0.22204E-15
 -.27756E-16 0.31919E-14 0.15266E-15 0.17347E-15 0.13878E-15 0.34259E-10 0.15231E-14 0.71644E-15 0.43021E-15 0.44017E-13
 -.48572E-16 0.33307E-14 0.98532E-15 0.30601E-14 0.33307E-15 0.15196E-14 0.59848E-16 0.96277E-16 0.11970E-15 0.13010E-14
 -.27756E-16 0.10931E-11 0.29156E-11 0.19569E-11 0.11102E-15 0.62624E-15 0.12143E-16 0.52042E-16 0.47184E-15 0.24999E-12
 0.11102E-15 0.48919E-13 0.15737E-13 0.75155E-13 0.11102E-15 0.50307E-15 0.14745E-15 0.47184E-15 0.39448E-13 0.18208E-13
 0.11102E-15 0.85557E-13 0.16709E-12 0.33750E-11 0.15266E-15 0.43996E-13 0.11796E-14 0.24831E-12 0.18902E-13 0.11727E-12
 0.11102E-15  0.0000     0.41633E-16 0.55511E-16 0.55511E-16 0.55511E-16 0.69389E-17 0.19429E-15 0.13878E-16 0.90206E-16
 0.20817E-16 0.40939E-13 0.22703E-12 0.22420E-13 0.16653E-15 0.30045E-14 0.19221E-14 0.88708E-12 0.47934E-13 0.52236E-13
 0.15266E-15 0.21075E-12 0.64948E-14 0.21511E-15 0.55511E-16 0.27062E-15 0.83267E-15 0.26041E-11 0.17403E-13 0.14098E-12
 0.55511E-16 0.22843E-13 0.13878E-15 0.55511E-16 0.83267E-16 0.22204E-15 0.17764E-14 0.17682E-11 0.68529E-13 0.27016E-11
 0.55511E-16 0.15266E-15 0.97145E-16 0.69389E-16 0.55511E-16 0.18735E-15 0.31225E-15 0.23592E-15 0.15959E-15 0.20470E-15
 0.11102E-15 0.30392E-14 0.15959E-15 0.24980E-15 0.13184E-15 0.21803E-09 0.12490E-14 0.65746E-15 0.41633E-15 0.35119E-13
 -.69389E-17 0.19429E-14 0.74940E-15 0.17000E-14 0.23592E-15 0.12768E-14 0.64185E-16 0.55511E-16 0.11406E-15 0.11796E-14
  0.0000     0.94894E-12 0.27187E-11 0.18420E-11 0.19429E-15 0.61930E-15 -.27756E-16 0.16480E-15 0.42327E-15 0.23097E-12
 0.18735E-15 0.46990E-13 0.16889E-13 0.63838E-13 0.15959E-15 0.47184E-15 0.16610E-15 0.42327E-15 0.26527E-13 0.15883E-13
 0.20817E-16 0.66447E-13 0.15873E-12 0.26176E-11 0.17347E-15 0.34864E-13 0.10929E-14 0.22786E-12 0.16182E-13 0.10026E-12
 0.13878E-16 0.41633E-16  0.0000     0.41633E-16 -.41633E-16  0.0000     -.83267E-16 0.41633E-16 -.27756E-16 0.13878E-15
 -.20817E-16 0.34764E-13 0.15020E-12 0.20782E-13 0.90206E-16 0.24147E-14 0.15890E-14 0.78687E-12 0.40717E-13 0.35957E-13
 0.11102E-15 0.14530E-12 0.68140E-14 0.17347E-15 0.27756E-16 0.12490E-15 0.79103E-15 0.49378E-11 0.14960E-13 0.13377E-12
 0.27756E-16 0.20907E-13 0.18735E-15 0.55511E-16 -.27756E-16 0.13878E-15 0.16098E-14 0.16777E-11 0.62901E-13 0.21383E-11
 0.27756E-16 0.97145E-16 0.27756E-16 -.13878E-16 0.83267E-16 0.12490E-15 0.32613E-15 0.18735E-15 0.13878E-15 0.18041E-15
 0.13878E-15 0.24147E-14 0.69389E-16 0.19429E-15 0.69389E-16 0.18224E-09 0.77716E-15 0.44409E-15 0.24980E-15 0.22624E-13
 -.27756E-16 0.16376E-14 0.76328E-15 0.15613E-14 0.22204E-15 0.86042E-15 0.55511E-16 0.11102E-15 0.52042E-16 0.78063E-15
 -.41633E-16 0.82762E-12 0.52963E-11 0.17593E-11 0.90206E-16 0.50307E-15 0.83267E-16 0.13184E-15 0.33307E-15 0.20542E-12
 0.13878E-15 0.42480E-13 0.15155E-13 0.59626E-13 0.97145E-16 0.41633E-15 0.83267E-16 0.30531E-15 0.30073E-13 0.14960E-13
 0.83267E-16 0.44881E-13 0.15227E-12 0.20584E-11 0.11102E-15 0.22236E-13 0.69042E-15 0.20286E-12 0.15141E-13 0.87964E-13
 0.83267E-16 0.55511E-16 0.83267E-16  0.0000     -.83267E-16 0.27756E-16 0.55511E-16 0.41633E-16  0.0000     0.55511E-16
 0.15266E-15 0.29143E-13 0.11999E-12 0.17181E-13 0.83267E-16 0.19706E-14 0.11380E-14 0.69067E-12 0.31919E-13 0.26784E-13
 0.13878E-15 0.11783E-12 0.46629E-14 0.12490E-15  0.0000     0.16653E-15 0.58287E-15 0.64797E-11 0.15765E-13 0.11965E-12
 0.41633E-16 0.17264E-13 0.18041E-15 0.11102E-15  0.0000     0.69389E-16 0.11657E-14 0.15798E-11 0.55192E-13 0.17458E-11
  0.0000     0.48572E-16 0.27756E-16 0.27756E-16  0.0000     0.83267E-16 0.20817E-15 0.11102E-15 0.17347E-15 0.13878E-15
 0.69389E-16 0.20262E-14 0.83267E-16 0.83267E-16 0.83267E-16 0.26141E-09 0.66613E-15 0.42327E-15 0.26368E-15 0.19151E-13
 0.27756E-16 0.12698E-14 0.38858E-15 0.10963E-14 0.16653E-15 0.74940E-15 0.69389E-16 0.83267E-16 0.38164E-16 0.72164E-15
 0.11102E-15 0.72034E-12 0.71600E-11 0.16681E-11 0.12490E-15 0.38164E-15 -.41633E-16 0.10061E-15 0.31919E-15 0.19814E-12
 0.24980E-15 0.34167E-13 0.16112E-13 0.54234E-13 0.18735E-15 0.26368E-15 0.69389E-16 0.24980E-15 0.20955E-13 0.13350E-13
 0.83267E-16 0.32890E-13 0.13740E-12 0.16853E-11 0.16653E-15 0.18749E-13 0.52736E-15 0.19547E-12 0.13489E-13 0.78798E-13
 0.13878E-16 -.13878E-16 -.11102E-15 -.83267E-16 -.55511E-16  0.0000     -.27756E-16 -.55511E-16  0.0000     -.83267E-16
 0.69389E-16 0.24356E-13 0.91288E-13 0.14932E-13 0.41633E-16 0.15821E-14 0.90206E-15 0.60385E-12 0.25313E-13 0.23689E-13
 -.83267E-16 0.90872E-13 0.44686E-14 0.55511E-16 -.13878E-16  0.0000     0.36082E-15 0.14083E-10 0.12212E-13 0.98352E-13
 -.69389E-16 0.14960E-13 0.97145E-16 0.27756E-16 -.13878E-16 0.13878E-15 0.84655E-15 0.14411E-11 0.46768E-13 0.14474E-11
  0.0000     0.76328E-16 0.13878E-16 0.55511E-16 0.13878E-16 0.69389E-16 0.15266E-15 0.11102E-15 0.55511E-16 0.22204E-15
 0.55511E-16 0.15821E-14 0.27756E-16 0.55511E-16 0.55511E-16 0.12088E-09 0.47184E-15 0.29143E-15 0.16653E-15 0.13087E-13
 0.13878E-16 0.91593E-15 0.43021E-15 0.87430E-15 0.16653E-15 0.48572E-15 0.69389E-16 0.27756E-16 0.27756E-16 0.49960E-15
  0.0000     0.62605E-12 0.16375E-10 0.15349E-11 0.55511E-16 0.20817E-15 0.27756E-16 0.27756E-16 0.22204E-15 0.17777E-12
 0.41633E-16 0.28547E-13 0.12906E-13 0.46158E-13 -.55511E-16 0.23592E-15 0.13878E-15 0.23592E-15 0.17070E-13 0.11866E-13
 0.41633E-16 0.29046E-13 0.11430E-12 0.13988E-11 0.13878E-15 0.13101E-13 0.41633E-15 0.17619E-12 0.11796E-13 0.76952E-13
  0.0000     -.13878E-15 -.27756E-16 -.27756E-16 -.13878E-16 0.27756E-16 -.69389E-16 -.83267E-16  0.0000     0.13878E-16
 -.97145E-16 0.20664E-13 0.72900E-13 0.13517E-13 0.69389E-16 0.14988E-14 0.77716E-15 0.53062E-12 0.21066E-13 0.16862E-13
 0.11102E-15 0.73164E-13 0.37470E-14 0.13878E-16 -.97145E-16 0.13878E-15 0.24980E-15 0.58759E-10 0.14169E-13 0.85459E-13
  0.0000     0.13614E-13 0.12490E-15 -.83267E-16 0.13878E-16 0.83267E-16 0.76328E-15 0.13932E-11 0.44478E-13 0.12032E-11
 -.27756E-16 0.41633E-16 0.11102E-15 0.55511E-16  0.0000     0.83267E-16 0.13878E-15 0.69389E-16 0.41633E-16 0.15266E-15
 0.13878E-16 0.14988E-14 0.83267E-16 0.11102E-15 0.41633E-16 0.29407E-10 0.38858E-15 0.24980E-15 0.11102E-15 0.12823E-13
 -.27756E-16 0.77716E-15 0.40246E-15 0.73552E-15 0.11102E-15 0.54123E-15 0.55511E-16  0.0000     0.55511E-16 0.52736E-15
 -.27756E-16 0.54798E-12 0.78878E-10 0.14820E-11 0.97145E-16 0.24980E-15 -.69389E-16 0.55511E-16 0.12490E-15 0.16910E-12
 0.97145E-16 0.24258E-13 0.15002E-13 0.44825E-13 0.27756E-16 0.16653E-15 0.83267E-16 0.16653E-15 0.15543E-13 0.10852E-13
 -.27756E-16 0.20567E-13 0.10028E-12 0.11729E-11 0.69389E-16 0.12795E-13 0.38858E-15 0.16689E-12 0.10908E-13 0.71762E-13
 0.20817E-16 0.76328E-16 -.13878E-16 -.13878E-16  0.0000     -.55511E-16 -.27756E-16 -.13878E-16 0.97145E-16 0.69389E-16
  0.0000     0.17555E-13 0.60271E-13 0.11158E-13 0.83267E-16 0.12212E-14 0.41633E-15 0.45476E-12 0.17986E-13 0.12941E-13
 0.24980E-15 0.60896E-13 0.35111E-14 0.27756E-16 -.27756E-16 0.41633E-16 0.31919E-15 0.18677E-09 0.11394E-13 0.74302E-13
 0.27756E-16 0.11213E-13 0.11102E-15 -.27756E-16 0.13878E-16 0.11102E-15 0.58287E-15 0.12317E-11 0.33432E-13 0.10233E-11
 0.13878E-16 0.83267E-16 -.27756E-16 0.55511E-16 -.27756E-16 0.83267E-16 0.15266E-15 0.83267E-16 0.83267E-16 0.19429E-15
 0.55511E-16 0.11935E-14 0.15266E-15  0.0000     -.27756E-16 0.20304E-10 0.22204E-15 0.23592E-15 0.55511E-16 0.90344E-14
 0.27756E-16 0.49960E-15 0.30531E-15 0.58287E-15 0.13878E-16 0.26368E-15 0.69389E-16 -.69389E-16  0.0000     0.44409E-15
 0.27756E-16 0.47173E-12 0.45261E-09 0.13313E-11 -.13878E-16 0.16653E-15  0.0000     0.83267E-16 0.15266E-15 0.15014E-12
 0.16653E-15 0.21372E-13 0.12421E-13 0.35125E-13 0.83267E-16 0.83267E-16 0.27756E-16 0.41633E-16 0.12212E-13 0.91732E-14
 0.69389E-16 0.15467E-13 0.86528E-13 0.99928E-12 0.83267E-16 0.89928E-14 0.16653E-15 0.14953E-12 0.91732E-14 0.67266E-13
 -.10408E-15 -.27756E-16 -.34694E-16 -.41633E-16 -.69389E-16  0.0000     -.83267E-16 -.41633E-16 -.48572E-16 -.13878E-16
 0.24286E-16 0.14440E-13 0.50196E-13 0.10311E-13 0.27756E-16 0.11657E-14 0.41633E-15 0.39677E-12 0.13850E-13 0.85834E-14
 0.27756E-16 0.50862E-13 0.32335E-14 0.13878E-16  0.0000     0.27756E-16 0.24980E-15 0.11673E-08 0.92565E-14 0.59806E-13
 0.13878E-16 0.10367E-13 0.12490E-15 -.13878E-16 -.55511E-16 0.41633E-16 0.48572E-15 0.11478E-11 0.27658E-13 0.86545E-12
 -.55511E-16 0.69389E-16 0.83267E-16  0.0000     -.41633E-16 0.41633E-16 0.27756E-16 -.27756E-16 0.83267E-16 0.11102E-15
 0.13878E-16 0.11102E-14 0.55511E-16 0.27756E-16 -.27756E-16 0.78041E-11 0.27756E-15 0.16653E-15 0.11102E-15 0.84932E-14
 0.13878E-16 0.49960E-15 0.33307E-15 0.44409E-15 -.13878E-16 0.26368E-15  0.0000     0.27756E-16 -.41633E-16 0.33307E-15
 0.55511E-16 0.41166E-12 0.32575E-09 0.12427E-11 0.27756E-16 0.19429E-15 -.55511E-16 0.55511E-16 0.13878E-15 0.14269E-12
 0.12490E-15 0.16757E-13 0.10221E-13 0.29490E-13 0.27756E-16 0.11102E-15 0.27756E-16 0.11102E-15 0.11852E-13 0.80214E-14
 0.13878E-16 0.10141E-13 0.70097E-13 0.85246E-12 0.55511E-16 0.83544E-14 0.27756E-15 0.14160E-12 0.78548E-14 0.68175E-13
 0.12143E-16 0.26021E-16 -.55511E-16 -.27756E-16 -.69389E-16 -.13878E-16 -.27756E-16 0.13878E-16 0.45103E-16 -.36429E-16
 0.43368E-16 0.12424E-13 0.42029E-13 0.96034E-14 0.97145E-16 0.11380E-14 0.56899E-15 0.34717E-12 0.13250E-13 0.60334E-14
 0.15266E-15 0.42369E-13 0.31225E-14 0.55511E-16 -.27756E-16 0.27756E-16 0.27756E-15 0.34175E-10 0.11432E-13 0.56559E-13
  0.0000     0.97145E-14 0.83267E-16 0.41633E-16 -.83267E-16 0.55511E-16 0.49960E-15 0.11211E-11 0.30628E-13 0.72536E-12
 0.27756E-16 0.27756E-16 -.13878E-16 0.83267E-16 -.55511E-16 0.13878E-16 0.12490E-15 0.83267E-16 0.69389E-16 0.83267E-16
 0.97145E-16 0.11519E-14 0.27756E-16 -.13878E-16 0.27756E-16 0.47256E-10 0.24980E-15 0.16653E-15 0.83267E-16 0.80075E-14
 -.27756E-16 0.56899E-15 0.24980E-15 0.47184E-15 0.55511E-16 0.26368E-15 0.41633E-16 0.83267E-16 0.27756E-16 0.27756E-15
 0.13878E-16 0.35993E-12 0.25823E-10 0.12167E-11 -.55511E-16 0.13878E-15 -.55511E-16 0.27756E-16 0.16653E-15 0.11244E-12
 0.13184E-15 0.16362E-13 0.12997E-13 0.33321E-13 -.13878E-16 0.15266E-15 -.41633E-16 0.97145E-16 0.10908E-13 0.79936E-14
 0.69389E-16 0.71540E-14 0.65420E-13 0.72115E-12 0.11102E-15 0.80214E-14 0.13878E-15 0.11242E-12 0.77716E-14 0.58259E-13
 -.36321E-16 0.84808E-16 0.25967E-16 -.99747E-17 -.26021E-17 -.21684E-17 0.69389E-17 -.74810E-17 -.86980E-16 0.35162E-16
 0.19126E-16 0.10412E-13 0.35599E-13 0.92318E-14 0.41633E-16 0.11380E-14 0.46924E-15 0.30223E-12 0.10187E-13 0.44877E-14
 0.15049E-15 0.35929E-13 0.31035E-14 0.58113E-16 -.16480E-16 -.45536E-16 0.23207E-15 0.12159E-10 0.98192E-14 0.41978E-13
 -.18648E-16 0.92057E-14 0.69823E-16 -.10408E-16 -.74593E-16 0.23419E-16 0.46339E-15 0.10535E-11 0.27563E-13 0.61553E-12