 vasp.5.4.4.18Apr17-6-g9f103f2a35 (build Jun 30 2017 11:15:00) complex          
  
 executed on    STALLO_VASP_5.4.4 date 2019.10.11  11:19:00
 running on    4 total cores
 distrk:  each k-point on    4 cores,    1 groups
 distr:  one band on NCORES_PER_BAND=   2 cores,    2 groups


--------------------------------------------------------------------------------------------------------


 INCAR:
 POTCAR:   PAW_PBE Cu 05Jan2001                   
 POTCAR:   PAW_PBE H 15Jun2001                    
 POTCAR:   PAW_PBE Cu 05Jan2001                   
   VRHFIN =Cu: d10 p1                                                           
   LEXCH  = PE                                                                  
   EATOM  =  1390.9800 eV,  102.2341 Ry                                         
                                                                                
   TITEL  = PAW_PBE Cu 05Jan2001                                                
   LULTRA =        F    use ultrasoft PP ?                                      
   IUNSCR =        1    unscreen: 0-lin 1-nonlin 2-no                           
   RPACOR =    2.000    partial core radius                                     
   POMASS =   63.546; ZVAL   =   11.000    mass and valenz                      
   RCORE  =    2.300    outmost cutoff radius                                   
   RWIGS  =    2.480; RWIGS  =    1.312    wigner-seitz radius (au A)           
   ENMAX  =  273.214; ENMIN  =  204.910 eV                                      
   RCLOC  =    1.712    cutoff for local pot                                    
   LCOR   =        T    correct aug charges                                     
   LPAW   =        T    paw PP                                                  
   EAUG   =  516.456                                                            
   DEXC   =    -.008                                                            
   RMAX   =    2.789    core radius for proj-oper                               
   RAUG   =    1.300    factor for augmentation sphere                          
   RDEP   =    2.302    radius for radial grids                                 
   QCUT   =   -4.481; QGAM   =    8.962    optimization parameters              
                                                                                
   Description                                                                  
     l     E      TYP  RCUT    TYP  RCUT                                        
     2   .000     23  2.300                                                     
     2   .000     23  2.300                                                     
     0   .000     23  2.300                                                     
     0   .000     23  2.300                                                     
     1  -.200     23  2.300                                                     
     1   .000     23  2.300                                                     
     3   .000      7   .000                                                     
  local pseudopotential read in
  partial core-charges read in
  atomic valenz-charges read in
  non local Contribution for L=           2  read in
    real space projection operators read in
  non local Contribution for L=           2  read in
    real space projection operators read in
  non local Contribution for L=           0  read in
    real space projection operators read in
  non local Contribution for L=           0  read in
    real space projection operators read in
  non local Contribution for L=           1  read in
    real space projection operators read in
  non local Contribution for L=           1  read in
    real space projection operators read in
    PAW grid and wavefunctions read in
 
   number of l-projection  operators is LMAX  =           6
   number of lm-projection operators is LMMAX =          18
 
 POTCAR:   PAW_PBE H 15Jun2001                    
   VRHFIN =H: ultrasoft test                                                    
   LEXCH  = PE                                                                  
   EATOM  =    12.4884 eV,     .9179 Ry                                         
                                                                                
   TITEL  = PAW_PBE H 15Jun2001                                                 
   LULTRA =        F    use ultrasoft PP ?                                      
   IUNSCR =        0    unscreen: 0-lin 1-nonlin 2-no                           
   RPACOR =     .000    partial core radius                                     
   POMASS =    1.000; ZVAL   =    1.000    mass and valenz                      
   RCORE  =    1.100    outmost cutoff radius                                   
   RWIGS  =     .700; RWIGS  =     .370    wigner-seitz radius (au A)           
   ENMAX  =  250.000; ENMIN  =  200.000 eV                                      
   RCLOC  =     .701    cutoff for local pot                                    
   LCOR   =        T    correct aug charges                                     
   LPAW   =        T    paw PP                                                  
   EAUG   =  400.000                                                            
   RMAX   =    2.174    core radius for proj-oper                               
   RAUG   =    1.200    factor for augmentation sphere                          
   RDEP   =    1.112    radius for radial grids                                 
   QCUT   =   -5.749; QGAM   =   11.498    optimization parameters              
                                                                                
   Description                                                                  
     l     E      TYP  RCUT    TYP  RCUT                                        
     0   .000     23  1.100                                                     
     0   .500     23  1.100                                                     
     1  -.300     23  1.100                                                     
  local pseudopotential read in
  atomic valenz-charges read in
  non local Contribution for L=           0  read in
    real space projection operators read in
  non local Contribution for L=           0  read in
    real space projection operators read in
  non local Contribution for L=           1  read in
    real space projection operators read in
    PAW grid and wavefunctions read in
 
   number of l-projection  operators is LMAX  =           3
   number of lm-projection operators is LMMAX =           5
 

 ----------------------------------------------------------------------------- 
|                                                                             |
|  ADVICE TO THIS USER RUNNING 'VASP/VAMP'   (HEAR YOUR MASTER'S VOICE ...):  |
|                                                                             |
|      You have a (more or less) 'small supercell' and for smaller cells      |
|      it is recommended  to use the reciprocal-space projection scheme!      |
|      The real space optimization is not  efficient for small cells and it   |
|      is also less accurate ...                                              |
|      Therefore set LREAL=.FALSE. in the  INCAR file                         |
|                                                                             |
 ----------------------------------------------------------------------------- 

 Optimization of the real space projectors (new method)

 maximal supplied QI-value         = 16.25
 optimisation between [QCUT,QGAM] = [  7.96, 16.09] = [ 17.76, 72.49] Ry 
 Optimized for a Real-space Cutoff    1.70 Angstroem

   l    n(q)    QCUT    max X(q) W(low)/X(q) W(high)/X(q)  e(spline) 
   2      7     7.963     4.977    0.65E-04    0.90E-04    0.59E-07
   2      7     7.963    13.467    0.48E-03    0.73E-03    0.12E-06
   0      8     7.963    13.303    0.22E-04    0.12E-04    0.51E-08
   0      8     7.963    44.613    0.10E-03    0.16E-03    0.47E-07
   1      8     7.963     5.276    0.66E-04    0.10E-04    0.22E-07
   1      8     7.963     7.322    0.38E-03    0.18E-03    0.17E-06
 Optimization of the real space projectors (new method)

 maximal supplied QI-value         = 34.20
 optimisation between [QCUT,QGAM] = [  7.87, 16.08] = [ 17.33, 72.37] Ry 
 Optimized for a Real-space Cutoff    1.85 Angstroem

   l    n(q)    QCUT    max X(q) W(low)/X(q) W(high)/X(q)  e(spline) 
   0      9     7.867     4.436    0.44E-04    0.71E-04    0.23E-06
   0      9     7.867    15.341    0.29E-03    0.73E-03    0.99E-06
   1      8     7.867     4.196    0.27E-03    0.13E-02    0.91E-06
 PAW_PBE Cu 05Jan2001                   :
 energy of atom  1       EATOM=-1390.9800
 kinetic energy error for atom=    0.0930 (will be added to EATOM!!)
 PAW_PBE H 15Jun2001                    :
 energy of atom  2       EATOM=  -12.4884
 kinetic energy error for atom=    0.0868 (will be added to EATOM!!)
 
 
 POSCAR: Cu  H                                   
  positions in cartesian coordinates
  velocities in cartesian coordinates
 exchange correlation table for  LEXCH =        8
   RHO(1)=    0.500       N(1)  =     2000
   RHO(2)=  100.500       N(2)  =     4000
 


--------------------------------------------------------------------------------------------------------


 ion  position               nearest neighbor table
   1  0.000  0.000  0.396-   2 2.57   2 2.57   2 2.57
   2  0.333  0.333  0.465-   3 2.57   1 2.57   3 2.57   1 2.57   3 2.57   1 2.57
   3  0.667  0.667  0.535-   4 2.57   2 2.57   2 2.57   4 2.57   2 2.57   4 2.57
   4  0.000  0.000  0.604-   5 1.80   3 2.57   3 2.57   3 2.57
   5  0.961  0.000  0.663-   4 1.80
 
  LATTYP: Found a hexagonal cell.
 ALAT       =     2.5738686835
 C/A-ratio  =    11.7739747694
  
  Lattice vectors:
  
 A1 = (   1.2869343418,  -2.2290356659,   0.0000000000)
 A2 = (  -2.5738686835,   0.0000000000,   0.0000000000)
 A3 = (   0.0000000000,   0.0000000000, -30.3046649396)


Analysis of symmetry for initial positions (statically):
=====================================================================
 Subroutine PRICEL returns:
 Original cell was already a primitive cell.
 

 Routine SETGRP: Setting up the symmetry group for a 
 hexagonal supercell.


 Subroutine GETGRP returns: Found  1 space group operations
 (whereof  1 operations were pure point group operations)
 out of a pool of 24 trial point group operations.


The static configuration has the point symmetry C_1 .


Analysis of symmetry for dynamics (positions and initial velocities):
=====================================================================
 Subroutine PRICEL returns:
 Original cell was already a primitive cell.
 

 Routine SETGRP: Setting up the symmetry group for a 
 hexagonal supercell.


 Subroutine GETGRP returns: Found  1 space group operations
 (whereof  1 operations were pure point group operations)
 out of a pool of 24 trial point group operations.


The dynamic configuration has the point symmetry C_1 .


 Subroutine INISYM returns: Found  1 space group operations
 (whereof  1 operations are pure point group operations),
 and found     1 'primitive' translations

 
 
 KPOINTS: k-density: 4.0                          

Automatic generation of k-mesh.
Space group operators:
 irot       det(A)        alpha          n_x          n_y          n_z        tau_x        tau_y        tau_z
    1     1.000000     0.000001     1.000000     0.000000     0.000000     0.000000     0.000000     0.000000
 
 Subroutine IBZKPT returns following result:
 ===========================================
 
 Found     52 irreducible k-points:
 
 Following reciprocal coordinates:
            Coordinates               Weight
  0.000000  0.000000  0.000000      1.000000
  0.100000  0.000000  0.000000      2.000000
  0.200000 -0.000000  0.000000      2.000000
  0.300000 -0.000000  0.000000      2.000000
  0.400000 -0.000000  0.000000      2.000000
  0.500000 -0.000000  0.000000      1.000000
  0.000000  0.100000  0.000000      2.000000
  0.100000  0.100000  0.000000      2.000000
  0.200000  0.100000  0.000000      2.000000
  0.300000  0.100000  0.000000      2.000000
  0.400000  0.100000  0.000000      2.000000
  0.500000  0.100000  0.000000      2.000000
 -0.400000  0.100000  0.000000      2.000000
 -0.300000  0.100000  0.000000      2.000000
 -0.200000  0.100000  0.000000      2.000000
 -0.100000  0.100000  0.000000      2.000000
  0.000000  0.200000  0.000000      2.000000
  0.100000  0.200000  0.000000      2.000000
  0.200000  0.200000  0.000000      2.000000
  0.300000  0.200000  0.000000      2.000000
  0.400000  0.200000  0.000000      2.000000
  0.500000  0.200000  0.000000      2.000000
 -0.400000  0.200000  0.000000      2.000000
 -0.300000  0.200000  0.000000      2.000000
 -0.200000  0.200000  0.000000      2.000000
 -0.100000  0.200000  0.000000      2.000000
  0.000000  0.300000  0.000000      2.000000
  0.100000  0.300000  0.000000      2.000000
  0.200000  0.300000  0.000000      2.000000
  0.300000  0.300000  0.000000      2.000000
  0.400000  0.300000  0.000000      2.000000
  0.500000  0.300000  0.000000      2.000000
 -0.400000  0.300000  0.000000      2.000000
 -0.300000  0.300000  0.000000      2.000000
 -0.200000  0.300000  0.000000      2.000000
 -0.100000  0.300000  0.000000      2.000000
  0.000000  0.400000  0.000000      2.000000
  0.100000  0.400000  0.000000      2.000000
  0.200000  0.400000  0.000000      2.000000
  0.300000  0.400000  0.000000      2.000000
  0.400000  0.400000  0.000000      2.000000
  0.500000  0.400000  0.000000      2.000000
 -0.400000  0.400000  0.000000      2.000000
 -0.300000  0.400000  0.000000      2.000000
 -0.200000  0.400000  0.000000      2.000000
 -0.100000  0.400000  0.000000      2.000000
  0.000000  0.500000  0.000000      1.000000
  0.100000  0.500000  0.000000      2.000000
  0.200000  0.500000  0.000000      2.000000
  0.300000  0.500000  0.000000      2.000000
  0.400000  0.500000  0.000000      2.000000
  0.500000  0.500000  0.000000      1.000000
 
 Following cartesian coordinates:
            Coordinates               Weight
  0.000000  0.000000  0.000000      1.000000
  0.038852 -0.022431  0.000000      2.000000
  0.077704 -0.044862  0.000000      2.000000
  0.116556 -0.067294  0.000000      2.000000
  0.155408 -0.089725  0.000000      2.000000
  0.194260 -0.112156  0.000000      1.000000
  0.000000  0.044862  0.000000      2.000000
  0.038852  0.022431  0.000000      2.000000
  0.077704 -0.000000  0.000000      2.000000
  0.116556 -0.022431  0.000000      2.000000
  0.155408 -0.044862  0.000000      2.000000
  0.194260 -0.067294  0.000000      2.000000
 -0.155408  0.134587  0.000000      2.000000
 -0.116556  0.112156  0.000000      2.000000
 -0.077704  0.089725  0.000000      2.000000
 -0.038852  0.067294  0.000000      2.000000
  0.000000  0.089725  0.000000      2.000000
  0.038852  0.067294  0.000000      2.000000
  0.077704  0.044862  0.000000      2.000000
  0.116556  0.022431  0.000000      2.000000
  0.155408  0.000000  0.000000      2.000000
  0.194260 -0.022431  0.000000      2.000000
 -0.155408  0.179450  0.000000      2.000000
 -0.116556  0.157019  0.000000      2.000000
 -0.077704  0.134587  0.000000      2.000000
 -0.038852  0.112156  0.000000      2.000000
  0.000000  0.134587  0.000000      2.000000
  0.038852  0.112156  0.000000      2.000000
  0.077704  0.089725  0.000000      2.000000
  0.116556  0.067294  0.000000      2.000000
  0.155408  0.044862  0.000000      2.000000
  0.194260  0.022431  0.000000      2.000000
 -0.155408  0.224312  0.000000      2.000000
 -0.116556  0.201881  0.000000      2.000000
 -0.077704  0.179450  0.000000      2.000000
 -0.038852  0.157019  0.000000      2.000000
  0.000000  0.179450  0.000000      2.000000
  0.038852  0.157019  0.000000      2.000000
  0.077704  0.134587  0.000000      2.000000
  0.116556  0.112156  0.000000      2.000000
  0.155408  0.089725  0.000000      2.000000
  0.194260  0.067294  0.000000      2.000000
 -0.155408  0.269175  0.000000      2.000000
 -0.116556  0.246743  0.000000      2.000000
 -0.077704  0.224312  0.000000      2.000000
 -0.038852  0.201881  0.000000      2.000000
  0.000000  0.224312  0.000000      1.000000
  0.038852  0.201881  0.000000      2.000000
  0.077704  0.179450  0.000000      2.000000
  0.116556  0.157019  0.000000      2.000000
  0.155408  0.134587  0.000000      2.000000
  0.194260  0.112156  0.000000      1.000000
 


--------------------------------------------------------------------------------------------------------




 Dimension of arrays:
   k-points           NKPTS =     52   k-points in BZ     NKDIM =     52   number of bands    NBANDS=     28
   number of dos      NEDOS =   2401   number of ions     NIONS =      5
   non local maximal  LDIM  =      6   non local SUM 2l+1 LMDIM =     18
   total plane-waves  NPLWV =  12000
   max r-space proj   IRMAX =   1888   max aug-charges    IRDMAX=   2622
   dimension x,y,z NGX =    10 NGY =   10 NGZ =  120
   dimension x,y,z NGXF=    20 NGYF=   20 NGZF=  240
   support grid    NGXF=    20 NGYF=   20 NGZF=  240
   ions per type =               4   1
   NGX,Y,Z   is equivalent  to a cutoff of   6.46,  6.46,  6.58 a.u.
   NGXF,Y,Z  is equivalent  to a cutoff of  12.92, 12.92, 13.17 a.u.

 SYSTEM =  unknown system                          
 POSCAR =  Cu  H                                   

 Startparameter for this run:
   NWRITE =      2    write-flag & timer
   PREC   = normal    normal or accurate (medium, high low for compatibility)
   ISTART =      0    job   : 0-new  1-cont  2-samecut
   ICHARG =      2    charge: 1-file 2-atom 10-const
   ISPIN  =      1    spin polarized calculation?
   LNONCOLLINEAR =      F non collinear calculations
   LSORBIT =      F    spin-orbit coupling
   INIWAV =      1    electr: 0-lowe 1-rand  2-diag
   LASPH  =      F    aspherical Exc in radial PAW
   METAGGA=      F    non-selfconsistent MetaGGA calc.

 Electronic Relaxation 1
   ENCUT  =  250.0 eV  18.37 Ry    4.29 a.u.   3.32  3.32 39.07*2*pi/ulx,y,z
   ENINI  =  250.0     initial cutoff
   ENAUG  =  516.5 eV  augmentation charge cutoff
   NELM   =     60;   NELMIN=  4; NELMDL= -5     # of ELM steps 
   EDIFF  = 0.1E-05   stopping-criterion for ELM
   LREAL  =      T    real-space projection
   NLSPLINE    = F    spline interpolate recip. space projectors
   LCOMPAT=      F    compatible to vasp.4.4
   GGA_COMPAT  = T    GGA compatible to vasp.4.4-vasp.4.6
   LMAXPAW     = -100 max onsite density
   LMAXMIX     =    2 max onsite mixed and CHGCAR
   VOSKOWN=      0    Vosko Wilk Nusair interpolation
   ROPT   =   -0.00050  -0.00050
 Ionic relaxation
   EDIFFG = 0.1E-04   stopping-criterion for IOM
   NSW    =      0    number of steps for IOM
   NBLOCK =      1;   KBLOCK =      1    inner block; outer block 
   IBRION =     -1    ionic relax: 0-MD 1-quasi-New 2-CG
   NFREE  =      0    steps in history (QN), initial steepest desc. (CG)
   ISIF   =      2    stress and relaxation
   IWAVPR =     10    prediction:  0-non 1-charg 2-wave 3-comb
   ISYM   =      2    0-nonsym 1-usesym 2-fastsym
   LCORR  =      T    Harris-Foulkes like correction to forces

   POTIM  = 0.5000    time-step for ionic-motion
   TEIN   =    0.0    initial temperature
   TEBEG  =    0.0;   TEEND  =   0.0 temperature during run
   SMASS  =  -3.00    Nose mass-parameter (am)
   estimated Nose-frequenzy (Omega)   =  0.10E-29 period in steps =****** mass=  -0.151E-27a.u.
   SCALEE = 1.0000    scale energy and forces
   NPACO  =    256;   APACO  = 16.0  distance and # of slots for P.C.
   PSTRESS=    0.0 pullay stress

  Mass of Ions in am
   POMASS =  63.55  1.00
  Ionic Valenz
   ZVAL   =  11.00  1.00
  Atomic Wigner-Seitz radii
   RWIGS  =  -1.00 -1.00
  virtual crystal weights 
   VCA    =   1.00  1.00
   NELECT =      45.0000    total number of electrons
   NUPDOWN=      -1.0000    fix difference up-down

 DOS related values:
   EMIN   = -17.00;   EMAX   =  7.00  energy-range for DOS
   EFERMI =   0.00
   ISMEAR =     0;   SIGMA  =   0.10  broadening in eV -4-tet -1-fermi 0-gaus

 Electronic relaxation 2 (details)
   IALGO  =     68    algorithm
   LDIAG  =      T    sub-space diagonalisation (order eigenvalues)
   LSUBROT=      F    optimize rotation matrix (better conditioning)
   TURBO    =      0    0=normal 1=particle mesh
   IRESTART =      0    0=no restart 2=restart with 2 vectors
   NREBOOT  =      0    no. of reboots
   NMIN     =      0    reboot dimension
   EREF     =   0.00    reference energy to select bands
   IMIX   =      4    mixing-type and parameters
     AMIX     =   0.40;   BMIX     =  1.00
     AMIX_MAG =   1.60;   BMIX_MAG =  1.00
     AMIN     =   0.10
     WC   =   100.;   INIMIX=   1;  MIXPRE=   1;  MAXMIX= -45

 Intra band minimization:
   WEIMIN = 0.0000     energy-eigenvalue tresh-hold
   EBREAK =  0.89E-08  absolut break condition
   DEPER  =   0.30     relativ break condition  

   TIME   =   0.40     timestep for ELM

  volume/ion in A,a.u.               =      34.77       234.66
  Fermi-wavevector in a.u.,A,eV,Ry     =   1.043297  1.971546 14.809520  1.088469
  Thomas-Fermi vector in A             =   2.178000
 
 Write flags
   LWAVE        =      F    write WAVECAR
   LDOWNSAMPLE  =      F    k-point downsampling of WAVECAR
   LCHARG       =      T    write CHGCAR
   LVTOT        =      F    write LOCPOT, total local potential
   LVHAR        =      F    write LOCPOT, Hartree potential only
   LELF         =      T    write electronic localiz. function (ELF)
   LORBIT       =     11    0 simple, 1 ext, 2 COOP (PROOUT), +10 PAW based schemes


 Dipole corrections
   LMONO  =      F    monopole corrections only (constant potential shift)
   LDIPOL =      F    correct potential (dipole corrections)
   IDIPOL =      0    1-x, 2-y, 3-z, 4-all directions 
   EPSILON=  1.0000000 bulk dielectric constant

 Exchange correlation treatment:
   GGA     =    --    GGA type
   LEXCH   =     8    internal setting for exchange type
   VOSKOWN=      0    Vosko Wilk Nusair interpolation
   LHFCALC =     F    Hartree Fock is set to
   LHFONE  =     F    Hartree Fock one center treatment
   AEXX    =    0.0000 exact exchange contribution

 Linear response parameters
   LEPSILON=     F    determine dielectric tensor
   LRPA    =     F    only Hartree local field effects (RPA)
   LNABLA  =     F    use nabla operator in PAW spheres
   LVEL    =     F    velocity operator in full k-point grid
   LINTERFAST=   F  fast interpolation
   KINTER  =     0    interpolate to denser k-point grid
   CSHIFT  =0.1000    complex shift for real part using Kramers Kronig
   OMEGAMAX=  -1.0    maximum frequency
   DEG_THRESHOLD= 0.2000000E-02 threshold for treating states as degnerate
   RTIME   =   -0.100 relaxation time in fs
  (WPLASMAI=    0.000 imaginary part of plasma frequency in eV, 0.658/RTIME)
   DFIELD  = 0.0000000 0.0000000 0.0000000 field for delta impulse in time
 
 Orbital magnetization related:
   ORBITALMAG=     F  switch on orbital magnetization
   LCHIMAG   =     F  perturbation theory with respect to B field
   DQ        =  0.001000  dq finite difference perturbation B field
   LLRAUG    =     F  two centre corrections for induced B field



--------------------------------------------------------------------------------------------------------


 Static calculation
 charge density and potential will be updated during run
 non-spin polarized calculation
 RMM-DIIS sequential band-by-band and
  variant of blocked Davidson during initial phase
 perform sub-space diagonalisation
    before iterative eigenvector-optimisation
 modified Broyden-mixing scheme, WC =      100.0
 initial mixing is a Kerker type mixing with AMIX =  0.4000 and BMIX =      1.0000
 Hartree-type preconditioning will be used
 using additional bands            5
 real space projection scheme for non local part
 use partial core corrections
 calculate Harris-corrections to forces 
   (improved forces if not selfconsistent)
 use gradient corrections 
 use of overlap-Matrix (Vanderbilt PP)
 Gauss-broadening in eV      SIGMA  =   0.10


--------------------------------------------------------------------------------------------------------


  energy-cutoff  :      250.00
  volume of cell :      173.87
      direct lattice vectors                 reciprocal lattice vectors
     2.573868684  0.000000000  0.000000000     0.388520209 -0.224312248  0.000000000
     1.286934342  2.229035666  0.000000000     0.000000000  0.448624495  0.000000000
     0.000000000  0.000000000 30.304664940     0.000000000  0.000000000  0.032998220

  length of vectors
     2.573868684  2.573868684 30.304664940     0.448624495  0.448624495  0.032998220


 
 k-points in units of 2pi/SCALE and weight: k-density: 4.0                          
   0.00000000  0.00000000  0.00000000       0.010
   0.03885202 -0.02243122  0.00000000       0.020
   0.07770404 -0.04486245  0.00000000       0.020
   0.11655606 -0.06729367  0.00000000       0.020
   0.15540808 -0.08972490  0.00000000       0.020
   0.19426010 -0.11215612  0.00000000       0.010
   0.00000000  0.04486245  0.00000000       0.020
   0.03885202  0.02243122  0.00000000       0.020
   0.07770404 -0.00000000  0.00000000       0.020
   0.11655606 -0.02243122  0.00000000       0.020
   0.15540808 -0.04486245  0.00000000       0.020
   0.19426010 -0.06729367  0.00000000       0.020
  -0.15540808  0.13458735  0.00000000       0.020
  -0.11655606  0.11215612  0.00000000       0.020
  -0.07770404  0.08972490  0.00000000       0.020
  -0.03885202  0.06729367  0.00000000       0.020
   0.00000000  0.08972490  0.00000000       0.020
   0.03885202  0.06729367  0.00000000       0.020
   0.07770404  0.04486245  0.00000000       0.020
   0.11655606  0.02243122  0.00000000       0.020
   0.15540808  0.00000000  0.00000000       0.020
   0.19426010 -0.02243122  0.00000000       0.020
  -0.15540808  0.17944980  0.00000000       0.020
  -0.11655606  0.15701857  0.00000000       0.020
  -0.07770404  0.13458735  0.00000000       0.020
  -0.03885202  0.11215612  0.00000000       0.020
   0.00000000  0.13458735  0.00000000       0.020
   0.03885202  0.11215612  0.00000000       0.020
   0.07770404  0.08972490  0.00000000       0.020
   0.11655606  0.06729367  0.00000000       0.020
   0.15540808  0.04486245  0.00000000       0.020
   0.19426010  0.02243122  0.00000000       0.020
  -0.15540808  0.22431225  0.00000000       0.020
  -0.11655606  0.20188102  0.00000000       0.020
  -0.07770404  0.17944980  0.00000000       0.020
  -0.03885202  0.15701857  0.00000000       0.020
   0.00000000  0.17944980  0.00000000       0.020
   0.03885202  0.15701857  0.00000000       0.020
   0.07770404  0.13458735  0.00000000       0.020
   0.11655606  0.11215612  0.00000000       0.020
   0.15540808  0.08972490  0.00000000       0.020
   0.19426010  0.06729367  0.00000000       0.020
  -0.15540808  0.26917470  0.00000000       0.020
  -0.11655606  0.24674347  0.00000000       0.020
  -0.07770404  0.22431225  0.00000000       0.020
  -0.03885202  0.20188102  0.00000000       0.020
   0.00000000  0.22431225  0.00000000       0.010
   0.03885202  0.20188102  0.00000000       0.020
   0.07770404  0.17944980  0.00000000       0.020
   0.11655606  0.15701857  0.00000000       0.020
   0.15540808  0.13458735  0.00000000       0.020
   0.19426010  0.11215612  0.00000000       0.010
 
 k-points in reciprocal lattice and weights: k-density: 4.0                          
   0.00000000  0.00000000  0.00000000       0.010
   0.10000000  0.00000000  0.00000000       0.020
   0.20000000 -0.00000000  0.00000000       0.020
   0.30000000 -0.00000000  0.00000000       0.020
   0.40000000 -0.00000000  0.00000000       0.020
   0.50000000 -0.00000000  0.00000000       0.010
   0.00000000  0.10000000  0.00000000       0.020
   0.10000000  0.10000000  0.00000000       0.020
   0.20000000  0.10000000  0.00000000       0.020
   0.30000000  0.10000000  0.00000000       0.020
   0.40000000  0.10000000  0.00000000       0.020
   0.50000000  0.10000000  0.00000000       0.020
  -0.40000000  0.10000000  0.00000000       0.020
  -0.30000000  0.10000000  0.00000000       0.020
  -0.20000000  0.10000000  0.00000000       0.020
  -0.10000000  0.10000000  0.00000000       0.020
   0.00000000  0.20000000  0.00000000       0.020
   0.10000000  0.20000000  0.00000000       0.020
   0.20000000  0.20000000  0.00000000       0.020
   0.30000000  0.20000000  0.00000000       0.020
   0.40000000  0.20000000  0.00000000       0.020
   0.50000000  0.20000000  0.00000000       0.020
  -0.40000000  0.20000000  0.00000000       0.020
  -0.30000000  0.20000000  0.00000000       0.020
  -0.20000000  0.20000000  0.00000000       0.020
  -0.10000000  0.20000000  0.00000000       0.020
   0.00000000  0.30000000  0.00000000       0.020
   0.10000000  0.30000000  0.00000000       0.020
   0.20000000  0.30000000  0.00000000       0.020
   0.30000000  0.30000000  0.00000000       0.020
   0.40000000  0.30000000  0.00000000       0.020
   0.50000000  0.30000000  0.00000000       0.020
  -0.40000000  0.30000000  0.00000000       0.020
  -0.30000000  0.30000000  0.00000000       0.020
  -0.20000000  0.30000000  0.00000000       0.020
  -0.10000000  0.30000000  0.00000000       0.020
   0.00000000  0.40000000  0.00000000       0.020
   0.10000000  0.40000000  0.00000000       0.020
   0.20000000  0.40000000  0.00000000       0.020
   0.30000000  0.40000000  0.00000000       0.020
   0.40000000  0.40000000  0.00000000       0.020
   0.50000000  0.40000000  0.00000000       0.020
  -0.40000000  0.40000000  0.00000000       0.020
  -0.30000000  0.40000000  0.00000000       0.020
  -0.20000000  0.40000000  0.00000000       0.020
  -0.10000000  0.40000000  0.00000000       0.020
   0.00000000  0.50000000  0.00000000       0.010
   0.10000000  0.50000000  0.00000000       0.020
   0.20000000  0.50000000  0.00000000       0.020
   0.30000000  0.50000000  0.00000000       0.020
   0.40000000  0.50000000  0.00000000       0.020
   0.50000000  0.50000000  0.00000000       0.010
 
 position of ions in fractional coordinates (direct lattice) 
   0.00000000  0.00000000  0.39597864
   0.33333333  0.33333333  0.46532621
   0.66666666  0.66666667  0.53467379
   0.00000000  0.00000000  0.60402136
   0.96114798  0.00000000  0.66341816
 
 position of ions in cartesian coordinates  (Angst):
   0.00000000  0.00000000 12.00000000
   1.28693434  0.74301189 14.10155498
   2.57386868  1.48602378 16.20310996
   0.00000000  0.00000000 18.30466494
   2.47386868  0.00000000 20.10466494
 


--------------------------------------------------------------------------------------------------------


 k-point  1 :   0.0000 0.0000 0.0000  plane waves:    1609
 k-point  2 :   0.1000 0.0000 0.0000  plane waves:    1589
 k-point  3 :   0.2000-0.0000 0.0000  plane waves:    1586
 k-point  4 :   0.3000-0.0000 0.0000  plane waves:    1542
 k-point  5 :   0.4000-0.0000 0.0000  plane waves:    1568
 k-point  6 :   0.5000-0.0000 0.0000  plane waves:    1570
 k-point  7 :   0.0000 0.1000 0.0000  plane waves:    1589
 k-point  8 :   0.1000 0.1000 0.0000  plane waves:    1589
 k-point  9 :   0.2000 0.1000 0.0000  plane waves:    1579
 k-point 10 :   0.3000 0.1000 0.0000  plane waves:    1569
 k-point 11 :   0.4000 0.1000 0.0000  plane waves:    1552
 k-point 12 :   0.5000 0.1000 0.0000  plane waves:    1549
 k-point 13 :  -0.4000 0.1000 0.0000  plane waves:    1549
 k-point 14 :  -0.3000 0.1000 0.0000  plane waves:    1552
 k-point 15 :  -0.2000 0.1000 0.0000  plane waves:    1569
 k-point 16 :  -0.1000 0.1000 0.0000  plane waves:    1579
 k-point 17 :   0.0000 0.2000 0.0000  plane waves:    1586
 k-point 18 :   0.1000 0.2000 0.0000  plane waves:    1579
 k-point 19 :   0.2000 0.2000 0.0000  plane waves:    1586
 k-point 20 :   0.3000 0.2000 0.0000  plane waves:    1569
 k-point 21 :   0.4000 0.2000 0.0000  plane waves:    1545
 k-point 22 :   0.5000 0.2000 0.0000  plane waves:    1549
 k-point 23 :  -0.4000 0.2000 0.0000  plane waves:    1546
 k-point 24 :  -0.3000 0.2000 0.0000  plane waves:    1549
 k-point 25 :  -0.2000 0.2000 0.0000  plane waves:    1545
 k-point 26 :  -0.1000 0.2000 0.0000  plane waves:    1569
 k-point 27 :   0.0000 0.3000 0.0000  plane waves:    1542
 k-point 28 :   0.1000 0.3000 0.0000  plane waves:    1569
 k-point 29 :   0.2000 0.3000 0.0000  plane waves:    1569
 k-point 30 :   0.3000 0.3000 0.0000  plane waves:    1542
 k-point 31 :   0.4000 0.3000 0.0000  plane waves:    1552
 k-point 32 :   0.5000 0.3000 0.0000  plane waves:    1549
 k-point 33 :  -0.4000 0.3000 0.0000  plane waves:    1547
 k-point 34 :  -0.3000 0.3000 0.0000  plane waves:    1547
 k-point 35 :  -0.2000 0.3000 0.0000  plane waves:    1549
 k-point 36 :  -0.1000 0.3000 0.0000  plane waves:    1552
 k-point 37 :   0.0000 0.4000 0.0000  plane waves:    1568
 k-point 38 :   0.1000 0.4000 0.0000  plane waves:    1552
 k-point 39 :   0.2000 0.4000 0.0000  plane waves:    1545
 k-point 40 :   0.3000 0.4000 0.0000  plane waves:    1552
 k-point 41 :   0.4000 0.4000 0.0000  plane waves:    1568
 k-point 42 :   0.5000 0.4000 0.0000  plane waves:    1549
 k-point 43 :  -0.4000 0.4000 0.0000  plane waves:    1546
 k-point 44 :  -0.3000 0.4000 0.0000  plane waves:    1547
 k-point 45 :  -0.2000 0.4000 0.0000  plane waves:    1546
 k-point 46 :  -0.1000 0.4000 0.0000  plane waves:    1549
 k-point 47 :   0.0000 0.5000 0.0000  plane waves:    1570
 k-point 48 :   0.1000 0.5000 0.0000  plane waves:    1549
 k-point 49 :   0.2000 0.5000 0.0000  plane waves:    1549
 k-point 50 :   0.3000 0.5000 0.0000  plane waves:    1549
 k-point 51 :   0.4000 0.5000 0.0000  plane waves:    1549
 k-point 52 :   0.5000 0.5000 0.0000  plane waves:    1570

 maximum and minimum number of plane-waves per node :       808      766

 maximum number of plane-waves:      1609
 maximum index in each direction: 
   IXMAX=    3   IYMAX=    3   IZMAX=   39
   IXMIN=   -3   IYMIN=   -3   IZMIN=  -39


 real space projection operators:
  total allocation   :        839.98 KBytes
  max/ min on nodes  :        423.05        416.94


 parallel 3D FFT for wavefunctions:
    minimum data exchange during FFTs selected (reduces bandwidth)
 parallel 3D FFT for charge:
    minimum data exchange during FFTs selected (reduces bandwidth)


 total amount of memory used by VASP MPI-rank0    43139. kBytes
=======================================================================

   base      :      30000. kBytes
   nonlr-proj:        676. kBytes
   fftplans  :        995. kBytes
   grid      :       1592. kBytes
   one-center:         46. kBytes
   wavefun   :       9830. kBytes
 
     INWAV:  cpu time    0.0000: real time    0.0000
 Broyden mixing: mesh for mixing (old mesh)
   NGX =  7   NGY =  7   NGZ = 79
  (NGX  = 20   NGY  = 20   NGZ  =240)
  gives a total of   3871 points

 initial charge density was supplied:
 charge density of overlapping atoms calculated
 number of electron      45.0000000 magnetization 
 keeping initial charge density in first step


--------------------------------------------------------------------------------------------------------


 Maximum index for non-local projection operator          894
 Maximum index for augmentation-charges          593 (set IRDMAX)


--------------------------------------------------------------------------------------------------------


 First call to EWALD:  gamma=   0.318
 Maximum number of real-space cells 6x 6x 1
 Maximum number of reciprocal cells 2x 2x13

    FEWALD:  cpu time    0.0020: real time    0.0015


--------------------------------------- Iteration      1(   1)  ---------------------------------------


    POTLOK:  cpu time    0.0150: real time    0.0393
    SETDIJ:  cpu time    0.0030: real time    0.0037
     EDDAV:  cpu time    0.9369: real time    0.9419
       DOS:  cpu time    0.0090: real time    0.0085
    --------------------------------------------
      LOOP:  cpu time    0.9639: real time    0.9935

 eigenvalue-minimisations  :  3004
 total energy-change (2. order) : 0.1951357E+03  (-0.1379954E+04)
 number of electron      45.0000000 magnetization 
 augmentation part       45.0000000 magnetization 

 Free energy of the ion-electron system (eV)
  ---------------------------------------------------
  alpha Z        PSCENC =       120.87645803
  Ewald energy   TEWEN  =     37628.60338044
  -Hartree energ DENC   =    -42755.46996835
  -exchange      EXHF   =         0.00000000
  -V(xc)+E(xc)   XCENC  =       176.86186467
  PAW double counting   =      4328.99049516    -4905.09836044
  entropy T*S    EENTRO =        -0.01110372
  eigenvalues    EBANDS =        24.43330986
  atomic energy  EATOM  =      5575.94961827
  Solvation  Ediel_sol  =         0.00000000
  ---------------------------------------------------
  free energy    TOTEN  =       195.13569392 eV

  energy without entropy =      195.14679764  energy(sigma->0) =      195.14124578


--------------------------------------------------------------------------------------------------------




--------------------------------------- Iteration      1(   2)  ---------------------------------------


     EDDAV:  cpu time    0.9509: real time    0.9546
       DOS:  cpu time    0.0090: real time    0.0092
    --------------------------------------------
      LOOP:  cpu time    0.9599: real time    0.9638

 eigenvalue-minimisations  :  3060
 total energy-change (2. order) :-0.2051281E+03  (-0.1989944E+03)
 number of electron      45.0000000 magnetization 
 augmentation part       45.0000000 magnetization 

 Free energy of the ion-electron system (eV)
  ---------------------------------------------------
  alpha Z        PSCENC =       120.87645803
  Ewald energy   TEWEN  =     37628.60338044
  -Hartree energ DENC   =    -42755.46996835
  -exchange      EXHF   =         0.00000000
  -V(xc)+E(xc)   XCENC  =       176.86186467
  PAW double counting   =      4328.99049516    -4905.09836044
  entropy T*S    EENTRO =        -0.02141158
  eigenvalues    EBANDS =      -180.68447679
  atomic energy  EATOM  =      5575.94961827
  Solvation  Ediel_sol  =         0.00000000
  ---------------------------------------------------
  free energy    TOTEN  =        -9.99240059 eV

  energy without entropy =       -9.97098901  energy(sigma->0) =       -9.98169480


--------------------------------------------------------------------------------------------------------




--------------------------------------- Iteration      1(   3)  ---------------------------------------


     EDDAV:  cpu time    0.9709: real time    0.9710
       DOS:  cpu time    0.0090: real time    0.0089
    --------------------------------------------
      LOOP:  cpu time    0.9799: real time    0.9799

 eigenvalue-minimisations  :  3188
 total energy-change (2. order) :-0.1012665E+02  (-0.9863157E+01)
 number of electron      45.0000000 magnetization 
 augmentation part       45.0000000 magnetization 

 Free energy of the ion-electron system (eV)
  ---------------------------------------------------
  alpha Z        PSCENC =       120.87645803
  Ewald energy   TEWEN  =     37628.60338044
  -Hartree energ DENC   =    -42755.46996835
  -exchange      EXHF   =         0.00000000
  -V(xc)+E(xc)   XCENC  =       176.86186467
  PAW double counting   =      4328.99049516    -4905.09836044
  entropy T*S    EENTRO =        -0.02071723
  eigenvalues    EBANDS =      -190.81181893
  atomic energy  EATOM  =      5575.94961827
  Solvation  Ediel_sol  =         0.00000000
  ---------------------------------------------------
  free energy    TOTEN  =       -20.11904838 eV

  energy without entropy =      -20.09833115  energy(sigma->0) =      -20.10868977


--------------------------------------------------------------------------------------------------------




--------------------------------------- Iteration      1(   4)  ---------------------------------------


     EDDAV:  cpu time    0.9819: real time    0.9849
       DOS:  cpu time    0.0080: real time    0.0091
    --------------------------------------------
      LOOP:  cpu time    0.9898: real time    0.9940

 eigenvalue-minimisations  :  3260
 total energy-change (2. order) :-0.1299229E+00  (-0.1293749E+00)
 number of electron      45.0000000 magnetization 
 augmentation part       45.0000000 magnetization 

 Free energy of the ion-electron system (eV)
  ---------------------------------------------------
  alpha Z        PSCENC =       120.87645803
  Ewald energy   TEWEN  =     37628.60338044
  -Hartree energ DENC   =    -42755.46996835
  -exchange      EXHF   =         0.00000000
  -V(xc)+E(xc)   XCENC  =       176.86186467
  PAW double counting   =      4328.99049516    -4905.09836044
  entropy T*S    EENTRO =        -0.02019777
  eigenvalues    EBANDS =      -190.94226131
  atomic energy  EATOM  =      5575.94961827
  Solvation  Ediel_sol  =         0.00000000
  ---------------------------------------------------
  free energy    TOTEN  =       -20.24897130 eV

  energy without entropy =      -20.22877353  energy(sigma->0) =      -20.23887241


--------------------------------------------------------------------------------------------------------




--------------------------------------- Iteration      1(   5)  ---------------------------------------


     EDDAV:  cpu time    1.0398: real time    1.0395
       DOS:  cpu time    0.0090: real time    0.0092
    CHARGE:  cpu time    0.0540: real time    0.0535
    MIXING:  cpu time    0.0010: real time    0.0008
    --------------------------------------------
      LOOP:  cpu time    1.1038: real time    1.1030

 eigenvalue-minimisations  :  3420
 total energy-change (2. order) :-0.1151413E-02  (-0.1151372E-02)
 number of electron      45.0000021 magnetization 
 augmentation part       26.4836742 magnetization 

 Broyden mixing:
  rms(total) = 0.15644E+01    rms(broyden)= 0.15636E+01
  rms(prec ) = 0.16352E+01
  weight for this iteration     100.00

 Free energy of the ion-electron system (eV)
  ---------------------------------------------------
  alpha Z        PSCENC =       120.87645803
  Ewald energy   TEWEN  =     37628.60338044
  -Hartree energ DENC   =    -42755.46996835
  -exchange      EXHF   =         0.00000000
  -V(xc)+E(xc)   XCENC  =       176.86186467
  PAW double counting   =      4328.99049516    -4905.09836044
  entropy T*S    EENTRO =        -0.02019456
  eigenvalues    EBANDS =      -190.94341593
  atomic energy  EATOM  =      5575.94961827
  Solvation  Ediel_sol  =         0.00000000
  ---------------------------------------------------
  free energy    TOTEN  =       -20.25012271 eV

  energy without entropy =      -20.22992815  energy(sigma->0) =      -20.24002543


--------------------------------------------------------------------------------------------------------




--------------------------------------- Iteration      1(   6)  ---------------------------------------


    POTLOK:  cpu time    0.0100: real time    0.0143
    SETDIJ:  cpu time    0.0040: real time    0.0032
    EDDIAG:  cpu time    0.1880: real time    0.1889
  RMM-DIIS:  cpu time    0.5919: real time    0.5914
    ORTHCH:  cpu time    0.0240: real time    0.0243
       DOS:  cpu time    0.0090: real time    0.0093
    CHARGE:  cpu time    0.0520: real time    0.0522
    MIXING:  cpu time    0.0010: real time    0.0007
    --------------------------------------------
      LOOP:  cpu time    0.8799: real time    0.8842

 eigenvalue-minimisations  :  3239
 total energy-change (2. order) :-0.1807379E+00  (-0.5094078E+01)
 number of electron      45.0000032 magnetization 
 augmentation part       30.3455518 magnetization 

 Broyden mixing:
  rms(total) = 0.10337E+01    rms(broyden)= 0.10331E+01
  rms(prec ) = 0.12200E+01
  weight for this iteration     100.00

 eigenvalues of (default mixing * dielectric matrix)
  average eigenvalue GAMMA=   0.6086
  0.6086

 Free energy of the ion-electron system (eV)
  ---------------------------------------------------
  alpha Z        PSCENC =       120.87645803
  Ewald energy   TEWEN  =     37628.60338044
  -Hartree energ DENC   =    -42595.97722370
  -exchange      EXHF   =         0.00000000
  -V(xc)+E(xc)   XCENC  =       171.37863587
  PAW double counting   =      4185.69311569    -4723.27775670
  entropy T*S    EENTRO =        -0.01308001
  eigenvalues    EBANDS =      -383.66400851
  atomic energy  EATOM  =      5575.94961827
  Solvation  Ediel_sol  =         0.00000000
  ---------------------------------------------------
  free energy    TOTEN  =       -20.43086063 eV

  energy without entropy =      -20.41778063  energy(sigma->0) =      -20.42432063


--------------------------------------------------------------------------------------------------------




--------------------------------------- Iteration      1(   7)  ---------------------------------------


    POTLOK:  cpu time    0.0110: real time    0.0111
    SETDIJ:  cpu time    0.0030: real time    0.0032
    EDDIAG:  cpu time    0.1890: real time    0.1890
  RMM-DIIS:  cpu time    0.5829: real time    0.5821
    ORTHCH:  cpu time    0.0230: real time    0.0238
       DOS:  cpu time    0.0090: real time    0.0092
    CHARGE:  cpu time    0.0520: real time    0.0514
    MIXING:  cpu time    0.0000: real time    0.0005
    --------------------------------------------
      LOOP:  cpu time    0.8699: real time    0.8703

 eigenvalue-minimisations  :  3223
 total energy-change (2. order) : 0.2857663E+01  (-0.1001561E+01)
 number of electron      45.0000021 magnetization 
 augmentation part       28.5557142 magnetization 

 Broyden mixing:
  rms(total) = 0.61023E+00    rms(broyden)= 0.60948E+00
  rms(prec ) = 0.99996E+00
  weight for this iteration     100.00

 eigenvalues of (default mixing * dielectric matrix)
  average eigenvalue GAMMA=   0.3978
  0.6312  0.1644

 Free energy of the ion-electron system (eV)
  ---------------------------------------------------
  alpha Z        PSCENC =       120.87645803
  Ewald energy   TEWEN  =     37628.60338044
  -Hartree energ DENC   =    -42687.43815652
  -exchange      EXHF   =         0.00000000
  -V(xc)+E(xc)   XCENC  =       173.14468598
  PAW double counting   =      4297.23981615    -4861.07332358
  entropy T*S    EENTRO =        -0.02130652
  eigenvalues    EBANDS =      -264.85436967
  atomic energy  EATOM  =      5575.94961827
  Solvation  Ediel_sol  =         0.00000000
  ---------------------------------------------------
  free energy    TOTEN  =       -17.57319743 eV

  energy without entropy =      -17.55189091  energy(sigma->0) =      -17.56254417


--------------------------------------------------------------------------------------------------------




--------------------------------------- Iteration      1(   8)  ---------------------------------------


    POTLOK:  cpu time    0.0110: real time    0.0136
    SETDIJ:  cpu time    0.0040: real time    0.0032
    EDDIAG:  cpu time    0.1890: real time    0.1895
  RMM-DIIS:  cpu time    0.5789: real time    0.5787
    ORTHCH:  cpu time    0.0240: real time    0.0235
       DOS:  cpu time    0.0090: real time    0.0090
    CHARGE:  cpu time    0.0510: real time    0.0511
    MIXING:  cpu time    0.0000: real time    0.0005
    --------------------------------------------
      LOOP:  cpu time    0.8669: real time    0.8692

 eigenvalue-minimisations  :  3193
 total energy-change (2. order) : 0.1372808E+01  (-0.6020638E-01)
 number of electron      45.0000027 magnetization 
 augmentation part       28.7937551 magnetization 

 Broyden mixing:
  rms(total) = 0.23657E+00    rms(broyden)= 0.23513E+00
  rms(prec ) = 0.26190E+00
  weight for this iteration     100.00

 eigenvalues of (default mixing * dielectric matrix)
  average eigenvalue GAMMA=   0.5010
  0.8234  0.5096  0.1701

 Free energy of the ion-electron system (eV)
  ---------------------------------------------------
  alpha Z        PSCENC =       120.87645803
  Ewald energy   TEWEN  =     37628.60338044
  -Hartree energ DENC   =    -42683.55959303
  -exchange      EXHF   =         0.00000000
  -V(xc)+E(xc)   XCENC  =       173.13368325
  PAW double counting   =      4304.29355907    -4870.07100168
  entropy T*S    EENTRO =        -0.01389174
  eigenvalues    EBANDS =      -265.41260218
  atomic energy  EATOM  =      5575.94961827
  Solvation  Ediel_sol  =         0.00000000
  ---------------------------------------------------
  free energy    TOTEN  =       -16.20038956 eV

  energy without entropy =      -16.18649782  energy(sigma->0) =      -16.19344369


--------------------------------------------------------------------------------------------------------




--------------------------------------- Iteration      1(   9)  ---------------------------------------


    POTLOK:  cpu time    0.0110: real time    0.0109
    SETDIJ:  cpu time    0.0030: real time    0.0031
    EDDIAG:  cpu time    0.1870: real time    0.1876
  RMM-DIIS:  cpu time    0.5669: real time    0.5658
    ORTHCH:  cpu time    0.0230: real time    0.0239
       DOS:  cpu time    0.0090: real time    0.0091
    CHARGE:  cpu time    0.0510: real time    0.0510
    MIXING:  cpu time    0.0010: real time    0.0006
    --------------------------------------------
      LOOP:  cpu time    0.8519: real time    0.8519

 eigenvalue-minimisations  :  3142
 total energy-change (2. order) : 0.1027511E+00  (-0.1710307E-01)
 number of electron      45.0000027 magnetization 
 augmentation part       28.7938375 magnetization 

 Broyden mixing:
  rms(total) = 0.11191E+00    rms(broyden)= 0.11181E+00
  rms(prec ) = 0.15046E+00
  weight for this iteration     100.00

 eigenvalues of (default mixing * dielectric matrix)
  average eigenvalue GAMMA=   0.6020
  1.2154  0.1995  0.5549  0.4380

 Free energy of the ion-electron system (eV)
  ---------------------------------------------------
  alpha Z        PSCENC =       120.87645803
  Ewald energy   TEWEN  =     37628.60338044
  -Hartree energ DENC   =    -42680.55391697
  -exchange      EXHF   =         0.00000000
  -V(xc)+E(xc)   XCENC  =       173.08386659
  PAW double counting   =      4322.13977519    -4891.01725121
  entropy T*S    EENTRO =        -0.01222187
  eigenvalues    EBANDS =      -265.16734692
  atomic energy  EATOM  =      5575.94961827
  Solvation  Ediel_sol  =         0.00000000
  ---------------------------------------------------
  free energy    TOTEN  =       -16.09763845 eV

  energy without entropy =      -16.08541658  energy(sigma->0) =      -16.09152752


--------------------------------------------------------------------------------------------------------




--------------------------------------- Iteration      1(  10)  ---------------------------------------


    POTLOK:  cpu time    0.0110: real time    0.0135
    SETDIJ:  cpu time    0.0030: real time    0.0031
    EDDIAG:  cpu time    0.1890: real time    0.1895
  RMM-DIIS:  cpu time    0.5739: real time    0.5728
    ORTHCH:  cpu time    0.0230: real time    0.0237
       DOS:  cpu time    0.0090: real time    0.0090
    CHARGE:  cpu time    0.0510: real time    0.0510
    MIXING:  cpu time    0.0010: real time    0.0011
    --------------------------------------------
      LOOP:  cpu time    0.8609: real time    0.8637

 eigenvalue-minimisations  :  3194
 total energy-change (2. order) : 0.1384837E-01  (-0.4824219E-02)
 number of electron      45.0000027 magnetization 
 augmentation part       28.7303820 magnetization 

 Broyden mixing:
  rms(total) = 0.11140E+00    rms(broyden)= 0.11129E+00
  rms(prec ) = 0.12909E+00
  weight for this iteration     100.00

 eigenvalues of (default mixing * dielectric matrix)
  average eigenvalue GAMMA=   0.7090
  1.9082  0.5838  0.5838  0.1983  0.2712

 Free energy of the ion-electron system (eV)
  ---------------------------------------------------
  alpha Z        PSCENC =       120.87645803
  Ewald energy   TEWEN  =     37628.60338044
  -Hartree energ DENC   =    -42685.89356291
  -exchange      EXHF   =         0.00000000
  -V(xc)+E(xc)   XCENC  =       172.97150818
  PAW double counting   =      4345.30888411    -4917.48589314
  entropy T*S    EENTRO =        -0.01487361
  eigenvalues    EBANDS =      -256.39930945
  atomic energy  EATOM  =      5575.94961827
  Solvation  Ediel_sol  =         0.00000000
  ---------------------------------------------------
  free energy    TOTEN  =       -16.08379008 eV

  energy without entropy =      -16.06891647  energy(sigma->0) =      -16.07635328


--------------------------------------------------------------------------------------------------------




--------------------------------------- Iteration      1(  11)  ---------------------------------------


    POTLOK:  cpu time    0.0100: real time    0.0109
    SETDIJ:  cpu time    0.0040: real time    0.0031
    EDDIAG:  cpu time    0.1850: real time    0.1874
  RMM-DIIS:  cpu time    0.5539: real time    0.5533
    ORTHCH:  cpu time    0.0240: real time    0.0238
       DOS:  cpu time    0.0090: real time    0.0092
    CHARGE:  cpu time    0.0510: real time    0.0513
    MIXING:  cpu time    0.0010: real time    0.0006
    --------------------------------------------
      LOOP:  cpu time    0.8379: real time    0.8397

 eigenvalue-minimisations  :  3120
 total energy-change (2. order) : 0.2533399E-01  (-0.3011633E-02)
 number of electron      45.0000027 magnetization 
 augmentation part       28.7416772 magnetization 

 Broyden mixing:
  rms(total) = 0.45813E-01    rms(broyden)= 0.45794E-01
  rms(prec ) = 0.53409E-01
  weight for this iteration     100.00

 eigenvalues of (default mixing * dielectric matrix)
  average eigenvalue GAMMA=   0.7320
  2.0186  0.7146  0.7146  0.4880  0.1988  0.2575

 Free energy of the ion-electron system (eV)
  ---------------------------------------------------
  alpha Z        PSCENC =       120.87645803
  Ewald energy   TEWEN  =     37628.60338044
  -Hartree energ DENC   =    -42684.83687124
  -exchange      EXHF   =         0.00000000
  -V(xc)+E(xc)   XCENC  =       172.86889763
  PAW double counting   =      4361.56342976    -4935.85347852
  entropy T*S    EENTRO =        -0.01315968
  eigenvalues    EBANDS =      -255.21673078
  atomic energy  EATOM  =      5575.94961827
  Solvation  Ediel_sol  =         0.00000000
  ---------------------------------------------------
  free energy    TOTEN  =       -16.05845609 eV

  energy without entropy =      -16.04529641  energy(sigma->0) =      -16.05187625


--------------------------------------------------------------------------------------------------------




--------------------------------------- Iteration      1(  12)  ---------------------------------------


    POTLOK:  cpu time    0.0110: real time    0.0127
    SETDIJ:  cpu time    0.0030: real time    0.0031
    EDDIAG:  cpu time    0.1860: real time    0.1863
  RMM-DIIS:  cpu time    0.5589: real time    0.5581
    ORTHCH:  cpu time    0.0230: real time    0.0235
       DOS:  cpu time    0.0080: real time    0.0090
    CHARGE:  cpu time    0.0510: real time    0.0505
    MIXING:  cpu time    0.0010: real time    0.0006
    --------------------------------------------
      LOOP:  cpu time    0.8419: real time    0.8438

 eigenvalue-minimisations  :  3167
 total energy-change (2. order) : 0.3949579E-02  (-0.9108294E-03)
 number of electron      45.0000027 magnetization 
 augmentation part       28.7733172 magnetization 

 Broyden mixing:
  rms(total) = 0.23061E-01    rms(broyden)= 0.23038E-01
  rms(prec ) = 0.25637E-01
  weight for this iteration     100.00

 eigenvalues of (default mixing * dielectric matrix)
  average eigenvalue GAMMA=   0.8148
  2.4099  1.1488  0.7198  0.5458  0.4105  0.1985  0.2705

 Free energy of the ion-electron system (eV)
  ---------------------------------------------------
  alpha Z        PSCENC =       120.87645803
  Ewald energy   TEWEN  =     37628.60338044
  -Hartree energ DENC   =    -42684.32040171
  -exchange      EXHF   =         0.00000000
  -V(xc)+E(xc)   XCENC  =       172.79803083
  PAW double counting   =      4367.87352344    -4942.67789648
  entropy T*S    EENTRO =        -0.01232830
  eigenvalues    EBANDS =      -255.14489103
  atomic energy  EATOM  =      5575.94961827
  Solvation  Ediel_sol  =         0.00000000
  ---------------------------------------------------
  free energy    TOTEN  =       -16.05450651 eV

  energy without entropy =      -16.04217821  energy(sigma->0) =      -16.04834236


--------------------------------------------------------------------------------------------------------




--------------------------------------- Iteration      1(  13)  ---------------------------------------


    POTLOK:  cpu time    0.0110: real time    0.0110
    SETDIJ:  cpu time    0.0030: real time    0.0031
    EDDIAG:  cpu time    0.1850: real time    0.1854
  RMM-DIIS:  cpu time    0.5669: real time    0.5668
    ORTHCH:  cpu time    0.0240: real time    0.0235
       DOS:  cpu time    0.0080: real time    0.0090
    CHARGE:  cpu time    0.0510: real time    0.0504
    MIXING:  cpu time    0.0010: real time    0.0006
    --------------------------------------------
      LOOP:  cpu time    0.8499: real time    0.8499

 eigenvalue-minimisations  :  3180
 total energy-change (2. order) : 0.9233836E-03  (-0.3088275E-03)
 number of electron      45.0000027 magnetization 
 augmentation part       28.7924764 magnetization 

 Broyden mixing:
  rms(total) = 0.18267E-01    rms(broyden)= 0.18256E-01
  rms(prec ) = 0.29807E-01
  weight for this iteration     100.00

 eigenvalues of (default mixing * dielectric matrix)
  average eigenvalue GAMMA=   0.8357
  2.4485  1.1971  0.9848  0.6705  0.5136  0.4062  0.1986  0.2660

 Free energy of the ion-electron system (eV)
  ---------------------------------------------------
  alpha Z        PSCENC =       120.87645803
  Ewald energy   TEWEN  =     37628.60338044
  -Hartree energ DENC   =    -42685.28955274
  -exchange      EXHF   =         0.00000000
  -V(xc)+E(xc)   XCENC  =       172.73303630
  PAW double counting   =      4374.76422072    -4950.14691249
  entropy T*S    EENTRO =        -0.01225151
  eigenvalues    EBANDS =      -253.53158014
  atomic energy  EATOM  =      5575.94961827
  Solvation  Ediel_sol  =         0.00000000
  ---------------------------------------------------
  free energy    TOTEN  =       -16.05358312 eV

  energy without entropy =      -16.04133162  energy(sigma->0) =      -16.04745737


--------------------------------------------------------------------------------------------------------




--------------------------------------- Iteration      1(  14)  ---------------------------------------


    POTLOK:  cpu time    0.0100: real time    0.0117
    SETDIJ:  cpu time    0.0040: real time    0.0031
    EDDIAG:  cpu time    0.1840: real time    0.1851
  RMM-DIIS:  cpu time    0.5779: real time    0.5767
    ORTHCH:  cpu time    0.0230: real time    0.0242
       DOS:  cpu time    0.0090: real time    0.0093
    CHARGE:  cpu time    0.0520: real time    0.0521
    MIXING:  cpu time    0.0020: real time    0.0007
    --------------------------------------------
      LOOP:  cpu time    0.8619: real time    0.8628

 eigenvalue-minimisations  :  3196
 total energy-change (2. order) : 0.9939063E-03  (-0.5869946E-04)
 number of electron      45.0000027 magnetization 
 augmentation part       28.7843527 magnetization 

 Broyden mixing:
  rms(total) = 0.95065E-02    rms(broyden)= 0.94640E-02
  rms(prec ) = 0.12993E-01
  weight for this iteration     100.00

 eigenvalues of (default mixing * dielectric matrix)
  average eigenvalue GAMMA=   0.9112
  2.2268  2.2268  0.8986  0.8986  0.6046  0.1987  0.4882  0.2637  0.3950

 Free energy of the ion-electron system (eV)
  ---------------------------------------------------
  alpha Z        PSCENC =       120.87645803
  Ewald energy   TEWEN  =     37628.60338044
  -Hartree energ DENC   =    -42687.36750156
  -exchange      EXHF   =         0.00000000
  -V(xc)+E(xc)   XCENC  =       172.73260847
  PAW double counting   =      4375.68860693    -4951.12722347
  entropy T*S    EENTRO =        -0.01294828
  eigenvalues    EBANDS =      -251.39558805
  atomic energy  EATOM  =      5575.94961827
  Solvation  Ediel_sol  =         0.00000000
  ---------------------------------------------------
  free energy    TOTEN  =       -16.05258922 eV

  energy without entropy =      -16.03964094  energy(sigma->0) =      -16.04611508


--------------------------------------------------------------------------------------------------------




--------------------------------------- Iteration      1(  15)  ---------------------------------------


    POTLOK:  cpu time    0.0100: real time    0.0110
    SETDIJ:  cpu time    0.0040: real time    0.0032
    EDDIAG:  cpu time    0.1900: real time    0.1906
  RMM-DIIS:  cpu time    0.5669: real time    0.5661
    ORTHCH:  cpu time    0.0230: real time    0.0242
       DOS:  cpu time    0.0090: real time    0.0093
    CHARGE:  cpu time    0.0520: real time    0.0519
    MIXING:  cpu time    0.0020: real time    0.0008
    --------------------------------------------
      LOOP:  cpu time    0.8569: real time    0.8571

 eigenvalue-minimisations  :  3061
 total energy-change (2. order) : 0.1598176E-03  (-0.8867475E-05)
 number of electron      45.0000027 magnetization 
 augmentation part       28.7859712 magnetization 

 Broyden mixing:
  rms(total) = 0.56688E-02    rms(broyden)= 0.56680E-02
  rms(prec ) = 0.88100E-02
  weight for this iteration     100.00

 eigenvalues of (default mixing * dielectric matrix)
  average eigenvalue GAMMA=   0.9968
  2.6358  2.6358  0.9793  0.8634  0.8634  0.6378  0.4922  0.1987  0.2640  0.3978

 Free energy of the ion-electron system (eV)
  ---------------------------------------------------
  alpha Z        PSCENC =       120.87645803
  Ewald energy   TEWEN  =     37628.60338044
  -Hartree energ DENC   =    -42688.76781289
  -exchange      EXHF   =         0.00000000
  -V(xc)+E(xc)   XCENC  =       172.74713622
  PAW double counting   =      4374.98681926    -4950.22137569
  entropy T*S    EENTRO =        -0.01278413
  eigenvalues    EBANDS =      -250.21386891
  atomic energy  EATOM  =      5575.94961827
  Solvation  Ediel_sol  =         0.00000000
  ---------------------------------------------------
  free energy    TOTEN  =       -16.05242940 eV

  energy without entropy =      -16.03964527  energy(sigma->0) =      -16.04603734


--------------------------------------------------------------------------------------------------------




--------------------------------------- Iteration      1(  16)  ---------------------------------------


    POTLOK:  cpu time    0.0110: real time    0.0121
    SETDIJ:  cpu time    0.0030: real time    0.0032
    EDDIAG:  cpu time    0.1910: real time    0.1907
  RMM-DIIS:  cpu time    0.5619: real time    0.5620
    ORTHCH:  cpu time    0.0230: real time    0.0240
       DOS:  cpu time    0.0090: real time    0.0092
    CHARGE:  cpu time    0.0530: real time    0.0524
    MIXING:  cpu time    0.0010: real time    0.0008
    --------------------------------------------
      LOOP:  cpu time    0.8529: real time    0.8543

 eigenvalue-minimisations  :  3093
 total energy-change (2. order) : 0.5450948E-04  (-0.2040927E-04)
 number of electron      45.0000027 magnetization 
 augmentation part       28.7835033 magnetization 

 Broyden mixing:
  rms(total) = 0.23296E-02    rms(broyden)= 0.23166E-02
  rms(prec ) = 0.30262E-02
  weight for this iteration     100.00

 eigenvalues of (default mixing * dielectric matrix)
  average eigenvalue GAMMA=   1.0317
  3.0980  2.5353  1.3287  0.9140  0.9140  0.6012  0.6012  0.1987  0.4952  0.2640
  0.3984

 Free energy of the ion-electron system (eV)
  ---------------------------------------------------
  alpha Z        PSCENC =       120.87645803
  Ewald energy   TEWEN  =     37628.60338044
  -Hartree energ DENC   =    -42690.54908248
  -exchange      EXHF   =         0.00000000
  -V(xc)+E(xc)   XCENC  =       172.75513469
  PAW double counting   =      4375.68895392    -4950.94939205
  entropy T*S    EENTRO =        -0.01279315
  eigenvalues    EBANDS =      -248.41465256
  atomic energy  EATOM  =      5575.94961827
  Solvation  Ediel_sol  =         0.00000000
  ---------------------------------------------------
  free energy    TOTEN  =       -16.05237489 eV

  energy without entropy =      -16.03958174  energy(sigma->0) =      -16.04597832


--------------------------------------------------------------------------------------------------------




--------------------------------------- Iteration      1(  17)  ---------------------------------------


    POTLOK:  cpu time    0.0110: real time    0.0109
    SETDIJ:  cpu time    0.0030: real time    0.0032
    EDDIAG:  cpu time    0.1910: real time    0.1907
  RMM-DIIS:  cpu time    0.5619: real time    0.5621
    ORTHCH:  cpu time    0.0250: real time    0.0242
       DOS:  cpu time    0.0090: real time    0.0092
    CHARGE:  cpu time    0.0510: real time    0.0524
    MIXING:  cpu time    0.0020: real time    0.0008
    --------------------------------------------
      LOOP:  cpu time    0.8539: real time    0.8536

 eigenvalue-minimisations  :  3012
 total energy-change (2. order) :-0.1548741E-03  (-0.6039557E-05)
 number of electron      45.0000027 magnetization 
 augmentation part       28.7851699 magnetization 

 Broyden mixing:
  rms(total) = 0.10652E-02    rms(broyden)= 0.10647E-02
  rms(prec ) = 0.15511E-02
  weight for this iteration     100.00

 eigenvalues of (default mixing * dielectric matrix)
  average eigenvalue GAMMA=   1.2225
  4.0748  2.8416  2.2327  1.0229  0.9303  0.9303  0.6407  0.6407  0.1987  0.4950
  0.2640  0.3982

 Free energy of the ion-electron system (eV)
  ---------------------------------------------------
  alpha Z        PSCENC =       120.87645803
  Ewald energy   TEWEN  =     37628.60338044
  -Hartree energ DENC   =    -42691.60062445
  -exchange      EXHF   =         0.00000000
  -V(xc)+E(xc)   XCENC  =       172.75288567
  PAW double counting   =      4375.52702392    -4950.77763271
  entropy T*S    EENTRO =        -0.01282923
  eigenvalues    EBANDS =      -247.37080970
  atomic energy  EATOM  =      5575.94961827
  Solvation  Ediel_sol  =         0.00000000
  ---------------------------------------------------
  free energy    TOTEN  =       -16.05252977 eV

  energy without entropy =      -16.03970054  energy(sigma->0) =      -16.04611515


--------------------------------------------------------------------------------------------------------




--------------------------------------- Iteration      1(  18)  ---------------------------------------


    POTLOK:  cpu time    0.0110: real time    0.0124
    SETDIJ:  cpu time    0.0030: real time    0.0032
    EDDIAG:  cpu time    0.1870: real time    0.1873
  RMM-DIIS:  cpu time    0.4989: real time    0.4980
    ORTHCH:  cpu time    0.0230: real time    0.0241
       DOS:  cpu time    0.0090: real time    0.0093
    CHARGE:  cpu time    0.0530: real time    0.0524
    MIXING:  cpu time    0.0010: real time    0.0009
    --------------------------------------------
      LOOP:  cpu time    0.7859: real time    0.7876

 eigenvalue-minimisations  :  2769
 total energy-change (2. order) :-0.1900108E-03  (-0.3415766E-05)
 number of electron      45.0000027 magnetization 
 augmentation part       28.7850150 magnetization 

 Broyden mixing:
  rms(total) = 0.45922E-03    rms(broyden)= 0.45873E-03
  rms(prec ) = 0.67516E-03
  weight for this iteration     100.00

 eigenvalues of (default mixing * dielectric matrix)
  average eigenvalue GAMMA=   1.3256
  4.7793  3.0457  2.4229  1.5153  0.9956  0.9224  0.9224  0.6366  0.6366  0.1987
  0.4951  0.2640  0.3982

 Free energy of the ion-electron system (eV)
  ---------------------------------------------------
  alpha Z        PSCENC =       120.87645803
  Ewald energy   TEWEN  =     37628.60338044
  -Hartree energ DENC   =    -42692.57711046
  -exchange      EXHF   =         0.00000000
  -V(xc)+E(xc)   XCENC  =       172.75460071
  PAW double counting   =      4375.05774975    -4950.31045009
  entropy T*S    EENTRO =        -0.01283283
  eigenvalues    EBANDS =      -246.39413359
  atomic energy  EATOM  =      5575.94961827
  Solvation  Ediel_sol  =         0.00000000
  ---------------------------------------------------
  free energy    TOTEN  =       -16.05271978 eV

  energy without entropy =      -16.03988694  energy(sigma->0) =      -16.04630336


--------------------------------------------------------------------------------------------------------




--------------------------------------- Iteration      1(  19)  ---------------------------------------


    POTLOK:  cpu time    0.0110: real time    0.0110
    SETDIJ:  cpu time    0.0030: real time    0.0032
    EDDIAG:  cpu time    0.1880: real time    0.1874
  RMM-DIIS:  cpu time    0.4439: real time    0.4444
    ORTHCH:  cpu time    0.0230: real time    0.0238
       DOS:  cpu time    0.0100: real time    0.0092
    CHARGE:  cpu time    0.0520: real time    0.0522
    MIXING:  cpu time    0.0010: real time    0.0009
    --------------------------------------------
      LOOP:  cpu time    0.7319: real time    0.7322

 eigenvalue-minimisations  :  2388
 total energy-change (2. order) :-0.8367453E-04  (-0.8892871E-06)
 number of electron      45.0000027 magnetization 
 augmentation part       28.7851458 magnetization 

 Broyden mixing:
  rms(total) = 0.51736E-03    rms(broyden)= 0.51701E-03
  rms(prec ) = 0.69598E-03
  weight for this iteration     100.00

 eigenvalues of (default mixing * dielectric matrix)
  average eigenvalue GAMMA=   1.4912
  5.8124  3.6187  2.5802  2.1856  1.2191  0.9825  0.9260  0.9260  0.6354  0.6354
  0.1987  0.2640  0.4951  0.3982

 Free energy of the ion-electron system (eV)
  ---------------------------------------------------
  alpha Z        PSCENC =       120.87645803
  Ewald energy   TEWEN  =     37628.60338044
  -Hartree energ DENC   =    -42692.99101971
  -exchange      EXHF   =         0.00000000
  -V(xc)+E(xc)   XCENC  =       172.75337249
  PAW double counting   =      4375.13162661    -4950.40296314
  entropy T*S    EENTRO =        -0.01284580
  eigenvalues    EBANDS =      -245.96043064
  atomic energy  EATOM  =      5575.94961827
  Solvation  Ediel_sol  =         0.00000000
  ---------------------------------------------------
  free energy    TOTEN  =       -16.05280345 eV

  energy without entropy =      -16.03995765  energy(sigma->0) =      -16.04638055


--------------------------------------------------------------------------------------------------------




--------------------------------------- Iteration      1(  20)  ---------------------------------------


    POTLOK:  cpu time    0.0110: real time    0.0124
    SETDIJ:  cpu time    0.0040: real time    0.0031
    EDDIAG:  cpu time    0.1860: real time    0.1862
  RMM-DIIS:  cpu time    0.3739: real time    0.3742
    ORTHCH:  cpu time    0.0230: real time    0.0236
       DOS:  cpu time    0.0090: real time    0.0090
    CHARGE:  cpu time    0.0510: real time    0.0511
    MIXING:  cpu time    0.0010: real time    0.0010
    --------------------------------------------
      LOOP:  cpu time    0.6589: real time    0.6605

 eigenvalue-minimisations  :  1991
 total energy-change (2. order) :-0.6129427E-04  (-0.4569858E-06)
 number of electron      45.0000027 magnetization 
 augmentation part       28.7852404 magnetization 

 Broyden mixing:
  rms(total) = 0.19086E-03    rms(broyden)= 0.19047E-03
  rms(prec ) = 0.24051E-03
  weight for this iteration     100.00

 eigenvalues of (default mixing * dielectric matrix)
  average eigenvalue GAMMA=   1.5802
  6.2286  4.0359  2.5772  2.5772  1.6758  1.1661  0.9259  0.9259  0.9633  0.6354
  0.6354  0.1987  0.2640  0.4951  0.3982

 Free energy of the ion-electron system (eV)
  ---------------------------------------------------
  alpha Z        PSCENC =       120.87645803
  Ewald energy   TEWEN  =     37628.60338044
  -Hartree energ DENC   =    -42693.29961494
  -exchange      EXHF   =         0.00000000
  -V(xc)+E(xc)   XCENC  =       172.75350817
  PAW double counting   =      4375.20633922    -4950.47479304
  entropy T*S    EENTRO =        -0.01283971
  eigenvalues    EBANDS =      -245.65492119
  atomic energy  EATOM  =      5575.94961827
  Solvation  Ediel_sol  =         0.00000000
  ---------------------------------------------------
  free energy    TOTEN  =       -16.05286475 eV

  energy without entropy =      -16.04002504  energy(sigma->0) =      -16.04644489


--------------------------------------------------------------------------------------------------------




--------------------------------------- Iteration      1(  21)  ---------------------------------------


    POTLOK:  cpu time    0.0110: real time    0.0109
    SETDIJ:  cpu time    0.0040: real time    0.0030
    EDDIAG:  cpu time    0.1850: real time    0.1860
  RMM-DIIS:  cpu time    0.3659: real time    0.3649
    ORTHCH:  cpu time    0.0230: real time    0.0238
       DOS:  cpu time    0.0090: real time    0.0091
    CHARGE:  cpu time    0.0510: real time    0.0513
    MIXING:  cpu time    0.0010: real time    0.0010
    --------------------------------------------
      LOOP:  cpu time    0.6499: real time    0.6500

 eigenvalue-minimisations  :  1798
 total energy-change (2. order) :-0.2101054E-04  (-0.9196201E-07)
 number of electron      45.0000027 magnetization 
 augmentation part       28.7849997 magnetization 

 Broyden mixing:
  rms(total) = 0.16724E-03    rms(broyden)= 0.16717E-03
  rms(prec ) = 0.22938E-03
  weight for this iteration     100.00

 eigenvalues of (default mixing * dielectric matrix)
  average eigenvalue GAMMA=   1.6477
  6.9085  4.4637  2.6635  2.6635  1.9461  1.2710  0.9238  0.9238  1.0330  0.9387
  0.6355  0.6355  0.1987  0.2640  0.4951  0.3982

 Free energy of the ion-electron system (eV)
  ---------------------------------------------------
  alpha Z        PSCENC =       120.87645803
  Ewald energy   TEWEN  =     37628.60338044
  -Hartree energ DENC   =    -42693.43233235
  -exchange      EXHF   =         0.00000000
  -V(xc)+E(xc)   XCENC  =       172.75420650
  PAW double counting   =      4375.21078258    -4950.47345096
  entropy T*S    EENTRO =        -0.01284759
  eigenvalues    EBANDS =      -245.52870066
  atomic energy  EATOM  =      5575.94961827
  Solvation  Ediel_sol  =         0.00000000
  ---------------------------------------------------
  free energy    TOTEN  =       -16.05288576 eV

  energy without entropy =      -16.04003816  energy(sigma->0) =      -16.04646196


--------------------------------------------------------------------------------------------------------




--------------------------------------- Iteration      1(  22)  ---------------------------------------


    POTLOK:  cpu time    0.0110: real time    0.0121
    SETDIJ:  cpu time    0.0040: real time    0.0031
    EDDIAG:  cpu time    0.1870: real time    0.1879
  RMM-DIIS:  cpu time    0.3679: real time    0.3674
    ORTHCH:  cpu time    0.0240: real time    0.0241
       DOS:  cpu time    0.0090: real time    0.0092
    CHARGE:  cpu time    0.0520: real time    0.0519
    MIXING:  cpu time    0.0010: real time    0.0010
    --------------------------------------------
      LOOP:  cpu time    0.6559: real time    0.6568

 eigenvalue-minimisations  :  1790
 total energy-change (2. order) :-0.1110152E-04  (-0.4772671E-07)
 number of electron      45.0000027 magnetization 
 augmentation part       28.7850146 magnetization 

 Broyden mixing:
  rms(total) = 0.13631E-03    rms(broyden)= 0.13609E-03
  rms(prec ) = 0.17897E-03
  weight for this iteration     100.00

 eigenvalues of (default mixing * dielectric matrix)
  average eigenvalue GAMMA=   1.7280
  7.6376  4.8257  2.9062  2.6474  2.4184  1.4559  0.9264  0.9264  1.0729  0.9660
  0.9660  0.1987  0.2640  0.6354  0.6354  0.3982  0.4951

 Free energy of the ion-electron system (eV)
  ---------------------------------------------------
  alpha Z        PSCENC =       120.87645803
  Ewald energy   TEWEN  =     37628.60338044
  -Hartree energ DENC   =    -42693.47950168
  -exchange      EXHF   =         0.00000000
  -V(xc)+E(xc)   XCENC  =       172.75429022
  PAW double counting   =      4375.21415055    -4950.47731597
  entropy T*S    EENTRO =        -0.01284318
  eigenvalues    EBANDS =      -245.48113352
  atomic energy  EATOM  =      5575.94961827
  Solvation  Ediel_sol  =         0.00000000
  ---------------------------------------------------
  free energy    TOTEN  =       -16.05289686 eV

  energy without entropy =      -16.04005368  energy(sigma->0) =      -16.04647527


--------------------------------------------------------------------------------------------------------




--------------------------------------- Iteration      1(  23)  ---------------------------------------


    POTLOK:  cpu time    0.0110: real time    0.0109
    SETDIJ:  cpu time    0.0030: real time    0.0032
    EDDIAG:  cpu time    0.1900: real time    0.1900
  RMM-DIIS:  cpu time    0.3659: real time    0.3654
    ORTHCH:  cpu time    0.0240: real time    0.0241
       DOS:  cpu time    0.0090: real time    0.0092
    CHARGE:  cpu time    0.0520: real time    0.0517
    MIXING:  cpu time    0.0010: real time    0.0011
    --------------------------------------------
      LOOP:  cpu time    0.6559: real time    0.6555

 eigenvalue-minimisations  :  1740
 total energy-change (2. order) :-0.4935428E-05  (-0.2495147E-07)
 number of electron      45.0000027 magnetization 
 augmentation part       28.7850940 magnetization 

 Broyden mixing:
  rms(total) = 0.48435E-04    rms(broyden)= 0.48312E-04
  rms(prec ) = 0.55593E-04
  weight for this iteration     100.00

 eigenvalues of (default mixing * dielectric matrix)
  average eigenvalue GAMMA=   1.8317
  8.3209  5.4149  3.4297  2.5859  2.4144  2.0339  1.3804  0.1987  0.2640  0.3982
  0.4951  0.6354  0.6354  0.9265  0.9265  1.0002  1.0002  0.9097

 Free energy of the ion-electron system (eV)
  ---------------------------------------------------
  alpha Z        PSCENC =       120.87645803
  Ewald energy   TEWEN  =     37628.60338044
  -Hartree energ DENC   =    -42693.49641286
  -exchange      EXHF   =         0.00000000
  -V(xc)+E(xc)   XCENC  =       172.75403336
  PAW double counting   =      4375.19626181    -4950.46030078
  entropy T*S    EENTRO =        -0.01284493
  eigenvalues    EBANDS =      -245.46309514
  atomic energy  EATOM  =      5575.94961827
  Solvation  Ediel_sol  =         0.00000000
  ---------------------------------------------------
  free energy    TOTEN  =       -16.05290179 eV

  energy without entropy =      -16.04005686  energy(sigma->0) =      -16.04647933


--------------------------------------------------------------------------------------------------------




--------------------------------------- Iteration      1(  24)  ---------------------------------------


    POTLOK:  cpu time    0.0110: real time    0.0129
    SETDIJ:  cpu time    0.0030: real time    0.0031
    EDDIAG:  cpu time    0.1870: real time    0.1900
  RMM-DIIS:  cpu time    0.3579: real time    0.3577
    ORTHCH:  cpu time    0.0240: real time    0.0243
       DOS:  cpu time    0.0090: real time    0.0092
    CHARGE:  cpu time    0.0520: real time    0.0522
    MIXING:  cpu time    0.0020: real time    0.0012
    --------------------------------------------
      LOOP:  cpu time    0.6459: real time    0.6505

 eigenvalue-minimisations  :  1613
 total energy-change (2. order) :-0.1726602E-05  (-0.7812074E-08)
 number of electron      45.0000027 magnetization 
 augmentation part       28.7850579 magnetization 

 Broyden mixing:
[...]
      3      -6.4679      2.00000
      4      -6.3274      2.00000
      5      -6.3036      2.00000
      6      -6.1971      2.00000
      7      -6.0984      2.00000
      8      -5.7605      2.00000
      9      -5.7073      2.00000
     10      -5.4432      2.00000
     11      -5.3823      2.00000
     12      -5.3054      2.00000
     13      -5.2644      2.00000
     14      -5.0609      2.00000
     15      -4.8348      2.00000
     16      -4.7864      2.00000
     17      -4.7011      2.00000
     18      -4.3828      2.00000
     19      -4.2956      2.00000
     20      -4.2304      2.00000
     21      -1.8613      0.00000
     22      -0.7272      0.00000
     23       0.2119      0.00000
     24       1.5510      0.00000
     25       2.1410      0.00000
     26       2.2395      0.00000
     27       3.1132      0.00000
     28       3.4479      0.00000

 k-point    45 :      -0.2000    0.4000    0.0000
  band No.  band energies     occupation 
      1      -6.8445      2.00000
      2      -6.8123      2.00000
      3      -6.5416      2.00000
      4      -6.4591      2.00000
      5      -6.3684      2.00000
      6      -6.1737      2.00000
      7      -6.0465      2.00000
      8      -5.7498      2.00000
      9      -5.6638      2.00000
     10      -5.4745      2.00000
     11      -5.3676      2.00000
     12      -5.0748      2.00000
     13      -5.0540      2.00000
     14      -4.9556      2.00000
     15      -4.8585      2.00000
     16      -4.6550      2.00000
     17      -4.5304      2.00000
     18      -4.3251      2.00000
     19      -4.2998      2.00000
     20      -4.2001      2.00000
     21      -1.9696      0.00000
     22      -0.9808      0.00000
     23      -0.5320      0.00000
     24       0.0235      0.00000
     25       0.5694      0.00000
     26       2.2182      0.00000
     27       3.4203      0.00000
     28       4.8856      0.00000

 k-point    46 :      -0.1000    0.4000    0.0000
  band No.  band energies     occupation 
      1      -7.2384      2.00000
      2      -7.0883      2.00000
      3      -6.7803      2.00000
      4      -6.6910      2.00000
      5      -6.5525      2.00000
      6      -6.3178      2.00000
      7      -5.8998      2.00000
      8      -5.6753      2.00000
      9      -5.5797      2.00000
     10      -5.4362      2.00000
     11      -5.3020      2.00000
     12      -4.9821      2.00000
     13      -4.8214      2.00000
     14      -4.6969      2.00000
     15      -4.5715      2.00000
     16      -4.4587      2.00000
     17      -4.3562      2.00000
     18      -4.2984      2.00000
     19      -4.2104      2.00000
     20      -4.1286      2.00000
     21      -2.8061      1.97256
     22      -2.5328      0.09710
     23      -1.9500      0.00000
     24      -0.6641      0.00000
     25       0.2092      0.00000
     26       1.9885      0.00000
     27       3.1539      0.00000
     28       4.4767      0.00000

 k-point    47 :       0.0000    0.5000    0.0000
  band No.  band energies     occupation 
      1      -7.3186      2.00000
      2      -7.1815      2.00000
      3      -6.8574      2.00000
      4      -6.7703      2.00000
      5      -6.7135      2.00000
      6      -6.3874      2.00000
      7      -5.8528      2.00000
      8      -5.6620      2.00000
      9      -5.5647      2.00000
     10      -5.4357      2.00000
     11      -5.0890      2.00000
     12      -5.0336      2.00000
     13      -4.6647      2.00000
     14      -4.5736      2.00000
     15      -4.3199      2.00000
     16      -4.2872      2.00000
     17      -4.2048      2.00000
     18      -4.1531      2.00000
     19      -4.0985      2.00000
     20      -3.9845      2.00000
     21      -2.8234      1.98571
     22      -2.2598      0.00000
     23      -1.7920      0.00000
     24      -1.2403      0.00000
     25      -0.9911      0.00000
     26       1.6821      0.00000
     27       2.7874      0.00000
     28       4.2754      0.00000

 k-point    48 :       0.1000    0.5000    0.0000
  band No.  band energies     occupation 
      1      -7.2382      2.00000
      2      -7.0882      2.00000
      3      -6.7800      2.00000
      4      -6.6907      2.00000
      5      -6.5524      2.00000
      6      -6.3193      2.00000
      7      -5.8978      2.00000
      8      -5.6788      2.00000
      9      -5.5770      2.00000
     10      -5.4337      2.00000
     11      -5.3077      2.00000
     12      -4.9671      2.00000
     13      -4.8319      2.00000
     14      -4.7060      2.00000
     15      -4.5626      2.00000
     16      -4.4637      2.00000
     17      -4.3534      2.00000
     18      -4.2973      2.00000
     19      -4.2109      2.00000
     20      -4.1300      2.00000
     21      -2.8118      1.97778
     22      -2.5248      0.07633
     23      -1.9484      0.00000
     24      -0.6670      0.00000
     25       0.2073      0.00000
     26       1.9894      0.00000
     27       3.1546      0.00000
     28       4.4771      0.00000

 k-point    49 :       0.2000    0.5000    0.0000
  band No.  band energies     occupation 
      1      -7.0648      2.00000
      2      -6.8738      2.00000
      3      -6.6440      2.00000
      4      -6.4756      2.00000
      5      -6.2781      2.00000
      6      -6.1446      2.00000
      7      -6.0169      2.00000
      8      -5.8062      2.00000
      9      -5.7035      2.00000
     10      -5.4333      2.00000
     11      -5.3353      2.00000
     12      -5.3071      2.00000
     13      -5.1907      2.00000
     14      -5.0638      2.00000
     15      -4.8923      2.00000
     16      -4.7250      2.00000
     17      -4.6170      2.00000
     18      -4.4395      2.00000
     19      -4.2342      2.00000
     20      -4.1385      2.00000
     21      -2.8514      1.99559
     22      -2.6599      1.10978
     23      -1.8505      0.00000
     24      -0.1964      0.00000
     25       1.9077      0.00000
     26       3.0665      0.00000
     27       4.1205      0.00000
     28       5.3294      0.00000

 k-point    50 :       0.3000    0.5000    0.0000
  band No.  band energies     occupation 
      1      -7.0661      2.00000
      2      -6.8726      2.00000
      3      -6.6421      2.00000
      4      -6.4757      2.00000
      5      -6.2777      2.00000
      6      -6.1398      2.00000
      7      -6.0197      2.00000
      8      -5.8090      2.00000
      9      -5.7091      2.00000
     10      -5.4447      2.00000
     11      -5.3278      2.00000
     12      -5.3051      2.00000
     13      -5.1855      2.00000
     14      -5.0637      2.00000
     15      -4.8905      2.00000
     16      -4.7265      2.00000
     17      -4.6160      2.00000
     18      -4.4405      2.00000
     19      -4.2347      2.00000
     20      -4.1385      2.00000
     21      -2.8479      1.99485
     22      -2.6641      1.15696
     23      -1.8492      0.00000
     24      -0.1959      0.00000
     25       1.9019      0.00000
     26       3.0752      0.00000
     27       4.1384      0.00000
     28       5.3387      0.00000

 k-point    51 :       0.4000    0.5000    0.0000
  band No.  band energies     occupation 
      1      -7.2400      2.00000
      2      -7.0877      2.00000
      3      -6.7766      2.00000
      4      -6.6901      2.00000
      5      -6.5531      2.00000
      6      -6.3121      2.00000
      7      -5.9126      2.00000
      8      -5.6741      2.00000
      9      -5.5753      2.00000
     10      -5.4411      2.00000
     11      -5.3133      2.00000
     12      -4.9727      2.00000
     13      -4.8112      2.00000
     14      -4.7042      2.00000
     15      -4.5633      2.00000
     16      -4.4676      2.00000
     17      -4.3551      2.00000
     18      -4.2980      2.00000
     19      -4.2116      2.00000
     20      -4.1302      2.00000
     21      -2.7869      1.94697
     22      -2.5538      0.17302
     23      -1.9449      0.00000
     24      -0.6627      0.00000
     25       0.2024      0.00000
     26       2.0005      0.00000
     27       3.1749      0.00000
     28       4.5052      0.00000

 k-point    52 :       0.5000    0.5000    0.0000
  band No.  band energies     occupation 
      1      -7.3204      2.00000
      2      -7.1813      2.00000
      3      -6.8540      2.00000
      4      -6.7702      2.00000
      5      -6.7133      2.00000
      6      -6.3801      2.00000
      7      -5.8751      2.00000
      8      -5.6622      2.00000
      9      -5.5496      2.00000
     10      -5.4367      2.00000
     11      -5.1026      2.00000
     12      -5.0350      2.00000
     13      -4.6453      2.00000
     14      -4.5749      2.00000
     15      -4.3276      2.00000
     16      -4.2876      2.00000
     17      -4.2055      2.00000
     18      -4.1536      2.00000
     19      -4.0998      2.00000
     20      -3.9852      2.00000
     21      -2.7756      1.92401
     22      -2.3187      0.00000
     23      -1.7968      0.00000
     24      -1.2251      0.00000
     25      -0.9844      0.00000
     26       1.6923      0.00000
     27       2.8060      0.00000
     28       4.3260      0.00000


--------------------------------------------------------------------------------------------------------


 soft charge-density along one line, spin component           1
         0         1         2         3         4         5         6         7         8         9
 total charge-density along one line
 
 pseudopotential strength for first ion, spin component:           1
-11.027   0.000  -0.000  -0.005   0.000   1.825  -0.000   0.000
  0.000 -10.986  -0.000   0.000  -0.005  -0.000   1.805   0.000
 -0.000  -0.000 -10.981   0.000   0.000   0.000   0.000   1.802
 -0.005   0.000   0.000 -10.986   0.000   0.002  -0.000  -0.000
  0.000  -0.005   0.000   0.000 -11.027  -0.000   0.002  -0.000
  1.825  -0.000   0.000   0.002  -0.000   0.738   0.000  -0.000
 -0.000   1.805   0.000  -0.000   0.002   0.000   0.747  -0.000
  0.000   0.000   1.802  -0.000  -0.000  -0.000  -0.000   0.748
  0.002  -0.000  -0.000   1.805  -0.000  -0.001   0.000   0.000
 -0.000   0.002  -0.000  -0.000   1.825   0.000  -0.001   0.000
 -0.000   0.000  -0.007   0.000   0.000   0.000  -0.000   0.002
  0.000  -0.000   0.000   0.000  -0.000  -0.000   0.000  -0.000
  0.000  -0.009   0.000  -0.000   0.000  -0.000   0.006  -0.000
 -0.000  -0.000  -0.010   0.000   0.000   0.000   0.000   0.005
  0.000  -0.000  -0.000  -0.009   0.000  -0.000   0.000   0.000
  0.000   0.005  -0.000   0.000  -0.000  -0.000  -0.002   0.000
  0.000  -0.000   0.005   0.000   0.000  -0.000   0.000  -0.003
 -0.000   0.000   0.000   0.005   0.000   0.000  -0.000  -0.000
 total augmentation occupancy for first ion, spin component:           1
  1.925  -0.000  -0.000  -0.003   0.000  -0.001   0.000   0.000   0.010   0.000   0.000  -0.000   0.000   0.000   0.006  -0.000
 -0.000   1.934  -0.000   0.000  -0.003   0.000  -0.037   0.000   0.000   0.010   0.000   0.000  -0.001   0.000  -0.000  -0.004
 -0.000  -0.000   1.937   0.000   0.000   0.000   0.000  -0.027  -0.000   0.000   0.017   0.038   0.000   0.034  -0.000  -0.000
 -0.003   0.000   0.000   1.934  -0.000   0.010   0.000  -0.000  -0.037   0.000  -0.000  -0.000  -0.000  -0.000  -0.001   0.000
  0.000  -0.003   0.000  -0.000   1.925   0.000   0.010   0.000   0.000  -0.001  -0.000   0.000   0.006  -0.000   0.000  -0.001
 -0.001   0.000   0.000   0.010   0.000   0.058  -0.000  -0.000   0.001   0.000  -0.000   0.000  -0.000  -0.000   0.004   0.000
  0.000  -0.037   0.000   0.000   0.010  -0.000   0.039  -0.000   0.000   0.001  -0.000  -0.000   0.029  -0.000   0.000  -0.002
  0.000   0.000  -0.027  -0.000   0.000  -0.000  -0.000   0.056   0.000   0.000  -0.081   0.014  -0.000   0.042   0.000   0.000
  0.010   0.000  -0.000  -0.037   0.000   0.001   0.000   0.000   0.039  -0.000   0.000   0.000   0.000   0.000   0.029   0.000
  0.000   0.010   0.000   0.000  -0.001   0.000   0.001   0.000  -0.000   0.058  -0.000   0.000   0.004   0.000  -0.000  -0.000
  0.000   0.000   0.017  -0.000  -0.000  -0.000  -0.000  -0.081   0.000  -0.000   1.233  -0.279  -0.000   0.064   0.000   0.000
 -0.000   0.000   0.038  -0.000   0.000   0.000  -0.000   0.014   0.000   0.000  -0.279   0.107  -0.000  -0.045   0.000  -0.000
  0.000  -0.001   0.000  -0.000   0.006  -0.000   0.029  -0.000   0.000   0.004  -0.000  -0.000   0.165  -0.000   0.000  -0.010
  0.000   0.000   0.034  -0.000  -0.000  -0.000  -0.000   0.042   0.000   0.000   0.064  -0.045  -0.000   0.093   0.000   0.000
  0.006  -0.000  -0.000  -0.001   0.000   0.004   0.000   0.000   0.029  -0.000   0.000   0.000   0.000   0.000   0.165   0.000
 -0.000  -0.004  -0.000   0.000  -0.001   0.000  -0.002   0.000   0.000  -0.000   0.000  -0.000  -0.010   0.000   0.000   0.001
  0.000   0.000  -0.008  -0.000   0.000   0.000  -0.000  -0.002   0.000  -0.000  -0.013   0.005   0.000  -0.006  -0.000  -0.000
 -0.001   0.000   0.000  -0.004  -0.000  -0.000   0.000  -0.000  -0.002   0.000  -0.000   0.000   0.000  -0.000  -0.010  -0.000


------------------------ aborting loop because EDIFF is reached ----------------------------------------


 


 total charge     
 
# of ion       s       p       d       tot
------------------------------------------
    1        0.453   0.281   9.221   9.954
    2        0.444   0.364   9.216  10.025
    3        0.445   0.379   9.202  10.026
    4        0.446   0.340   9.183   9.969
    5        0.404   0.005   0.000   0.409
--------------------------------------------------
tot          2.193   1.368  36.821  40.382
 
    CHARGE:  cpu time    0.0500: real time    0.0508
    FORLOC:  cpu time    0.0010: real time    0.0013
    FORNL :  cpu time    0.2740: real time    0.2732
    STRESS:  cpu time    0.8249: real time    0.8251
    FORCOR:  cpu time    0.0110: real time    0.0111
    FORHAR:  cpu time    0.0030: real time    0.0029
    MIXING:  cpu time    0.0010: real time    0.0012
    OFIELD:  cpu time    0.0000: real time    0.0000

  FORCE on cell =-STRESS in cart. coord.  units (eV):
  Direction    XX          YY          ZZ          XY          YZ          ZX
  --------------------------------------------------------------------------------------
  Alpha Z   120.87646   120.87646   120.87646
  Ewald   40535.14988 40534.99870-43441.54881     0.00446     0.00058    -1.72113
  Hartree 41855.87243 41855.81690-41018.18362     0.03865    -0.00386    -0.67182
  E(xc)    -252.54703  -252.54219  -252.77473    -0.00486    -0.00001    -0.01022
  Local  -82658.50811-82658.32844 84192.04326    -0.07067     0.00659     2.25513
  n-local  -156.19397  -156.20561  -156.71378     0.02261    -0.00132    -0.02583
  augment   225.90785   225.93916   225.85120    -0.00312    -0.00103     0.06634
  Kinetic   323.75063   323.76347   322.39759     0.01880    -0.00608     0.13472
  Fock        0.00000     0.00000     0.00000     0.00000     0.00000     0.00000
  -------------------------------------------------------------------------------------
  Total      -5.69187    -5.68155    -8.05244     0.00588    -0.00513     0.02720
  in kB     -52.45088   -52.35577   -74.20362     0.05419    -0.04727     0.25068
  external pressure =      -59.67 kB  Pullay stress =        0.00 kB


 VOLUME and BASIS-vectors are now :
 -----------------------------------------------------------------------------
  energy-cutoff  :      250.00
  volume of cell :      173.87
      direct lattice vectors                 reciprocal lattice vectors
     2.573868684  0.000000000  0.000000000     0.388520209 -0.224312248  0.000000000
     1.286934342  2.229035666  0.000000000     0.000000000  0.448624495  0.000000000
     0.000000000  0.000000000 30.304664940     0.000000000  0.000000000  0.032998220

  length of vectors
     2.573868684  2.573868684 30.304664940     0.448624495  0.448624495  0.032998220


 FORCES acting on ions
    electron-ion (+dipol)            ewald-force                    non-local-force                 convergence-correction
 -----------------------------------------------------------------------------------------------
   0.155E-01 -.213E-02 0.420E+04   0.684E-07 0.283E-07 -.420E+04   -.177E-01 0.235E-02 -.119E+01   0.961E-06 0.302E-06 -.156E-03
   -.694E-02 -.152E-02 0.148E+04   -.310E-05 0.400E-06 -.148E+04   0.732E-02 0.171E-02 -.109E+01   -.204E-05 0.647E-06 -.130E-02
   -.247E-01 0.568E-02 -.125E+04   -.121E-02 -.149E-03 0.125E+04   0.266E-01 -.647E-02 -.306E+00   0.441E-06 -.130E-06 -.458E-02
   -.135E+01 -.553E-02 -.396E+04   0.959E+00 0.563E-07 0.396E+04   0.386E+00 0.868E-02 -.232E+01   0.571E-05 0.125E-05 -.390E-02
   0.921E+00 -.227E-02 -.474E+03   -.958E+00 0.149E-03 0.474E+03   0.459E-01 -.528E-03 -.111E+01   -.104E-05 0.512E-07 0.441E-05
 -----------------------------------------------------------------------------------------------
   -.448E+00 -.576E-02 0.603E+01   -.150E-12 0.336E-13 0.341E-12   0.448E+00 0.575E-02 -.602E+01   0.403E-05 0.212E-05 -.994E-02
 
 
 POSITION                                       TOTAL-FORCE (eV/Angst)
 -----------------------------------------------------------------------------------
      0.00000      0.00000     12.00000        -0.002307      0.000224      0.096841
      1.28693      0.74301     14.10155         0.000267      0.000196     -0.003648
      2.57387      1.48602     16.20311         0.000553     -0.000933     -0.011903
      0.00000      0.00000     18.30466        -0.007938      0.003158      1.451134
      2.47387      0.00000     20.10466         0.009425     -0.002646     -1.532424
 -----------------------------------------------------------------------------------
    total drift:                                0.000512     -0.000004     -0.001038


--------------------------------------------------------------------------------------------------------



  FREE ENERGIE OF THE ION-ELECTRON SYSTEM (eV)
  ---------------------------------------------------
  free  energy   TOTEN  =       -16.05290384 eV

  energy  without entropy=      -16.04005903  energy(sigma->0) =      -16.04648143
 


--------------------------------------------------------------------------------------------------------


    POTLOK:  cpu time    0.0140: real time    0.0137


--------------------------------------------------------------------------------------------------------


     LOOP+:  cpu time   21.8987: real time   22.0058
    4ORBIT:  cpu time    0.0000: real time    0.0000
 


 total charge     
 
# of ion       s       p       d       tot
------------------------------------------
    1        0.453   0.281   9.221   9.954
    2        0.444   0.364   9.216  10.025
    3        0.445   0.379   9.202  10.026
    4        0.446   0.340   9.183   9.969
    5        0.404   0.005   0.000   0.409
--------------------------------------------------
tot          2.193   1.368  36.821  40.382
 

 total amount of memory used by VASP MPI-rank0    43139. kBytes
=======================================================================

   base      :      30000. kBytes
   nonlr-proj:        676. kBytes
   fftplans  :        995. kBytes
   grid      :       1592. kBytes
   one-center:         46. kBytes
   wavefun   :       9830. kBytes
 
  
  
 General timing and accounting informations for this job:
 ========================================================
  
                  Total CPU time used (sec):       23.404
                            User time (sec):       23.122
                          System time (sec):        0.282
                         Elapsed time (sec):       23.756
  
                   Maximum memory used (kb):       44148.
                   Average memory used (kb):           0.
  
                          Minor page faults:        23160
                          Major page faults:          167
                 Voluntary context switches:         3415
