PROCAR lm decomposed
# of k-points:   52         # of bands:   28         # of ions:    5

 k-point     1 :    0.00000000 0.00000000 0.00000000     weight = 0.01000000

band     1 # energy  -11.28408932 # occ.  2.00000000
 
ion      s     py     pz     px    dxy    dyz    dz2    dxz  x2-y2    tot
    1  0.059  0.000  0.006  0.000  0.000  0.000  0.000  0.000  0.000  0.066
    2  0.212  0.000  0.001  0.000  0.000  0.000  0.000  0.000  0.000  0.213
    3  0.220  0.000  0.001  0.000  0.000  0.000  0.000  0.000  0.000  0.221
    4  0.076  0.000  0.005  0.000  0.000  0.000  0.000  0.000  0.000  0.081
    5  0.003  0.000  0.000  0.000  0.000  0.000  0.000  0.000  0.000  0.003
tot    0.569  0.000  0.014  0.000  0.000  0.000  0.001  0.000  0.000  0.584
 
band     2 # energy  -10.14224738 # occ.  2.00000000
 
ion      s     py     pz     px    dxy    dyz    dz2    dxz  x2-y2    tot
    1  0.147  0.000  0.007  0.000  0.000  0.000  0.004  0.000  0.000  0.158
    2  0.102  0.000  0.015  0.000  0.000  0.000  0.004  0.000  0.000  0.122
    3  0.058  0.000  0.022  0.000  0.000  0.000  0.002  0.000  0.000  0.082
    4  0.188  0.000  0.002  0.000  0.000  0.000  0.002  0.000  0.000  0.192
    5  0.016  0.000  0.000  0.000  0.000  0.000  0.000  0.000  0.000  0.016
tot    0.512  0.000  0.045  0.000  0.000  0.000  0.012  0.000  0.000  0.569
 
band     3 # energy   -8.66741073 # occ.  2.00000000
 
ion      s     py     pz     px    dxy    dyz    dz2    dxz  x2-y2    tot
    1  0.147  0.000  0.000  0.000  0.000  0.000  0.040  0.000  0.000  0.186
    2  0.014  0.000  0.035  0.000  0.000  0.000  0.006  0.000  0.000  0.055
    3  0.086  0.000  0.016  0.000  0.000  0.000  0.034  0.000  0.000  0.136
    4  0.114  0.000  0.013  0.000  0.000  0.000  0.019  0.000  0.000  0.147
    5  0.043  0.000  0.000  0.000  0.000  0.000  0.000  0.000  0.000  0.043
tot    0.404  0.000  0.065  0.000  0.000  0.000  0.098  0.000  0.000  0.567
 
band     4 # energy   -7.68734100 # occ.  2.00000000
 
ion      s     py     pz     px    dxy    dyz    dz2    dxz  x2-y2    tot
    1  0.070  0.000  0.005  0.000  0.000  0.000  0.110  0.000  0.000  0.185
    2  0.082  0.000  0.000  0.000  0.000  0.000  0.227  0.000  0.000  0.309
    3  0.049  0.000  0.005  0.000  0.000  0.000  0.137  0.000  0.000  0.191
    4  0.008  0.000  0.015  0.000  0.000  0.000  0.008  0.000  0.000  0.031
    5  0.019  0.000  0.000  0.000  0.000  0.000  0.000  0.000  0.000  0.019
tot    0.228  0.000  0.026  0.000  0.000  0.000  0.482  0.000  0.000  0.736
 
band     5 # energy   -6.99858334 # occ.  2.00000000
 
ion      s     py     pz     px    dxy    dyz    dz2    dxz  x2-y2    tot
    1  0.000  0.000  0.000  0.000  0.000  0.000  0.000  0.000  0.000  0.000
    2  0.000  0.000  0.000  0.000  0.000  0.000  0.001  0.000  0.000  0.002
    3  0.000  0.000  0.004  0.000  0.000  0.000  0.058  0.000  0.000  0.062
    4  0.018  0.000  0.031  0.000  0.000  0.000  0.470  0.000  0.000  0.519
    5  0.116  0.000  0.001  0.000  0.000  0.000  0.000  0.000  0.000  0.116
tot    0.134  0.000  0.035  0.000  0.000  0.000  0.530  0.000  0.000  0.700
 
band     6 # energy   -5.65205610 # occ.  2.00000000
 
ion      s     py     pz     px    dxy    dyz    dz2    dxz  x2-y2    tot
    1  0.002  0.000  0.000  0.000  0.000  0.000  0.027  0.000  0.000  0.029
    2  0.000  0.000  0.012  0.000  0.000  0.000  0.135  0.000  0.000  0.147
    3  0.003  0.000  0.000  0.000  0.000  0.000  0.631  0.000  0.000  0.635
    4  0.001  0.000  0.007  0.000  0.000  0.000  0.118  0.000  0.000  0.125
    5  0.001  0.000  0.000  0.000  0.000  0.000  0.000  0.000  0.000  0.001
tot    0.007  0.000  0.019  0.000  0.000  0.000  0.911  0.000  0.000  0.937
 
band     7 # energy   -5.56788282 # occ.  2.00000000
 
ion      s     py     pz     px    dxy    dyz    dz2    dxz  x2-y2    tot
    1  0.000  0.000  0.007  0.000  0.000  0.000  0.391  0.000  0.000  0.397
    2  0.004  0.000  0.003  0.000  0.000  0.000  0.451  0.000  0.000  0.458
    3  0.002  0.000  0.010  0.000  0.000  0.000  0.002  0.000  0.000  0.014
    4  0.000  0.000  0.008  0.000  0.000  0.000  0.045  0.000  0.000  0.053
    5  0.003  0.000  0.000  0.000  0.000  0.000  0.000  0.000  0.000  0.003
tot    0.010  0.000  0.027  0.000  0.000  0.000  0.889  0.000  0.000  0.926
 
band     8 # energy   -5.52172269 # occ.  2.00000000
 
ion      s     py     pz     px    dxy    dyz    dz2    dxz  x2-y2    tot
    1  0.000  0.000  0.000  0.000  0.001  0.006  0.000  0.000  0.023  0.030
    2  0.000  0.000  0.000  0.000  0.011  0.014  0.000  0.000  0.365  0.390
    3  0.000  0.000  0.000  0.000  0.014  0.013  0.000  0.000  0.445  0.473
    4  0.000  0.000  0.000  0.000  0.002  0.012  0.000  0.000  0.056  0.070
    5  0.000  0.000  0.000  0.000  0.000  0.000  0.000  0.000  0.000  0.000
tot    0.000  0.000  0.000  0.000  0.028  0.044  0.000  0.001  0.889  0.964
 
band     9 # energy   -5.52138106 # occ.  2.00000000
 
ion      s     py     pz     px    dxy    dyz    dz2    dxz  x2-y2    tot
    1  0.000  0.000  0.000  0.000  0.023  0.000  0.000  0.006  0.001  0.030
    2  0.000  0.000  0.000  0.000  0.365  0.000  0.000  0.014  0.012  0.391
    3  0.000  0.000  0.000  0.000  0.445  0.000  0.000  0.013  0.014  0.473
    4  0.000  0.000  0.000  0.000  0.056  0.000  0.000  0.011  0.002  0.070
    5  0.000  0.000  0.000  0.000  0.000  0.000  0.000  0.000  0.000  0.000
tot    0.000  0.000  0.000  0.000  0.889  0.001  0.000  0.044  0.029  0.964
 
band    10 # energy   -5.48203412 # occ.  2.00000000
 
ion      s     py     pz     px    dxy    dyz    dz2    dxz  x2-y2    tot
    1  0.000  0.000  0.000  0.000  0.001  0.013  0.000  0.009  0.001  0.025
    2  0.000  0.000  0.000  0.000  0.164  0.037  0.000  0.027  0.228  0.457
    3  0.000  0.000  0.000  0.000  0.148  0.048  0.000  0.034  0.206  0.436
    4  0.000  0.000  0.000  0.000  0.007  0.020  0.000  0.014  0.009  0.051
    5  0.000  0.000  0.000  0.000  0.000  0.000  0.000  0.000  0.000  0.000
tot    0.000  0.000  0.000  0.000  0.320  0.118  0.000  0.085  0.445  0.968
 
band    11 # energy   -5.48056547 # occ.  2.00000000
 
ion      s     py     pz     px    dxy    dyz    dz2    dxz  x2-y2    tot
    1  0.000  0.000  0.000  0.000  0.001  0.009  0.000  0.013  0.001  0.025
    2  0.000  0.000  0.000  0.000  0.232  0.027  0.000  0.037  0.168  0.464
    3  0.000  0.000  0.000  0.000  0.205  0.034  0.000  0.047  0.147  0.433
    4  0.000  0.000  0.000  0.000  0.008  0.014  0.000  0.019  0.006  0.047
    5  0.000  0.000  0.000  0.000  0.000  0.000  0.000  0.000  0.000  0.000
tot    0.000  0.000  0.000  0.000  0.446  0.084  0.000  0.116  0.321  0.968
 
band    12 # energy   -5.35199988 # occ.  2.00000000
 
ion      s     py     pz     px    dxy    dyz    dz2    dxz  x2-y2    tot
    1  0.000  0.000  0.000  0.000  0.019  0.001  0.000  0.001  0.026  0.047
    2  0.000  0.000  0.000  0.000  0.041  0.004  0.000  0.003  0.056  0.103
    3  0.000  0.000  0.000  0.000  0.000  0.022  0.000  0.016  0.000  0.038
    4  0.000  0.000  0.000  0.000  0.327  0.002  0.000  0.002  0.450  0.781
    5  0.000  0.000  0.000  0.000  0.000  0.000  0.000  0.000  0.000  0.000
tot    0.000  0.000  0.000  0.000  0.387  0.029  0.000  0.021  0.532  0.968
 
band    13 # energy   -5.35036137 # occ.  2.00000000
 
ion      s     py     pz     px    dxy    dyz    dz2    dxz  x2-y2    tot
    1  0.000  0.000  0.000  0.000  0.028  0.001  0.000  0.001  0.020  0.050
    2  0.000  0.000  0.000  0.000  0.054  0.003  0.000  0.004  0.039  0.100
    3  0.000  0.000  0.000  0.000  0.000  0.016  0.000  0.022  0.000  0.038
    4  0.000  0.000  0.000  0.000  0.450  0.001  0.000  0.002  0.327  0.780
    5  0.000  0.000  0.000  0.000  0.000  0.000  0.000  0.000  0.000  0.000
tot    0.000  0.000  0.000  0.000  0.531  0.021  0.000  0.029  0.386  0.968
 
band    14 # energy   -5.25293518 # occ.  2.00000000
 
ion      s     py     pz     px    dxy    dyz    dz2    dxz  x2-y2    tot
    1  0.000  0.000  0.000  0.000  0.278  0.004  0.000  0.002  0.523  0.807
    2  0.000  0.000  0.000  0.000  0.002  0.038  0.000  0.020  0.005  0.065
    3  0.000  0.000  0.000  0.000  0.017  0.000  0.000  0.000  0.033  0.050
    4  0.000  0.000  0.000  0.000  0.014  0.003  0.000  0.002  0.028  0.046
    5  0.000  0.000  0.000  0.000  0.000  0.000  0.000  0.000  0.000  0.000
tot    0.000  0.000  0.000  0.000  0.312  0.045  0.000  0.024  0.588  0.969
 
band    15 # energy   -5.25210804 # occ.  2.00000000
 
ion      s     py     pz     px    dxy    dyz    dz2    dxz  x2-y2    tot
    1  0.000  0.000  0.000  0.000  0.521  0.002  0.000  0.004  0.276  0.804
    2  0.000  0.000  0.000  0.000  0.005  0.020  0.000  0.037  0.003  0.064
    3  0.000  0.000  0.000  0.000  0.033  0.000  0.000  0.000  0.018  0.051
    4  0.000  0.000  0.000  0.000  0.029  0.001  0.000  0.003  0.016  0.049
    5  0.000  0.000  0.000  0.000  0.000  0.000  0.000  0.000  0.000  0.000
tot    0.000  0.000  0.000  0.000  0.588  0.023  0.000  0.045  0.312  0.969
 
band    16 # energy   -5.07594042 # occ.  2.00000000
 
ion      s     py     pz     px    dxy    dyz    dz2    dxz  x2-y2    tot
    1  0.024  0.000  0.001  0.000  0.000  0.000  0.303  0.000  0.000  0.328
    2  0.013  0.000  0.035  0.000  0.000  0.000  0.048  0.000  0.000  0.096
    3  0.000  0.000  0.074  0.000  0.000  0.000  0.004  0.000  0.000  0.078
    4  0.009  0.000  0.037  0.000  0.000  0.000  0.172  0.000  0.000  0.219
    5  0.018  0.000  0.000  0.000  0.000  0.000  0.000  0.000  0.000  0.018
tot    0.064  0.000  0.146  0.000  0.000  0.000  0.527  0.000  0.000  0.739
 
band    17 # energy   -4.77107890 # occ.  2.00000000
 
ion      s     py     pz     px    dxy    dyz    dz2    dxz  x2-y2    tot
    1  0.000  0.000  0.000  0.000  0.013  0.002  0.000  0.001  0.021  0.038
    2  0.000  0.000  0.000  0.000  0.024  0.089  0.000  0.056  0.038  0.208
    3  0.000  0.000  0.000  0.000  0.032  0.255  0.000  0.161  0.051  0.500
    4  0.000  0.000  0.000  0.000  0.023  0.109  0.000  0.069  0.037  0.238
    5  0.000  0.000  0.000  0.000  0.000  0.000  0.000  0.000  0.000  0.000
tot    0.000  0.000  0.000  0.000  0.093  0.456  0.000  0.288  0.147  0.984
 
band    18 # energy   -4.76995143 # occ.  2.00000000
 
ion      s     py     pz     px    dxy    dyz    dz2    dxz  x2-y2    tot
    1  0.000  0.000  0.000  0.000  0.022  0.002  0.000  0.003  0.014  0.040
    2  0.000  0.000  0.000  0.000  0.038  0.059  0.000  0.092  0.024  0.213
    3  0.000  0.000  0.000  0.000  0.051  0.160  0.000  0.254  0.032  0.497
    4  0.000  0.000  0.000  0.000  0.038  0.066  0.000  0.105  0.024  0.234
    5  0.000  0.000  0.000  0.000  0.000  0.000  0.000  0.000  0.000  0.000
tot    0.000  0.000  0.000  0.000  0.149  0.286  0.000  0.454  0.094  0.984
 
band    19 # energy   -4.67146284 # occ.  2.00000000
 
ion      s     py     pz     px    dxy    dyz    dz2    dxz  x2-y2    tot
    1  0.000  0.000  0.000  0.000  0.021  0.089  0.000  0.057  0.033  0.201
    2  0.000  0.000  0.000  0.000  0.004  0.252  0.000  0.161  0.006  0.423
    3  0.000  0.000  0.000  0.000  0.000  0.012  0.000  0.008  0.000  0.021
    4  0.000  0.000  0.000  0.000  0.001  0.204  0.000  0.132  0.002  0.338
    5  0.000  0.000  0.000  0.000  0.000  0.000  0.000  0.000  0.000  0.000
tot    0.000  0.000  0.000  0.000  0.026  0.558  0.000  0.359  0.040  0.983
 
band    20 # energy   -4.67081519 # occ.  2.00000000
 
ion      s     py     pz     px    dxy    dyz    dz2    dxz  x2-y2    tot
    1  0.000  0.000  0.000  0.000  0.033  0.058  0.000  0.090  0.022  0.203
    2  0.000  0.000  0.000  0.000  0.006  0.165  0.000  0.255  0.004  0.430
    3  0.000  0.000  0.000  0.000  0.000  0.008  0.000  0.012  0.000  0.020
    4  0.000  0.000  0.000  0.000  0.001  0.128  0.000  0.200  0.001  0.331
    5  0.000  0.000  0.000  0.000  0.000  0.000  0.000  0.000  0.000  0.000
tot    0.000  0.000  0.000  0.000  0.041  0.359  0.000  0.558  0.026  0.983
 
band    21 # energy   -4.43746629 # occ.  2.00000000
 
ion      s     py     pz     px    dxy    dyz    dz2    dxz  x2-y2    tot
    1  0.000  0.000  0.000  0.000  0.000  0.165  0.000  0.152  0.000  0.318
    2  0.000  0.000  0.000  0.000  0.000  0.003  0.000  0.003  0.000  0.006
    3  0.000  0.000  0.000  0.000  0.006  0.141  0.000  0.130  0.006  0.284
    4  0.000  0.000  0.000  0.000  0.004  0.193  0.000  0.178  0.004  0.379
    5  0.000  0.000  0.000  0.000  0.000  0.000  0.000  0.000  0.000  0.000
tot    0.000  0.000  0.000  0.000  0.010  0.502  0.000  0.463  0.011  0.987
 
band    22 # energy   -4.43486320 # occ.  2.00000000
 
ion      s     py     pz     px    dxy    dyz    dz2    dxz  x2-y2    tot
    1  0.000  0.000  0.000  0.000  0.000  0.153  0.000  0.166  0.000  0.320
    2  0.000  0.000  0.000  0.000  0.000  0.002  0.000  0.002  0.000  0.005
    3  0.000  0.000  0.000  0.000  0.006  0.130  0.000  0.140  0.006  0.282
    4  0.000  0.000  0.000  0.000  0.005  0.178  0.000  0.193  0.004  0.380
    5  0.000  0.000  0.000  0.000  0.000  0.000  0.000  0.000  0.000  0.000
tot    0.000  0.000  0.000  0.000  0.012  0.463  0.000  0.501  0.011  0.987
 
band    23 # energy   -4.24034597 # occ.  2.00000000
 
ion      s     py     pz     px    dxy    dyz    dz2    dxz  x2-y2    tot
    1  0.000  0.000  0.000  0.000  0.003  0.237  0.000  0.242  0.003  0.486
    2  0.000  0.000  0.000  0.000  0.011  0.134  0.000  0.137  0.011  0.294
    3  0.000  0.000  0.000  0.000  0.005  0.071  0.000  0.073  0.005  0.154
    4  0.000  0.000  0.000  0.000  0.002  0.026  0.000  0.027  0.002  0.056
    5  0.000  0.000  0.000  0.000  0.000  0.000  0.000  0.000  0.000  0.000
tot    0.000  0.000  0.000  0.000  0.022  0.468  0.000  0.479  0.021  0.990
 
band    24 # energy   -4.23895771 # occ.  2.00000000
 
ion      s     py     pz     px    dxy    dyz    dz2    dxz  x2-y2    tot
    1  0.000  0.000  0.000  0.000  0.003  0.241  0.000  0.236  0.003  0.483
    2  0.000  0.000  0.000  0.000  0.011  0.137  0.000  0.134  0.011  0.293
    3  0.000  0.000  0.000  0.000  0.005  0.074  0.000  0.072  0.005  0.156
    4  0.000  0.000  0.000  0.000  0.002  0.027  0.000  0.027  0.002  0.058
    5  0.000  0.000  0.000  0.000  0.000  0.000  0.000  0.000  0.000  0.000
tot    0.000  0.000  0.000  0.000  0.021  0.479  0.000  0.468  0.022  0.990
 
band    25 # energy   -3.21601265 # occ.  2.00000000
 
ion      s     py     pz     px    dxy    dyz    dz2    dxz  x2-y2    tot
    1  0.023  0.000  0.148  0.000  0.000  0.000  0.036  0.000  0.000  0.207
    2  0.018  0.000  0.072  0.000  0.000  0.000  0.028  0.000  0.000  0.117
    3  0.015  0.000  0.027  0.000  0.000  0.000  0.023  0.000  0.000  0.064
    4  0.013  0.000  0.004  0.000  0.000  0.000  0.028  0.000  0.000  0.046
    5  0.006  0.000  0.000  0.000  0.000  0.000  0.000  0.000  0.000  0.006
tot    0.074  0.000  0.251  0.000  0.000  0.000  0.115  0.000  0.000  0.440
 
band    26 # energy    0.14560161 # occ.  0.00000000
 
ion      s     py     pz     px    dxy    dyz    dz2    dxz  x2-y2    tot
    1  0.004  0.000  0.012  0.000  0.000  0.000  0.005  0.000  0.000  0.021
    2  0.017  0.000  0.016  0.000  0.000  0.000  0.016  0.000  0.000  0.049
    3  0.044  0.000  0.026  0.000  0.000  0.000  0.039  0.000  0.000  0.108
    4  0.093  0.000  0.042  0.000  0.000  0.000  0.096  0.000  0.000  0.231
    5  0.037  0.000  0.005  0.000  0.000  0.000  0.000  0.000  0.000  0.042
tot    0.195  0.000  0.101  0.000  0.000  0.000  0.155  0.000  0.000  0.452
 
band    27 # energy    1.77094155 # occ.  0.00000000
 
ion      s     py     pz     px    dxy    dyz    dz2    dxz  x2-y2    tot
    1  0.019  0.000  0.003  0.000  0.000  0.000  0.019  0.000  0.000  0.040
    2  0.009  0.000  0.005  0.000  0.000  0.000  0.008  0.000  0.000  0.022
    3  0.002  0.000  0.006  0.000  0.000  0.000  0.002  0.000  0.000  0.010
    4  0.000  0.000  0.007  0.000  0.000  0.000  0.000  0.000  0.000  0.007
    5  0.000  0.000  0.000  0.000  0.000  0.000  0.000  0.000  0.000  0.000
tot    0.030  0.000  0.020  0.000  0.000  0.000  0.029  0.000  0.000  0.079
 
band    28 # energy    2.40512363 # occ.  0.00000000
 
ion      s     py     pz     px    dxy    dyz    dz2    dxz  x2-y2    tot
    1  0.000  0.000  0.002  0.000  0.000  0.000  0.000  0.000  0.000  0.003
    2  0.000  0.000  0.002  0.000  0.000  0.000  0.000  0.000  0.000  0.003
    3  0.002  0.000  0.001  0.000  0.000  0.000  0.002  0.000  0.000  0.005
    4  0.004  0.000  0.000  0.000  0.000  0.000  0.004  0.000  0.000  0.008
    5  0.004  0.000  0.000  0.000  0.000  0.000  0.000  0.000  0.000  0.004
tot    0.010  0.000  0.006  0.000  0.000  0.000  0.007  0.000  0.000  0.023
 

 k-point     2 :    0.10000000 0.00000000 0.00000000     weight = 0.02000000

band     1 # energy  -10.97071997 # occ.  2.00000000
 
ion      s     py     pz     px    dxy    dyz    dz2    dxz  x2-y2    tot
    1  0.057  0.000  0.006  0.001  0.000  0.000  0.000  0.000  0.000  0.066
    2  0.206  0.001  0.001  0.004  0.000  0.000  0.000  0.000  0.000  0.213
    3  0.214  0.002  0.001  0.005  0.000  0.000  0.000  0.000  0.000  0.221
    4  0.074  0.001  0.005  0.002  0.000  0.000  0.000  0.000  0.000  0.082
    5  0.003  0.000  0.000  0.000  0.000  0.000  0.000  0.000  0.000  0.003
tot    0.553  0.004  0.014  0.012  0.000  0.000  0.000  0.001  0.000  0.584
 
band     2 # energy   -9.84220693 # occ.  2.00000000
 
ion      s     py     pz     px    dxy    dyz    dz2    dxz  x2-y2    tot
    1  0.141  0.001  0.007  0.003  0.000  0.000  0.003  0.001  0.000  0.157
    2  0.100  0.001  0.015  0.002  0.000  0.000  0.004  0.001  0.000  0.123
    3  0.056  0.000  0.021  0.001  0.000  0.001  0.002  0.002  0.000  0.084
    4  0.182  0.001  0.002  0.004  0.000  0.000  0.001  0.000  0.000  0.190
    5  0.016  0.000  0.000  0.000  0.000  0.000  0.000  0.000  0.000  0.016
tot    0.495  0.004  0.045  0.011  0.000  0.001  0.010  0.004  0.000  0.570
 
band     3 # energy   -8.38998451 # occ.  2.00000000
 
ion      s     py     pz     px    dxy    dyz    dz2    dxz  x2-y2    tot
    1  0.139  0.001  0.000  0.004  0.000  0.000  0.038  0.000  0.000  0.182
    2  0.013  0.000  0.036  0.000  0.000  0.002  0.005  0.005  0.000  0.060
    3  0.082  0.001  0.016  0.002  0.000  0.001  0.033  0.002  0.000  0.137
    4  0.109  0.001  0.013  0.003  0.000  0.000  0.017  0.001  0.000  0.145
    5  0.045  0.000  0.000  0.000  0.000  0.000  0.000  0.000  0.000  0.045
tot    0.387  0.003  0.065  0.009  0.001  0.003  0.093  0.008  0.000  0.569
 
band     4 # energy   -7.46271772 # occ.  2.00000000
 
ion      s     py     pz     px    dxy    dyz    dz2    dxz  x2-y2    tot
    1  0.065  0.001  0.004  0.002  0.001  0.000  0.112  0.000  0.000  0.186
    2  0.072  0.001  0.000  0.003  0.001  0.000  0.237  0.000  0.000  0.315
    3  0.043  0.001  0.005  0.002  0.001  0.000  0.142  0.001  0.000  0.195
    4  0.007  0.000  0.014  0.000  0.000  0.001  0.009  0.002  0.000  0.033
    5  0.018  0.000  0.000  0.000  0.000  0.000  0.000  0.000  0.000  0.018
tot    0.206  0.003  0.024  0.008  0.002  0.001  0.499  0.003  0.001  0.747
 
band     5 # energy   -6.86985955 # occ.  2.00000000
 
ion      s     py     pz     px    dxy    dyz    dz2    dxz  x2-y2    tot
    1  0.000  0.000  0.000  0.000  0.000  0.000  0.000  0.000  0.000  0.000
    2  0.000  0.000  0.000  0.000  0.000  0.000  0.001  0.000  0.000  0.001
    3  0.000  0.000  0.004  0.000  0.002  0.000  0.062  0.000  0.001  0.070
    4  0.015  0.001  0.029  0.002  0.001  0.003  0.475  0.010  0.000  0.536
    5  0.109  0.000  0.001  0.000  0.000  0.000  0.000  0.000  0.000  0.110
tot    0.125  0.001  0.034  0.002  0.002  0.003  0.538  0.010  0.001  0.717
 
band     6 # energy   -5.75224504 # occ.  2.00000000
 
ion      s     py     pz     px    dxy    dyz    dz2    dxz  x2-y2    tot
    1  0.001  0.000  0.002  0.000  0.006  0.001  0.136  0.002  0.002  0.150
    2  0.001  0.000  0.009  0.000  0.105  0.022  0.019  0.067  0.035  0.257
    3  0.002  0.000  0.001  0.000  0.024  0.006  0.334  0.019  0.008  0.394
    4  0.001  0.000  0.006  0.000  0.013  0.002  0.097  0.007  0.004  0.130
    5  0.001  0.000  0.000  0.000  0.000  0.000  0.000  0.000  0.000  0.001
tot    0.006  0.000  0.018  0.001  0.146  0.032  0.586  0.095  0.049  0.933
 
band     7 # energy   -5.66761588 # occ.  2.00000000
 
ion      s     py     pz     px    dxy    dyz    dz2    dxz  x2-y2    tot
    1  0.003  0.000  0.002  0.000  0.021  0.001  0.044  0.004  0.007  0.084
    2  0.003  0.000  0.004  0.000  0.035  0.000  0.394  0.001  0.012  0.449
    3  0.000  0.000  0.014  0.000  0.048  0.031  0.116  0.091  0.016  0.316
    4  0.001  0.000  0.005  0.000  0.038  0.000  0.012  0.001  0.013  0.071
    5  0.004  0.000  0.000  0.000  0.000  0.000  0.000  0.000  0.000  0.004
tot    0.011  0.000  0.026  0.001  0.142  0.033  0.566  0.098  0.048  0.923
 
band     8 # energy   -5.60916678 # occ.  2.00000000
 
ion      s     py     pz     px    dxy    dyz    dz2    dxz  x2-y2    tot
    1  0.000  0.000  0.001  0.000  0.021  0.002  0.020  0.007  0.007  0.059
    2  0.000  0.000  0.001  0.000  0.199  0.010  0.003  0.030  0.067  0.311
    3  0.000  0.000  0.001  0.001  0.352  0.005  0.003  0.014  0.118  0.493
    4  0.000  0.000  0.000  0.000  0.050  0.005  0.006  0.014  0.016  0.091
    5  0.000  0.000  0.000  0.000  0.000  0.000  0.000  0.000  0.000  0.000
tot    0.001  0.000  0.002  0.001  0.623  0.022  0.031  0.066  0.208  0.954
 
band     9 # energy   -5.46649164 # occ.  2.00000000
 
ion      s     py     pz     px    dxy    dyz    dz2    dxz  x2-y2    tot
    1  0.001  0.000  0.002  0.000  0.012  0.013  0.036  0.037  0.004  0.105
    2  0.002  0.000  0.000  0.000  0.230  0.006  0.071  0.018  0.079  0.407
    3  0.001  0.000  0.010  0.000  0.123  0.001  0.049  0.003  0.043  0.230
    4  0.000  0.000  0.008  0.000  0.015  0.022  0.080  0.063  0.005  0.194
    5  0.002  0.000  0.000  0.000  0.000  0.000  0.000  0.000  0.000  0.002
tot    0.006  0.000  0.020  0.001  0.380  0.042  0.236  0.121  0.132  0.938
 
band    10 # energy   -5.41517669 # occ.  2.00000000
 
ion      s     py     pz     px    dxy    dyz    dz2    dxz  x2-y2    tot
    1  0.000  0.000  0.000  0.000  0.005  0.006  0.000  0.002  0.020  0.033
    2  0.000  0.000  0.000  0.000  0.077  0.019  0.000  0.006  0.240  0.342
    3  0.000  0.000  0.000  0.000  0.125  0.011  0.000  0.004  0.371  0.512
    4  0.000  0.000  0.000  0.000  0.017  0.018  0.000  0.006  0.037  0.078
    5  0.000  0.000  0.000  0.000  0.000  0.000  0.000  0.000  0.000  0.000
tot    0.000  0.001  0.000  0.000  0.224  0.054  0.000  0.018  0.669  0.966
 
band    11 # energy   -5.40616128 # occ.  2.00000000
 
ion      s     py     pz     px    dxy    dyz    dz2    dxz  x2-y2    tot
    1  0.000  0.000  0.000  0.000  0.119  0.001  0.017  0.001  0.043  0.181
    2  0.000  0.000  0.000  0.000  0.074  0.014  0.016  0.019  0.003  0.126
    3  0.000  0.000  0.000  0.000  0.002  0.021  0.031  0.021  0.002  0.079
    4  0.000  0.000  0.001  0.001  0.395  0.001  0.013  0.000  0.163  0.574
    5  0.000  0.000  0.000  0.000  0.000  0.000  0.000  0.000  0.000  0.000
tot    0.001  0.000  0.002  0.001  0.591  0.037  0.077  0.041  0.212  0.961
 
band    12 # energy   -5.40391174 # occ.  2.00000000
 
ion      s     py     pz     px    dxy    dyz    dz2    dxz  x2-y2    tot
    1  0.000  0.000  0.000  0.000  0.009  0.018  0.001  0.006  0.002  0.036
    2  0.000  0.000  0.000  0.000  0.077  0.058  0.000  0.028  0.300  0.465
    3  0.000  0.000  0.000  0.000  0.066  0.080  0.001  0.040  0.197  0.384
    4  0.000  0.000  0.000  0.000  0.038  0.025  0.000  0.009  0.011  0.084
    5  0.000  0.000  0.000  0.000  0.000  0.000  0.000  0.000  0.000  0.000
tot    0.000  0.001  0.000  0.000  0.190  0.182  0.002  0.083  0.510  0.969
 
band    13 # energy   -5.34947494 # occ.  2.00000000
 
ion      s     py     pz     px    dxy    dyz    dz2    dxz  x2-y2    tot
    1  0.004  0.000  0.002  0.000  0.068  0.000  0.288  0.001  0.023  0.386
    2  0.002  0.000  0.015  0.000  0.015  0.016  0.054  0.048  0.005  0.155
    3  0.000  0.000  0.018  0.000  0.090  0.014  0.046  0.043  0.031  0.242
    4  0.001  0.000  0.014  0.000  0.011  0.003  0.068  0.010  0.004  0.111
    5  0.006  0.000  0.000  0.000  0.000  0.000  0.000  0.000  0.000  0.006
tot    0.013  0.000  0.048  0.000  0.185  0.034  0.456  0.102  0.062  0.900
 
band    14 # energy   -5.25151898 # occ.  2.00000000
 
ion      s     py     pz     px    dxy    dyz    dz2    dxz  x2-y2    tot
    1  0.000  0.000  0.000  0.000  0.039  0.005  0.001  0.001  0.016  0.063
    2  0.000  0.000  0.000  0.000  0.030  0.008  0.000  0.002  0.112  0.153
    3  0.000  0.000  0.000  0.000  0.002  0.027  0.000  0.017  0.003  0.050
    4  0.000  0.000  0.000  0.000  0.136  0.005  0.000  0.001  0.562  0.704
    5  0.000  0.000  0.000  0.000  0.000  0.000  0.000  0.000  0.000  0.000
tot    0.000  0.001  0.001  0.000  0.207  0.044  0.002  0.021  0.693  0.969
 
band    15 # energy   -5.24949831 # occ.  2.00000000
 
ion      s     py     pz     px    dxy    dyz    dz2    dxz  x2-y2    tot
    1  0.003  0.000  0.000  0.000  0.379  0.000  0.055  0.001  0.155  0.595
    2  0.001  0.000  0.010  0.000  0.015  0.000  0.023  0.001  0.000  0.051
    3  0.000  0.000  0.011  0.000  0.008  0.018  0.017  0.029  0.004  0.088
    4  0.001  0.000  0.003  0.000  0.166  0.003  0.011  0.010  0.009  0.203
    5  0.001  0.000  0.000  0.000  0.000  0.000  0.000  0.000  0.000  0.001
tot    0.006  0.000  0.025  0.001  0.569  0.020  0.107  0.042  0.168  0.938
 
band    16 # energy   -5.15686961 # occ.  2.00000000
 
ion      s     py     pz     px    dxy    dyz    dz2    dxz  x2-y2    tot
    1  0.000  0.000  0.000  0.000  0.186  0.008  0.000  0.003  0.552  0.750
    2  0.000  0.000  0.000  0.000  0.001  0.058  0.000  0.019  0.002  0.081
    3  0.000  0.000  0.000  0.000  0.018  0.001  0.000  0.000  0.052  0.071
    4  0.000  0.000  0.000  0.000  0.015  0.007  0.000  0.002  0.045  0.069
    5  0.000  0.000  0.000  0.000  0.000  0.000  0.000  0.000  0.000  0.000
tot    0.000  0.001  0.000  0.000  0.220  0.073  0.000  0.024  0.651  0.970
 
band    17 # energy   -4.84031062 # occ.  2.00000000
 
ion      s     py     pz     px    dxy    dyz    dz2    dxz  x2-y2    tot
    1  0.000  0.000  0.000  0.000  0.038  0.017  0.004  0.046  0.013  0.119
    2  0.001  0.000  0.001  0.000  0.038  0.045  0.006  0.130  0.011  0.232
    3  0.001  0.000  0.001  0.000  0.054  0.060  0.003  0.218  0.015  0.351
    4  0.000  0.000  0.000  0.000  0.038  0.052  0.002  0.170  0.010  0.273
    5  0.000  0.000  0.000  0.000  0.000  0.000  0.000  0.000  0.000  0.000
tot    0.002  0.000  0.003  0.000  0.168  0.173  0.016  0.564  0.049  0.976
 
band    18 # energy   -4.81909534 # occ.  2.00000000
 
ion      s     py     pz     px    dxy    dyz    dz2    dxz  x2-y2    tot
    1  0.000  0.000  0.000  0.000  0.020  0.025  0.000  0.011  0.060  0.116
    2  0.000  0.000  0.000  0.000  0.013  0.119  0.000  0.040  0.042  0.213
    3  0.000  0.000  0.000  0.000  0.014  0.245  0.000  0.067  0.049  0.375
    4  0.000  0.000  0.000  0.000  0.019  0.147  0.000  0.045  0.066  0.277
    5  0.000  0.000  0.000  0.000  0.000  0.000  0.000  0.000  0.000  0.000
tot    0.000  0.000  0.000  0.000  0.065  0.535  0.000  0.163  0.218  0.981
 
band    19 # energy   -4.66454831 # occ.  2.00000000
 
ion      s     py     pz     px    dxy    dyz    dz2    dxz  x2-y2    tot
    1  0.002  0.000  0.006  0.000  0.011  0.146  0.010  0.321  0.004  0.500
    2  0.000  0.000  0.005  0.000  0.019  0.017  0.003  0.066  0.021  0.132
    3  0.001  0.000  0.003  0.000  0.002  0.021  0.014  0.027  0.012  0.079
    4  0.000  0.000  0.000  0.000  0.002  0.036  0.002  0.195  0.002  0.238
    5  0.001  0.000  0.000  0.000  0.000  0.000  0.000  0.000  0.000  0.001
tot    0.005  0.000  0.014  0.000  0.035  0.220  0.029  0.609  0.040  0.951
 
band    20 # energy   -4.66194192 # occ.  2.00000000
 
ion      s     py     pz     px    dxy    dyz    dz2    dxz  x2-y2    tot
    1  0.000  0.000  0.001  0.000  0.011  0.089  0.001  0.100  0.046  0.248
    2  0.000  0.000  0.001  0.000  0.020  0.239  0.001  0.052  0.014  0.327
    3  0.000  0.000  0.000  0.000  0.016  0.031  0.002  0.023  0.027  0.100
    4  0.000  0.000  0.000  0.000  0.003  0.251  0.000  0.045  0.006  0.304
    5  0.000  0.000  0.000  0.000  0.000  0.000  0.000  0.000  0.000  0.000
tot    0.001  0.000  0.002  0.000  0.051  0.610  0.004  0.219  0.093  0.979
 
band    21 # energy   -4.52510247 # occ.  2.00000000
 
ion      s     py     pz     px    dxy    dyz    dz2    dxz  x2-y2    tot
    1  0.012  0.000  0.011  0.000  0.014  0.042  0.082  0.136  0.005  0.300
    2  0.001  0.000  0.000  0.000  0.004  0.097  0.001  0.278  0.002  0.383
    3  0.001  0.000  0.001  0.000  0.006  0.000  0.017  0.002  0.002  0.029
    4  0.000  0.000  0.002  0.000  0.000  0.050  0.006  0.146  0.000  0.204
    5  0.003  0.000  0.000  0.000  0.000  0.000  0.000  0.000  0.000  0.003
tot    0.017  0.000  0.013  0.001  0.024  0.189  0.105  0.562  0.008  0.920
 
band    22 # energy   -4.43153778 # occ.  2.00000000
 
ion      s     py     pz     px    dxy    dyz    dz2    dxz  x2-y2    tot
    1  0.000  0.000  0.000  0.000  0.000  0.239  0.000  0.078  0.001  0.317
    2  0.000  0.000  0.000  0.000  0.002  0.003  0.000  0.002  0.006  0.013
    3  0.000  0.000  0.000  0.000  0.002  0.210  0.000  0.071  0.007  0.291
    4  0.000  0.000  0.000  0.000  0.003  0.265  0.000  0.089  0.009  0.366
    5  0.000  0.000  0.000  0.000  0.000  0.000  0.000  0.000  0.000  0.000
tot    0.000  0.000  0.000  0.000  0.008  0.717  0.000  0.240  0.022  0.987
 
band    23 # energy   -4.23377130 # occ.  2.00000000
 
ion      s     py     pz     px    dxy    dyz    dz2    dxz  x2-y2    tot
    1  0.000  0.000  0.000  0.000  0.002  0.334  0.000  0.111  0.007  0.454
    2  0.000  0.000  0.000  0.000  0.005  0.217  0.000  0.074  0.016  0.312
    3  0.000  0.000  0.000  0.000  0.003  0.115  0.000  0.039  0.008  0.165