  15  15   0   0
  0.2270914E+02  0.3946846E-09  0.3946846E-09  0.2186712E-08  0.5000000E-15
  1.000000000000000E-004
  CAR 
 unknown system                          
      9.17884703    -36.63124179  301      0.09317941      1.00000000
    -36.631  0.0000E+00  0.0000E+00
    -36.479  0.0000E+00  0.0000E+00
    -36.326  0.0000E+00  0.0000E+00
    -36.173  0.0000E+00  0.0000E+00
    -36.020  0.0000E+00  0.0000E+00
    -35.868  0.0000E+00  0.0000E+00
    -35.715  0.0000E+00  0.0000E+00
    -35.562  0.0000E+00  0.0000E+00
    -35.410  0.0000E+00  0.0000E+00
    -35.257  0.0000E+00  0.0000E+00
    -35.104  0.0000E+00  0.0000E+00
    -34.952  0.0000E+00  0.0000E+00
    -34.799  0.0000E+00  0.0000E+00
    -34.646  0.0000E+00  0.0000E+00
    -34.493  0.0000E+00  0.2000E+01
    -34.341  0.0000E+00  0.2000E+01
    -34.188  0.0000E+00  0.2000E+01
    -34.035  0.0000E+00  0.2000E+01
    -33.883  0.0000E+00  0.2000E+01
    -33.730  0.0000E+00  0.2000E+01
    -33.577  0.0000E+00  0.2000E+01
    -33.425  0.1318E+03  0.3004E+01
    -33.272  0.4830E+02  0.4336E+01
    -33.119  0.0000E+00  0.6000E+01
    -32.966  0.0000E+00  0.6000E+01
    -32.814  0.0000E+00  0.6000E+01
    -32.661  0.0000E+00  0.6000E+01
    -32.508  0.0000E+00  0.6000E+01
    -32.356  0.0000E+00  0.6000E+01
    -32.203  0.0000E+00  0.6000E+01
    -32.050  0.0000E+00  0.6000E+01
    -31.898  0.0000E+00  0.6000E+01
    -31.745  0.0000E+00  0.6000E+01
    -31.592  0.0000E+00  0.6000E+01
    -31.439  0.0000E+00  0.6000E+01
    -31.287  0.0000E+00  0.6000E+01
    -31.134  0.0000E+00  0.6000E+01
    -30.981  0.0000E+00  0.6000E+01
    -30.829  0.0000E+00  0.6000E+01
    -30.676  0.0000E+00  0.6000E+01
    -30.523  0.0000E+00  0.6000E+01
    -30.371  0.0000E+00  0.6000E+01
    -30.218  0.0000E+00  0.6000E+01
    -30.065  0.0000E+00  0.6000E+01
    -29.912  0.0000E+00  0.6000E+01
    -29.760  0.0000E+00  0.6000E+01
    -29.607  0.0000E+00  0.6000E+01
    -29.454  0.0000E+00  0.6000E+01
    -29.302  0.0000E+00  0.6000E+01
    -29.149  0.0000E+00  0.6000E+01
    -28.996  0.0000E+00  0.6000E+01
    -28.844  0.0000E+00  0.6000E+01
    -28.691  0.0000E+00  0.6000E+01
    -28.538  0.0000E+00  0.6000E+01
    -28.385  0.0000E+00  0.6000E+01
    -28.233  0.0000E+00  0.6000E+01
    -28.080  0.0000E+00  0.6000E+01
    -27.927  0.0000E+00  0.6000E+01
    -27.775  0.0000E+00  0.6000E+01
    -27.622  0.0000E+00  0.6000E+01
    -27.469  0.0000E+00  0.6000E+01
    -27.317  0.0000E+00  0.6000E+01
    -27.164  0.0000E+00  0.6000E+01
    -27.011  0.0000E+00  0.6000E+01
    -26.858  0.0000E+00  0.6000E+01
    -26.706  0.0000E+00  0.6000E+01
    -26.553  0.0000E+00  0.6000E+01
    -26.400  0.0000E+00  0.6000E+01
    -26.248  0.0000E+00  0.6000E+01
    -26.095  0.0000E+00  0.6000E+01
    -25.942  0.0000E+00  0.6000E+01
    -25.790  0.0000E+00  0.6000E+01
    -25.637  0.0000E+00  0.6000E+01
    -25.484  0.0000E+00  0.6000E+01
    -25.331  0.0000E+00  0.6000E+01
    -25.179  0.0000E+00  0.6000E+01
    -25.026  0.0000E+00  0.6000E+01
    -24.873  0.0000E+00  0.6000E+01
    -24.721  0.0000E+00  0.6000E+01
    -24.568  0.0000E+00  0.6000E+01
    -24.415  0.0000E+00  0.6000E+01
    -24.263  0.0000E+00  0.6000E+01
    -24.110  0.0000E+00  0.6000E+01
    -23.957  0.0000E+00  0.6000E+01
    -23.804  0.0000E+00  0.6000E+01
    -23.652  0.0000E+00  0.6000E+01
    -23.499  0.0000E+00  0.6000E+01
    -23.346  0.0000E+00  0.6000E+01
    -23.194  0.0000E+00  0.6000E+01
    -23.041  0.0000E+00  0.6000E+01
    -22.888  0.0000E+00  0.6000E+01
    -22.736  0.0000E+00  0.6000E+01
    -22.583  0.0000E+00  0.6000E+01
    -22.430  0.0000E+00  0.6000E+01
    -22.277  0.0000E+00  0.6000E+01
    -22.125  0.0000E+00  0.6000E+01
    -21.972  0.0000E+00  0.6000E+01
    -21.819  0.0000E+00  0.6000E+01
    -21.667  0.0000E+00  0.6000E+01
    -21.514  0.0000E+00  0.6000E+01
    -21.361  0.0000E+00  0.6000E+01
    -21.209  0.0000E+00  0.6000E+01
    -21.056  0.0000E+00  0.6000E+01
    -20.903  0.0000E+00  0.6000E+01
    -20.750  0.0000E+00  0.6000E+01
    -20.598  0.0000E+00  0.6000E+01
    -20.445  0.0000E+00  0.6000E+01
    -20.292  0.0000E+00  0.6000E+01
    -20.140  0.0000E+00  0.6000E+01
    -19.987  0.0000E+00  0.6000E+01
    -19.834  0.0000E+00  0.6000E+01
    -19.682  0.0000E+00  0.6000E+01
    -19.529  0.0000E+00  0.6000E+01
    -19.376  0.0000E+00  0.6000E+01
    -19.223  0.0000E+00  0.6000E+01
    -19.071  0.0000E+00  0.6000E+01
    -18.918  0.0000E+00  0.6000E+01
    -18.765  0.0000E+00  0.6000E+01
    -18.613  0.0000E+00  0.6000E+01
    -18.460  0.0000E+00  0.6000E+01
    -18.307  0.0000E+00  0.6000E+01
    -18.155  0.1617E+00  0.6000E+01
    -18.002  0.1444E+02  0.6734E+01
    -17.849  0.7123E+01  0.8036E+01
    -17.696  0.3982E+01  0.9060E+01
    -17.544  0.2751E+01  0.9567E+01
    -17.391  0.9589E+01  0.1079E+02
    -17.238  0.7227E+01  0.1242E+02
    -17.086  0.2738E+02  0.1435E+02
    -16.933  0.0000E+00  0.1800E+02
    -16.780  0.1327E+02  0.1982E+02
    -16.628  0.6682E+01  0.2128E+02
    -16.475  0.1896E+02  0.2297E+02
    -16.322  0.0000E+00  0.2800E+02
    -16.169  0.1165E+00  0.2800E+02
    -16.017  0.1259E+01  0.2812E+02
    -15.864  0.2472E+01  0.2841E+02
    -15.711  0.5822E+01  0.2902E+02
    -15.559  0.5548E+01  0.2978E+02
    -15.406  0.1121E+02  0.3261E+02
    -15.253  0.1970E+02  0.3628E+02
    -15.101  0.2097E+02  0.3922E+02
    -14.948  0.8522E+01  0.4194E+02
    -14.795  0.0000E+00  0.4200E+02
    -14.642  0.0000E+00  0.4200E+02
    -14.490  0.0000E+00  0.4200E+02
    -14.337  0.0000E+00  0.4200E+02
    -14.184  0.0000E+00  0.4200E+02
    -14.032  0.0000E+00  0.4200E+02
    -13.879  0.0000E+00  0.4200E+02
    -13.726  0.0000E+00  0.4200E+02
    -13.573  0.0000E+00  0.4200E+02
    -13.421  0.0000E+00  0.4200E+02
    -13.268  0.0000E+00  0.4200E+02
    -13.115  0.0000E+00  0.4200E+02
    -12.963  0.0000E+00  0.4200E+02
    -12.810  0.0000E+00  0.4200E+02
    -12.657  0.0000E+00  0.4200E+02
    -12.505  0.0000E+00  0.4200E+02
    -12.352  0.0000E+00  0.4200E+02
    -12.199  0.0000E+00  0.4200E+02
    -12.046  0.0000E+00  0.4200E+02
    -11.894  0.0000E+00  0.4200E+02
    -11.741  0.0000E+00  0.4200E+02
    -11.588  0.0000E+00  0.4200E+02
    -11.436  0.0000E+00  0.4200E+02
    -11.283  0.0000E+00  0.4200E+02
    -11.130  0.0000E+00  0.4200E+02
    -10.978  0.0000E+00  0.4200E+02
    -10.825  0.0000E+00  0.4200E+02
    -10.672  0.0000E+00  0.4200E+02
    -10.519  0.0000E+00  0.4200E+02
    -10.367  0.0000E+00  0.4200E+02
    -10.214  0.0000E+00  0.4200E+02
    -10.061  0.0000E+00  0.4200E+02
     -9.909  0.0000E+00  0.4200E+02
     -9.756  0.0000E+00  0.4200E+02
     -9.603  0.0000E+00  0.4200E+02
     -9.451  0.0000E+00  0.4200E+02
     -9.298  0.0000E+00  0.4200E+02
     -9.145  0.0000E+00  0.4200E+02
     -8.992  0.0000E+00  0.4200E+02
     -8.840  0.0000E+00  0.4200E+02
     -8.687  0.0000E+00  0.4200E+02
     -8.534  0.0000E+00  0.4200E+02
     -8.382  0.0000E+00  0.4200E+02
     -8.229  0.0000E+00  0.4200E+02
     -8.076  0.0000E+00  0.4200E+02
     -7.924  0.0000E+00  0.4200E+02
     -7.771  0.0000E+00  0.4200E+02
     -7.618  0.0000E+00  0.4200E+02
     -7.465  0.0000E+00  0.4200E+02
     -7.313  0.0000E+00  0.4200E+02
     -7.160  0.0000E+00  0.4200E+02
     -7.007  0.0000E+00  0.4200E+02
     -6.855  0.0000E+00  0.4200E+02
     -6.702  0.0000E+00  0.4200E+02
     -6.549  0.0000E+00  0.4200E+02
     -6.397  0.0000E+00  0.4200E+02
     -6.244  0.0000E+00  0.4200E+02
     -6.091  0.0000E+00  0.4200E+02
     -5.938  0.0000E+00  0.4200E+02
     -5.786  0.0000E+00  0.4200E+02
     -5.633  0.0000E+00  0.4200E+02
     -5.480  0.0000E+00  0.4200E+02
     -5.328  0.0000E+00  0.4200E+02
     -5.175  0.0000E+00  0.4200E+02
     -5.022  0.1443E+01  0.4205E+02
     -4.870  0.5648E+01  0.4294E+02
     -4.717  0.8063E+01  0.4448E+02
     -4.564  0.9935E+01  0.4644E+02
     -4.411  0.1201E+02  0.4841E+02
     -4.259  0.1039E+02  0.5022E+02
     -4.106  0.1143E+02  0.5214E+02
     -3.953  0.1184E+02  0.5394E+02
     -3.801  0.1720E+02  0.5597E+02
     -3.648  0.1791E+02  0.5891E+02
     -3.495  0.1782E+02  0.6166E+02
     -3.343  0.1081E+02  0.6389E+02
     -3.190  0.9315E+01  0.6542E+02
     -3.037  0.1150E+02  0.6727E+02
     -2.884  0.1110E+02  0.6892E+02
     -2.732  0.9463E+01  0.7064E+02
     -2.579  0.8143E+01  0.7201E+02
     -2.426  0.7210E+01  0.7311E+02
     -2.274  0.7965E+01  0.7440E+02
     -2.121  0.2130E+02  0.7580E+02
     -1.968  0.1710E+02  0.7796E+02
     -1.816  0.1063E+02  0.7997E+02
     -1.663  0.1217E+02  0.8301E+02
     -1.510  0.1478E+02  0.8523E+02
     -1.357  0.1829E+02  0.8726E+02
     -1.205  0.1704E+02  0.9029E+02
     -1.052  0.9599E+01  0.9225E+02
     -0.899  0.9980E+01  0.9362E+02
     -0.747  0.2306E+01  0.9512E+02
     -0.594  0.1251E+01  0.9539E+02
     -0.441  0.1033E+01  0.9556E+02
     -0.289  0.1038E+01  0.9572E+02
     -0.136  0.7684E+00  0.9586E+02
      0.017  0.4985E+00  0.9596E+02
      0.170  0.0000E+00  0.9600E+02
      0.322  0.0000E+00  0.9600E+02
      0.475  0.0000E+00  0.9600E+02
      0.628  0.0000E+00  0.9600E+02
      0.780  0.0000E+00  0.9600E+02
      0.933  0.0000E+00  0.9600E+02
      1.086  0.3633E+00  0.9601E+02
      1.238  0.2844E+01  0.9618E+02
      1.391  0.4090E+01  0.9677E+02
      1.544  0.3781E+01  0.9745E+02
      1.697  0.3627E+01  0.9797E+02
      1.849  0.4846E+01  0.9863E+02
      2.002  0.8939E+01  0.9976E+02
      2.155  0.7735E+01  0.1011E+03
      2.307  0.8423E+01  0.1023E+03
      2.460  0.9195E+01  0.1037E+03
      2.613  0.1439E+02  0.1054E+03
      2.765  0.1530E+02  0.1079E+03
      2.918  0.1321E+02  0.1101E+03
      3.071  0.1403E+02  0.1120E+03
      3.224  0.1110E+01  0.1130E+03
      3.376  0.3728E+00  0.1131E+03
      3.529  0.3625E+00  0.1132E+03
      3.682  0.3521E+00  0.1132E+03
      3.834  0.3417E+00  0.1133E+03
      3.987  0.3313E+00  0.1133E+03
      4.140  0.3209E+00  0.1134E+03
      4.292  0.3105E+00  0.1134E+03
      4.445  0.3002E+00  0.1135E+03
      4.598  0.2898E+00  0.1135E+03
      4.751  0.2794E+00  0.1136E+03
      4.903  0.2690E+00  0.1136E+03
      5.056  0.2618E+00  0.1137E+03
      5.209  0.3588E+00  0.1137E+03
      5.361  0.8850E+00  0.1138E+03
      5.514  0.6697E+00  0.1139E+03
      5.667  0.6301E+00  0.1140E+03
      5.819  0.6576E+00  0.1141E+03
      5.972  0.7666E+00  0.1142E+03
      6.125  0.8755E+00  0.1143E+03
      6.278  0.1066E+01  0.1145E+03
      6.430  0.1102E+01  0.1146E+03
      6.583  0.1092E+01  0.1149E+03
      6.736  0.1494E+01  0.1151E+03
      6.888  0.1741E+01  0.1153E+03
      7.041  0.3435E+01  0.1158E+03
      7.194  0.0000E+00  0.1160E+03
      7.346  0.0000E+00  0.1160E+03
      7.499  0.0000E+00  0.1160E+03
      7.652  0.0000E+00  0.1160E+03
      7.805  0.0000E+00  0.1160E+03
      7.957  0.0000E+00  0.1160E+03
      8.110  0.0000E+00  0.1160E+03
      8.263  0.0000E+00  0.1160E+03
      8.415  0.0000E+00  0.1160E+03
      8.568  0.0000E+00  0.1160E+03
      8.721  0.0000E+00  0.1160E+03
      8.873  0.0000E+00  0.1160E+03
      9.026  0.0000E+00  0.1160E+03
      9.179  0.0000E+00  0.1160E+03
