 vasp.5.4.4.18Apr17-6-g9f103f2a35 (build Jun 30 2017 11:15:00) complex          
  
 executed on    STALLO_VASP_5.4.4 date 2019.11.04  15:05:44
 running on    4 total cores
 distrk:  each k-point on    4 cores,    1 groups
 distr:  one band on NCORES_PER_BAND=   2 cores,    2 groups


--------------------------------------------------------------------------------------------------------


 INCAR:
 POTCAR:   PAW_PBE O 08Apr2002                    
 POTCAR:   PAW_PBE Sr_sv 07Sep2000                
 POTCAR:   PAW_PBE Ti 08Apr2002                   
 POTCAR:   PAW_PBE O 08Apr2002                    
   VRHFIN =O: s2p4                                                              
   LEXCH  = PE                                                                  
   EATOM  =   432.3788 eV,   31.7789 Ry                                         
                                                                                
   TITEL  = PAW_PBE O 08Apr2002                                                 
   LULTRA =        F    use ultrasoft PP ?                                      
   IUNSCR =        0    unscreen: 0-lin 1-nonlin 2-no                           
   RPACOR =     .000    partial core radius                                     
   POMASS =   16.000; ZVAL   =    6.000    mass and valenz                      
   RCORE  =    1.520    outmost cutoff radius                                   
   RWIGS  =    1.550; RWIGS  =     .820    wigner-seitz radius (au A)           
   ENMAX  =  400.000; ENMIN  =  300.000 eV                                      
   ICORE  =        2    local potential                                         
   LCOR   =        T    correct aug charges                                     
   LPAW   =        T    paw PP                                                  
   EAUG   =  605.392                                                            
   DEXC   =     .000                                                            
   RMAX   =    2.264    core radius for proj-oper                               
   RAUG   =    1.300    factor for augmentation sphere                          
   RDEP   =    1.550    radius for radial grids                                 
   QCUT   =   -5.520; QGAM   =   11.041    optimization parameters              
                                                                                
   Description                                                                  
     l     E      TYP  RCUT    TYP  RCUT                                        
     0   .000     23  1.200                                                     
     0  -.700     23  1.200                                                     
     1   .000     23  1.520                                                     
     1   .600     23  1.520                                                     
     2   .000      7  1.500                                                     
  local pseudopotential read in
  atomic valenz-charges read in
  non local Contribution for L=           0  read in
    real space projection operators read in
  non local Contribution for L=           0  read in
    real space projection operators read in
  non local Contribution for L=           1  read in
    real space projection operators read in
  non local Contribution for L=           1  read in
    real space projection operators read in
    PAW grid and wavefunctions read in
 
   number of l-projection  operators is LMAX  =           4
   number of lm-projection operators is LMMAX =           8
 
 POTCAR:   PAW_PBE Sr_sv 07Sep2000                
   VRHFIN =Sr: 4s4p5s                                                           
   LEXCH  = PE                                                                  
   EATOM  =   842.4562 eV,   61.9188 Ry                                         
                                                                                
   TITEL  = PAW_PBE Sr_sv 07Sep2000                                             
   LULTRA =        F    use ultrasoft PP ?                                      
   IUNSCR =        1    unscreen: 0-lin 1-nonlin 2-no                           
   RPACOR =    2.200    partial core radius                                     
   POMASS =   87.620; ZVAL   =   10.000    mass and valenz                      
   RCORE  =    2.500    outmost cutoff radius                                   
   RWIGS  =    4.040; RWIGS  =    2.138    wigner-seitz radius (au A)           
   ENMAX  =  229.282; ENMIN  =  171.961 eV                                      
   RCLOC  =    2.201    cutoff for local pot                                    
   LCOR   =        T    correct aug charges                                     
   LPAW   =        T    paw PP                                                  
   EAUG   =  366.804                                                            
   DEXC   =     .000                                                            
   RMAX   =    3.045    core radius for proj-oper                               
   RAUG   =    1.300    factor for augmentation sphere                          
   RDEP   =    2.562    radius for radial grids                                 
   QCUT   =   -4.105; QGAM   =    8.210    optimization parameters              
                                                                                
   Description                                                                  
     l     E      TYP  RCUT    TYP  RCUT                                        
     0   .000     23  2.480                                                     
     0   .000     23  2.480                                                     
     1   .000     23  2.500                                                     
     1   .000     23  2.500                                                     
     2   .000     23  2.500                                                     
     2   .000     23  2.500                                                     
  local pseudopotential read in
  partial core-charges read in
  atomic valenz-charges read in
  non local Contribution for L=           0  read in
    real space projection operators read in
  non local Contribution for L=           0  read in
    real space projection operators read in
  non local Contribution for L=           1  read in
    real space projection operators read in
  non local Contribution for L=           1  read in
    real space projection operators read in
  non local Contribution for L=           2  read in
    real space projection operators read in
  non local Contribution for L=           2  read in
    real space projection operators read in
    PAW grid and wavefunctions read in
 
   number of l-projection  operators is LMAX  =           6
   number of lm-projection operators is LMMAX =          18
 
 POTCAR:   PAW_PBE Ti 08Apr2002                   
   VRHFIN =Ti: d3 s1                                                            
   LEXCH  = PE                                                                  
   EATOM  =    94.7929 eV,    6.9671 Ry                                         
                                                                                
   TITEL  = PAW_PBE Ti 08Apr2002                                                
   LULTRA =        F    use ultrasoft PP ?                                      
   IUNSCR =        1    unscreen: 0-lin 1-nonlin 2-no                           
   RPACOR =    2.200    partial core radius                                     
   POMASS =   47.880; ZVAL   =    4.000    mass and valenz                      
   RCORE  =    2.800    outmost cutoff radius                                   
   RWIGS  =    2.500; RWIGS  =    1.323    wigner-seitz radius (au A)           
   ENMAX  =  178.330; ENMIN  =  133.747 eV                                      
   RCLOC  =    2.215    cutoff for local pot                                    
   LCOR   =        T    correct aug charges                                     
   LPAW   =        T    paw PP                                                  
   EAUG   =  328.883                                                            
   DEXC   =    -.043                                                            
   RMAX   =    3.453    core radius for proj-oper                               
   RAUG   =    1.300    factor for augmentation sphere                          
   RDEP   =    2.885    radius for radial grids                                 
   QCUT   =   -3.620; QGAM   =    7.241    optimization parameters              
                                                                                
   Description                                                                  
     l     E      TYP  RCUT    TYP  RCUT                                        
     2   .000     23  2.800                                                     
     2   .000     23  2.800                                                     
     0   .000     23  2.800                                                     
     0  1.500     23  2.800                                                     
     1  -.400     23  2.800                                                     
     3   .000      7   .000                                                     
  local pseudopotential read in
  partial core-charges read in
  atomic valenz-charges read in
  non local Contribution for L=           2  read in
    real space projection operators read in
  non local Contribution for L=           2  read in
    real space projection operators read in
  non local Contribution for L=           0  read in
    real space projection operators read in
  non local Contribution for L=           0  read in
    real space projection operators read in
  non local Contribution for L=           1  read in
    real space projection operators read in
    PAW grid and wavefunctions read in
 
   number of l-projection  operators is LMAX  =           5
   number of lm-projection operators is LMMAX =          15
 
 PAW_PBE O 08Apr2002                    :
 energy of atom  1       EATOM= -432.3788
 kinetic energy error for atom=    0.0224 (will be added to EATOM!!)
 PAW_PBE Sr_sv 07Sep2000                :
 energy of atom  2       EATOM= -842.4562
 kinetic energy error for atom=    0.0012 (will be added to EATOM!!)
 PAW_PBE Ti 08Apr2002                   :
 energy of atom  3       EATOM=  -94.7929
 kinetic energy error for atom=    0.0002 (will be added to EATOM!!)
 
 
 POSCAR:  O Sr Ti                                
  positions in direct lattice
  No initial velocities read in
 exchange correlation table for  LEXCH =        8
   RHO(1)=    0.500       N(1)  =     2000
   RHO(2)=  100.500       N(2)  =     4000
 


--------------------------------------------------------------------------------------------------------


 ion  position               nearest neighbor table
   1  0.500  0.500  0.274-  13 1.97  10 2.79  10 2.79  10 2.79  10 2.79
   2  0.500  0.000  0.365-  13 1.97  13 1.97  10 2.79  11 2.79  10 2.79  11 2.79
   3  0.000  0.500  0.365-  13 1.97  13 1.97  10 2.79  10 2.79  11 2.79  11 2.79
   4  0.500  0.500  0.455-  13 1.97  14 1.97  11 2.79  11 2.79  11 2.79  11 2.79
   5  0.500  0.000  0.545-  14 1.97  14 1.97  12 2.79  12 2.79  11 2.79  11 2.79
   6  0.000  0.500  0.545-  14 1.97  14 1.97  12 2.79  12 2.79  11 2.79  11 2.79
   7  0.500  0.500  0.635-  14 1.97  15 1.97  12 2.79  12 2.79  12 2.79  12 2.79
   8  0.500  0.000  0.726-  15 1.97  15 1.97  12 2.79  12 2.79
   9  0.000  0.500  0.726-  15 1.97  15 1.97  12 2.79  12 2.79
  10  0.000  0.000  0.274-   2 2.79   3 2.79   3 2.79   2 2.79   1 2.79   1 2.79   1 2.79   1 2.79
                            13 3.42  13 3.42  13 3.42  13 3.42  11 3.95
  11  0.000  0.000  0.455-   2 2.79   3 2.79   3 2.79   2 2.79   4 2.79   4 2.79   4 2.79   4 2.79
                             5 2.79   6 2.79   5 2.79   6 2.79  13 3.42  13 3.42  13 3.42  13 3.42
  12  0.000  0.000  0.635-   5 2.79   6 2.79   8 2.79   9 2.79   6 2.79   9 2.79   5 2.79   8 2.79
                             7 2.79   7 2.79   7 2.79   7 2.79  15 3.42  14 3.42  14 3.42  14 3.42
  13  0.500  0.500  0.365-   1 1.97   4 1.97   3 1.97   2 1.97   2 1.97   3 1.97  10 3.42  10 3.42
                            11 3.42  11 3.42  10 3.42  11 3.42  10 3.42  11 3.42
  14  0.500  0.500  0.545-   7 1.97   6 1.97   5 1.97   5 1.97   6 1.97   4 1.97  12 3.42  12 3.42
                            12 3.42  12 3.42  11 3.42  11 3.42  11 3.42  11 3.42
  15  0.500  0.500  0.726-   7 1.97   8 1.97   9 1.97   8 1.97   9 1.97  12 3.42  12 3.42  12 3.42
                            12 3.42
 
  LATTYP: Found a simple tetragonal cell.
 ALAT       =     3.9468463416
 C/A-ratio  =     5.5404021240
  
  Lattice vectors:
  
 A1 = (   3.9468463416,   0.0000000000,   0.0000000000)
 A2 = (   0.0000000000,   3.9468463416,   0.0000000000)
 A3 = (   0.0000000000,   0.0000000000,  21.8671158540)


Analysis of symmetry for initial positions (statically):
=====================================================================
 Subroutine PRICEL returns:
 Original cell was already a primitive cell.
 

 Routine SETGRP: Setting up the symmetry group for a 
 simple tetragonal supercell.


 Subroutine GETGRP returns: Found  8 space group operations
 (whereof  8 operations were pure point group operations)
 out of a pool of 16 trial point group operations.


The static configuration has the point symmetry C_4v.


Analysis of symmetry for dynamics (positions and initial velocities):
=====================================================================
 Subroutine PRICEL returns:
 Original cell was already a primitive cell.
 

 Routine SETGRP: Setting up the symmetry group for a 
 simple tetragonal supercell.


 Subroutine GETGRP returns: Found  8 space group operations
 (whereof  8 operations were pure point group operations)
 out of a pool of 16 trial point group operations.


The dynamic configuration has the point symmetry C_4v.


 Subroutine INISYM returns: Found  8 space group operations
 (whereof  8 operations are pure point group operations),
 and found     1 'primitive' translations

 
 
 KPOINTS: k-density: 4.0                          

Automatic generation of k-mesh.
Space group operators:
 irot       det(A)        alpha          n_x          n_y          n_z        tau_x        tau_y        tau_z
    1     1.000000     0.000000     1.000000     0.000000     0.000000     0.000000     0.000000     0.000000
    2     1.000000    90.000000     0.000000     0.000000    -1.000000     0.000000     0.000000     0.000000
    3     1.000000   180.000000     0.000000     0.000000     1.000000     0.000000     0.000000     0.000000
    4     1.000000    90.000000     0.000000     0.000000     1.000000     0.000000     0.000000     0.000000
    5    -1.000000   180.000000     0.000000     1.000000     0.000000     0.000000     0.000000     0.000000
    6    -1.000000   180.000000     0.707107     0.707107     0.000000     0.000000     0.000000     0.000000
    7    -1.000000   180.000000     1.000000     0.000000     0.000000     0.000000     0.000000     0.000000
    8    -1.000000   180.000000     0.707107    -0.707107     0.000000     0.000000     0.000000     0.000000
 
 Subroutine IBZKPT returns following result:
 ===========================================
 
 Found     10 irreducible k-points:
 
 Following reciprocal coordinates:
            Coordinates               Weight
  0.000000  0.000000  0.000000      1.000000
  0.142857  0.000000  0.000000      4.000000
  0.285714  0.000000  0.000000      4.000000
  0.428571  0.000000  0.000000      4.000000
  0.142857  0.142857  0.000000      4.000000
  0.285714  0.142857  0.000000      8.000000
  0.428571  0.142857  0.000000      8.000000
  0.285714  0.285714  0.000000      4.000000
  0.428571  0.285714  0.000000      8.000000
  0.428571  0.428571  0.000000      4.000000
 
 Following cartesian coordinates:
            Coordinates               Weight
  0.000000  0.000000  0.000000      1.000000
  0.036195  0.000000  0.000000      4.000000
  0.072391  0.000000  0.000000      4.000000
  0.108586  0.000000  0.000000      4.000000
  0.036195  0.036195  0.000000      4.000000
  0.072391  0.036195  0.000000      8.000000
  0.108586  0.036195  0.000000      8.000000
  0.072391  0.072391  0.000000      4.000000
  0.108586  0.072391  0.000000      8.000000
  0.108586  0.108586  0.000000      4.000000
 
 TETIRR: Found     65 inequivalent tetrahedra from      294


--------------------------------------------------------------------------------------------------------




 Dimension of arrays:
   k-points           NKPTS =     10   k-points in BZ     NKDIM =     10   number of bands    NBANDS=     58
   number of dos      NEDOS =    301   number of ions     NIONS =     15
   non local maximal  LDIM  =      6   non local SUM 2l+1 LMDIM =     18
   total plane-waves  NPLWV =  69120
   max r-space proj   IRMAX =      1   max aug-charges    IRDMAX=  14212
   dimension x,y,z NGX =    24 NGY =   24 NGZ =  120
   dimension x,y,z NGXF=    48 NGYF=   48 NGZF=  240
   support grid    NGXF=    48 NGYF=   48 NGZF=  240
   ions per type =               9   3   3
   NGX,Y,Z   is equivalent  to a cutoff of  10.11, 10.11,  9.12 a.u.
   NGXF,Y,Z  is equivalent  to a cutoff of  20.22, 20.22, 18.25 a.u.

 SYSTEM =  unknown system                          
 POSCAR =   O Sr Ti                                

 Startparameter for this run:
   NWRITE =      2    write-flag & timer
   PREC   = normal    normal or accurate (medium, high low for compatibility)
   ISTART =      0    job   : 0-new  1-cont  2-samecut
   ICHARG =      2    charge: 1-file 2-atom 10-const
   ISPIN  =      1    spin polarized calculation?
   LNONCOLLINEAR =      F non collinear calculations
   LSORBIT =      F    spin-orbit coupling
   INIWAV =      1    electr: 0-lowe 1-rand  2-diag
   LASPH  =      F    aspherical Exc in radial PAW
   METAGGA=      F    non-selfconsistent MetaGGA calc.

 Electronic Relaxation 1
   ENCUT  =  500.0 eV  36.75 Ry    6.06 a.u.   7.20  7.20 39.87*2*pi/ulx,y,z
   ENINI  =  500.0     initial cutoff
   ENAUG  =  605.4 eV  augmentation charge cutoff
   NELM   =     60;   NELMIN=  4; NELMDL= -5     # of ELM steps 
   EDIFF  = 0.1E-04   stopping-criterion for ELM
   LREAL  =      F    real-space projection
   NLSPLINE    = F    spline interpolate recip. space projectors
   LCOMPAT=      F    compatible to vasp.4.4
   GGA_COMPAT  = T    GGA compatible to vasp.4.4-vasp.4.6
   LMAXPAW     = -100 max onsite density
   LMAXMIX     =    2 max onsite mixed and CHGCAR
   VOSKOWN=      0    Vosko Wilk Nusair interpolation
   ROPT   =    0.00000   0.00000   0.00000
 Ionic relaxation
   EDIFFG = 0.1E-03   stopping-criterion for IOM
   NSW    =      0    number of steps for IOM
   NBLOCK =      1;   KBLOCK =      1    inner block; outer block 
   IBRION =     -1    ionic relax: 0-MD 1-quasi-New 2-CG
   NFREE  =      0    steps in history (QN), initial steepest desc. (CG)
   ISIF   =      2    stress and relaxation
   IWAVPR =     10    prediction:  0-non 1-charg 2-wave 3-comb
   ISYM   =      2    0-nonsym 1-usesym 2-fastsym
   LCORR  =      T    Harris-Foulkes like correction to forces

   POTIM  = 0.5000    time-step for ionic-motion
   TEIN   =    0.0    initial temperature
   TEBEG  =    0.0;   TEEND  =   0.0 temperature during run
   SMASS  =  -3.00    Nose mass-parameter (am)
   estimated Nose-frequenzy (Omega)   =  0.10E-29 period in steps =****** mass=  -0.356E-27a.u.
   SCALEE = 1.0000    scale energy and forces
   NPACO  =    256;   APACO  = 16.0  distance and # of slots for P.C.
   PSTRESS=    0.0 pullay stress

  Mass of Ions in am
   POMASS =  16.00 87.62 47.88
  Ionic Valenz
   ZVAL   =   6.00 10.00  4.00
  Atomic Wigner-Seitz radii
   RWIGS  =  -1.00 -1.00 -1.00
  virtual crystal weights 
   VCA    =   1.00  1.00  1.00
   NELECT =      96.0000    total number of electrons
   NUPDOWN=      -1.0000    fix difference up-down

 DOS related values:
   EMIN   =  10.00;   EMAX   =-10.00  energy-range for DOS
   EFERMI =   0.00
   ISMEAR =    -5;   SIGMA  =   0.20  broadening in eV -4-tet -1-fermi 0-gaus

 Electronic relaxation 2 (details)
   IALGO  =     68    algorithm
   LDIAG  =      T    sub-space diagonalisation (order eigenvalues)
   LSUBROT=      F    optimize rotation matrix (better conditioning)
   TURBO    =      0    0=normal 1=particle mesh
   IRESTART =      0    0=no restart 2=restart with 2 vectors
   NREBOOT  =      0    no. of reboots
   NMIN     =      0    reboot dimension
   EREF     =   0.00    reference energy to select bands
   IMIX   =      4    mixing-type and parameters
     AMIX     =   0.40;   BMIX     =  1.00
     AMIX_MAG =   1.60;   BMIX_MAG =  1.00
     AMIN     =   0.10
     WC   =   100.;   INIMIX=   1;  MIXPRE=   1;  MAXMIX= -45

 Intra band minimization:
   WEIMIN = 0.0000     energy-eigenvalue tresh-hold
   EBREAK =  0.43E-07  absolut break condition
   DEPER  =   0.30     relativ break condition  

   TIME   =   0.40     timestep for ELM

  volume/ion in A,a.u.               =      22.71       153.25
  Fermi-wavevector in a.u.,A,eV,Ry     =   1.073333  2.028306 15.674515  1.152044
  Thomas-Fermi vector in A             =   2.209130
 
 Write flags
   LWAVE        =      F    write WAVECAR
   LDOWNSAMPLE  =      F    k-point downsampling of WAVECAR
   LCHARG       =      T    write CHGCAR
   LVTOT        =      F    write LOCPOT, total local potential
   LVHAR        =      F    write LOCPOT, Hartree potential only
   LELF         =      F    write electronic localiz. function (ELF)
   LORBIT       =      0    0 simple, 1 ext, 2 COOP (PROOUT), +10 PAW based schemes


 Dipole corrections
   LMONO  =      F    monopole corrections only (constant potential shift)
   LDIPOL =      F    correct potential (dipole corrections)
   IDIPOL =      0    1-x, 2-y, 3-z, 4-all directions 
   EPSILON=  1.0000000 bulk dielectric constant

 Exchange correlation treatment:
   GGA     =    --    GGA type
   LEXCH   =     8    internal setting for exchange type
   VOSKOWN=      0    Vosko Wilk Nusair interpolation
   LHFCALC =     F    Hartree Fock is set to
   LHFONE  =     F    Hartree Fock one center treatment
   AEXX    =    0.0000 exact exchange contribution

 Linear response parameters
   LEPSILON=     F    determine dielectric tensor
   LRPA    =     F    only Hartree local field effects (RPA)
   LNABLA  =     F    use nabla operator in PAW spheres
   LVEL    =     F    velocity operator in full k-point grid
   LINTERFAST=   F  fast interpolation
   KINTER  =     0    interpolate to denser k-point grid
   CSHIFT  =0.1000    complex shift for real part using Kramers Kronig
   OMEGAMAX=  -1.0    maximum frequency
   DEG_THRESHOLD= 0.2000000E-02 threshold for treating states as degnerate
   RTIME   =   -0.100 relaxation time in fs
  (WPLASMAI=    0.000 imaginary part of plasma frequency in eV, 0.658/RTIME)
   DFIELD  = 0.0000000 0.0000000 0.0000000 field for delta impulse in time
 
 Orbital magnetization related:
   ORBITALMAG=     F  switch on orbital magnetization
   LCHIMAG   =     F  perturbation theory with respect to B field
   DQ        =  0.001000  dq finite difference perturbation B field
   LLRAUG    =     F  two centre corrections for induced B field



--------------------------------------------------------------------------------------------------------


 Static calculation
 charge density and potential will be updated during run
 non-spin polarized calculation
 RMM-DIIS sequential band-by-band and
  variant of blocked Davidson during initial phase
 perform sub-space diagonalisation
    before iterative eigenvector-optimisation
 modified Broyden-mixing scheme, WC =      100.0
 initial mixing is a Kerker type mixing with AMIX =  0.4000 and BMIX =      1.0000
 Hartree-type preconditioning will be used
 using additional bands           10
 reciprocal scheme for non local part
 use partial core corrections
 calculate Harris-corrections to forces 
   (improved forces if not selfconsistent)
 use gradient corrections 
 use of overlap-Matrix (Vanderbilt PP)
 Fermi weights with tetrahedron method with Bloechl corrections


--------------------------------------------------------------------------------------------------------


  energy-cutoff  :      500.00
  volume of cell :      340.64
      direct lattice vectors                 reciprocal lattice vectors
     3.946846342  0.000000000  0.000000000     0.253366844  0.000000000  0.000000000
     0.000000000  3.946846342  0.000000000     0.000000000  0.253366844  0.000000000
     0.000000000  0.000000000 21.867115854     0.000000000  0.000000000  0.045730768

  length of vectors
     3.946846342  3.946846342 21.867115854     0.253366844  0.253366844  0.045730768


 
 k-points in units of 2pi/SCALE and weight: k-density: 4.0                          
   0.00000000  0.00000000  0.00000000       0.020
   0.03619526  0.00000000  0.00000000       0.082
   0.07239053  0.00000000  0.00000000       0.082
   0.10858579  0.00000000  0.00000000       0.082
   0.03619526  0.03619526  0.00000000       0.082
   0.07239053  0.03619526  0.00000000       0.163
   0.10858579  0.03619526  0.00000000       0.163
   0.07239053  0.07239053  0.00000000       0.082
   0.10858579  0.07239053  0.00000000       0.163
   0.10858579  0.10858579  0.00000000       0.082
 
 k-points in reciprocal lattice and weights: k-density: 4.0                          
   0.00000000  0.00000000  0.00000000       0.020
   0.14285714  0.00000000  0.00000000       0.082
   0.28571429  0.00000000  0.00000000       0.082
   0.42857143  0.00000000  0.00000000       0.082
   0.14285714  0.14285714  0.00000000       0.082
   0.28571429  0.14285714  0.00000000       0.163
   0.42857143  0.14285714  0.00000000       0.163
   0.28571429  0.28571429  0.00000000       0.082
   0.42857143  0.28571429  0.00000000       0.163
   0.42857143  0.42857143  0.00000000       0.082
 
 position of ions in fractional coordinates (direct lattice) 
   0.50000000  0.50000000  0.27438461
   0.50000000  0.00000000  0.36463076
   0.00000000  0.50000000  0.36463076
   0.50000000  0.50000000  0.45487692
   0.50000000  0.00000000  0.54512308
   0.00000000  0.50000000  0.54512308
   0.50000000  0.50000000  0.63536924
   0.50000000  0.00000000  0.72561539
   0.00000000  0.50000000  0.72561539
   0.00000000  0.00000000  0.27438461
   0.00000000  0.00000000  0.45487692
   0.00000000  0.00000000  0.63536924
   0.50000000  0.50000000  0.36463076
   0.50000000  0.50000000  0.54512308
   0.50000000  0.50000000  0.72561539
 
 position of ions in cartesian coordinates  (Angst):
   1.97342317  1.97342317  6.00000000
   1.97342317  0.00000000  7.97342317
   0.00000000  1.97342317  7.97342317
   1.97342317  1.97342317  9.94684634
   1.97342317  0.00000000 11.92026951
   0.00000000  1.97342317 11.92026951
   1.97342317  1.97342317 13.89369268
   1.97342317  0.00000000 15.86711585
   0.00000000  1.97342317 15.86711585
   0.00000000  0.00000000  6.00000000
   0.00000000  0.00000000  9.94684634
   0.00000000  0.00000000 13.89369268
   1.97342317  1.97342317  7.97342317
   1.97342317  1.97342317 11.92026951
   1.97342317  1.97342317 15.86711585
 


--------------------------------------------------------------------------------------------------------


 k-point  1 :   0.0000 0.0000 0.0000  plane waves:    8631
 k-point  2 :   0.1429 0.0000 0.0000  plane waves:    8637
 k-point  3 :   0.2857 0.0000 0.0000  plane waves:    8660
 k-point  4 :   0.4286 0.0000 0.0000  plane waves:    8666
 k-point  5 :   0.1429 0.1429 0.0000  plane waves:    8630
 k-point  6 :   0.2857 0.1429 0.0000  plane waves:    8643
 k-point  7 :   0.4286 0.1429 0.0000  plane waves:    8663
 k-point  8 :   0.2857 0.2857 0.0000  plane waves:    8654
 k-point  9 :   0.4286 0.2857 0.0000  plane waves:    8640
 k-point 10 :   0.4286 0.4286 0.0000  plane waves:    8664

 maximum and minimum number of plane-waves per node :      4347     4300

 maximum number of plane-waves:      8666
 maximum index in each direction: 
   IXMAX=    7   IYMAX=    7   IZMAX=   39
   IXMIN=   -7   IYMIN=   -7   IZMIN=  -39


 parallel 3D FFT for wavefunctions:
    minimum data exchange during FFTs selected (reduces bandwidth)
 parallel 3D FFT for charge:
    minimum data exchange during FFTs selected (reduces bandwidth)


 total amount of memory used by VASP MPI-rank0    86546. kBytes
=======================================================================

   base      :      30000. kBytes
   nonl-proj :      19826. kBytes
   fftplans  :       5724. kBytes
   grid      :      10289. kBytes
   one-center:        124. kBytes
   wavefun   :      20583. kBytes
 
     INWAV:  cpu time    0.0000: real time    0.0000
 Broyden mixing: mesh for mixing (old mesh)
   NGX = 15   NGY = 15   NGZ = 79
  (NGX  = 48   NGY  = 48   NGZ  =240)
  gives a total of  17775 points

 initial charge density was supplied:
 charge density of overlapping atoms calculated
 number of electron      96.0000000 magnetization 
 keeping initial charge density in first step


--------------------------------------------------------------------------------------------------------


 Maximum index for augmentation-charges         3400 (set IRDMAX)


--------------------------------------------------------------------------------------------------------


 First call to EWALD:  gamma=   0.254
 Maximum number of real-space cells 4x 4x 1
 Maximum number of reciprocal cells 2x 2x 8

    FEWALD:  cpu time    0.0020: real time    0.0016


--------------------------------------- Iteration      1(   1)  ---------------------------------------


    POTLOK:  cpu time    0.0810: real time    0.2926
    SETDIJ:  cpu time    0.0090: real time    0.0096
     EDDAV:  cpu time    2.5146: real time    2.5197
 BZINTS: Fermi energy: 13.707376; 96.000000 electrons
         Band energy:  -4.251147;  BLOECHL correction: -0.080156
       DOS:  cpu time    0.0060: real time    0.0053
    --------------------------------------------
      LOOP:  cpu time    2.6106: real time    2.8272

 eigenvalue-minimisations  :  1176
 total energy-change (2. order) : 0.1164398E+04  (-0.4168588E+04)
 number of electron      96.0000000 magnetization 
 augmentation part       96.0000000 magnetization 

 Free energy of the ion-electron system (eV)
  ---------------------------------------------------
  alpha Z        PSCENC =       291.75109210
  Ewald energy   TEWEN  =     15459.91788614
  -Hartree energ DENC   =    -21675.97679573
  -exchange      EXHF   =         0.00000000
  -V(xc)+E(xc)   XCENC  =       243.51992005
  PAW double counting   =      4000.83891758    -3854.35338191
  entropy T*S    EENTRO =         0.00000000
  eigenvalues    EBANDS =        -4.25114746
  atomic energy  EATOM  =      6702.95118763
  Solvation  Ediel_sol  =         0.00000000
  ---------------------------------------------------
  free energy    TOTEN  =      1164.39767839 eV

  energy without entropy =     1164.39767839  energy(sigma->0) =     1164.39767839


--------------------------------------------------------------------------------------------------------




--------------------------------------- Iteration      1(   2)  ---------------------------------------


     EDDAV:  cpu time    2.9995: real time    3.0041
 BZINTS: Fermi energy:  3.588971; 96.000000 electrons
         Band energy:***********;  BLOECHL correction: -0.141597
       DOS:  cpu time    0.0050: real time    0.0049
    --------------------------------------------
      LOOP:  cpu time    3.0045: real time    3.0091

 eigenvalue-minimisations  :  1484
 total energy-change (2. order) :-0.1058339E+04  (-0.1023234E+04)
 number of electron      96.0000000 magnetization 
 augmentation part       96.0000000 magnetization 

 Free energy of the ion-electron system (eV)
  ---------------------------------------------------
  alpha Z        PSCENC =       291.75109210
  Ewald energy   TEWEN  =     15459.91788614
  -Hartree energ DENC   =    -21675.97679573
  -exchange      EXHF   =         0.00000000
  -V(xc)+E(xc)   XCENC  =       243.51992005
  PAW double counting   =      4000.83891758    -3854.35338191
  entropy T*S    EENTRO =         0.00000000
  eigenvalues    EBANDS =     -1062.58974047
  atomic energy  EATOM  =      6702.95118763
  Solvation  Ediel_sol  =         0.00000000
  ---------------------------------------------------
  free energy    TOTEN  =       106.05908538 eV

  energy without entropy =      106.05908538  energy(sigma->0) =      106.05908538


--------------------------------------------------------------------------------------------------------




--------------------------------------- Iteration      1(   3)  ---------------------------------------


     EDDAV:  cpu time    3.1425: real time    3.1469
 BZINTS: Fermi energy: -3.231071; 96.000000 electrons
         Band energy:***********;  BLOECHL correction:  0.000000
       DOS:  cpu time    0.0020: real time    0.0013
    --------------------------------------------
      LOOP:  cpu time    3.1445: real time    3.1482

 eigenvalue-minimisations  :  1568
 total energy-change (2. order) :-0.2420199E+03  (-0.2362624E+03)
 number of electron      96.0000000 magnetization 
 augmentation part       96.0000000 magnetization 

 Free energy of the ion-electron system (eV)
  ---------------------------------------------------
  alpha Z        PSCENC =       291.75109210
  Ewald energy   TEWEN  =     15459.91788614
  -Hartree energ DENC   =    -21675.97679573
  -exchange      EXHF   =         0.00000000
  -V(xc)+E(xc)   XCENC  =       243.51992005
  PAW double counting   =      4000.83891758    -3854.35338191
  entropy T*S    EENTRO =         0.00000000
  eigenvalues    EBANDS =     -1304.60961168
  atomic energy  EATOM  =      6702.95118763
  Solvation  Ediel_sol  =         0.00000000
  ---------------------------------------------------
  free energy    TOTEN  =      -135.96078583 eV

  energy without entropy =     -135.96078583  energy(sigma->0) =     -135.96078583


--------------------------------------------------------------------------------------------------------




--------------------------------------- Iteration      1(   4)  ---------------------------------------


     EDDAV:  cpu time    3.1065: real time    3.1105
 BZINTS: Fermi energy: -5.141262; 96.000000 electrons
         Band energy:***********;  BLOECHL correction:  0.000000
       DOS:  cpu time    0.0010: real time    0.0009
    --------------------------------------------
      LOOP:  cpu time    3.1075: real time    3.1114

 eigenvalue-minimisations  :  1552
 total energy-change (2. order) :-0.1504045E+02  (-0.1498513E+02)
 number of electron      96.0000000 magnetization 
 augmentation part       96.0000000 magnetization 

 Free energy of the ion-electron system (eV)
  ---------------------------------------------------
  alpha Z        PSCENC =       291.75109210
  Ewald energy   TEWEN  =     15459.91788614
  -Hartree energ DENC   =    -21675.97679573
  -exchange      EXHF   =         0.00000000
  -V(xc)+E(xc)   XCENC  =       243.51992005
  PAW double counting   =      4000.83891758    -3854.35338191
  entropy T*S    EENTRO =         0.00000000
  eigenvalues    EBANDS =     -1319.65005954
  atomic energy  EATOM  =      6702.95118763
  Solvation  Ediel_sol  =         0.00000000
  ---------------------------------------------------
  free energy    TOTEN  =      -151.00123369 eV

  energy without entropy =     -151.00123369  energy(sigma->0) =     -151.00123369


--------------------------------------------------------------------------------------------------------




--------------------------------------- Iteration      1(   5)  ---------------------------------------


     EDDAV:  cpu time    3.8044: real time    3.8058
 BZINTS: Fermi energy: -5.129926; 96.000000 electrons
         Band energy:***********;  BLOECHL correction:  0.000000
       DOS:  cpu time    0.0010: real time    0.0010
    CHARGE:  cpu time    0.1180: real time    0.1178
    MIXING:  cpu time    0.0020: real time    0.0025
    --------------------------------------------
      LOOP:  cpu time    3.9254: real time    3.9271

 eigenvalue-minimisations  :  1984
 total energy-change (2. order) :-0.8857004E+00  (-0.8849604E+00)
 number of electron      95.9999782 magnetization 
 augmentation part       10.2520777 magnetization 

 Broyden mixing:
  rms(total) = 0.32272E+01    rms(broyden)= 0.32267E+01
  rms(prec ) = 0.35320E+01
  weight for this iteration     100.00

 Free energy of the ion-electron system (eV)
  ---------------------------------------------------
  alpha Z        PSCENC =       291.75109210
  Ewald energy   TEWEN  =     15459.91788614
  -Hartree energ DENC   =    -21675.97679573
  -exchange      EXHF   =         0.00000000
  -V(xc)+E(xc)   XCENC  =       243.51992005
  PAW double counting   =      4000.83891758    -3854.35338191
  entropy T*S    EENTRO =         0.00000000
  eigenvalues    EBANDS =     -1320.53575994
  atomic energy  EATOM  =      6702.95118763
  Solvation  Ediel_sol  =         0.00000000
  ---------------------------------------------------
  free energy    TOTEN  =      -151.88693409 eV

  energy without entropy =     -151.88693409  energy(sigma->0) =     -151.88693409


--------------------------------------------------------------------------------------------------------




--------------------------------------- Iteration      1(   6)  ---------------------------------------


    POTLOK:  cpu time    0.0760: real time    0.0786
    SETDIJ:  cpu time    0.0080: real time    0.0087
    EDDIAG:  cpu time    0.3259: real time    0.3255
  RMM-DIIS:  cpu time    2.0437: real time    2.0433
    ORTHCH:  cpu time    0.0570: real time    0.0569
 BZINTS: Fermi energy: -0.871901; 96.000000 electrons
         Band energy:***********;  BLOECHL correction: -0.040610
       DOS:  cpu time    0.0040: real time    0.0043
    CHARGE:  cpu time    0.1220: real time    0.1220
    MIXING:  cpu time    0.0030: real time    0.0022
    --------------------------------------------
      LOOP:  cpu time    2.6396: real time    2.6415

 eigenvalue-minimisations  :  1312
 total energy-change (2. order) : 0.3062126E+02  (-0.2233753E+02)
 number of electron      95.9999860 magnetization 
 augmentation part       10.7943655 magnetization 

 Broyden mixing:
  rms(total) = 0.13211E+01    rms(broyden)= 0.13201E+01
  rms(prec ) = 0.14221E+01
  weight for this iteration     100.00

 eigenvalues of (default mixing * dielectric matrix)
  average eigenvalue GAMMA=   0.7407
  0.7407

 Free energy of the ion-electron system (eV)
  ---------------------------------------------------
  alpha Z        PSCENC =       291.75109210
  Ewald energy   TEWEN  =     15459.91788614
  -Hartree energ DENC   =    -21895.66823624
  -exchange      EXHF   =         0.00000000
  -V(xc)+E(xc)   XCENC  =       258.57434555
  PAW double counting   =      4453.36344473    -4316.67240239
  entropy T*S    EENTRO =         0.00000000
  eigenvalues    EBANDS =     -1075.48299510
  atomic energy  EATOM  =      6702.95118763
  Solvation  Ediel_sol  =         0.00000000
  ---------------------------------------------------
  free energy    TOTEN  =      -121.26567759 eV

  energy without entropy =     -121.26567759  energy(sigma->0) =     -121.26567759


--------------------------------------------------------------------------------------------------------




--------------------------------------- Iteration      1(   7)  ---------------------------------------


    POTLOK:  cpu time    0.0750: real time    0.0780
    SETDIJ:  cpu time    0.0090: real time    0.0090
    EDDIAG:  cpu time    0.3250: real time    0.3255
  RMM-DIIS:  cpu time    2.0877: real time    2.0871
    ORTHCH:  cpu time    0.0570: real time    0.0565
 BZINTS: Fermi energy: -1.820644; 96.000000 electrons
         Band energy:***********;  BLOECHL correction:  0.000000
       DOS:  cpu time    0.0000: real time    0.0010
    CHARGE:  cpu time    0.1180: real time    0.1176
    MIXING:  cpu time    0.0030: real time    0.0023
    --------------------------------------------
      LOOP:  cpu time    2.6746: real time    2.6770

 eigenvalue-minimisations  :  1342
 total energy-change (2. order) : 0.3387992E+01  (-0.1205498E+01)
 number of electron      95.9999842 magnetization 
 augmentation part       10.0653465 magnetization 

 Broyden mixing:
  rms(total) = 0.63128E+00    rms(broyden)= 0.63121E+00
  rms(prec ) = 0.67409E+00
  weight for this iteration     100.00

 eigenvalues of (default mixing * dielectric matrix)
  average eigenvalue GAMMA=   0.9096
  0.9096  0.9096

 Free energy of the ion-electron system (eV)
  ---------------------------------------------------
  alpha Z        PSCENC =       291.75109210
  Ewald energy   TEWEN  =     15459.91788614
  -Hartree energ DENC   =    -21895.93231919
  -exchange      EXHF   =         0.00000000
  -V(xc)+E(xc)   XCENC  =       255.33122550
  PAW double counting   =      4450.54509717    -4317.36071026
  entropy T*S    EENTRO =         0.00000000
  eigenvalues    EBANDS =     -1065.08114481
  atomic energy  EATOM  =      6702.95118763
  Solvation  Ediel_sol  =         0.00000000
  ---------------------------------------------------
  free energy    TOTEN  =      -117.87768571 eV

  energy without entropy =     -117.87768571  energy(sigma->0) =     -117.87768571


--------------------------------------------------------------------------------------------------------




--------------------------------------- Iteration      1(   8)  ---------------------------------------


    POTLOK:  cpu time    0.0730: real time    0.0782
    SETDIJ:  cpu time    0.0090: real time    0.0087
    EDDIAG:  cpu time    0.3250: real time    0.3251
  RMM-DIIS:  cpu time    2.3816: real time    2.3802
    ORTHCH:  cpu time    0.0560: real time    0.0565
 BZINTS: Fermi energy: -1.295868; 96.000000 electrons
         Band energy:***********;  BLOECHL correction:  0.000000
       DOS:  cpu time    0.0000: real time    0.0010
    CHARGE:  cpu time    0.1180: real time    0.1179
    MIXING:  cpu time    0.0030: real time    0.0023
    --------------------------------------------
      LOOP:  cpu time    2.9655: real time    2.9700

 eigenvalue-minimisations  :  1533
 total energy-change (2. order) : 0.6290490E+00  (-0.2332425E+00)
 number of electron      95.9999844 magnetization 
 augmentation part       10.2676736 magnetization 

 Broyden mixing:
  rms(total) = 0.32759E+00    rms(broyden)= 0.32757E+00
  rms(prec ) = 0.35494E+00
  weight for this iteration     100.00

 eigenvalues of (default mixing * dielectric matrix)
  average eigenvalue GAMMA=   1.2434
  2.0980  0.9581  0.6741

 Free energy of the ion-electron system (eV)
  ---------------------------------------------------
  alpha Z        PSCENC =       291.75109210
  Ewald energy   TEWEN  =     15459.91788614
  -Hartree energ DENC   =    -21913.79855642
  -exchange      EXHF   =         0.00000000
  -V(xc)+E(xc)   XCENC  =       255.38847453
  PAW double counting   =      4505.61396227    -4374.89363526
  entropy T*S    EENTRO =         0.00000000
  eigenvalues    EBANDS =     -1044.17904775
  atomic energy  EATOM  =      6702.95118763
  Solvation  Ediel_sol  =         0.00000000
  ---------------------------------------------------
  free energy    TOTEN  =      -117.24863675 eV

  energy without entropy =     -117.24863675  energy(sigma->0) =     -117.24863675


--------------------------------------------------------------------------------------------------------




--------------------------------------- Iteration      1(   9)  ---------------------------------------


    POTLOK:  cpu time    0.0750: real time    0.0798
    SETDIJ:  cpu time    0.0090: real time    0.0087
    EDDIAG:  cpu time    0.3250: real time    0.3239
  RMM-DIIS:  cpu time    2.3706: real time    2.3697
    ORTHCH:  cpu time    0.0560: real time    0.0566
 BZINTS: Fermi energy: -0.732554; 96.000000 electrons
         Band energy:***********;  BLOECHL correction:  0.000000
       DOS:  cpu time    0.0010: real time    0.0010
    CHARGE:  cpu time    0.1180: real time    0.1176
    MIXING:  cpu time    0.0020: real time    0.0033
    --------------------------------------------
      LOOP:  cpu time    2.9566: real time    2.9606

 eigenvalue-minimisations  :  1512
 total energy-change (2. order) : 0.2378120E+00  (-0.1217666E+00)
 number of electron      95.9999842 magnetization 
 augmentation part       10.3128506 magnetization 

 Broyden mixing:
  rms(total) = 0.89706E-01    rms(broyden)= 0.89627E-01
  rms(prec ) = 0.11757E+00
  weight for this iteration     100.00

 eigenvalues of (default mixing * dielectric matrix)
  average eigenvalue GAMMA=   1.1942
  2.2899  0.8890  0.8890  0.7088

 Free energy of the ion-electron system (eV)
  ---------------------------------------------------
  alpha Z        PSCENC =       291.75109210
  Ewald energy   TEWEN  =     15459.91788614
  -Hartree energ DENC   =    -21939.82836796
  -exchange      EXHF   =         0.00000000
  -V(xc)+E(xc)   XCENC  =       255.14378660
  PAW double counting   =      4575.32640432    -4447.62257665
  entropy T*S    EENTRO =         0.00000000
  eigenvalues    EBANDS =     -1014.65023693
  atomic energy  EATOM  =      6702.95118763
  Solvation  Ediel_sol  =         0.00000000
  ---------------------------------------------------
  free energy    TOTEN  =      -117.01082474 eV

  energy without entropy =     -117.01082474  energy(sigma->0) =     -117.01082474


--------------------------------------------------------------------------------------------------------




--------------------------------------- Iteration      1(  10)  ---------------------------------------


    POTLOK:  cpu time    0.0760: real time    0.0773
    SETDIJ:  cpu time    0.0080: real time    0.0087
    EDDIAG:  cpu time    0.3240: real time    0.3243
  RMM-DIIS:  cpu time    2.7596: real time    2.7575
    ORTHCH:  cpu time    0.0560: real time    0.0568
 BZINTS: Fermi energy: -0.597359; 96.000000 electrons
         Band energy:-996.281889;  BLOECHL correction:  0.000000
       DOS:  cpu time    0.0010: real time    0.0009
    CHARGE:  cpu time    0.1170: real time    0.1176
    MIXING:  cpu time    0.0040: real time    0.0025
    --------------------------------------------
      LOOP:  cpu time    3.3455: real time    3.3456

 eigenvalue-minimisations  :  1763
 total energy-change (2. order) : 0.4186920E-01  (-0.2298145E-01)
 number of electron      95.9999842 magnetization 
 augmentation part       10.2860094 magnetization 

 Broyden mixing:
  rms(total) = 0.61613E-01    rms(broyden)= 0.61601E-01
  rms(prec ) = 0.80806E-01
  weight for this iteration     100.00

 eigenvalues of (default mixing * dielectric matrix)
  average eigenvalue GAMMA=   1.1932
  2.2560  1.1724  1.1724  0.7063  0.6591

 Free energy of the ion-electron system (eV)
  ---------------------------------------------------
  alpha Z        PSCENC =       291.75109210
  Ewald energy   TEWEN  =     15459.91788614
  -Hartree energ DENC   =    -21957.80512782
  -exchange      EXHF   =         0.00000000
  -V(xc)+E(xc)   XCENC  =       255.39039650
  PAW double counting   =      4595.67346574    -4468.56596650
  entropy T*S    EENTRO =         0.00000000
  eigenvalues    EBANDS =      -996.28188933
  atomic energy  EATOM  =      6702.95118763
  Solvation  Ediel_sol  =         0.00000000
  ---------------------------------------------------
  free energy    TOTEN  =      -116.96895554 eV

  energy without entropy =     -116.96895554  energy(sigma->0) =     -116.96895554


--------------------------------------------------------------------------------------------------------




--------------------------------------- Iteration      1(  11)  ---------------------------------------


    POTLOK:  cpu time    0.0740: real time    0.0801
    SETDIJ:  cpu time    0.0090: real time    0.0087
    EDDIAG:  cpu time    0.3270: real time    0.3278
  RMM-DIIS:  cpu time    2.6346: real time    2.6329
    ORTHCH:  cpu time    0.0560: real time    0.0565
 BZINTS: Fermi energy: -0.437161; 96.000000 electrons
         Band energy:-981.629899;  BLOECHL correction:  0.000000
       DOS:  cpu time    0.0010: real time    0.0009
    CHARGE:  cpu time    0.1180: real time    0.1174
    MIXING:  cpu time    0.0030: real time    0.0027
    --------------------------------------------
      LOOP:  cpu time    3.2225: real time    3.2269

 eigenvalue-minimisations  :  1697
 total energy-change (2. order) : 0.2154777E-01  (-0.1202322E-01)
 number of electron      95.9999841 magnetization 
 augmentation part       10.2178574 magnetization 

 Broyden mixing:
  rms(total) = 0.36462E-01    rms(broyden)= 0.36448E-01
  rms(prec ) = 0.52508E-01
  weight for this iteration     100.00

 eigenvalues of (default mixing * dielectric matrix)
  average eigenvalue GAMMA=   1.2661
  2.2445  2.2445  0.8574  0.8574  0.7741  0.6185

 Free energy of the ion-electron system (eV)
  ---------------------------------------------------
  alpha Z        PSCENC =       291.75109210
  Ewald energy   TEWEN  =     15459.91788614
  -Hartree energ DENC   =    -21972.60836113
  -exchange      EXHF   =         0.00000000
  -V(xc)+E(xc)   XCENC  =       255.60679954
  PAW double counting   =      4603.39071789    -4476.32683112
  entropy T*S    EENTRO =         0.00000000
  eigenvalues    EBANDS =      -981.62989882
  atomic energy  EATOM  =      6702.95118763
  Solvation  Ediel_sol  =         0.00000000
  ---------------------------------------------------
  free energy    TOTEN  =      -116.94740777 eV

  energy without entropy =     -116.94740777  energy(sigma->0) =     -116.94740777


--------------------------------------------------------------------------------------------------------




--------------------------------------- Iteration      1(  12)  ---------------------------------------


    POTLOK:  cpu time    0.0760: real time    0.0824
    SETDIJ:  cpu time    0.0100: real time    0.0089
    EDDIAG:  cpu time    0.3339: real time    0.3347
  RMM-DIIS:  cpu time    2.7836: real time    2.7829
    ORTHCH:  cpu time    0.0570: real time    0.0565
 BZINTS: Fermi energy: -0.186390; 96.000000 electrons
         Band energy:-970.055095;  BLOECHL correction:  0.000000
       DOS:  cpu time    0.0000: real time    0.0010
    CHARGE:  cpu time    0.1180: real time    0.1175
    MIXING:  cpu time    0.0030: real time    0.0028
    --------------------------------------------
      LOOP:  cpu time    3.3815: real time    3.3866

 eigenvalue-minimisations  :  1762
 total energy-change (2. order) : 0.9528754E-02  (-0.4617347E-02)
 number of electron      95.9999842 magnetization 
 augmentation part       10.1845292 magnetization 

 Broyden mixing:
  rms(total) = 0.33633E-01    rms(broyden)= 0.33627E-01
  rms(prec ) = 0.44602E-01
  weight for this iteration     100.00

 eigenvalues of (default mixing * dielectric matrix)
  average eigenvalue GAMMA=   1.2400
  2.3904  2.3904  0.9581  0.9581  0.7463  0.6182  0.6182

 Free energy of the ion-electron system (eV)
  ---------------------------------------------------
  alpha Z        PSCENC =       291.75109210
  Ewald energy   TEWEN  =     15459.91788614
  -Hartree energ DENC   =    -21984.51397020
  -exchange      EXHF   =         0.00000000
  -V(xc)+E(xc)   XCENC  =       255.73035254
  PAW double counting   =      4604.15688589    -4476.87621851
  entropy T*S    EENTRO =         0.00000000
  eigenvalues    EBANDS =      -970.05509461
  atomic energy  EATOM  =      6702.95118763
  Solvation  Ediel_sol  =         0.00000000
  ---------------------------------------------------
  free energy    TOTEN  =      -116.93787902 eV

  energy without entropy =     -116.93787902  energy(sigma->0) =     -116.93787902


--------------------------------------------------------------------------------------------------------




--------------------------------------- Iteration      1(  13)  ---------------------------------------


    POTLOK:  cpu time    0.0760: real time    0.0787
    SETDIJ:  cpu time    0.0090: real time    0.0087
    EDDIAG:  cpu time    0.3280: real time    0.3281
  RMM-DIIS:  cpu time    2.9565: real time    2.9560
    ORTHCH:  cpu time    0.0560: real time    0.0565
 BZINTS: Fermi energy: -0.207998; 96.000000 electrons
         Band energy:-964.279422;  BLOECHL correction:  0.000000
       DOS:  cpu time    0.0010: real time    0.0009
    CHARGE:  cpu time    0.1180: real time    0.1177
    MIXING:  cpu time    0.0030: real time    0.0029
    --------------------------------------------
      LOOP:  cpu time    3.5475: real time    3.5495

 eigenvalue-minimisations  :  1884
 total energy-change (2. order) : 0.7624906E-02  (-0.1554040E-02)
 number of electron      95.9999842 magnetization 
 augmentation part       10.1928682 magnetization 

 Broyden mixing:
  rms(total) = 0.20791E-01    rms(broyden)= 0.20788E-01
  rms(prec ) = 0.30110E-01
  weight for this iteration     100.00

 eigenvalues of (default mixing * dielectric matrix)
  average eigenvalue GAMMA=   1.3492
  2.6678  2.6678  1.1942  1.1942  0.8986  0.8986  0.6741  0.5988

 Free energy of the ion-electron system (eV)
  ---------------------------------------------------
  alpha Z        PSCENC =       291.75109210
  Ewald energy   TEWEN  =     15459.91788614
  -Hartree energ DENC   =    -21990.39096759
  -exchange      EXHF   =         0.00000000
  -V(xc)+E(xc)   XCENC  =       255.75091055
  PAW double counting   =      4604.33633702    -4476.96727770
  entropy T*S    EENTRO =         0.00000000
  eigenvalues    EBANDS =      -964.27942226
  atomic energy  EATOM  =      6702.95118763
  Solvation  Ediel_sol  =         0.00000000
  ---------------------------------------------------
  free energy    TOTEN  =      -116.93025411 eV

  energy without entropy =     -116.93025411  energy(sigma->0) =     -116.93025411


--------------------------------------------------------------------------------------------------------




--------------------------------------- Iteration      1(  14)  ---------------------------------------


    POTLOK:  cpu time    0.0750: real time    0.0772
    SETDIJ:  cpu time    0.0090: real time    0.0087
    EDDIAG:  cpu time    0.3280: real time    0.3277
  RMM-DIIS:  cpu time    2.5226: real time    2.5222
    ORTHCH:  cpu time    0.0560: real time    0.0564
 BZINTS: Fermi energy: -0.084752; 96.000000 electrons
         Band energy:-956.761522;  BLOECHL correction:  0.000000
       DOS:  cpu time    0.0010: real time    0.0009
    CHARGE:  cpu time    0.1170: real time    0.1174
    MIXING:  cpu time    0.0040: real time    0.0031
    --------------------------------------------
      LOOP:  cpu time    3.1125: real time    3.1137

 eigenvalue-minimisations  :  1625
 total energy-change (2. order) : 0.4912742E-02  (-0.1847435E-02)
 number of electron      95.9999842 magnetization 
 augmentation part       10.2048974 magnetization 

 Broyden mixing:
  rms(total) = 0.11795E-01    rms(broyden)= 0.11787E-01
  rms(prec ) = 0.18029E-01
  weight for this iteration     100.00

 eigenvalues of (default mixing * dielectric matrix)
  average eigenvalue GAMMA=   1.3977
  3.2383  2.7699  1.5362  1.0084  1.0084  0.8874  0.8874  0.6538  0.5894

 Free energy of the ion-electron system (eV)
  ---------------------------------------------------
  alpha Z        PSCENC =       291.75109210
  Ewald energy   TEWEN  =     15459.91788614
  -Hartree energ DENC   =    -21998.07113674
  -exchange      EXHF   =         0.00000000
  -V(xc)+E(xc)   XCENC  =       255.68578463
  PAW double counting   =      4599.64996592    -4472.04859940
  entropy T*S    EENTRO =         0.00000000
  eigenvalues    EBANDS =      -956.76152164
  atomic energy  EATOM  =      6702.95118763
  Solvation  Ediel_sol  =         0.00000000
  ---------------------------------------------------
  free energy    TOTEN  =      -116.92534137 eV

  energy without entropy =     -116.92534137  energy(sigma->0) =     -116.92534137


--------------------------------------------------------------------------------------------------------




--------------------------------------- Iteration      1(  15)  ---------------------------------------


    POTLOK:  cpu time    0.0750: real time    0.0773
    SETDIJ:  cpu time    0.0090: real time    0.0087
    EDDIAG:  cpu time    0.3280: real time    0.3281
  RMM-DIIS:  cpu time    2.8076: real time    2.8069
    ORTHCH:  cpu time    0.0560: real time    0.0565
 BZINTS: Fermi energy: -0.014876; 96.000000 electrons
         Band energy:-951.392288;  BLOECHL correction:  0.000000
       DOS:  cpu time    0.0010: real time    0.0009
    CHARGE:  cpu time    0.1170: real time    0.1174
    MIXING:  cpu time    0.0040: real time    0.0032
    --------------------------------------------
      LOOP:  cpu time    3.3975: real time    3.3990

 eigenvalue-minimisations  :  1801
 total energy-change (2. order) : 0.1308456E-02  (-0.4376657E-03)
 number of electron      95.9999842 magnetization 
 augmentation part       10.2080107 magnetization 

 Broyden mixing:
  rms(total) = 0.87416E-02    rms(broyden)= 0.87386E-02
  rms(prec ) = 0.13149E-01
  weight for this iteration     100.00

 eigenvalues of (default mixing * dielectric matrix)
  average eigenvalue GAMMA=   1.4484
  3.8753  2.3879  1.6447  1.6447  1.0729  0.9269  0.9269  0.7730  0.6335  0.5987

 Free energy of the ion-electron system (eV)
  ---------------------------------------------------
  alpha Z        PSCENC =       291.75109210
  Ewald energy   TEWEN  =     15459.91788614
  -Hartree energ DENC   =    -22003.52950331
  -exchange      EXHF   =         0.00000000
  -V(xc)+E(xc)   XCENC  =       255.71705645
  PAW double counting   =      4598.95834055    -4471.29780423
  entropy T*S    EENTRO =         0.00000000
  eigenvalues    EBANDS =      -951.39228825
  atomic energy  EATOM  =      6702.95118763
  Solvation  Ediel_sol  =         0.00000000
  ---------------------------------------------------
  free energy    TOTEN  =      -116.92403291 eV

  energy without entropy =     -116.92403291  energy(sigma->0) =     -116.92403291


--------------------------------------------------------------------------------------------------------




--------------------------------------- Iteration      1(  16)  ---------------------------------------


    POTLOK:  cpu time    0.0740: real time    0.0784
    SETDIJ:  cpu time    0.0090: real time    0.0087
    EDDIAG:  cpu time    0.3240: real time    0.3246
  RMM-DIIS:  cpu time    2.5696: real time    2.5680
    ORTHCH:  cpu time    0.0560: real time    0.0564
 BZINTS: Fermi energy:  0.016769; 96.000000 electrons
         Band energy:-944.719556;  BLOECHL correction:  0.000000
       DOS:  cpu time    0.0010: real time    0.0010
    CHARGE:  cpu time    0.1170: real time    0.1176
    MIXING:  cpu time    0.0040: real time    0.0033
    --------------------------------------------
      LOOP:  cpu time    3.1545: real time    3.1581

 eigenvalue-minimisations  :  1649
 total energy-change (2. order) :-0.1214133E-02  (-0.6786804E-03)
 number of electron      95.9999842 magnetization 
 augmentation part       10.1971792 magnetization 

 Broyden mixing:
  rms(total) = 0.10704E-01    rms(broyden)= 0.10700E-01
  rms(prec ) = 0.12758E-01
  weight for this iteration     100.00

 eigenvalues of (default mixing * dielectric matrix)
  average eigenvalue GAMMA=   1.6305
  5.2299  2.9881  2.2738  1.3985  1.1616  1.1616  0.8859  0.8859  0.7217  0.6141
  0.6141

 Free energy of the ion-electron system (eV)
  ---------------------------------------------------
  alpha Z        PSCENC =       291.75109210
  Ewald energy   TEWEN  =     15459.91788614
  -Hartree energ DENC   =    -22010.13606213
  -exchange      EXHF   =         0.00000000
  -V(xc)+E(xc)   XCENC  =       255.76122880
  PAW double counting   =      4600.84281726    -4473.29384046
  entropy T*S    EENTRO =         0.00000000
  eigenvalues    EBANDS =      -944.71955639
  atomic energy  EATOM  =      6702.95118763
  Solvation  Ediel_sol  =         0.00000000
  ---------------------------------------------------
  free energy    TOTEN  =      -116.92524705 eV

  energy without entropy =     -116.92524705  energy(sigma->0) =     -116.92524705


--------------------------------------------------------------------------------------------------------




--------------------------------------- Iteration      1(  17)  ---------------------------------------


    POTLOK:  cpu time    0.0740: real time    0.0781
    SETDIJ:  cpu time    0.0090: real time    0.0087
    EDDIAG:  cpu time    0.3229: real time    0.3235
  RMM-DIIS:  cpu time    2.5166: real time    2.5152
    ORTHCH:  cpu time    0.0560: real time    0.0571
 BZINTS: Fermi energy:  0.048752; 96.000000 electrons
         Band energy:-942.921783;  BLOECHL correction:  0.000000
       DOS:  cpu time    0.0010: real time    0.0010
    CHARGE:  cpu time    0.1180: real time    0.1176
    MIXING:  cpu time    0.0040: real time    0.0035
    --------------------------------------------
      LOOP:  cpu time    3.1015: real time    3.1048

 eigenvalue-minimisations  :  1609
 total energy-change (2. order) :-0.8169048E-03  (-0.2793459E-03)
 number of electron      95.9999842 magnetization 
 augmentation part       10.1944789 magnetization 

 Broyden mixing:
  rms(total) = 0.54997E-02    rms(broyden)= 0.54974E-02
  rms(prec ) = 0.66701E-02
  weight for this iteration     100.00

 eigenvalues of (default mixing * dielectric matrix)
  average eigenvalue GAMMA=   1.6011
  5.9230  2.8096  2.4586  1.1305  1.1305  1.1607  1.0625  0.8303  0.8303  0.6538
  0.6115  0.6115

 Free energy of the ion-electron system (eV)
  ---------------------------------------------------
  alpha Z        PSCENC =       291.75109210
  Ewald energy   TEWEN  =     15459.91788614
  -Hartree energ DENC   =    -22011.92352206
  -exchange      EXHF   =         0.00000000
  -V(xc)+E(xc)   XCENC  =       255.71487981
  PAW double counting   =      4598.68328138    -4471.09908624
  entropy T*S    EENTRO =         0.00000000
  eigenvalues    EBANDS =      -942.92178271
  atomic energy  EATOM  =      6702.95118763
  Solvation  Ediel_sol  =         0.00000000
  ---------------------------------------------------
  free energy    TOTEN  =      -116.92606395 eV

  energy without entropy =     -116.92606395  energy(sigma->0) =     -116.92606395


--------------------------------------------------------------------------------------------------------




--------------------------------------- Iteration      1(  18)  ---------------------------------------


    POTLOK:  cpu time    0.0730: real time    0.0763
    SETDIJ:  cpu time    0.0080: real time    0.0087
    EDDIAG:  cpu time    0.3250: real time    0.3237
  RMM-DIIS:  cpu time    2.4766: real time    2.4762
    ORTHCH:  cpu time    0.0560: real time    0.0563
 BZINTS: Fermi energy:  0.062788; 96.000000 electrons
         Band energy:-942.294119;  BLOECHL correction:  0.000000
       DOS:  cpu time    0.0010: real time    0.0010
    CHARGE:  cpu time    0.1180: real time    0.1175
    MIXING:  cpu time    0.0040: real time    0.0037
    --------------------------------------------
      LOOP:  cpu time    3.0615: real time    3.0635

 eigenvalue-minimisations  :  1563
 total energy-change (2. order) :-0.4005822E-03  (-0.7822760E-04)
 number of electron      95.9999842 magnetization 
 augmentation part       10.1986283 magnetization 

 Broyden mixing:
  rms(total) = 0.21104E-02    rms(broyden)= 0.21079E-02
  rms(prec ) = 0.31364E-02
  weight for this iteration     100.00

 eigenvalues of (default mixing * dielectric matrix)
  average eigenvalue GAMMA=   1.7446
  7.1528  3.0273  2.2220  2.2220  1.2472  1.2472  1.0414  0.8869  0.8869  0.8856
  0.6332  0.6332  0.5941

 Free energy of the ion-electron system (eV)
  ---------------------------------------------------
  alpha Z        PSCENC =       291.75109210
  Ewald energy   TEWEN  =     15459.91788614
  -Hartree energ DENC   =    -22012.57497222
  -exchange      EXHF   =         0.00000000
  -V(xc)+E(xc)   XCENC  =       255.72760161
  PAW double counting   =      4598.94407540    -4471.34921593
  entropy T*S    EENTRO =         0.00000000
  eigenvalues    EBANDS =      -942.29411926
  atomic energy  EATOM  =      6702.95118763
  Solvation  Ediel_sol  =         0.00000000
  ---------------------------------------------------
  free energy    TOTEN  =      -116.92646453 eV

  energy without entropy =     -116.92646453  energy(sigma->0) =     -116.92646453


--------------------------------------------------------------------------------------------------------




--------------------------------------- Iteration      1(  19)  ---------------------------------------


    POTLOK:  cpu time    0.0740: real time    0.0769
    SETDIJ:  cpu time    0.0090: real time    0.0087
    EDDIAG:  cpu time    0.3240: real time    0.3240
  RMM-DIIS:  cpu time    2.4036: real time    2.4032
    ORTHCH:  cpu time    0.0560: real time    0.0562
 BZINTS: Fermi energy:  0.072152; 96.000000 electrons
         Band energy:-941.988250;  BLOECHL correction:  0.000000
       DOS:  cpu time    0.0010: real time    0.0010
    CHARGE:  cpu time    0.1180: real time    0.1180
    MIXING:  cpu time    0.0040: real time    0.0039
    --------------------------------------------
      LOOP:  cpu time    2.9895: real time    2.9920

 eigenvalue-minimisations  :  1539
 total energy-change (2. order) :-0.1973704E-02  (-0.6550204E-04)
 number of electron      95.9999842 magnetization 
 augmentation part       10.1985541 magnetization 

 Broyden mixing:
  rms(total) = 0.19716E-02    rms(broyden)= 0.19711E-02
  rms(prec ) = 0.22491E-02
  weight for this iteration     100.00

 eigenvalues of (default mixing * dielectric matrix)
  average eigenvalue GAMMA=   1.7942
  7.4829  3.7982  2.3540  2.3540  1.3795  1.1338  1.1338  0.9436  0.9436  0.8557
  0.8557  0.5976  0.6472  0.6389

 Free energy of the ion-electron system (eV)
  ---------------------------------------------------
  alpha Z        PSCENC =       291.75109210
  Ewald energy   TEWEN  =     15459.91788614
  -Hartree energ DENC   =    -22012.91519922
  -exchange      EXHF   =         0.00000000
  -V(xc)+E(xc)   XCENC  =       255.72833351
  PAW double counting   =      4598.89698152    -4471.27046995
  entropy T*S    EENTRO =         0.00000000
  eigenvalues    EBANDS =      -941.98824997
  atomic energy  EATOM  =      6702.95118763
  Solvation  Ediel_sol  =         0.00000000
  ---------------------------------------------------
  free energy    TOTEN  =      -116.92843824 eV

  energy without entropy =     -116.92843824  energy(sigma->0) =     -116.92843824


--------------------------------------------------------------------------------------------------------




--------------------------------------- Iteration      1(  20)  ---------------------------------------


    POTLOK:  cpu time    0.0730: real time    0.0762
    SETDIJ:  cpu time    0.0100: real time    0.0087
    EDDIAG:  cpu time    0.3230: real time    0.3243
  RMM-DIIS:  cpu time    2.3116: real time    2.3102
    ORTHCH:  cpu time    0.0560: real time    0.0562
 BZINTS: Fermi energy:  0.076669; 96.000000 electrons
         Band energy:-942.103106;  BLOECHL correction:  0.000000
       DOS:  cpu time    0.0010: real time    0.0010
    CHARGE:  cpu time    0.1170: real time    0.1173
    MIXING:  cpu time    0.0050: real time    0.0041
    --------------------------------------------
      LOOP:  cpu time    2.8966: real time    2.8980

 eigenvalue-minimisations  :  1478
 total energy-change (2. order) :-0.5613789E-03  (-0.2824247E-04)
 number of electron      95.9999842 magnetization 
 augmentation part       10.1985822 magnetization 

 Broyden mixing:
  rms(total) = 0.11564E-02    rms(broyden)= 0.11557E-02
  rms(prec ) = 0.13280E-02
  weight for this iteration     100.00

 eigenvalues of (default mixing * dielectric matrix)
  average eigenvalue GAMMA=   1.8520
  8.0705  4.2101  2.3311  2.1279  2.1279  1.2982  1.1752  1.1752  0.9047  0.9047
  0.7708  0.7708  0.5968  0.6375  0.6781

 Free energy of the ion-electron system (eV)
  ---------------------------------------------------
  alpha Z        PSCENC =       291.75109210
  Ewald energy   TEWEN  =     15459.91788614
  -Hartree energ DENC   =    -22012.79051688
  -exchange      EXHF   =         0.00000000
  -V(xc)+E(xc)   XCENC  =       255.72244853
  PAW double counting   =      4598.98640209    -4471.36439310
  entropy T*S    EENTRO =         0.00000000
  eigenvalues    EBANDS =      -942.10310612
  atomic energy  EATOM  =      6702.95118763
  Solvation  Ediel_sol  =         0.00000000
  ---------------------------------------------------
  free energy    TOTEN  =      -116.92899962 eV

  energy without entropy =     -116.92899962  energy(sigma->0) =     -116.92899962


--------------------------------------------------------------------------------------------------------




--------------------------------------- Iteration      1(  21)  ---------------------------------------


    POTLOK:  cpu time    0.0740: real time    0.0766
    SETDIJ:  cpu time    0.0090: real time    0.0095
    EDDIAG:  cpu time    0.3280: real time    0.3278
  RMM-DIIS:  cpu time    2.0497: real time    2.0497
    ORTHCH:  cpu time    0.0570: real time    0.0562
 BZINTS: Fermi energy:  0.079888; 96.000000 electrons
         Band energy:-942.157122;  BLOECHL correction:  0.000000
       DOS:  cpu time    0.0010: real time    0.0010
    CHARGE:  cpu time    0.1170: real time    0.1173
    MIXING:  cpu time    0.0040: real time    0.0042
    --------------------------------------------
      LOOP:  cpu time    2.6396: real time    2.6424

 eigenvalue-minimisations  :  1301
 total energy-change (2. order) :-0.2311087E-03  (-0.1057997E-04)
 number of electron      95.9999842 magnetization 
 augmentation part       10.1970259 magnetization 

 Broyden mixing:
  rms(total) = 0.73939E-03    rms(broyden)= 0.73925E-03
  rms(prec ) = 0.83980E-03
  weight for this iteration     100.00

 eigenvalues of (default mixing * dielectric matrix)
  average eigenvalue GAMMA=   1.9208
  8.6455  4.8178  2.5254  2.5254  2.3045  1.2108  1.2108  1.2020  0.9322  0.9322
  0.8488  0.8488  0.8495  0.5952  0.6417  0.6417

 Free energy of the ion-electron system (eV)
  ---------------------------------------------------
  alpha Z        PSCENC =       291.75109210
  Ewald energy   TEWEN  =     15459.91788614
  -Hartree energ DENC   =    -22012.72928790
  -exchange      EXHF   =         0.00000000
  -V(xc)+E(xc)   XCENC  =       255.72240449
  PAW double counting   =      4599.16809883    -4471.55349041
  entropy T*S    EENTRO =         0.00000000
  eigenvalues    EBANDS =      -942.15712161
  atomic energy  EATOM  =      6702.95118763
  Solvation  Ediel_sol  =         0.00000000
  ---------------------------------------------------
  free energy    TOTEN  =      -116.92923072 eV

  energy without entropy =     -116.92923072  energy(sigma->0) =     -116.92923072


--------------------------------------------------------------------------------------------------------




--------------------------------------- Iteration      1(  22)  ---------------------------------------


    POTLOK:  cpu time    0.0740: real time    0.0757
    SETDIJ:  cpu time    0.0100: real time    0.0096
    EDDIAG:  cpu time    0.3269: real time    0.3271
  RMM-DIIS:  cpu time    1.6947: real time    1.6942
    ORTHCH:  cpu time    0.0550: real time    0.0563
 BZINTS: Fermi energy:  0.119804; 96.000000 electrons
         Band energy:-942.207050;  BLOECHL correction:  0.000000
       DOS:  cpu time    0.0010: real time    0.0010
    CHARGE:  cpu time    0.1170: real time    0.1171
    MIXING:  cpu time    0.0050: real time    0.0044
    --------------------------------------------
      LOOP:  cpu time    2.2837: real time    2.2854

 eigenvalue-minimisations  :  1052
 total energy-change (2. order) :-0.9058458E-04  (-0.4113364E-05)
 number of electron      95.9999842 magnetization 
 augmentation part       10.1974089 magnetization 

 Broyden mixing:
  rms(total) = 0.29243E-03    rms(broyden)= 0.29235E-03
  rms(prec ) = 0.34217E-03
  weight for this iteration     100.00

 eigenvalues of (default mixing * dielectric matrix)
  average eigenvalue GAMMA=   1.9053
  8.4992  5.1828  2.6637  2.4248  2.4248  1.2289  1.2289  1.1882  1.1882  1.0176
  1.0176  0.8168  0.8168  0.8106  0.5955  0.6427  0.6427

 Free energy of the ion-electron system (eV)
  ---------------------------------------------------
  alpha Z        PSCENC =       291.75109210
  Ewald energy   TEWEN  =     15459.91788614
  -Hartree energ DENC   =    -22012.68701388
  -exchange      EXHF   =         0.00000000
  -V(xc)+E(xc)   XCENC  =       255.72254825
  PAW double counting   =      4599.13626960    -4471.51424126
  entropy T*S    EENTRO =         0.00000000
  eigenvalues    EBANDS =      -942.20704988
  atomic energy  EATOM  =      6702.95118763
  Solvation  Ediel_sol  =         0.00000000
  ---------------------------------------------------
  free energy    TOTEN  =      -116.92932131 eV

  energy without entropy =     -116.92932131  energy(sigma->0) =     -116.92932131


--------------------------------------------------------------------------------------------------------




--------------------------------------- Iteration      1(  23)  ---------------------------------------


    POTLOK:  cpu time    0.0740: real time    0.0780
    SETDIJ:  cpu time    0.0100: real time    0.0096
    EDDIAG:  cpu time    0.3279: real time    0.3276
  RMM-DIIS:  cpu time    1.5208: real time    1.5201
    ORTHCH:  cpu time    0.0550: real time    0.0561
 BZINTS: Fermi energy:  0.039818; 96.000000 electrons
         Band energy:-942.187516;  BLOECHL correction:  0.000000
       DOS:  cpu time    0.0010: real time    0.0009
    CHARGE:  cpu time    0.1170: real time    0.1174
    MIXING:  cpu time    0.0060: real time    0.0046
    --------------------------------------------
      LOOP:  cpu time    2.1117: real time    2.1144

 eigenvalue-minimisations  :   925
 total energy-change (2. order) :-0.1889556E-04  (-0.1508890E-05)
 number of electron      95.9999842 magnetization 
 augmentation part       10.1974219 magnetization 

 Broyden mixing:
  rms(total) = 0.15141E-03    rms(broyden)= 0.15132E-03
  rms(prec ) = 0.18754E-03
  weight for this iteration     100.00

 eigenvalues of (default mixing * dielectric matrix)
  average eigenvalue GAMMA=   1.9253
  8.4236  5.5372  3.0567  2.5319  2.5319  1.3700  1.3700  1.2404  1.2404  1.0467
  1.0467  0.8197  0.8197  0.8688  0.8688  0.5956  0.6433  0.6433

 Free energy of the ion-electron system (eV)
  ---------------------------------------------------
  alpha Z        PSCENC =       291.75109210
  Ewald energy   TEWEN  =     15459.91788614
  -Hartree energ DENC   =    -22012.70962619
  -exchange      EXHF   =         0.00000000
  -V(xc)+E(xc)   XCENC  =       255.72349328
  PAW double counting   =      4599.14934069    -4471.52519801
  entropy T*S    EENTRO =         0.00000000
  eigenvalues    EBANDS =      -942.18751584
  atomic energy  EATOM  =      6702.95118763
  Solvation  Ediel_sol  =         0.00000000
  ---------------------------------------------------
  free energy    TOTEN  =      -116.92934020 eV

  energy without entropy =     -116.92934020  energy(sigma->0) =     -116.92934020


--------------------------------------------------------------------------------------------------------




--------------------------------------- Iteration      1(  24)  ---------------------------------------


    POTLOK:  cpu time    0.0740: real time    0.0802
    SETDIJ:  cpu time    0.0100: real time    0.0096
    EDDIAG:  cpu time    0.3269: real time    0.3273
  RMM-DIIS:  cpu time    1.4808: real time    1.4799
    ORTHCH:  cpu time    0.0560: real time    0.0562
 BZINTS: Fermi energy:  0.068381; 96.000000 electrons
         Band energy:-942.200312;  BLOECHL correction:  0.000000
       DOS:  cpu time    0.0010: real time    0.0009
    CHARGE:  cpu time    0.1180: real time    0.1173
    MIXING:  cpu time    0.0050: real time    0.0049
    --------------------------------------------
      LOOP:  cpu time    2.0717: real time    2.0763

 eigenvalue-minimisations  :   885
 total energy-change (2. order) :-0.1322951E-04  (-0.1181219E-05)
 number of electron      95.9999842 magnetization 
 augmentation part       10.1975386 magnetization 

 Broyden mixing:
  rms(total) = 0.18510E-03    rms(broyden)= 0.18505E-03
  rms(prec ) = 0.21113E-03
  weight for this iteration     100.00

 eigenvalues of (default mixing * dielectric matrix)
  average eigenvalue GAMMA=   1.9296
  8.5863  5.6559  3.6368  2.5695  2.2993  1.8381  1.3149  1.3149  1.1125  1.1125
  1.0453  1.0453  0.8070  0.8070  0.8176  0.8176  0.5954  0.6430  0.6430

 Free energy of the ion-electron system (eV)
  ---------------------------------------------------
  alpha Z        PSCENC =       291.75109210
  Ewald energy   TEWEN  =     15459.91788614
  -Hartree energ DENC   =    -22012.69771556
  -exchange      EXHF   =         0.00000000
  -V(xc)+E(xc)   XCENC  =       255.72367695
  PAW double counting   =      4599.14859022    -4471.52375932
  entropy T*S    EENTRO =         0.00000000
  eigenvalues    EBANDS =      -942.20031159
  atomic energy  EATOM  =      6702.95118763
  Solvation  Ediel_sol  =         0.00000000
  ---------------------------------------------------
  free energy    TOTEN  =      -116.92935343 eV

  energy without entropy =     -116.92935343  energy(sigma->0) =     -116.92935343


--------------------------------------------------------------------------------------------------------




--------------------------------------- Iteration      1(  25)  ---------------------------------------


    POTLOK:  cpu time    0.0750: real time    0.0808
    SETDIJ:  cpu time    0.0100: real time    0.0098
    EDDIAG:  cpu time    0.3289: real time    0.3288
  RMM-DIIS:  cpu time    1.4288: real time    1.4288
    ORTHCH:  cpu time    0.0560: real time    0.0563
 BZINTS: Fermi energy:  0.093179; 96.000000 electrons
         Band energy:-942.204244;  BLOECHL correction:  0.000000
       DOS:  cpu time    0.0010: real time    0.0009
    --------------------------------------------
      LOOP:  cpu time    1.8997: real time    1.9053

 eigenvalue-minimisations  :   819
 total energy-change (2. order) :-0.3914217E-05  (-0.5939440E-06)
 number of electron      95.9999842 magnetization 
 augmentation part       10.1975386 magnetization 

 Free energy of the ion-electron system (eV)
  ---------------------------------------------------
  alpha Z        PSCENC =       291.75109210
  Ewald energy   TEWEN  =     15459.91788614
  -Hartree energ DENC   =    -22012.69433063
  -exchange      EXHF   =         0.00000000
  -V(xc)+E(xc)   XCENC  =       255.72331410
  PAW double counting   =      4599.13151886    -4471.50578204
  entropy T*S    EENTRO =         0.00000000
  eigenvalues    EBANDS =      -942.20424353
  atomic energy  EATOM  =      6702.95118763
  Solvation  Ediel_sol  =         0.00000000
  ---------------------------------------------------
  free energy    TOTEN  =      -116.92935735 eV

  energy without entropy =     -116.92935735  energy(sigma->0) =     -116.92935735


--------------------------------------------------------------------------------------------------------




 average (electrostatic) potential at core
  the test charge radii are     0.7215  1.1929  1.2598
  (the norm of the test charge is              1.0000)
[...]
  band No.  band energies     occupation 
      1     -34.5367      2.00000
      2     -33.4283      2.00000
      3     -33.2664      2.00000
      4     -17.9472      2.00000
      5     -17.8319      2.00000
      6     -17.4093      2.00000
      7     -17.1817      2.00000
      8     -17.0923      2.00000
      9     -17.0025      2.00000
     10     -16.8584      2.00000
     11     -16.7436      2.00000
     12     -16.4870      2.00000
     13     -16.3931      2.00000
     14     -16.3816      2.00000
     15     -15.6625      2.00000
     16     -15.4557      2.00000
     17     -15.3420      2.00000
     18     -15.2793      2.00000
     19     -15.1985      2.00000
     20     -15.0732      2.00000
     21     -15.0365      2.00000
     22      -4.6696      2.00000
     23      -4.4894      2.00000
     24      -4.3352      2.00000
     25      -4.2051      2.00000
     26      -3.9102      2.00000
     27      -3.7868      2.00000
     28      -3.7028      2.00000
     29      -3.6384      2.00000
     30      -3.5608      2.00000
     31      -3.4901      2.00000
     32      -3.2451      2.00000
     33      -3.0848      2.00000
     34      -2.8714      2.00000
     35      -2.8005      2.00000
     36      -2.7488      2.00000
     37      -2.4287      2.00000
     38      -2.2058      2.00000
     39      -2.0837      2.00000
     40      -1.8594      2.00000
     41      -1.7514      2.00000
     42      -1.7282      2.00000
     43      -1.6612      2.00000
     44      -1.5342      2.00000
     45      -1.3419      2.00000
     46      -1.2107      2.00000
     47      -1.0771      2.00000
     48      -0.8597      2.00000
     49       1.5243      0.00000
     50       2.0535      0.00000
     51       2.1964      0.00000
     52       2.2804      0.00000
     53       2.3369      0.00000
     54       2.4159      0.00000
     55       2.5530      0.00000
     56       2.6264      0.00000
     57       2.6743      0.00000
     58       6.2496      0.00000

 k-point     7 :       0.4286    0.1429    0.0000
  band No.  band energies     occupation 
      1     -34.5314      2.00000
      2     -33.4222      2.00000
      3     -33.2602      2.00000
      4     -17.9735      2.00000
      5     -17.7312      2.00000
      6     -17.3522      2.00000
      7     -17.2685      2.00000
      8     -17.0868      2.00000
      9     -17.0002      2.00000
     10     -16.8018      2.00000
     11     -16.6255      2.00000
     12     -16.5450      2.00000
     13     -16.3834      2.00000
     14     -16.3393      2.00000
     15     -15.5578      2.00000
     16     -15.4502      2.00000
     17     -15.3644      2.00000
     18     -15.2367      2.00000
     19     -15.1447      2.00000
     20     -15.0689      2.00000
     21     -14.9884      2.00000
     22      -4.9012      2.00000
     23      -4.8184      2.00000
     24      -4.7200      2.00000
     25      -4.5502      2.00000
     26      -4.3842      2.00000
     27      -4.1341      2.00000
     28      -3.8636      2.00000
     29      -3.7793      2.00000
     30      -3.6702      2.00000
     31      -3.5795      2.00000
     32      -3.5514      2.00000
     33      -3.2301      2.00000
     34      -3.1186      2.00000
     35      -2.9418      2.00000
     36      -2.8776      2.00000
     37      -2.5718      2.00000
     38      -2.2754      2.00000
     39      -2.1336      2.00000
     40      -1.9721      2.00000
     41      -1.8359      2.00000
     42      -1.8107      2.00000
     43      -1.7151      2.00000
     44      -1.5873      2.00000
     45      -1.3873      2.00000
     46      -1.2811      2.00000
     47      -0.9860      2.00000
     48      -0.8382      2.00000
     49       1.5608      0.00000
     50       2.1110      0.00000
     51       2.6651      0.00000
     52       2.7410      0.00000
     53       2.7637      0.00000
     54       2.8209      0.00000
     55       2.9133      0.00000
     56       2.9666      0.00000
     57       3.0877      0.00000
     58       6.9580      0.00000

 k-point     8 :       0.2857    0.2857    0.0000
  band No.  band energies     occupation 
      1     -34.5304      2.00000
      2     -33.4210      2.00000
      3     -33.2591      2.00000
      4     -17.8107      2.00000
      5     -17.6602      2.00000
      6     -17.2893      2.00000
      7     -17.1807      2.00000
      8     -17.0250      2.00000
      9     -17.0210      2.00000
     10     -16.9181      2.00000
     11     -16.6180      2.00000
     12     -16.4744      2.00000
     13     -16.4027      2.00000
     14     -16.3751      2.00000
     15     -15.7232      2.00000
     16     -15.4580      2.00000
     17     -15.4034      2.00000
     18     -15.2708      2.00000
     19     -15.2230      2.00000
     20     -15.1080      2.00000
     21     -15.0776      2.00000
     22      -4.6979      2.00000
     23      -4.5798      2.00000
     24      -4.4341      2.00000
     25      -4.2303      2.00000
     26      -4.1239      2.00000
     27      -4.0618      2.00000
     28      -3.9228      2.00000
     29      -3.8945      2.00000
     30      -3.8650      2.00000
     31      -3.7421      2.00000
     32      -3.6979      2.00000
     33      -3.6645      2.00000
     34      -3.4832      2.00000
     35      -3.4094      2.00000
     36      -3.0693      2.00000
     37      -2.8030      2.00000
     38      -2.7299      2.00000
     39      -2.2056      2.00000
     40      -1.8977      2.00000
     41      -1.6826      2.00000
     42      -1.4198      2.00000
     43      -1.3901      2.00000
     44      -1.3212      2.00000
     45      -1.2125      2.00000
     46      -1.1514      2.00000
     47      -1.0104      2.00000
     48      -0.4683      2.00000
     49       2.0766      0.00000
     50       2.3217      0.00000
     51       2.4463      0.00000
     52       2.5671      0.00000
     53       2.5969      0.00000
     54       2.7041      0.00000
     55       2.8062      0.00000
     56       2.9219      0.00000
     57       3.0130      0.00000
     58       6.7780      0.00000

 k-point     9 :       0.4286    0.2857    0.0000
  band No.  band energies     occupation 
      1     -34.5254      2.00000
      2     -33.4152      2.00000
      3     -33.2532      2.00000
      4     -17.7356      2.00000
      5     -17.5193      2.00000
      6     -17.2411      2.00000
      7     -17.1737      2.00000
      8     -17.0621      2.00000
      9     -16.9663      2.00000
     10     -16.7662      2.00000
     11     -16.5794      2.00000
     12     -16.4979      2.00000
     13     -16.3934      2.00000
     14     -16.3472      2.00000
     15     -15.7858      2.00000
     16     -15.4947      2.00000
     17     -15.4269      2.00000
     18     -15.3101      2.00000
     19     -15.1897      2.00000
     20     -15.1703      2.00000
     21     -15.0753      2.00000
     22      -4.9106      2.00000
     23      -4.8388      2.00000
     24      -4.5637      2.00000
     25      -4.5182      2.00000
     26      -4.4463      2.00000
     27      -4.3403      2.00000
     28      -4.2629      2.00000
     29      -4.1698      2.00000
     30      -4.0790      2.00000
     31      -3.9500      2.00000
     32      -3.8402      2.00000
     33      -3.6717      2.00000
     34      -3.6566      2.00000
     35      -3.4789      2.00000
     36      -3.3529      2.00000
     37      -3.0790      2.00000
     38      -2.7822      2.00000
     39      -2.0817      2.00000
     40      -1.9474      2.00000
     41      -1.7752      2.00000
     42      -1.3522      2.00000
     43      -1.3134      2.00000
     44      -1.1912      2.00000
     45      -1.1648      2.00000
     46      -1.1019      2.00000
     47      -0.8483      2.00000
     48      -0.3110      2.00000
     49       2.2012      0.00000
     50       2.5595      0.00000
     51       2.7607      0.00000
     52       2.9372      0.00000
     53       2.9437      0.00000
     54       2.9535      0.00000
     55       3.0074      0.00000
     56       3.0769      0.00000
     57       3.1946      0.00000
     58       7.0966      0.00000

 k-point    10 :       0.4286    0.4286    0.0000
  band No.  band energies     occupation 
      1     -34.5205      2.00000
      2     -33.4096      2.00000
      3     -33.2475      2.00000
      4     -17.4704      2.00000
      5     -17.3084      2.00000
      6     -17.2624      2.00000
      7     -17.0519      2.00000
      8     -17.0474      2.00000
      9     -16.9912      2.00000
     10     -16.7493      2.00000
     11     -16.4787      2.00000
     12     -16.4073      2.00000
     13     -16.4000      2.00000
     14     -16.3371      2.00000
     15     -16.0522      2.00000
     16     -15.5615      2.00000
     17     -15.4458      2.00000
     18     -15.4382      2.00000
     19     -15.2842      2.00000
     20     -15.1399      2.00000
     21     -15.1200      2.00000
     22      -5.0305      2.00000
     23      -4.9668      2.00000
     24      -4.8660      2.00000
     25      -4.6712      2.00000
     26      -4.6090      2.00000
     27      -4.5697      2.00000
     28      -4.5037      2.00000
     29      -4.4198      2.00000
     30      -4.2693      2.00000
     31      -4.2017      2.00000
     32      -4.1391      2.00000
     33      -3.8091      2.00000
     34      -3.7831      2.00000
     35      -3.7493      2.00000
     36      -3.4760      2.00000
     37      -3.0990      2.00000
     38      -3.0794      2.00000
     39      -1.9984      2.00000
     40      -1.8572      2.00000
     41      -1.7924      2.00000
     42      -1.2760      2.00000
     43      -1.2360      2.00000
     44      -0.8828      2.00000
     45      -0.8610      2.00000
     46      -0.7923      2.00000
     47      -0.7846      2.00000
     48       0.0187      2.00000
     49       2.7243      0.00000
     50       2.8003      0.00000
     51       2.9620      0.00000
     52       3.1060      0.00000
     53       3.1825      0.00000
     54       3.2014      0.00000
     55       3.2873      0.00000
     56       6.5528      0.00000
     57       6.8004      0.00000
     58       6.9572      0.00000


--------------------------------------------------------------------------------------------------------


 soft charge-density along one line, spin component           1
         0         1         2         3         4         5         6         7         8         9
 total charge-density along one line
 
 pseudopotential strength for first ion, spin component:           1
 12.760  -0.359  -0.000  -0.021   0.000   0.000   0.001  -0.000
 -0.359   0.086   0.000   0.002  -0.000  -0.000  -0.000   0.000
 -0.000   0.000  -9.084   0.000   0.000  -0.058  -0.000  -0.000
 -0.021   0.002   0.000  -9.104  -0.000  -0.000  -0.054   0.000
  0.000  -0.000   0.000  -0.000  -9.084  -0.000   0.000  -0.058
  0.000  -0.000  -0.058  -0.000  -0.000   0.236   0.000   0.000
  0.001  -0.000  -0.000  -0.054   0.000   0.000   0.235  -0.000
 -0.000   0.000  -0.000   0.000  -0.058   0.000  -0.000   0.236
 total augmentation occupancy for first ion, spin component:           1
  1.866   0.122   0.000  -0.009   0.000   0.000   0.012  -0.000
  0.122   0.012   0.000   0.026   0.000  -0.000   0.005   0.000
  0.000   0.000   1.516  -0.000   0.000   0.121  -0.000   0.000
 -0.009   0.026   0.000   1.513   0.000   0.000   0.131   0.000
  0.000   0.000   0.000   0.000   1.516   0.000   0.000   0.121
  0.000   0.000   0.121   0.000   0.000   0.011   0.000   0.000
  0.012   0.005  -0.000   0.131   0.000  -0.000   0.012   0.000
  0.000   0.000   0.000   0.000   0.121   0.000   0.000   0.011


------------------------ aborting loop because EDIFF is reached ----------------------------------------


    CHARGE:  cpu time    0.1200: real time    0.1201
    FORLOC:  cpu time    0.0150: real time    0.0147
    FORNL :  cpu time    1.0308: real time    1.0309
    STRESS:  cpu time    2.0927: real time    2.0920
    FORCOR:  cpu time    0.0810: real time    0.0807
    FORHAR:  cpu time    0.0250: real time    0.0253
    MIXING:  cpu time    0.0050: real time    0.0051
    OFIELD:  cpu time    0.0000: real time    0.0000

  FORCE on cell =-STRESS in cart. coord.  units (eV):
  Direction    XX          YY          ZZ          XY          YZ          ZX
  --------------------------------------------------------------------------------------
  Alpha Z   291.75109   291.75109   291.75109
  Ewald   19241.88193 19241.88193-23023.85503    -0.00000     0.00000     0.00000
  Hartree 21088.17954 21088.17954-20163.63035    -0.00000    -0.00000    -0.00000
  E(xc)    -432.93861  -432.93861  -432.48233    -0.00000    -0.00000    -0.00000
  Local  -41591.78203-41591.78203 41934.16520    -0.00000    -0.00000     0.00000
  n-local  -366.64255  -350.32610  -360.44433    -1.25854    -0.00009     0.00002
  augment    87.08595    87.08595    86.06828     0.00000    -0.00000     0.00000
  Kinetic  1651.74300  1685.27631  1664.83679    -6.94538     0.00007     0.00001
  Fock        0.00000     0.00000     0.00000     0.00000     0.00000     0.00000
  -------------------------------------------------------------------------------------
  Total      -5.79680    -5.79680    -3.59068     0.00000     0.00000     0.00000
  in kB     -27.26509   -27.26509   -16.88864     0.00000     0.00000     0.00000
  external pressure =      -23.81 kB  Pullay stress =        0.00 kB


 VOLUME and BASIS-vectors are now :
 -----------------------------------------------------------------------------
  energy-cutoff  :      500.00
  volume of cell :      340.64
      direct lattice vectors                 reciprocal lattice vectors
     3.946846342  0.000000000  0.000000000     0.253366844  0.000000000  0.000000000
     0.000000000  3.946846342  0.000000000     0.000000000  0.253366844  0.000000000
     0.000000000  0.000000000 21.867115854     0.000000000  0.000000000  0.045730768

  length of vectors
     3.946846342  3.946846342 21.867115854     0.253366844  0.253366844  0.045730768


 FORCES acting on ions
    electron-ion (+dipol)            ewald-force                    non-local-force                 convergence-correction
 -----------------------------------------------------------------------------------------------
   0.147E-12 -.652E-12 0.129E+04   -.392E-14 0.230E-14 -.129E+04   0.000E+00 0.000E+00 0.798E+01   -.195E-13 0.349E-13 0.182E-03
   0.155E-12 -.214E-12 0.767E+03   -.526E-14 -.694E-14 -.767E+03   0.000E+00 0.000E+00 -.251E+00   0.216E-14 0.130E-13 -.649E-03
   -.658E-14 -.191E-12 0.767E+03   -.634E-14 0.745E-14 -.767E+03   0.000E+00 -.157E-22 -.251E+00   0.283E-13 0.188E-13 -.649E-03
   0.127E-12 -.106E-12 0.255E+03   -.223E-14 0.173E-14 -.256E+03   0.000E+00 0.000E+00 0.836E+00   -.784E-14 0.208E-14 -.130E-02
   0.146E-12 0.135E-12 -.256E+03   -.662E-14 -.829E-14 0.256E+03   0.000E+00 -.318E-21 0.270E-01   0.664E-14 0.221E-13 -.336E-03
   -.605E-14 0.756E-13 -.256E+03   -.340E-14 0.451E-14 0.256E+03   0.000E+00 0.000E+00 0.270E-01   0.176E-13 0.148E-13 -.336E-03
   0.178E-12 -.259E-12 -.768E+03   0.682E-15 0.170E-14 0.766E+03   0.106E-21 0.000E+00 0.263E+01   -.130E-13 0.552E-16 0.919E-03
   0.146E-12 -.389E-12 -.125E+04   -.218E-14 -.820E-14 0.126E+04   0.000E+00 0.000E+00 -.215E+01   0.164E-13 -.196E-13 0.243E-02
   -.801E-14 0.317E-12 -.125E+04   0.597E-15 0.117E-14 0.126E+04   0.000E+00 0.000E+00 -.215E+01   0.249E-13 -.210E-13 0.243E-02
   -.454E-14 0.878E-12 0.208E+04   0.456E-14 -.560E-14 -.208E+04   0.000E+00 0.000E+00 -.495E+01   0.435E-14 0.287E-13 -.943E-03
   -.585E-14 0.462E-13 0.426E+03   0.198E-14 -.116E-13 -.426E+03   0.000E+00 -.254E-20 -.198E-01   0.211E-14 -.633E-14 -.133E-02
   0.139E-14 -.755E-13 -.128E+04   0.190E-14 -.769E-14 0.128E+04   0.000E+00 0.000E+00 -.777E+00   -.815E-14 -.680E-14 0.168E-02
   0.150E-13 -.139E-12 0.511E+03   0.101E-13 0.615E-14 -.512E+03   0.000E+00 0.106E-21 -.344E+00   -.974E-14 0.148E-14 -.494E-03
   0.775E-14 0.227E-13 -.171E+03   0.138E-13 0.705E-14 0.170E+03   -.132E-22 0.000E+00 -.154E-01   -.878E-14 -.701E-14 -.175E-03
   0.302E-14 0.143E-12 -.860E+03   0.908E-14 0.596E-14 0.857E+03   0.000E+00 0.106E-21 0.134E+01   -.473E-14 0.401E-14 0.158E-02
 -----------------------------------------------------------------------------------------------
   0.895E-12 -.408E-12 -.193E+01   0.128E-13 -.103E-13 0.341E-12   0.926E-22 -.266E-20 0.192E+01   0.308E-13 0.792E-13 0.301E-02
 
 
 POSITION                                       TOTAL-FORCE (eV/Angst)
 -----------------------------------------------------------------------------------
      1.97342      1.97342      6.00000         0.000000      0.000000     -0.659132
      1.97342      0.00000      7.97342        -0.000000     -0.000000     -0.010164
      0.00000      1.97342      7.97342        -0.000000     -0.000000     -0.010164
      1.97342      1.97342      9.94685        -0.000000     -0.000000      0.441360
      1.97342      0.00000     11.92027        -0.000000     -0.000000      0.020031
      0.00000      1.97342     11.92027        -0.000000     -0.000000      0.020031
      1.97342      1.97342     13.89369         0.000000     -0.000000      1.023030
      1.97342      0.00000     15.86712        -0.000000     -0.000000      0.389978
      0.00000      1.97342     15.86712        -0.000000      0.000000      0.389978
      0.00000      0.00000      6.00000        -0.000000     -0.000000      1.340330
      0.00000      0.00000      9.94685        -0.000000     -0.000000      0.019216
      0.00000      0.00000     13.89369        -0.000000     -0.000000      0.633230
      1.97342      1.97342      7.97342        -0.000000     -0.000000     -1.010040
      1.97342      1.97342     11.92027        -0.000000     -0.000000     -0.392163
      1.97342      1.97342     15.86712        -0.000000     -0.000000     -2.195521
 -----------------------------------------------------------------------------------
    total drift:                                0.000000     -0.000000      0.000026


--------------------------------------------------------------------------------------------------------



  FREE ENERGIE OF THE ION-ELECTRON SYSTEM (eV)
  ---------------------------------------------------
  free  energy   TOTEN  =      -116.92935735 eV

  energy  without entropy=     -116.92935735  energy(sigma->0) =     -116.92935735
 


--------------------------------------------------------------------------------------------------------


    POTLOK:  cpu time    0.0830: real time    0.0824


--------------------------------------------------------------------------------------------------------


     LOOP+:  cpu time   77.2423: real time   77.6265
    4ORBIT:  cpu time    0.0000: real time    0.0000
 BZINTS: Fermi energy:  0.093179; 96.000000 electrons
         Band energy:-942.204244;  BLOECHL correction:  0.000000

 total amount of memory used by VASP MPI-rank0    86546. kBytes
=======================================================================

   base      :      30000. kBytes
   nonl-proj :      19826. kBytes
   fftplans  :       5724. kBytes
   grid      :      10289. kBytes
   one-center:        124. kBytes
   wavefun   :      20583. kBytes
 
  
  
 General timing and accounting informations for this job:
 ========================================================
  
                  Total CPU time used (sec):       78.979
                            User time (sec):       77.669
                          System time (sec):        1.310
                         Elapsed time (sec):       82.974
  
                   Maximum memory used (kb):       99112.
                   Average memory used (kb):           0.
  
                          Minor page faults:        29133
                          Major page faults:          178
                 Voluntary context switches:         3641
