Starting job 28500492 ("jobname") on c16-4 at Mon Nov 4 15:05:39 CET 2019
 running on    4 total cores
 distrk:  each k-point on    4 cores,    1 groups
 distr:  one band on    2 cores,    2 groups
 using from now: INCAR     
 vasp.5.4.4.18Apr17-6-g9f103f2a35 (build Jun 30 2017 11:15:00) complex          
  
 POSCAR found type information on POSCAR  O  Sr Ti
 POSCAR found :  3 types and      15 ions
 scaLAPACK will be used
 LDA part: xc-table for Pade appr. of Perdew
 POSCAR, INCAR and KPOINTS ok, starting setup
 FFT: planning ...
 WAVECAR not read
 entering main loop
       N       E                     dE             d eps       ncg     rms          rms(c)
DAV:   1     0.116439767839E+04    0.11644E+04   -0.41686E+04  1176   0.145E+03
DAV:   2     0.106059085377E+03   -0.10583E+04   -0.10232E+04  1484   0.373E+02
DAV:   3    -0.135960785828E+03   -0.24202E+03   -0.23626E+03  1568   0.179E+02
DAV:   4    -0.151001233687E+03   -0.15040E+02   -0.14985E+02  1552   0.506E+01
DAV:   5    -0.151886934089E+03   -0.88570E+00   -0.88496E+00  1984   0.111E+01    0.323E+01
RMM:   6    -0.121265677592E+03    0.30621E+02   -0.22338E+02  1312   0.498E+01    0.132E+01
RMM:   7    -0.117877685713E+03    0.33880E+01   -0.12055E+01  1342   0.149E+01    0.631E+00
RMM:   8    -0.117248636754E+03    0.62905E+00   -0.23324E+00  1533   0.608E+00    0.328E+00
RMM:   9    -0.117010824744E+03    0.23781E+00   -0.12177E+00  1512   0.444E+00    0.897E-01
RMM:  10    -0.116968955541E+03    0.41869E-01   -0.22981E-01  1763   0.164E+00    0.616E-01
RMM:  11    -0.116947407772E+03    0.21548E-01   -0.12023E-01  1697   0.108E+00    0.365E-01
RMM:  12    -0.116937879018E+03    0.95288E-02   -0.46173E-02  1762   0.644E-01    0.336E-01
RMM:  13    -0.116930254112E+03    0.76249E-02   -0.15540E-02  1884   0.375E-01    0.208E-01
RMM:  14    -0.116925341370E+03    0.49127E-02   -0.18474E-02  1625   0.449E-01    0.118E-01
RMM:  15    -0.116924032913E+03    0.13085E-02   -0.43767E-03  1801   0.211E-01    0.874E-02
RMM:  16    -0.116925247046E+03   -0.12141E-02   -0.67868E-03  1649   0.243E-01    0.107E-01
RMM:  17    -0.116926063951E+03   -0.81690E-03   -0.27935E-03  1609   0.167E-01    0.550E-02
RMM:  18    -0.116926464533E+03   -0.40058E-03   -0.78228E-04  1563   0.866E-02    0.211E-02
RMM:  19    -0.116928438237E+03   -0.19737E-02   -0.65502E-04  1539   0.577E-02    0.197E-02
RMM:  20    -0.116928999616E+03   -0.56138E-03   -0.28242E-04  1478   0.400E-02    0.116E-02
RMM:  21    -0.116929230724E+03   -0.23111E-03   -0.10580E-04  1301   0.284E-02    0.739E-03
RMM:  22    -0.116929321309E+03   -0.90585E-04   -0.41134E-05  1052   0.169E-02    0.292E-03
RMM:  23    -0.116929340204E+03   -0.18896E-04   -0.15089E-05   925   0.114E-02    0.151E-03
RMM:  24    -0.116929353434E+03   -0.13230E-04   -0.11812E-05   885   0.969E-03    0.185E-03
RMM:  25    -0.116929357348E+03   -0.39142E-05   -0.59394E-06   819   0.840E-03
   1 F= -.11692936E+03 E0= -.11692936E+03  d E =0.000000E+00

Currently Loaded Modulefiles:
  1) intel/2017.4         2) perf-reports/7.0.6

Job script resource usage:
       JobID  MaxVMSize     MaxRSS 
------------ ---------- ---------- 
28500492.ba+    499232K      5741K 

Job step resource usage:
       JobID    JobName  AllocCPUS  MaxVMSize     MaxRSS    Elapsed ExitCode 
------------ ---------- ---------- ---------- ---------- ---------- -------- 
28500492        jobname          4                         00:01:27      0:0 
28500492.0    pmi_proxy          1   1531512K    332154K   00:01:23      0:0 

Job 28500492 ("jobname") completed on c16-4 at Mon Nov 4 15:07:04 CET 2019
