unknown system                          
           1
     3.946846    0.000000    0.000000
     0.000000    3.946846    0.000000
     0.000000    0.000000   21.867116
   O    Sr   Ti
   9   3   3
Direct configuration=     1
   0.50000000  0.50000000  0.27438461
   0.50000000  0.00000000  0.36463076
   0.00000000  0.50000000  0.36463076
   0.50000000  0.50000000  0.45487692
   0.50000000  0.00000000  0.54512308
   0.00000000  0.50000000  0.54512308
   0.50000000  0.50000000  0.63536924
   0.50000000  0.00000000  0.72561539
   0.00000000  0.50000000  0.72561539
   0.00000000  0.00000000  0.27438461
   0.00000000  0.00000000  0.45487692
   0.00000000  0.00000000  0.63536924
   0.50000000  0.50000000  0.36463076
   0.50000000  0.50000000  0.54512308
   0.50000000  0.50000000  0.72561539
