unknown system                          
   2.90000000000000     
     1.000000    0.000000    0.000000
     0.000000    1.000000    0.000000
     0.000000    0.000000    1.000000
   Pt
     2
Direct
  0.000000  0.000000  0.000000
  0.500000  0.500000  0.500000
 
   32   32   32
  92.876      90.833      85.358      78.032      70.468      63.493      56.916      49.994      42.211      33.808    
  25.706      18.959      14.158      11.176      9.3911      8.4194      8.1154      8.4194      9.3911      11.176    
  14.158      18.959      25.706      33.808      42.211      49.994      56.916      63.493      70.468      78.032    
  85.358      90.833      90.833      88.861      83.575      76.489      69.151      62.346      55.885      49.059    
  41.394      33.147      25.226      18.653      13.987      11.086      9.3394      8.3886      8.0912      8.3886    
  9.3394      11.086      13.987      18.653      25.226      33.147      41.394      49.059      55.885      62.346    
  69.151      76.489      83.575      88.861      85.358      83.575      78.781      72.324      65.565      59.184    
  53.009      46.431      39.088      31.281      23.876      17.796      13.507      10.831      9.1936      8.3023    
  8.0236      8.3023      9.1936      10.831      13.507      17.796      23.876      31.281      39.088      46.431    
  53.009      59.184      65.565      72.324      78.781      83.575      78.032      76.489      72.324      66.649    
  60.584      54.686      48.826      42.557      35.672      28.524      21.892      16.544      12.811      10.454    
  8.9791      8.1773      7.9266      8.1773      8.9791      10.454      12.811      16.544      21.892      28.524    
  35.672      42.557      48.826      54.686      60.584      66.649      72.324      76.489      70.468      69.151    
  65.565      60.584      55.094      49.558      43.932      37.968      31.625      25.279      19.583      15.105    
  12.010      10.008      8.7299      8.0356      7.8183      8.0356      8.7299      10.008      12.010      15.105    
  19.583      25.279      31.625      37.968      43.932      49.558      55.094      60.584      65.565      69.151    
  63.493      62.346      59.184      54.686      49.558      44.221      38.755      33.111      27.384      21.934    
  17.246      13.668      11.206      9.5483      8.4799      7.8990      7.7166      7.8990      8.4799      9.5483    
  11.206      13.668      17.246      21.934      27.384      33.111      38.755      44.221      49.558      54.686    
  59.184      62.346      56.916      55.885      53.009      48.826      43.932      38.755      33.502      28.286    
  23.284      18.789      15.104      12.369      10.459      9.1195      8.2563      7.7844      7.6355      7.7844    
  8.2563      9.1195      10.459      12.369      15.104      18.789      23.284      28.286      33.502      38.755    
  43.932      48.826      53.009      55.885      49.994      49.059      46.431      42.557      37.968      33.111    
  28.286      23.703      19.556      16.040      13.285      11.267      9.7969      8.7522      8.0763      7.7027    
  7.5837      7.7027      8.0763      8.7522      9.7969      11.267      13.285      16.040      19.556      23.703    
  28.286      33.111      37.968      42.557      46.431      49.059      42.211      41.394      39.088      35.672    
  31.625      27.384      23.284      19.556      16.357      13.780      11.820      10.351      9.2447      8.4605    
  7.9474      7.6590      7.5661      7.6590      7.9474      8.4605      9.2447      10.351      11.820      13.780    
  16.357      19.556      23.284      27.384      31.625      35.672      39.088      41.394      33.808      33.147    
  31.281      28.524      25.279      21.934      18.789      16.040      13.780      12.016      10.659      9.6010    
  8.8088      8.2449      7.8694      7.6541      7.5837      7.6541      7.8694      8.2449      8.8088      9.6010    
  10.659      12.016      13.780      16.040      18.789      21.934      25.279      28.524      31.281      33.147    
  25.706      25.226      23.876      21.892      19.583      17.246      15.104      13.285      11.820      10.659    
  9.7302      9.0133      8.4803      8.0973      7.8376      7.6857      7.6355      7.6857      7.8376      8.0973    
  8.4803      9.0133      9.7302      10.659      11.820      13.285      15.104      17.246      19.583      21.892    
  23.876      25.226      18.959      18.653      17.796      16.544      15.105      13.668      12.369      11.267    
  10.351      9.6010      9.0133      8.5690      8.2413      8.0053      7.8438      7.7484      7.7166      7.7484    
  7.8438      8.0053      8.2413      8.5690      9.0133      9.6010      10.351      11.267      12.369      13.668    
  15.105      16.544      17.796      18.653      14.158      13.987      13.507      12.811      12.010      11.206    
  10.459      9.7969      9.2447      8.8088      8.4803      8.2413      8.0719      7.9547      7.8773      7.8329    
  7.8183      7.8329      7.8773      7.9547      8.0719      8.2413      8.4803      8.8088      9.2447      9.7969    
  10.459      11.206      12.010      12.811      13.507      13.987      11.176      11.086      10.831      10.454    
  10.008      9.5483      9.1195      8.7522      8.4605      8.2449      8.0973      8.0053      7.9547      7.9321    
  7.9256      7.9258      7.9266      7.9258      7.9256      7.9321      7.9547      8.0053      8.0973      8.2449    
  8.4605      8.7522      9.1195      9.5483      10.008      10.454      10.831      11.086      9.3911      9.3394    
  9.1936      8.9791      8.7299      8.4799      8.2563      8.0763      7.9474      7.8694      7.8376      7.8438    
  7.8773      7.9256      7.9744      8.0104      8.0236      8.0104      7.9744      7.9256      7.8773      7.8438    
  7.8376      7.8694      7.9474      8.0763      8.2563      8.4799      8.7299      8.9791      9.1936      9.3394    
  8.4194      8.3886      8.3023      8.1773      8.0356      7.8990      7.7844      7.7027      7.6590      7.6541    
  7.6857      7.7484      7.8329      7.9258      8.0104      8.0698      8.0912      8.0698      8.0104      7.9258    
  7.8329      7.7484      7.6857      7.6541      7.6590      7.7027      7.7844      7.8990      8.0356      8.1773    
  8.3023      8.3886      8.1154      8.0912      8.0236      7.9266      7.8183      7.7166      7.6355      7.5837    
  7.5661      7.5837      7.6355      7.7166      7.8183      7.9266      8.0236      8.0912      8.1154      8.0912    
  8.0236      7.9266      7.8183      7.7166      7.6355      7.5837      7.5661      7.5837      7.6355      7.7166    
  7.8183      7.9266      8.0236      8.0912      8.4194      8.3886      8.3023      8.1773      8.0356      7.8990    
  7.7844      7.7027      7.6590      7.6541      7.6857      7.7484      7.8329      7.9258      8.0104      8.0698    
  8.0912      8.0698      8.0104      7.9258      7.8329      7.7484      7.6857      7.6541      7.6590      7.7027    
  7.7844      7.8990      8.0356      8.1773      8.3023      8.3886      9.3911      9.3394      9.1936      8.9791    
  8.7299      8.4799      8.2563      8.0763      7.9474      7.8694      7.8376      7.8438      7.8773      7.9256    
  7.9744      8.0104      8.0236      8.0104      7.9744      7.9256      7.8773      7.8438      7.8376      7.8694    
  7.9474      8.0763      8.2563      8.4799      8.7299      8.9791      9.1936      9.3394      11.176      11.086    
  10.831      10.454      10.008      9.5483      9.1195      8.7522      8.4605      8.2449      8.0973      8.0053    
  7.9547      7.9321      7.9256      7.9258      7.9266      7.9258      7.9256      7.9321      7.9547      8.0053    
  8.0973      8.2449      8.4605      8.7522      9.1195      9.5483      10.008      10.454      10.831      11.086    
  14.158      13.987      13.507      12.811      12.010      11.206      10.459      9.7969      9.2447      8.8088    
  8.4803      8.2413      8.0719      7.9547      7.8773      7.8329      7.8183      7.8329      7.8773      7.9547    
  8.0719      8.2413      8.4803      8.8088      9.2447      9.7969      10.459      11.206      12.010      12.811    
  13.507      13.987      18.959      18.653      17.796      16.544      15.105      13.668      12.369      11.267    
  10.351      9.6010      9.0133      8.5690      8.2413      8.0053      7.8438      7.7484      7.7166      7.7484    
  7.8438      8.0053      8.2413      8.5690      9.0133      9.6010      10.351      11.267      12.369      13.668    
  15.105      16.544      17.796      18.653      25.706      25.226      23.876      21.892      19.583      17.246    
  15.104      13.285      11.820      10.659      9.7302      9.0133      8.4803      8.0973      7.8376      7.6857    
  7.6355      7.6857      7.8376      8.0973      8.4803      9.0133      9.7302      10.659      11.820      13.285    
  15.104      17.246      19.583      21.892      23.876      25.226      33.808      33.147      31.281      28.524    
  25.279      21.934      18.789      16.040      13.780      12.016      10.659      9.6010      8.8088      8.2449    
  7.8694      7.6541      7.5837      7.6541      7.8694      8.2449      8.8088      9.6010      10.659      12.016    
  13.780      16.040      18.789      21.934      25.279      28.524      31.281      33.147      42.211      41.394    
  39.088      35.672      31.625      27.384      23.284      19.556      16.357      13.780      11.820      10.351    
  9.2447      8.4605      7.9474      7.6590      7.5661      7.6590      7.9474      8.4605      9.2447      10.351    
  11.820      13.780      16.357      19.556      23.284      27.384      31.625      35.672      39.088      41.394    
  49.994      49.059      46.431      42.557      37.968      33.111      28.286      23.703      19.556      16.040    
  13.285      11.267      9.7969      8.7522      8.0763      7.7027      7.5837      7.7027      8.0763      8.7522    
  9.7969      11.267      13.285      16.040      19.556      23.703      28.286      33.111      37.968      42.557    
  46.431      49.059      56.916      55.885      53.009      48.826      43.932      38.755      33.502      28.286    
  23.284      18.789      15.104      12.369      10.459      9.1195      8.2563      7.7844      7.6355      7.7844    
  8.2563      9.1195      10.459      12.369      15.104      18.789      23.284      28.286      33.502      38.755    
  43.932      48.826      53.009      55.885      63.493      62.346      59.184      54.686      49.558      44.221    
  38.755      33.111      27.384      21.934      17.246      13.668      11.206      9.5483      8.4799      7.8990    
  7.7166      7.8990      8.4799      9.5483      11.206      13.668      17.246      21.934      27.384      33.111    
  38.755      44.221      49.558      54.686      59.184      62.346      70.468      69.151      65.565      60.584    
  55.094      49.558      43.932      37.968      31.625      25.279      19.583      15.105      12.010      10.008    
  8.7299      8.0356      7.8183      8.0356      8.7299      10.008      12.010      15.105      19.583      25.279    
  31.625      37.968      43.932      49.558      55.094      60.584      65.565      69.151      78.032      76.489    
  72.324      66.649      60.584      54.686      48.826      42.557      35.672      28.524      21.892      16.544    
  12.811      10.454      8.9791      8.1773      7.9266      8.1773      8.9791      10.454      12.811      16.544    
  21.892      28.524      35.672      42.557      48.826      54.686      60.584      66.649      72.324      76.489    
  85.358      83.575      78.781      72.324      65.565      59.184      53.009      46.431      39.088      31.281    
  23.876      17.796      13.507      10.831      9.1936      8.3023      8.0236      8.3023      9.1936      10.831    
  13.507      17.796      23.876      31.281      39.088      46.431      53.009      59.184      65.565      72.324    
  78.781      83.575      90.833      88.861      83.575      76.489      69.151      62.346      55.885      49.059    
  41.394      33.147      25.226      18.653      13.987      11.086      9.3394      8.3886      8.0912      8.3886    
  9.3394      11.086      13.987      18.653      25.226      33.147      41.394      49.059      55.885      62.346    
  69.151      76.489      83.575      88.861      90.833      88.861      83.575      76.489      69.151      62.346    
  55.885      49.059      41.394      33.147      25.226      18.653      13.987      11.086      9.3394      8.3886    
  8.0912      8.3886      9.3394      11.086      13.987      18.653      25.226      33.147      41.394      49.059    
  55.885      62.346      69.151      76.489      83.575      88.861      88.861      86.958      81.851      74.996    
  67.874      61.230      54.881      48.149      40.600      32.506      24.763      18.360      13.824      11.000    
  9.2913      8.3608      8.0698      8.3608      9.2913      11.000      13.824      18.360      24.763      32.506    
  40.600      48.149      54.881      61.230      67.874      74.996      81.851      86.958      83.575      81.851    
  77.216      70.962      64.392      58.154      52.078      45.590      38.358      30.698      23.460      17.537    
  13.367      10.760      9.1560      8.2833      8.0104      8.2833      9.1560      10.760      13.367      17.537    
  23.460      30.698      38.358      45.590      52.078      58.154      64.392      70.962      77.216      81.851    
  76.489      74.996      70.962      65.454      59.545      53.768      47.997      41.814      35.038      28.027    
  21.547      16.337      12.703      10.403      8.9573      8.1716      7.9258      8.1716      8.9573      10.403    
  12.703      16.337      21.547      28.027      35.038      41.814      47.997      53.768      59.545      65.454    
  70.962      74.996      69.151      67.874      64.392      59.545      54.185      48.754      43.215      37.339    
  31.102      24.883      19.320      14.956      11.941      9.9818      8.7274      8.0462      7.8329      8.0462    
  8.7274      9.9818      11.941      14.956      19.320      24.883      31.102      37.339      43.215      48.754    
  54.185      59.545      64.392      67.874      62.346      61.230      58.154      53.768      48.754      43.519    
  38.146      32.597      26.977      21.642      17.067      13.579      11.175      9.5480      8.4986      7.9277    
  7.7484      7.9277      8.4986      9.5480      11.175      13.579      17.067      21.642      26.977      32.597    
  38.146      43.519      48.754      53.768      58.154      61.230      55.885      54.881      52.078      47.997    
  43.215      38.146      32.997      27.884      22.988      18.596      15.001      12.333      10.462      9.1458    
  8.2970      7.8324      7.6857      7.8324      8.2970      9.1458      10.462      12.333      15.001      18.596    
  22.988      27.884      32.997      38.146      43.215      47.997      52.078      54.881      49.059      48.149    
  45.590      41.814      37.339      32.597      27.884      23.408      19.360      15.932      13.246      11.275    
  9.8311      8.8045      8.1395      7.7714      7.6541      7.7714      8.1395      8.8045      9.8311      11.275    
  13.246      15.932      19.360      23.408      27.884      32.597      37.339      41.814      45.590      48.149    
  41.394      40.600      38.358      35.038      31.102      26.977      22.988      19.360      16.249      13.741    
  11.831      10.393      9.3077      8.5381      8.0341      7.7504      7.6590      7.7504      8.0341      8.5381    
  9.3077      10.393      11.831      13.741      16.249      19.360      22.988      26.977      31.102      35.038    
  38.358      40.600      33.147      32.506      30.698      28.027      24.883      21.642      18.596      15.932    
  13.741      12.028      10.706      9.6720      8.8986      8.3481      7.9817      7.7714      7.7027      7.7714    
  7.9817      8.3481      8.8986      9.6720      10.706      12.028      13.741      15.932      18.596      21.642    
  24.883      28.027      30.698      32.506      25.226      24.763      23.460      21.547      19.320      17.067    
  15.001      13.246      11.831      10.706      9.8042      9.1102      8.5955      8.2271      7.9779      7.8324    
  7.7844      7.8324      7.9779      8.2271      8.5955      9.1102      9.8042      10.706      11.831      13.246    
  15.001      17.067      19.320      21.547      23.460      24.763      18.653      18.360      17.537      16.337    
  14.956      13.579      12.333      11.275      10.393      9.6720      9.1102      8.6887      8.3812      8.1624    
  8.0144      7.9277      7.8990      7.9277      8.0144      8.1624      8.3812      8.6887      9.1102      9.6720    
  10.393      11.275      12.333      13.579      14.956      16.337      17.537      18.360      13.987      13.824    
  13.367      12.703      11.941      11.175      10.462      9.8311      9.3077      8.8986      8.5955      8.3812    
  8.2353      8.1393      8.0792      8.0462      8.0356      8.0462      8.0792      8.1393      8.2353      8.3812    
  8.5955      8.8986      9.3077      9.8311      10.462      11.175      11.941      12.703      13.367      13.824    
  11.086      11.000      10.760      10.403      9.9818      9.5480      9.1458      8.8045      8.5381      8.3481    
  8.2271      8.1624      8.1393      8.1424      8.1572      8.1716      8.1773      8.1716      8.1572      8.1424    
  8.1393      8.1624      8.2271      8.3481      8.5381      8.8045      9.1458      9.5480      9.9818      10.403    
  10.760      11.000      9.3394      9.2913      9.1560      8.9573      8.7274      8.4986      8.2970      8.1395    
  8.0341      7.9817      7.9779      8.0144      8.0792      8.1572      8.2308      8.2833      8.3023      8.2833    
  8.2308      8.1572      8.0792      8.0144      7.9779      7.9817      8.0341      8.1395      8.2970      8.4986    
  8.7274      8.9573      9.1560      9.2913      8.3886      8.3608      8.2833      8.1716      8.0462      7.9277    
  7.8324      7.7714      7.7504      7.7714      7.8324      7.9277      8.0462      8.1716      8.2833      8.3608    
  8.3886      8.3608      8.2833      8.1716      8.0462      7.9277      7.8324      7.7714      7.7504      7.7714    
  7.8324      7.9277      8.0462      8.1716      8.2833      8.3608      8.0912      8.0698      8.0104      7.9258    
  7.8329      7.7484      7.6857      7.6541      7.6590      7.7027      7.7844      7.8990      8.0356      8.1773    
  8.3023      8.3886      8.4194      8.3886      8.3023      8.1773      8.0356      7.8990      7.7844      7.7027    
  7.6590      7.6541      7.6857      7.7484      7.8329      7.9258      8.0104      8.0698      8.3886      8.3608    
  8.2833      8.1716      8.0462      7.9277      7.8324      7.7714      7.7504      7.7714      7.8324      7.9277    
  8.0462      8.1716      8.2833      8.3608      8.3886      8.3608      8.2833      8.1716      8.0462      7.9277    
  7.8324      7.7714      7.7504      7.7714      7.8324      7.9277      8.0462      8.1716      8.2833      8.3608    
  9.3394      9.2913      9.1560      8.9573      8.7274      8.4986      8.2970      8.1395      8.0341      7.9817    
  7.9779      8.0144      8.0792      8.1572      8.2308      8.2833      8.3023      8.2833      8.2308      8.1572    
  8.0792      8.0144      7.9779      7.9817      8.0341      8.1395      8.2970      8.4986      8.7274      8.9573    
  9.1560      9.2913      11.086      11.000      10.760      10.403      9.9818      9.5480      9.1458      8.8045    
  8.5381      8.3481      8.2271      8.1624      8.1393      8.1424      8.1572      8.1716      8.1773      8.1716    
  8.1572      8.1424      8.1393      8.1624      8.2271      8.3481      8.5381      8.8045      9.1458      9.5480    
  9.9818      10.403      10.760      11.000      13.987      13.824      13.367      12.703      11.941      11.175    
  10.462      9.8311      9.3077      8.8986      8.5955      8.3812      8.2353      8.1393      8.0792      8.0462    
  8.0356      8.0462      8.0792      8.1393      8.2353      8.3812      8.5955      8.8986      9.3077      9.8311    
  10.462      11.175      11.941      12.703      13.367      13.824      18.653      18.360      17.537      16.337    
  14.956      13.579      12.333      11.275      10.393      9.6720      9.1102      8.6887      8.3812      8.1624    
  8.0144      7.9277      7.8990      7.9277      8.0144      8.1624      8.3812      8.6887      9.1102      9.6720    
  10.393      11.275      12.333      13.579      14.956      16.337      17.537      18.360      25.226      24.763    
  23.460      21.547      19.320      17.067      15.001      13.246      11.831      10.706      9.8042      9.1102    
  8.5955      8.2271      7.9779      7.8324      7.7844      7.8324      7.9779      8.2271      8.5955      9.1102    
  9.8042      10.706      11.831      13.246      15.001      17.067      19.320      21.547      23.460      24.763    
  33.147      32.506      30.698      28.027      24.883      21.642      18.596      15.932      13.741      12.028    
  10.706      9.6720      8.8986      8.3481      7.9817      7.7714      7.7027      7.7714      7.9817      8.3481    
  8.8986      9.6720      10.706      12.028      13.741      15.932      18.596      21.642      24.883      28.027    
  30.698      32.506      41.394      40.600      38.358      35.038      31.102      26.977      22.988      19.360    
  16.249      13.741      11.831      10.393      9.3077      8.5381      8.0341      7.7504      7.6590      7.7504    
  8.0341      8.5381      9.3077      10.393      11.831      13.741      16.249      19.360      22.988      26.977    
  31.102      35.038      38.358      40.600      49.059      48.149      45.590      41.814      37.339      32.597    
  27.884      23.408      19.360      15.932      13.246      11.275      9.8311      8.8045      8.1395      7.7714    
  7.6541      7.7714      8.1395      8.8045      9.8311      11.275      13.246      15.932      19.360      23.408    
  27.884      32.597      37.339      41.814      45.590      48.149      55.885      54.881      52.078      47.997    
  43.215      38.146      32.997      27.884      22.988      18.596      15.001      12.333      10.462      9.1458    
  8.2970      7.8324      7.6857      7.8324      8.2970      9.1458      10.462      12.333      15.001      18.596    
  22.988      27.884      32.997      38.146      43.215      47.997      52.078      54.881      62.346      61.230    
  58.154      53.768      48.754      43.519      38.146      32.597      26.977      21.642      17.067      13.579    
  11.175      9.5480      8.4986      7.9277      7.7484      7.9277      8.4986      9.5480      11.175      13.579    
  17.067      21.642      26.977      32.597      38.146      43.519      48.754      53.768      58.154      61.230    
  69.151      67.874      64.392      59.545      54.185      48.754      43.215      37.339      31.102      24.883    
  19.320      14.956      11.941      9.9818      8.7274      8.0462      7.8329      8.0462      8.7274      9.9818    
  11.941      14.956      19.320      24.883      31.102      37.339      43.215      48.754      54.185      59.545    
  64.392      67.874      76.489      74.996      70.962      65.454      59.545      53.768      47.997      41.814    
  35.038      28.027      21.547      16.337      12.703      10.403      8.9573      8.1716      7.9258      8.1716    
  8.9573      10.403      12.703      16.337      21.547      28.027      35.038      41.814      47.997      53.768    
  59.545      65.454      70.962      74.996      83.575      81.851      77.216      70.962      64.392      58.154    
  52.078      45.590      38.358      30.698      23.460      17.537      13.367      10.760      9.1560      8.2833    
  8.0104      8.2833      9.1560      10.760      13.367      17.537      23.460      30.698      38.358      45.590    
  52.078      58.154      64.392      70.962      77.216      81.851      88.861      86.958      81.851      74.996    
  67.874      61.230      54.881      48.149      40.600      32.506      24.763      18.360      13.824      11.000    
  9.2913      8.3608      8.0698      8.3608      9.2913      11.000      13.824      18.360      24.763      32.506    
  40.600      48.149      54.881      61.230      67.874      74.996      81.851      86.958      85.358      83.575    
  78.781      72.324      65.565      59.184      53.009      46.431      39.088      31.281      23.876      17.796    
  13.507      10.831      9.1936      8.3023      8.0236      8.3023      9.1936      10.831      13.507      17.796    
  23.876      31.281      39.088      46.431      53.009      59.184      65.565      72.324      78.781      83.575    
  83.575      81.851      77.216      70.962      64.392      58.154      52.078      45.590      38.358      30.698    
  23.460      17.537      13.367      10.760      9.1560      8.2833      8.0104      8.2833      9.1560      10.760    
  13.367      17.537      23.460      30.698      38.358      45.590      52.078      58.154      64.392      70.962    
  77.216      81.851      78.781      77.216      72.998      67.270      61.184      55.303      49.477      43.221    
  36.299      29.055      22.291      16.811      12.974      10.558      9.0505      8.2308      7.9744      8.2308    
  9.0505      10.558      12.974      16.811      22.291      29.055      36.299      43.221      49.477      55.303    
  61.184      67.270      72.998      77.216      72.324      70.962      67.270      62.197      56.690      51.217    
  45.675      39.721      33.246      26.625      20.576      15.755      12.404      10.259      8.8972      8.1572    
  7.9256      8.1572      8.8972      10.259      12.404      15.755      20.576      26.625      33.246      39.721    
  45.675      51.217      56.690      62.197      67.270      70.962      65.565      64.392      61.184      56.690    
  51.665      46.507      41.196      35.561      29.624      23.768      18.581      14.541      11.749      9.9081    
  8.7233      8.0792      7.8773      8.0792      8.7233      9.9081      11.749      14.541      18.581      23.768    
  29.624      35.561      41.196      46.507      51.665      56.690      61.184      64.392      59.184      58.154    
  55.303      51.217      46.507      41.545      36.425      31.142      25.826      20.822      16.563      13.331    
  11.090      9.5511      8.5567      8.0144      7.8438      8.0144      8.5567      9.5511      11.090      13.331    
  16.563      20.822      25.826      31.142      36.425      41.545      46.507      51.217      55.303      58.154    
  53.009      52.078      49.477      45.675      41.196      36.425      31.566      26.747      22.151      18.054    
  14.715      12.237      10.476      9.2276      8.4209      7.9779      7.8376      7.9779      8.4209      9.2276    
  10.476      12.237      14.715      18.054      22.151      26.747      31.566      36.425      41.196      45.675    
  49.477      52.078      46.431      45.590      43.221      39.721      35.561      31.142      26.747      22.574    
  18.811      15.632      13.143      11.304      9.9377      8.9650      8.3329      7.9817      7.8694      7.9817    
  8.3329      8.9650      9.9377      11.304      13.143      15.632      18.811      22.574      26.747      31.142    
  35.561      39.721      43.221      45.590      39.088      38.358      36.299      33.246      29.624      25.826    
  22.151      18.811      15.947      13.639      11.871      10.523      9.5024      8.7781      8.3025      8.0341    
  7.9474      8.0341      8.3025      8.7781      9.5024      10.523      11.871      13.639      15.947      18.811    
  22.151      25.826      29.624      33.246      36.299      38.358      31.281      30.698      29.055      26.625    
  23.768      20.822      18.054      15.632      13.639      12.072      10.850      9.8921      9.1775      8.6701    
  8.3329      8.1395      8.0763      8.1395      8.3329      8.6701      9.1775      9.8921      10.850      12.072    
  13.639      15.632      18.054      20.822      23.768      26.625      29.055      30.698      23.876      23.460    
  22.291      20.576      18.581      16.563      14.715      13.143      11.871      10.850      10.034      9.4117    
  8.9564      8.6352      8.4209      8.2970      8.2563      8.2970      8.4209      8.6352      8.9564      9.4117    
  10.034      10.850      11.871      13.143      14.715      16.563      18.581      20.576      22.291      23.460    
  17.796      17.537      16.811      15.755      14.541      13.331      12.237      11.304      10.523      9.8921    
  9.4117      9.0639      8.8223      8.6602      8.5567      8.4986      8.4799      8.4986      8.5567      8.6602    
  8.8223      9.0639      9.4117      9.8921      10.523      11.304      12.237      13.331      14.541      15.755    
  16.811      17.537      13.507      13.367      12.974      12.404      11.749      11.090      10.476      9.9377    
  9.5024      9.1775      8.9564      8.8223      8.7533      8.7269      8.7233      8.7274      8.7299      8.7274    