unknown system                          
   2.90000000000000     
     1.000000    0.000000    0.000000
     0.000000    1.000000    0.000000
     0.000000    0.000000    1.000000
   Pt
     2
Direct
  0.000000  0.000000  0.000000
  0.500000  0.500000  0.500000
 
   32   32   32
 0.92875543022E+02 0.90832958624E+02 0.85358462202E+02 0.78031806659E+02 0.70467556226E+02
 0.63492652434E+02 0.56915900984E+02 0.49993660893E+02 0.42211476237E+02 0.33808497810E+02
 0.25706153974E+02 0.18958968052E+02 0.14157870639E+02 0.11176129952E+02 0.93911297488E+01
 0.84194033152E+01 0.81154371921E+01 0.84194033152E+01 0.93911297488E+01 0.11176129952E+02
 0.14157870639E+02 0.18958968052E+02 0.25706153974E+02 0.33808497810E+02 0.42211476237E+02
 0.49993660893E+02 0.56915900984E+02 0.63492652434E+02 0.70467556226E+02 0.78031806659E+02
 0.85358462202E+02 0.90832958624E+02 0.90832958624E+02 0.88861416778E+02 0.83574595825E+02
 0.76489090463E+02 0.69150814650E+02 0.62345712222E+02 0.55884666700E+02 0.49058964113E+02
 0.41394052650E+02 0.33147114259E+02 0.25226358059E+02 0.18653165865E+02 0.13986674566E+02
 0.11085790883E+02 0.93393954686E+01 0.83885822961E+01 0.80911910918E+01 0.83885822961E+01
 0.93393954686E+01 0.11085790883E+02 0.13986674566E+02 0.18653165865E+02 0.25226358059E+02
 0.33147114259E+02 0.41394052650E+02 0.49058964113E+02 0.55884666700E+02 0.62345712222E+02
 0.69150814650E+02 0.76489090463E+02 0.83574595825E+02 0.88861416778E+02 0.85358462202E+02
 0.83574595825E+02 0.78781378115E+02 0.72323990816E+02 0.65564612188E+02 0.59184330646E+02
 0.53008532012E+02 0.46430885717E+02 0.39087679644E+02 0.31281273488E+02 0.23876098917E+02
 0.17795527525E+02 0.13507495078E+02 0.10831162515E+02 0.91936001141E+01 0.83023396190E+01
 0.80236353021E+01 0.83023396190E+01 0.91936001141E+01 0.10831162515E+02 0.13507495078E+02
 0.17795527525E+02 0.23876098917E+02 0.31281273488E+02 0.39087679644E+02 0.46430885717E+02
 0.53008532012E+02 0.59184330646E+02 0.65564612188E+02 0.72323990816E+02 0.78781378115E+02
 0.83574595825E+02 0.78031806659E+02 0.76489090463E+02 0.72323990816E+02 0.66648849844E+02
 0.60583753852E+02 0.54685863356E+02 0.48825554186E+02 0.42556691890E+02 0.35672211169E+02
 0.28523662709E+02 0.21892207335E+02 0.16544474534E+02 0.12810631675E+02 0.10454358361E+02
 0.89790963887E+01 0.81773371350E+01 0.79266101672E+01 0.81773371350E+01 0.89790963887E+01
 0.10454358361E+02 0.12810631675E+02 0.16544474534E+02 0.21892207335E+02 0.28523662709E+02
 0.35672211169E+02 0.42556691890E+02 0.48825554186E+02 0.54685863356E+02 0.60583753852E+02
 0.66648849844E+02 0.72323990816E+02 0.76489090463E+02 0.70467556226E+02 0.69150814650E+02
 0.65564612188E+02 0.60583753852E+02 0.55094110446E+02 0.49557567009E+02 0.43932073683E+02
 0.37968027890E+02 0.31624555253E+02 0.25278689537E+02 0.19583466177E+02 0.15104795400E+02
 0.12009890993E+02 0.10008439873E+02 0.87298665740E+01 0.80356446460E+01 0.78183452310E+01
 0.80356446460E+01 0.87298665740E+01 0.10008439873E+02 0.12009890993E+02 0.15104795400E+02
 0.19583466177E+02 0.25278689537E+02 0.31624555253E+02 0.37968027890E+02 0.43932073683E+02
 0.49557567009E+02 0.55094110446E+02 0.60583753852E+02 0.65564612188E+02 0.69150814650E+02
 0.63492652434E+02 0.62345712222E+02 0.59184330646E+02 0.54685863356E+02 0.49557567009E+02
 0.44220583201E+02 0.38755168368E+02 0.33110682447E+02 0.27383945727E+02 0.21933616306E+02
 0.17246219105E+02 0.13668158478E+02 0.11205781146E+02 0.95482770902E+01 0.84798765270E+01
 0.78989642030E+01 0.77166424188E+01 0.78989642030E+01 0.84798765270E+01 0.95482770902E+01
 0.11205781146E+02 0.13668158478E+02 0.17246219105E+02 0.21933616306E+02 0.27383945727E+02
 0.33110682447E+02 0.38755168368E+02 0.44220583201E+02 0.49557567009E+02 0.54685863356E+02
 0.59184330646E+02 0.62345712222E+02 0.56915900984E+02 0.55884666700E+02 0.53008532012E+02
 0.48825554186E+02 0.43932073683E+02 0.38755168368E+02 0.33502462805E+02 0.28286014966E+02
 0.23283888207E+02 0.18789171640E+02 0.15104307752E+02 0.12369293089E+02 0.10458830951E+02
 0.91195050591E+01 0.82562928900E+01 0.77843762278E+01 0.76354596689E+01 0.77843762278E+01
 0.82562928900E+01 0.91195050591E+01 0.10458830951E+02 0.12369293089E+02 0.15104307752E+02
 0.18789171640E+02 0.23283888207E+02 0.28286014966E+02 0.33502462805E+02 0.38755168368E+02
 0.43932073683E+02 0.48825554186E+02 0.53008532012E+02 0.55884666700E+02 0.49993660893E+02
 0.49058964113E+02 0.46430885717E+02 0.42556691890E+02 0.37968027890E+02 0.33110682447E+02
 0.28286014966E+02 0.23702887698E+02 0.19555665338E+02 0.16039604550E+02 0.13284809821E+02
 0.11267483346E+02 0.97969072016E+01 0.87522486327E+01 0.80763012801E+01 0.77026846669E+01
 0.75837462494E+01 0.77026846669E+01 0.80763012801E+01 0.87522486327E+01 0.97969072016E+01
 0.11267483346E+02 0.13284809821E+02 0.16039604550E+02 0.19555665338E+02 0.23702887698E+02
 0.28286014966E+02 0.33110682447E+02 0.37968027890E+02 0.42556691890E+02 0.46430885717E+02
 0.49058964113E+02 0.42211476237E+02 0.41394052650E+02 0.39087679644E+02 0.35672211169E+02
 0.31624555253E+02 0.27383945727E+02 0.23283888207E+02 0.19555665338E+02 0.16357493072E+02
 0.13780256254E+02 0.11819937190E+02 0.10351181189E+02 0.92446945558E+01 0.84604605235E+01
 0.79473601721E+01 0.76589722721E+01 0.75660622579E+01 0.76589722721E+01 0.79473601721E+01
 0.84604605235E+01 0.92446945558E+01 0.10351181189E+02 0.11819937190E+02 0.13780256254E+02
 0.16357493072E+02 0.19555665338E+02 0.23283888207E+02 0.27383945727E+02 0.31624555253E+02
 0.35672211169E+02 0.39087679644E+02 0.41394052650E+02 0.33808497810E+02 0.33147114259E+02
 0.31281273488E+02 0.28523662709E+02 0.25278689537E+02 0.21933616306E+02 0.18789171640E+02
 0.16039604550E+02 0.13780256254E+02 0.12015516826E+02 0.10659262466E+02 0.96009907430E+01
 0.88088149055E+01 0.82448543549E+01 0.78694480200E+01 0.76540770009E+01 0.75837462494E+01
 0.76540770009E+01 0.78694480200E+01 0.82448543549E+01 0.88088149055E+01 0.96009907430E+01
 0.10659262466E+02 0.12015516826E+02 0.13780256254E+02 0.16039604550E+02 0.18789171640E+02
 0.21933616306E+02 0.25278689537E+02 0.28523662709E+02 0.31281273488E+02 0.33147114259E+02
 0.25706153974E+02 0.25226358059E+02 0.23876098917E+02 0.21892207335E+02 0.19583466177E+02
 0.17246219105E+02 0.15104307752E+02 0.13284809821E+02 0.11819937190E+02 0.10659262466E+02
 0.97302289871E+01 0.90133494685E+01 0.84802777669E+01 0.80973412635E+01 0.78376215185E+01
 0.76856806971E+01 0.76354596689E+01 0.76856806971E+01 0.78376215185E+01 0.80973412635E+01
 0.84802777669E+01 0.90133494685E+01 0.97302289871E+01 0.10659262466E+02 0.11819937190E+02
 0.13284809821E+02 0.15104307752E+02 0.17246219105E+02 0.19583466177E+02 0.21892207335E+02
 0.23876098917E+02 0.25226358059E+02 0.18958968052E+02 0.18653165865E+02 0.17795527525E+02
 0.16544474534E+02 0.15104795400E+02 0.13668158478E+02 0.12369293089E+02 0.11267483346E+02
 0.10351181189E+02 0.96009907430E+01 0.90133494685E+01 0.85690422547E+01 0.82413218128E+01
 0.80052872424E+01 0.78437673504E+01 0.77483626228E+01 0.77166424188E+01 0.77483626228E+01
 0.78437673504E+01 0.80052872424E+01 0.82413218128E+01 0.85690422547E+01 0.90133494685E+01
 0.96009907430E+01 0.10351181189E+02 0.11267483346E+02 0.12369293089E+02 0.13668158478E+02
 0.15104795400E+02 0.16544474534E+02 0.17795527525E+02 0.18653165865E+02 0.14157870639E+02
 0.13986674566E+02 0.13507495078E+02 0.12810631675E+02 0.12009890993E+02 0.11205781146E+02
 0.10458830951E+02 0.97969072016E+01 0.92446945558E+01 0.88088149055E+01 0.84802777669E+01
 0.82413218128E+01 0.80719235136E+01 0.79546800277E+01 0.78773252252E+01 0.78328957495E+01
 0.78183452310E+01 0.78328957495E+01 0.78773252252E+01 0.79546800277E+01 0.80719235136E+01
 0.82413218128E+01 0.84802777669E+01 0.88088149055E+01 0.92446945558E+01 0.97969072016E+01
 0.10458830951E+02 0.11205781146E+02 0.12009890993E+02 0.12810631675E+02 0.13507495078E+02
 0.13986674566E+02 0.11176129952E+02 0.11085790883E+02 0.10831162515E+02 0.10454358361E+02
 0.10008439873E+02 0.95482770902E+01 0.91195050591E+01 0.87522486327E+01 0.84604605235E+01
 0.82448543549E+01 0.80973412635E+01 0.80052872424E+01 0.79546800277E+01 0.79320544280E+01
 0.79255706725E+01 0.79258105687E+01 0.79266101672E+01 0.79258105687E+01 0.79255706725E+01
 0.79320544280E+01 0.79546800277E+01 0.80052872424E+01 0.80973412635E+01 0.82448543549E+01
 0.84604605235E+01 0.87522486327E+01 0.91195050591E+01 0.95482770902E+01 0.10008439873E+02
 0.10454358361E+02 0.10831162515E+02 0.11085790883E+02 0.93911297488E+01 0.93393954686E+01
 0.91936001141E+01 0.89790963887E+01 0.87298665740E+01 0.84798765270E+01 0.82562928900E+01
 0.80763012801E+01 0.79473601721E+01 0.78694480200E+01 0.78376215185E+01 0.78437673504E+01
 0.78773252252E+01 0.79255706725E+01 0.79744200153E+01 0.80104133275E+01 0.80236353021E+01
 0.80104133275E+01 0.79744200153E+01 0.79255706725E+01 0.78773252252E+01 0.78437673504E+01
 0.78376215185E+01 0.78694480200E+01 0.79473601721E+01 0.80763012801E+01 0.82562928900E+01
 0.84798765270E+01 0.87298665740E+01 0.89790963887E+01 0.91936001141E+01 0.93393954686E+01
 0.84194033152E+01 0.83885822961E+01 0.83023396190E+01 0.81773371350E+01 0.80356446460E+01
 0.78989642030E+01 0.77843762278E+01 0.77026846669E+01 0.76589722721E+01 0.76540770009E+01
 0.76856806971E+01 0.77483626228E+01 0.78328957495E+01 0.79258105687E+01 0.80104133275E+01
 0.80698012491E+01 0.80911910918E+01 0.80698012491E+01 0.80104133275E+01 0.79258105687E+01
 0.78328957495E+01 0.77483626228E+01 0.76856806971E+01 0.76540770009E+01 0.76589722721E+01
 0.77026846669E+01 0.77843762278E+01 0.78989642030E+01 0.80356446460E+01 0.81773371350E+01
 0.83023396190E+01 0.83885822961E+01 0.81154371921E+01 0.80911910918E+01 0.80236353021E+01
 0.79266101672E+01 0.78183452310E+01 0.77166424188E+01 0.76354596689E+01 0.75837462494E+01
 0.75660622579E+01 0.75837462494E+01 0.76354596689E+01 0.77166424188E+01 0.78183452310E+01
 0.79266101672E+01 0.80236353021E+01 0.80911910918E+01 0.81154371921E+01 0.80911910918E+01
 0.80236353021E+01 0.79266101672E+01 0.78183452310E+01 0.77166424188E+01 0.76354596689E+01
 0.75837462494E+01 0.75660622579E+01 0.75837462494E+01 0.76354596689E+01 0.77166424188E+01
 0.78183452310E+01 0.79266101672E+01 0.80236353021E+01 0.80911910918E+01 0.84194033152E+01
 0.83885822961E+01 0.83023396190E+01 0.81773371350E+01 0.80356446460E+01 0.78989642030E+01
 0.77843762278E+01 0.77026846669E+01 0.76589722721E+01 0.76540770009E+01 0.76856806971E+01
 0.77483626228E+01 0.78328957495E+01 0.79258105687E+01 0.80104133275E+01 0.80698012491E+01
 0.80911910918E+01 0.80698012491E+01 0.80104133275E+01 0.79258105687E+01 0.78328957495E+01
 0.77483626228E+01 0.76856806971E+01 0.76540770009E+01 0.76589722721E+01 0.77026846669E+01
 0.77843762278E+01 0.78989642030E+01 0.80356446460E+01 0.81773371350E+01 0.83023396190E+01
 0.83885822961E+01 0.93911297488E+01 0.93393954686E+01 0.91936001141E+01 0.89790963887E+01
 0.87298665740E+01 0.84798765270E+01 0.82562928900E+01 0.80763012801E+01 0.79473601721E+01
 0.78694480200E+01 0.78376215185E+01 0.78437673504E+01 0.78773252252E+01 0.79255706725E+01
 0.79744200153E+01 0.80104133275E+01 0.80236353021E+01 0.80104133275E+01 0.79744200153E+01
 0.79255706725E+01 0.78773252252E+01 0.78437673504E+01 0.78376215185E+01 0.78694480200E+01
 0.79473601721E+01 0.80763012801E+01 0.82562928900E+01 0.84798765270E+01 0.87298665740E+01
 0.89790963887E+01 0.91936001141E+01 0.93393954686E+01 0.11176129952E+02 0.11085790883E+02
 0.10831162515E+02 0.10454358361E+02 0.10008439873E+02 0.95482770902E+01 0.91195050591E+01
 0.87522486327E+01 0.84604605235E+01 0.82448543549E+01 0.80973412635E+01 0.80052872424E+01
 0.79546800277E+01 0.79320544280E+01 0.79255706725E+01 0.79258105687E+01 0.79266101672E+01
 0.79258105687E+01 0.79255706725E+01 0.79320544280E+01 0.79546800277E+01 0.80052872424E+01
 0.80973412635E+01 0.82448543549E+01 0.84604605235E+01 0.87522486327E+01 0.91195050591E+01
 0.95482770902E+01 0.10008439873E+02 0.10454358361E+02 0.10831162515E+02 0.11085790883E+02
 0.14157870639E+02 0.13986674566E+02 0.13507495078E+02 0.12810631675E+02 0.12009890993E+02
 0.11205781146E+02 0.10458830951E+02 0.97969072016E+01 0.92446945558E+01 0.88088149055E+01
 0.84802777669E+01 0.82413218128E+01 0.80719235136E+01 0.79546800277E+01 0.78773252252E+01
 0.78328957495E+01 0.78183452310E+01 0.78328957495E+01 0.78773252252E+01 0.79546800277E+01
 0.80719235136E+01 0.82413218128E+01 0.84802777669E+01 0.88088149055E+01 0.92446945558E+01
 0.97969072016E+01 0.10458830951E+02 0.11205781146E+02 0.12009890993E+02 0.12810631675E+02
 0.13507495078E+02 0.13986674566E+02 0.18958968052E+02 0.18653165865E+02 0.17795527525E+02
 0.16544474534E+02 0.15104795400E+02 0.13668158478E+02 0.12369293089E+02 0.11267483346E+02
 0.10351181189E+02 0.96009907430E+01 0.90133494685E+01 0.85690422547E+01 0.82413218128E+01
 0.80052872424E+01 0.78437673504E+01 0.77483626228E+01 0.77166424188E+01 0.77483626228E+01
 0.78437673504E+01 0.80052872424E+01 0.82413218128E+01 0.85690422547E+01 0.90133494685E+01
 0.96009907430E+01 0.10351181189E+02 0.11267483346E+02 0.12369293089E+02 0.13668158478E+02
 0.15104795400E+02 0.16544474534E+02 0.17795527525E+02 0.18653165865E+02 0.25706153974E+02
 0.25226358059E+02 0.23876098917E+02 0.21892207335E+02 0.19583466177E+02 0.17246219105E+02
 0.15104307752E+02 0.13284809821E+02 0.11819937190E+02 0.10659262466E+02 0.97302289871E+01
 0.90133494685E+01 0.84802777669E+01 0.80973412635E+01 0.78376215185E+01 0.76856806971E+01
 0.76354596689E+01 0.76856806971E+01 0.78376215185E+01 0.80973412635E+01 0.84802777669E+01
 0.90133494685E+01 0.97302289871E+01 0.10659262466E+02 0.11819937190E+02 0.13284809821E+02
 0.15104307752E+02 0.17246219105E+02 0.19583466177E+02 0.21892207335E+02 0.23876098917E+02
 0.25226358059E+02 0.33808497810E+02 0.33147114259E+02 0.31281273488E+02 0.28523662709E+02
 0.25278689537E+02 0.21933616306E+02 0.18789171640E+02 0.16039604550E+02 0.13780256254E+02
 0.12015516826E+02 0.10659262466E+02 0.96009907430E+01 0.88088149055E+01 0.82448543549E+01
 0.78694480200E+01 0.76540770009E+01 0.75837462494E+01 0.76540770009E+01 0.78694480200E+01
 0.82448543549E+01 0.88088149055E+01 0.96009907430E+01 0.10659262466E+02 0.12015516826E+02
 0.13780256254E+02 0.16039604550E+02 0.18789171640E+02 0.21933616306E+02 0.25278689537E+02
 0.28523662709E+02 0.31281273488E+02 0.33147114259E+02 0.42211476237E+02 0.41394052650E+02
 0.39087679644E+02 0.35672211169E+02 0.31624555253E+02 0.27383945727E+02 0.23283888207E+02
 0.19555665338E+02 0.16357493072E+02 0.13780256254E+02 0.11819937190E+02 0.10351181189E+02
 0.92446945558E+01 0.84604605235E+01 0.79473601721E+01 0.76589722721E+01 0.75660622579E+01
 0.76589722721E+01 0.79473601721E+01 0.84604605235E+01 0.92446945558E+01 0.10351181189E+02
 0.11819937190E+02 0.13780256254E+02 0.16357493072E+02 0.19555665338E+02 0.23283888207E+02
 0.27383945727E+02 0.31624555253E+02 0.35672211169E+02 0.39087679644E+02 0.41394052650E+02
 0.49993660893E+02 0.49058964113E+02 0.46430885717E+02 0.42556691890E+02 0.37968027890E+02
 0.33110682447E+02 0.28286014966E+02 0.23702887698E+02 0.19555665338E+02 0.16039604550E+02
 0.13284809821E+02 0.11267483346E+02 0.97969072016E+01 0.87522486327E+01 0.80763012801E+01
 0.77026846669E+01 0.75837462494E+01 0.77026846669E+01 0.80763012801E+01 0.87522486327E+01
 0.97969072016E+01 0.11267483346E+02 0.13284809821E+02 0.16039604550E+02 0.19555665338E+02
 0.23702887698E+02 0.28286014966E+02 0.33110682447E+02 0.37968027890E+02 0.42556691890E+02
 0.46430885717E+02 0.49058964113E+02 0.56915900984E+02 0.55884666700E+02 0.53008532012E+02
 0.48825554186E+02 0.43932073683E+02 0.38755168368E+02 0.33502462805E+02 0.28286014966E+02
 0.23283888207E+02 0.18789171640E+02 0.15104307752E+02 0.12369293089E+02 0.10458830951E+02
 0.91195050591E+01 0.82562928900E+01 0.77843762278E+01 0.76354596689E+01 0.77843762278E+01
 0.82562928900E+01 0.91195050591E+01 0.10458830951E+02 0.12369293089E+02 0.15104307752E+02
 0.18789171640E+02 0.23283888207E+02 0.28286014966E+02 0.33502462805E+02 0.38755168368E+02
 0.43932073683E+02 0.48825554186E+02 0.53008532012E+02 0.55884666700E+02 0.63492652434E+02
 0.62345712222E+02 0.59184330646E+02 0.54685863356E+02 0.49557567009E+02 0.44220583201E+02
 0.38755168368E+02 0.33110682447E+02 0.27383945727E+02 0.21933616306E+02 0.17246219105E+02
 0.13668158478E+02 0.11205781146E+02 0.95482770902E+01 0.84798765270E+01 0.78989642030E+01
 0.77166424188E+01 0.78989642030E+01 0.84798765270E+01 0.95482770902E+01 0.11205781146E+02
 0.13668158478E+02 0.17246219105E+02 0.21933616306E+02 0.27383945727E+02 0.33110682447E+02
 0.38755168368E+02 0.44220583201E+02 0.49557567009E+02 0.54685863356E+02 0.59184330646E+02
 0.62345712222E+02 0.70467556226E+02 0.69150814650E+02 0.65564612188E+02 0.60583753852E+02
 0.55094110446E+02 0.49557567009E+02 0.43932073683E+02 0.37968027890E+02 0.31624555253E+02
 0.25278689537E+02 0.19583466177E+02 0.15104795400E+02 0.12009890993E+02 0.10008439873E+02
 0.87298665740E+01 0.80356446460E+01 0.78183452310E+01 0.80356446460E+01 0.87298665740E+01
 0.10008439873E+02 0.12009890993E+02 0.15104795400E+02 0.19583466177E+02 0.25278689537E+02
 0.31624555253E+02 0.37968027890E+02 0.43932073683E+02 0.49557567009E+02 0.55094110446E+02
 0.60583753852E+02 0.65564612188E+02 0.69150814650E+02 0.78031806659E+02 0.76489090463E+02
 0.72323990816E+02 0.66648849844E+02 0.60583753852E+02 0.54685863356E+02 0.48825554186E+02
 0.42556691890E+02 0.35672211169E+02 0.28523662709E+02 0.21892207335E+02 0.16544474534E+02
 0.12810631675E+02 0.10454358361E+02 0.89790963887E+01 0.81773371350E+01 0.79266101672E+01
 0.81773371350E+01 0.89790963887E+01 0.10454358361E+02 0.12810631675E+02 0.16544474534E+02
 0.21892207335E+02 0.28523662709E+02 0.35672211169E+02 0.42556691890E+02 0.48825554186E+02
 0.54685863356E+02 0.60583753852E+02 0.66648849844E+02 0.72323990816E+02 0.76489090463E+02
 0.85358462202E+02 0.83574595825E+02 0.78781378115E+02 0.72323990816E+02 0.65564612188E+02
 0.59184330646E+02 0.53008532012E+02 0.46430885717E+02 0.39087679644E+02 0.31281273488E+02
 0.23876098917E+02 0.17795527525E+02 0.13507495078E+02 0.10831162515E+02 0.91936001141E+01
 0.83023396190E+01 0.80236353021E+01 0.83023396190E+01 0.91936001141E+01 0.10831162515E+02
 0.13507495078E+02 0.17795527525E+02 0.23876098917E+02 0.31281273488E+02 0.39087679644E+02
 0.46430885717E+02 0.53008532012E+02 0.59184330646E+02 0.65564612188E+02 0.72323990816E+02
 0.78781378115E+02 0.83574595825E+02 0.90832958624E+02 0.88861416778E+02 0.83574595825E+02
 0.76489090463E+02 0.69150814650E+02 0.62345712222E+02 0.55884666700E+02 0.49058964113E+02
 0.41394052650E+02 0.33147114259E+02 0.25226358059E+02 0.18653165865E+02 0.13986674566E+02
 0.11085790883E+02 0.93393954686E+01 0.83885822961E+01 0.80911910918E+01 0.83885822961E+01
 0.93393954686E+01 0.11085790883E+02 0.13986674566E+02 0.18653165865E+02 0.25226358059E+02
 0.33147114259E+02 0.41394052650E+02 0.49058964113E+02 0.55884666700E+02 0.62345712222E+02
 0.69150814650E+02 0.76489090463E+02 0.83574595825E+02 0.88861416778E+02 0.90832958624E+02
 0.88861416778E+02 0.83574595825E+02 0.76489090463E+02 0.69150814650E+02 0.62345712222E+02
 0.55884666700E+02 0.49058964113E+02 0.41394052650E+02 0.33147114259E+02 0.25226358059E+02
 0.18653165865E+02 0.13986674566E+02 0.11085790883E+02 0.93393954686E+01 0.83885822961E+01
 0.80911910918E+01 0.83885822961E+01 0.93393954686E+01 0.11085790883E+02 0.13986674566E+02
 0.18653165865E+02 0.25226358059E+02 0.33147114259E+02 0.41394052650E+02 0.49058964113E+02
 0.55884666700E+02 0.62345712222E+02 0.69150814650E+02 0.76489090463E+02 0.83574595825E+02
 0.88861416778E+02 0.88861416778E+02 0.86957966436E+02 0.81850896819E+02 0.74996039902E+02
 0.67873525814E+02 0.61230470047E+02 0.54880511846E+02 0.48149015787E+02 0.40599677052E+02
 0.32506276971E+02 0.24763343390E+02 0.18359658160E+02 0.13823566819E+02 0.11000411231E+02
 0.92913202612E+01 0.83608161543E+01 0.80698012491E+01 0.83608161543E+01 0.92913202612E+01
 0.11000411231E+02 0.13823566819E+02 0.18359658160E+02 0.24763343390E+02 0.32506276971E+02
 0.40599677052E+02 0.48149015787E+02 0.54880511846E+02 0.61230470047E+02 0.67873525814E+02
 0.74996039902E+02 0.81850896819E+02 0.86957966436E+02 0.83574595825E+02 0.81850896819E+02
 0.77216245316E+02 0.70961709409E+02 0.64391544059E+02 0.58153794280E+02 0.52078141600E+02
 0.45589650009E+02 0.38358079433E+02 0.30698468017E+02 0.23460487341E+02 0.17536667110E+02
 0.13367113411E+02 0.10759696677E+02 0.91559768826E+01 0.82833055594E+01 0.80104133275E+01
 0.82833055594E+01 0.91559768826E+01 0.10759696677E+02 0.13367113411E+02 0.17536667110E+02
 0.23460487341E+02 0.30698468017E+02 0.38358079433E+02 0.45589650009E+02 0.52078141600E+02
 0.58153794280E+02 0.64391544059E+02 0.70961709409E+02 0.77216245316E+02 0.81850896819E+02
 0.76489090463E+02 0.74996039902E+02 0.70961709409E+02 0.65453760848E+02 0.59545245079E+02
 0.53767802466E+02 0.47997297865E+02 0.41814244503E+02 0.35037797067E+02 0.28026779004E+02
 0.21546697412E+02 0.16336578119E+02 0.12703477346E+02 0.10403230340E+02 0.89573081569E+01
 0.81715656988E+01 0.79258105687E+01 0.81715656988E+01 0.89573081569E+01 0.10403230340E+02
 0.12703477346E+02 0.16336578119E+02 0.21546697412E+02 0.28026779004E+02 0.35037797067E+02
 0.41814244503E+02 0.47997297865E+02 0.53767802466E+02 0.59545245079E+02 0.65453760848E+02
 0.70961709409E+02 0.74996039902E+02 0.69150814650E+02 0.67873525814E+02 0.64391544059E+02
 0.59545245079E+02 0.54184831664E+02 0.48753668556E+02 0.43214808559E+02 0.37338590174E+02
 0.31101743274E+02 0.24883071609E+02 0.19320144743E+02 0.14956081855E+02 0.11940983775E+02
 0.99817730300E+01 0.87274466915E+01 0.80462074360E+01 0.78328957495E+01 0.80462074360E+01
 0.87274466915E+01 0.99817730300E+01 0.11940983775E+02 0.14956081855E+02 0.19320144743E+02
 0.24883071609E+02 0.31101743274E+02 0.37338590174E+02 0.43214808559E+02 0.48753668556E+02
 0.54184831664E+02 0.59545245079E+02 0.64391544059E+02 0.67873525814E+02 0.62345712222E+02
 0.61230470047E+02 0.58153794280E+02 0.53767802466E+02 0.48753668556E+02 0.43518765962E+02
 0.38145966721E+02 0.32596654217E+02 0.26976760111E+02 0.21642442571E+02 0.17066573397E+02
 0.13578806842E+02 0.11174847386E+02 0.95480254612E+01 0.84986444543E+01 0.79276723886E+01
 0.77483626228E+01 0.79276723886E+01 0.84986444543E+01 0.95480254612E+01 0.11174847386E+02
 0.13578806842E+02 0.17066573397E+02 0.21642442571E+02 0.26976760111E+02 0.32596654217E+02
 0.38145966721E+02 0.43518765962E+02 0.48753668556E+02 0.53767802466E+02 0.58153794280E+02
 0.61230470047E+02 0.55884666700E+02 0.54880511846E+02 0.52078141600E+02 0.47997297865E+02
 0.43214808559E+02 0.38145966721E+02 0.32996961657E+02 0.27884110259E+02 0.22987677699E+02
 0.18596057009E+02 0.15001351336E+02 0.12333242927E+02 0.10461923002E+02 0.91458321796E+01
 0.82969902619E+01 0.78324052139E+01 0.76856806971E+01 0.78324052139E+01 0.82969902619E+01
 0.91458321796E+01 0.10461923002E+02 0.12333242927E+02 0.15001351336E+02 0.18596057009E+02
 0.22987677699E+02 0.27884110259E+02 0.32996961657E+02 0.38145966721E+02 0.43214808559E+02
 0.47997297865E+02 0.52078141600E+02 0.54880511846E+02 0.49058964113E+02 0.48149015787E+02
 0.45589650009E+02 0.41814244503E+02 0.37338590174E+02 0.32596654217E+02 0.27884110259E+02
 0.23407942691E+02 0.19360348337E+02 0.15931818580E+02 0.13246187490E+02 0.11275099853E+02
 0.98311235176E+01 0.88045054788E+01 0.81394637816E+01 0.77713673224E+01 0.76540770009E+01
 0.77713673224E+01 0.81394637816E+01 0.88045054788E+01 0.98311235176E+01 0.11275099853E+02
 0.13246187490E+02 0.15931818580E+02 0.19360348337E+02 0.23407942691E+02 0.27884110259E+02
 0.32596654217E+02 0.37338590174E+02 0.41814244503E+02 0.45589650009E+02 0.48149015787E+02
 0.41394052650E+02 0.40599677052E+02 0.38358079433E+02 0.35037797067E+02 0.31101743274E+02
 0.26976760111E+02 0.22987677699E+02 0.19360348337E+02 0.16249110393E+02 0.13741476485E+02
 0.11830960497E+02 0.10392792420E+02 0.93076877444E+01 0.85381303126E+01 0.80340695328E+01
 0.77504244138E+01 0.76589722721E+01 0.77504244138E+01 0.80340695328E+01 0.85381303126E+01
 0.93076877444E+01 0.10392792420E+02 0.11830960497E+02 0.13741476485E+02 0.16249110393E+02
 0.19360348337E+02 0.22987677699E+02 0.26976760111E+02 0.31101743274E+02 0.35037797067E+02
 0.38358079433E+02 0.40599677052E+02 0.33147114259E+02 0.32506276971E+02 0.30698468017E+02
 0.28026779004E+02 0.24883071609E+02 0.21642442571E+02 0.18596057009E+02 0.15931818580E+02
 0.13741476485E+02 0.12027920280E+02 0.10705554232E+02 0.96719732483E+01 0.88985986921E+01
 0.83481156639E+01 0.79816532173E+01 0.77713673224E+01 0.77026846669E+01 0.77713673224E+01
 0.79816532173E+01 0.83481156639E+01 0.88985986921E+01 0.96719732483E+01 0.10705554232E+02
 0.12027920280E+02 0.13741476485E+02 0.15931818580E+02 0.18596057009E+02 0.21642442571E+02
 0.24883071609E+02 0.28026779004E+02 0.30698468017E+02 0.32506276971E+02 0.25226358059E+02
 0.24763343390E+02 0.23460487341E+02 0.21546697412E+02 0.19320144743E+02 0.17066573397E+02
 0.15001351336E+02 0.13246187490E+02 0.11830960497E+02 0.10705554232E+02 0.98042084604E+01
 0.91101690735E+01 0.85955479500E+01 0.82270544159E+01 0.79778705390E+01 0.78324052139E+01
 0.77843762278E+01 0.78324052139E+01 0.79778705390E+01 0.82270544159E+01 0.85955479500E+01
 0.91101690735E+01 0.98042084604E+01 0.10705554232E+02 0.11830960497E+02 0.13246187490E+02
 0.15001351336E+02 0.17066573397E+02 0.19320144743E+02 0.21546697412E+02 0.23460487341E+02
 0.24763343390E+02 0.18653165865E+02 0.18359658160E+02 0.17536667110E+02 0.16336578119E+02
 0.14956081855E+02 0.13578806842E+02 0.12333242927E+02 0.11275099853E+02 0.10392792420E+02
 0.96719732483E+01 0.91101690735E+01 0.86887337660E+01 0.83812034302E+01 0.81624104380E+01
 0.80143836916E+01 0.79276723886E+01 0.78989642030E+01 0.79276723886E+01 0.80143836916E+01
 0.81624104380E+01 0.83812034302E+01 0.86887337660E+01 0.91101690735E+01 0.96719732483E+01
 0.10392792420E+02 0.11275099853E+02 0.12333242927E+02 0.13578806842E+02 0.14956081855E+02
 0.16336578119E+02 0.17536667110E+02 0.18359658160E+02 0.13986674566E+02 0.13823566819E+02
 0.13367113411E+02 0.12703477346E+02 0.11940983775E+02 0.11174847386E+02 0.10461923002E+02
 0.98311235176E+01 0.93076877444E+01 0.88985986921E+01 0.85955479500E+01 0.83812034302E+01
 0.82352870184E+01 0.81393046157E+01 0.80792429881E+01 0.80462074360E+01 0.80356446460E+01
 0.80462074360E+01 0.80792429881E+01 0.81393046157E+01 0.82352870184E+01 0.83812034302E+01
 0.85955479500E+01 0.88985986921E+01 0.93076877444E+01 0.98311235176E+01 0.10461923002E+02
 0.11174847386E+02 0.11940983775E+02 0.12703477346E+02 0.13367113411E+02 0.13823566819E+02
 0.11085790883E+02 0.11000411231E+02 0.10759696677E+02 0.10403230340E+02 0.99817730300E+01
 0.95480254612E+01 0.91458321796E+01 0.88045054788E+01 0.85381303126E+01 0.83481156639E+01
 0.82270544159E+01 0.81624104380E+01 0.81393046157E+01 0.81423773989E+01 0.81571743909E+01
 0.81715656988E+01 0.81773371350E+01 0.81715656988E+01 0.81571743909E+01 0.81423773989E+01
 0.81393046157E+01 0.81624104380E+01 0.82270544159E+01 0.83481156639E+01 0.85381303126E+01
 0.88045054788E+01 0.91458321796E+01 0.95480254612E+01 0.99817730300E+01 0.10403230340E+02
 0.10759696677E+02 0.11000411231E+02 0.93393954686E+01 0.92913202612E+01 0.91559768826E+01
 0.89573081569E+01 0.87274466915E+01 0.84986444543E+01 0.82969902619E+01 0.81394637816E+01
 0.80340695328E+01 0.79816532173E+01 0.79778705390E+01 0.80143836916E+01 0.80792429881E+01
 0.81571743909E+01 0.82307890736E+01 0.82833055594E+01 0.83023396190E+01 0.82833055594E+01
 0.82307890736E+01 0.81571743909E+01 0.80792429881E+01 0.80143836916E+01 0.79778705390E+01
 0.79816532173E+01 0.80340695328E+01 0.81394637816E+01 0.82969902619E+01 0.84986444543E+01
 0.87274466915E+01 0.89573081569E+01 0.91559768826E+01 0.92913202612E+01 0.83885822961E+01
 0.83608161543E+01 0.82833055594E+01 0.81715656988E+01 0.80462074360E+01 0.79276723886E+01
 0.78324052139E+01 0.77713673224E+01 0.77504244138E+01 0.77713673224E+01 0.78324052139E+01
 0.79276723886E+01 0.80462074360E+01 0.81715656988E+01 0.82833055594E+01 0.83608161543E+01
 0.83885822961E+01 0.83608161543E+01 0.82833055594E+01 0.81715656988E+01 0.80462074360E+01
 0.79276723886E+01 0.78324052139E+01 0.77713673224E+01 0.77504244138E+01 0.77713673224E+01
 0.78324052139E+01 0.79276723886E+01 0.80462074360E+01 0.81715656988E+01 0.82833055594E+01
 0.83608161543E+01 0.80911910918E+01 0.80698012491E+01 0.80104133275E+01 0.79258105687E+01
 0.78328957495E+01 0.77483626228E+01 0.76856806971E+01 0.76540770009E+01 0.76589722721E+01
 0.77026846669E+01 0.77843762278E+01 0.78989642030E+01 0.80356446460E+01 0.81773371350E+01
 0.83023396190E+01 0.83885822961E+01 0.84194033152E+01 0.83885822961E+01 0.83023396190E+01
 0.81773371350E+01 0.80356446460E+01 0.78989642030E+01 0.77843762278E+01 0.77026846669E+01
 0.76589722721E+01 0.76540770009E+01 0.76856806971E+01 0.77483626228E+01 0.78328957495E+01
 0.79258105687E+01 0.80104133275E+01 0.80698012491E+01 0.83885822961E+01 0.83608161543E+01
 0.82833055594E+01 0.81715656988E+01 0.80462074360E+01 0.79276723886E+01 0.78324052139E+01
 0.77713673224E+01 0.77504244138E+01 0.77713673224E+01 0.78324052139E+01 0.79276723886E+01
 0.80462074360E+01 0.81715656988E+01 0.82833055594E+01 0.83608161543E+01 0.83885822961E+01
 0.83608161543E+01 0.82833055594E+01 0.81715656988E+01 0.80462074360E+01 0.79276723886E+01
 0.78324052139E+01 0.77713673224E+01 0.77504244138E+01 0.77713673224E+01 0.78324052139E+01
 0.79276723886E+01 0.80462074360E+01 0.81715656988E+01 0.82833055594E+01 0.83608161543E+01
 0.93393954686E+01 0.92913202612E+01 0.91559768826E+01 0.89573081569E+01 0.87274466915E+01
 0.84986444543E+01 0.82969902619E+01 0.81394637816E+01 0.80340695328E+01 0.79816532173E+01
 0.79778705390E+01 0.80143836916E+01 0.80792429881E+01 0.81571743909E+01 0.82307890736E+01
 0.82833055594E+01 0.83023396190E+01 0.82833055594E+01 0.82307890736E+01 0.81571743909E+01
 0.80792429881E+01 0.80143836916E+01 0.79778705390E+01 0.79816532173E+01 0.80340695328E+01
 0.81394637816E+01 0.82969902619E+01 0.84986444543E+01 0.87274466915E+01 0.89573081569E+01