   2   2   0   0
  0.1219450E+02  0.2900000E-09  0.2900000E-09  0.2900000E-09  0.5000000E-15
  1.000000000000000E-004
  CAR 
 unknown system                          
     30.29300665     -3.11985172  301     11.37655576      1.00000000
     -3.120  0.0000E+00  0.0000E+00
     -3.008  0.0000E+00  0.0000E+00
     -2.897  0.0000E+00  0.0000E+00
     -2.786  0.0000E+00  0.0000E+00
     -2.674  0.0000E+00  0.0000E+00
     -2.563  0.0000E+00  0.0000E+00
     -2.452  0.0000E+00  0.0000E+00
     -2.340  0.0000E+00  0.0000E+00
     -2.229  0.0000E+00  0.0000E+00
     -2.117  0.0000E+00  0.0000E+00
     -2.006  0.0000E+00  0.0000E+00
     -1.895  0.0000E+00  0.0000E+00
     -1.783  0.0000E+00  0.0000E+00
     -1.672  0.0000E+00  0.0000E+00
     -1.561  0.0000E+00  0.0000E+00
     -1.449  0.0000E+00  0.0000E+00
     -1.338  0.0000E+00  0.0000E+00
     -1.226  0.0000E+00  0.0000E+00
     -1.115  0.7330E-05  0.1166E-07
     -1.004  0.4343E-02  0.1682E-03
     -0.892  0.1667E-01  0.1264E-02
     -0.781  0.3708E-01  0.4178E-02
     -0.670  0.5745E-01  0.9521E-02
     -0.558  0.6932E-01  0.1666E-01
     -0.447  0.7299E-01  0.2465E-01
     -0.335  0.7677E-01  0.3295E-01
     -0.224  0.8425E-01  0.4189E-01
     -0.113  0.9488E-01  0.5185E-01
     -0.001  0.1063E+00  0.6305E-01
      0.110  0.1183E+00  0.7555E-01
      0.221  0.1297E+00  0.8939E-01
      0.333  0.1371E+00  0.1043E+00
      0.444  0.1432E+00  0.1198E+00
      0.556  0.1532E+00  0.1363E+00
      0.667  0.1651E+00  0.1541E+00
      0.778  0.1758E+00  0.1730E+00
      0.890  0.1865E+00  0.1932E+00
      1.001  0.1974E+00  0.2146E+00
      1.112  0.2090E+00  0.2372E+00
      1.224  0.2252E+00  0.2613E+00
      1.335  0.2466E+00  0.2875E+00
      1.447  0.2723E+00  0.3164E+00
      1.558  0.3001E+00  0.3483E+00
      1.669  0.3287E+00  0.3833E+00
      1.781  0.3579E+00  0.4215E+00
      1.892  0.4048E+00  0.4632E+00
      2.003  0.8150E+00  0.5298E+00
      2.115  0.1227E+01  0.6435E+00
      2.226  0.1406E+01  0.7934E+00
      2.338  0.1446E+01  0.9528E+00
      2.449  0.1508E+01  0.1116E+01
      2.560  0.1615E+01  0.1291E+01
      2.672  0.1707E+01  0.1476E+01
      2.783  0.1836E+01  0.1673E+01
      2.894  0.2085E+01  0.1898E+01
      3.006  0.1818E+01  0.2148E+01
      3.117  0.1990E+01  0.2359E+01
      3.229  0.2333E+01  0.2610E+01
      3.340  0.2626E+01  0.2884E+01
      3.451  0.2472E+01  0.3170E+01
      3.563  0.2252E+01  0.3432E+01
      3.674  0.2167E+01  0.3679E+01
      3.785  0.1984E+01  0.3911E+01
      3.897  0.9959E+00  0.4075E+01
      4.008  0.8470E+00  0.4176E+01
      4.120  0.1604E+01  0.4306E+01
      4.231  0.2091E+01  0.4506E+01
      4.342  0.2583E+01  0.4764E+01
      4.454  0.3757E+01  0.5133E+01
      4.565  0.3192E+01  0.5519E+01
      4.676  0.3468E+01  0.5873E+01
      4.788  0.3737E+01  0.6278E+01
      4.899  0.3714E+01  0.6696E+01
      5.011  0.2251E+01  0.7027E+01
      5.122  0.1509E+01  0.7226E+01
      5.233  0.1317E+01  0.7381E+01
      5.345  0.1251E+01  0.7523E+01
      5.456  0.1332E+01  0.7671E+01
      5.567  0.1529E+01  0.7831E+01
      5.679  0.2211E+01  0.8029E+01
      5.790  0.2409E+01  0.8291E+01
      5.902  0.2869E+01  0.8584E+01
      6.013  0.3372E+01  0.8932E+01
      6.124  0.4204E+01  0.9361E+01
      6.236  0.2565E+01  0.9747E+01
      6.347  0.2168E+01  0.1000E+02
      6.459  0.1875E+01  0.1023E+02
      6.570  0.1684E+01  0.1043E+02
      6.681  0.1563E+01  0.1061E+02
      6.793  0.1472E+01  0.1078E+02
      6.904  0.1213E+01  0.1092E+02
      7.015  0.1159E+01  0.1105E+02
      7.127  0.1099E+01  0.1118E+02
      7.238  0.1027E+01  0.1130E+02
      7.350  0.9431E+00  0.1141E+02
      7.461  0.8856E+00  0.1151E+02
      7.572  0.8292E+00  0.1161E+02
      7.684  0.1002E+01  0.1172E+02
      7.795  0.7991E+00  0.1182E+02
      7.906  0.8645E+00  0.1191E+02
      8.018  0.9395E+00  0.1201E+02
      8.129  0.1085E+01  0.1212E+02
      8.241  0.1302E+01  0.1225E+02
      8.352  0.1503E+01  0.1241E+02
      8.463  0.1660E+01  0.1259E+02
      8.575  0.1863E+01  0.1278E+02
      8.686  0.2136E+01  0.1300E+02
      8.797  0.2390E+01  0.1325E+02
      8.909  0.2704E+01  0.1354E+02
      9.020  0.2812E+01  0.1385E+02
      9.132  0.2634E+01  0.1415E+02
      9.243  0.2558E+01  0.1444E+02
      9.354  0.2575E+01  0.1473E+02
      9.466  0.2704E+01  0.1502E+02
      9.577  0.2704E+01  0.1535E+02
      9.688  0.2725E+01  0.1564E+02
      9.800  0.2572E+01  0.1593E+02
      9.911  0.2243E+01  0.1620E+02
     10.023  0.2146E+01  0.1644E+02
     10.134  0.2355E+01  0.1669E+02
     10.245  0.3328E+01  0.1705E+02
     10.357  0.3780E+01  0.1744E+02
     10.468  0.7864E+01  0.1817E+02
     10.579  0.2928E+01  0.1868E+02
     10.691  0.2639E+01  0.1897E+02
     10.802  0.1872E+01  0.1920E+02
     10.914  0.1300E+01  0.1939E+02
     11.025  0.1077E+01  0.1952E+02
     11.136  0.1100E+01  0.1964E+02
     11.248  0.1424E+01  0.1984E+02
     11.359  0.1231E+01  0.1998E+02
     11.470  0.1199E+01  0.2011E+02
     11.582  0.1181E+01  0.2025E+02
     11.693  0.1277E+01  0.2038E+02
     11.805  0.1523E+01  0.2054E+02
     11.916  0.1144E+01  0.2069E+02
     12.027  0.1087E+01  0.2081E+02
     12.139  0.1015E+01  0.2093E+02
     12.250  0.8155E+00  0.2103E+02
     12.361  0.6446E+00  0.2111E+02
     12.473  0.5680E+00  0.2118E+02
     12.584  0.5286E+00  0.2124E+02
     12.696  0.5804E+00  0.2130E+02
     12.807  0.6148E+00  0.2137E+02
     12.918  0.5210E+00  0.2143E+02
     13.030  0.4733E+00  0.2149E+02
     13.141  0.4973E+00  0.2154E+02
     13.252  0.5148E+00  0.2160E+02
     13.364  0.5038E+00  0.2165E+02
     13.475  0.4937E+00  0.2171E+02
     13.587  0.4857E+00  0.2176E+02
     13.698  0.4781E+00  0.2182E+02
     13.809  0.4705E+00  0.2187E+02
     13.921  0.4631E+00  0.2192E+02
     14.032  0.4542E+00  0.2197E+02
     14.143  0.4476E+00  0.2202E+02
     14.255  0.4466E+00  0.2207E+02
     14.366  0.4455E+00  0.2212E+02
     14.478  0.4444E+00  0.2217E+02
     14.589  0.4432E+00  0.2222E+02
     14.700  0.4420E+00  0.2227E+02
     14.812  0.4280E+00  0.2232E+02
     14.923  0.4267E+00  0.2237E+02
     15.034  0.4245E+00  0.2241E+02
     15.146  0.4235E+00  0.2246E+02
     15.257  0.4221E+00  0.2251E+02
     15.369  0.4204E+00  0.2256E+02
     15.480  0.4254E+00  0.2260E+02
     15.591  0.4309E+00  0.2265E+02
     15.703  0.4268E+00  0.2270E+02
     15.814  0.4229E+00  0.2275E+02
     15.925  0.4191E+00  0.2279E+02
     16.037  0.4155E+00  0.2284E+02
     16.148  0.4121E+00  0.2288E+02
     16.260  0.4104E+00  0.2293E+02
     16.371  0.4068E+00  0.2298E+02
     16.482  0.4004E+00  0.2302E+02
     16.594  0.3928E+00  0.2307E+02
     16.705  0.3892E+00  0.2311E+02
     16.816  0.3914E+00  0.2315E+02
     16.928  0.3983E+00  0.2320E+02
     17.039  0.4090E+00  0.2324E+02
     17.151  0.4179E+00  0.2329E+02
     17.262  0.4196E+00  0.2333E+02
     17.373  0.4201E+00  0.2338E+02
     17.485  0.4194E+00  0.2343E+02
     17.596  0.4176E+00  0.2347E+02
     17.707  0.4146E+00  0.2352E+02
     17.819  0.3435E+00  0.2359E+02
     17.930  0.4013E+00  0.2364E+02
     18.042  0.4507E+00  0.2368E+02
     18.153  0.5086E+00  0.2374E+02
     18.264  0.4917E+00  0.2380E+02
     18.376  0.2638E+00  0.2384E+02
     18.487  0.2327E+00  0.2387E+02
     18.599  0.2006E+00  0.2389E+02
     18.710  0.1687E+00  0.2391E+02
     18.821  0.1309E+00  0.2393E+02
     18.933  0.1210E+00  0.2394E+02
     19.044  0.1084E+00  0.2396E+02
     19.155  0.9089E-01  0.2397E+02
     19.267  0.2353E+00  0.2398E+02
     19.378  0.3222E+00  0.2402E+02
     19.490  0.4007E+00  0.2406E+02
     19.601  0.4569E+00  0.2410E+02
     19.712  0.5273E+00  0.2416E+02
     19.824  0.6823E+00  0.2422E+02
     19.935  0.7625E+00  0.2430E+02
     20.046  0.8860E+00  0.2440E+02
     20.158  0.9335E+00  0.2450E+02
     20.269  0.8875E+00  0.2460E+02
     20.381  0.8993E+00  0.2470E+02
     20.492  0.9061E+00  0.2480E+02
     20.603  0.9086E+00  0.2490E+02
     20.715  0.9058E+00  0.2500E+02
     20.826  0.9115E+00  0.2511E+02
     20.937  0.8635E+00  0.2521E+02
     21.049  0.7429E+00  0.2530E+02
     21.160  0.7014E+00  0.2538E+02
     21.272  0.6647E+00  0.2546E+02
     21.383  0.6245E+00  0.2553E+02
     21.494  0.6082E+00  0.2560E+02
     21.606  0.5931E+00  0.2566E+02
     21.717  0.5690E+00  0.2573E+02
     21.828  0.5307E+00  0.2579E+02
     21.940  0.5201E+00  0.2585E+02
     22.051  0.5180E+00  0.2591E+02
     22.163  0.5082E+00  0.2597E+02
     22.274  0.5064E+00  0.2602E+02
     22.385  0.5051E+00  0.2608E+02
     22.497  0.5043E+00  0.2613E+02
     22.608  0.5040E+00  0.2619E+02
     22.719  0.5031E+00  0.2625E+02
     22.831  0.4996E+00  0.2630E+02
     22.942  0.4998E+00  0.2636E+02
     23.054  0.5003E+00  0.2641E+02
     23.165  0.5056E+00  0.2647E+02
     23.276  0.5082E+00  0.2653E+02
     23.388  0.6004E+00  0.2658E+02
     23.499  0.4873E+00  0.2664E+02
     23.610  0.4795E+00  0.2670E+02
     23.722  0.4734E+00  0.2675E+02
     23.833  0.4672E+00  0.2680E+02
     23.945  0.4610E+00  0.2685E+02
     24.056  0.4559E+00  0.2690E+02
     24.167  0.4513E+00  0.2696E+02
     24.279  0.4473E+00  0.2701E+02
     24.390  0.4434E+00  0.2705E+02
     24.501  0.4396E+00  0.2710E+02
     24.613  0.4362E+00  0.2715E+02
     24.724  0.4330E+00  0.2720E+02
     24.836  0.4302E+00  0.2725E+02
     24.947  0.4239E+00  0.2730E+02
     25.058  0.4425E+00  0.2734E+02
     25.170  0.4618E+00  0.2740E+02
     25.281  0.4334E+00  0.2745E+02
     25.392  0.4133E+00  0.2749E+02
     25.504  0.3894E+00  0.2754E+02
     25.615  0.3644E+00  0.2758E+02
     25.727  0.3466E+00  0.2762E+02
     25.838  0.3321E+00  0.2766E+02
     25.949  0.3174E+00  0.2769E+02
     26.061  0.2930E+00  0.2773E+02
     26.172  0.2773E+00  0.2776E+02
     26.283  0.2616E+00  0.2779E+02
     26.395  0.2457E+00  0.2782E+02
     26.506  0.2296E+00  0.2784E+02
     26.618  0.2187E+00  0.2787E+02
     26.729  0.2246E+00  0.2789E+02
     26.840  0.1902E+00  0.2792E+02
     26.952  0.1548E+00  0.2794E+02
     27.063  0.1189E+00  0.2795E+02
     27.174  0.9401E-01  0.2796E+02
     27.286  0.7068E-01  0.2797E+02
     27.397  0.5868E-01  0.2798E+02
     27.509  0.4763E-01  0.2798E+02
     27.620  0.3751E-01  0.2799E+02
     27.731  0.2834E-01  0.2799E+02
     27.843  0.2023E-01  0.2800E+02
     27.954  0.1412E-01  0.2800E+02
     28.065  0.8737E-02  0.2800E+02
     28.177  0.4081E-02  0.2800E+02
     28.288  0.1521E-03  0.2800E+02
     28.400  0.0000E+00  0.2800E+02
     28.511  0.0000E+00  0.2800E+02
     28.622  0.0000E+00  0.2800E+02
     28.734  0.0000E+00  0.2800E+02
     28.845  0.0000E+00  0.2800E+02
     28.956  0.0000E+00  0.2800E+02
     29.068  0.0000E+00  0.2800E+02
     29.179  0.0000E+00  0.2800E+02
     29.291  0.0000E+00  0.2800E+02
     29.402  0.0000E+00  0.2800E+02
     29.513  0.0000E+00  0.2800E+02
     29.625  0.0000E+00  0.2800E+02
     29.736  0.0000E+00  0.2800E+02
     29.848  0.0000E+00  0.2800E+02
     29.959  0.0000E+00  0.2800E+02
     30.070  0.0000E+00  0.2800E+02
     30.182  0.0000E+00  0.2800E+02
     30.293  0.0000E+00  0.2800E+02
