    2    2    1    1
  0.1219450E+02  0.2900000E-09  0.2900000E-09  0.2900000E-09  0.5000000E-15
  1.000000000000000E-004
  CAR 
 unknown system                          
     20     35     14
 
  0.0000000E+00  0.0000000E+00  0.0000000E+00  0.1371742E-02
    1       -1.119852   1.000000
    2        2.183441   1.000000
    3        2.183441   1.000000
    4        6.171865   1.000000
    5        6.171865   1.000000
    6        6.171865   1.000000
    7        9.795304   1.000000
    8        9.795304   1.000000
    9       12.240077   0.035921
   10       12.240077  -0.248751
   11       12.240077   0.000000
   12       19.917823   0.000000
   13       19.917823   0.000000
   14       19.917823   0.000000
 
  0.1111111E+00  0.0000000E+00  0.0000000E+00  0.8230453E-02
    1       -0.791625   1.000000
    2        2.348765   1.000000
    3        2.438678   1.000000
    4        6.173300   1.000000
    5        6.173300   1.000000
    6        6.314407   1.000000
    7        9.449837   1.000000
    8        9.923372   1.000000
    9       11.534407   0.789776
   10       11.534407   0.607255
   11       11.994476  -0.000595
   12       18.579376   0.000000
   13       20.994317   0.000000
   14       20.994317   0.000000
 
  0.2222222E+00  0.0000000E+00  0.0000000E+00  0.8230453E-02
    1        0.143051   1.000000
    2        2.838231   1.000000
    3        3.099917   1.000000
    4        6.220461   1.000000
    5        6.220461   1.000000
    6        6.734410   1.000000
    7        8.527587   1.000000
    8       10.122725   1.000000
    9       10.122725   1.000617
   10       10.264908   1.028125
   11       11.320749   0.264693
   12       16.023600   0.000000
   13       23.498087   0.000000
   14       23.498087   0.000000
 
  0.3333333E+00  0.0000000E+00  0.0000000E+00  0.8230453E-02
    1        1.518234   1.000000
    2        3.631061   1.000000
    3        3.806532   1.000000
    4        6.414272   1.000000
    5        6.414272   1.000000
    6        7.277814   1.000000
    7        7.407876   1.000000
    8        8.735970   1.000000
    9        8.735970   1.000000
   10       10.370369   1.000000
   11       10.701376   1.074279
   12       13.593795   0.000000
   13       26.624271   0.000000
   14       26.624273   0.000000
 
  0.4444444E+00  0.0000000E+00  0.0000000E+00  0.8230453E-02
    1        2.982234   1.000000
    2        3.904035   1.000000
    3        4.687794   1.000000
    4        5.940279   1.000000
    5        6.859323   1.000000
    6        6.859323   1.000000
    7        7.627091   1.000000
    8        7.627091   1.000000
    9        8.290753   1.000000
   10        9.312927   1.000000
   11       11.152802   1.000000
   12       11.930179   0.000000
   13       27.832883   0.000000
   14       28.293007   0.000000
 
  0.1111111E+00  0.1111111E+00  0.0000000E+00  0.1646091E-01
    1       -0.479875   1.000000
    2        2.540173   1.000000
    3        2.658127   1.000000
    4        5.877214   1.000000
    5        6.149213   1.000000
    6        6.760080   1.000000
    7        9.428117   1.000000
    8        9.819160   1.000000
    9       10.518385   1.017105
   10       10.845527   1.011492
   11       12.334955  -0.000914
   12       19.507469   0.000000
   13       19.687147   0.000000
   14       21.779819   0.000000
 
  0.2222222E+00  0.1111111E+00  0.0000000E+00  0.3292181E-01
    1        0.396430   1.000000
    2        2.989161   1.000000
    3        3.319143   1.000000
    4        5.693842   1.000000
    5        6.133812   1.000000
    6        7.421590   1.000000
    7        8.782809   1.000000
    8        9.093583   1.000000
    9        9.534657   1.000767
   10       10.119045   1.005435
   11       12.066100  -0.065500
   12       16.905031   0.000000
   13       21.873782   0.000000
   14       23.851990   0.000000
 
  0.3333333E+00  0.1111111E+00  0.0000000E+00  0.3292181E-01
    1        1.647089   1.000000
    2        3.610275   1.000000
    3        4.071673   1.000000
    4        5.740057   1.000000
    5        6.145934   1.000000
    6        7.784956   1.000000
    7        7.917968   1.000000
    8        8.245427   1.000000
    9        8.441122   1.000000
   10       10.595370   1.000000
   11       11.279285   0.566487
   12       14.253135   0.000000
   13       24.342917   0.000000
   14       26.688913   0.000000
 
  0.4444444E+00  0.1111111E+00  0.0000000E+00  0.3292181E-01
    1        2.926822   1.000000
    2        3.755132   1.000000
    3        4.829338   1.000000
    4        5.727345   1.000000
    5        6.081285   1.000000
    6        6.761578   1.000000
    7        7.623821   1.000000
    8        7.895755   1.000000
    9        9.212396   1.000000
   10       10.262625   1.000000
   11       11.142803   0.881419
   12       12.221374   0.000000
   13       26.018633   0.000000
   14       27.214118   0.000000
 
  0.2222222E+00  0.2222222E+00  0.0000000E+00  0.1646091E-01
    1        1.059910   1.000000
    2        3.221967   1.000000
    3        4.044317   1.000000
    4        5.192562   1.000000
    5        6.110940   1.000000
    6        7.685900   1.000000
    7        8.418858   1.000000
    8        8.553745   1.000000
    9        9.124331   1.000000
   10        9.930105   1.005369
   11       12.580638  -0.024938
   12       18.038481   0.000000
   13       19.714424   0.000000
   14       25.015765   0.000000
 
  0.3333333E+00  0.2222222E+00  0.0000000E+00  0.3292181E-01
    1        1.870339   1.000000
    2        3.329294   1.000000
    3        4.971564   1.000000
    4        4.981472   1.000000
    5        6.348615   1.000000
    6        6.477993   1.000000
    7        8.104656   1.000000
    8        8.868320   1.000000
    9        9.499107   1.000000
   10       10.319942   1.030296
   11       12.368493  -0.079711
   12       15.499667   0.000000
   13       21.387542   0.000000
   14       27.049561   0.000000
 
  0.4444444E+00  0.2222222E+00  0.0000000E+00  0.3292181E-01
    1        2.577247   1.000000
    2        3.099344   1.000000
    3        5.095981   1.000000
    4        5.598753   1.000000
    5        5.787240   1.000000
    6        6.351112   1.000000
    7        8.420864   1.000000
    8        8.731000   1.000000
    9       10.599567   1.000000
   10       11.096659   0.956741
   11       11.617816   0.026447
   12       12.869474   0.000000
   13       23.314256   0.000000
   14       25.150374   0.000000
 
  0.3333333E+00  0.3333333E+00  0.0000000E+00  0.1646091E-01
    1        1.993416   1.000000
    2        2.870404   1.000000
    3        4.498891   1.000000
    4        5.411718   1.000000
    5        6.231579   1.000000
    6        7.338129   1.000000
    7        8.269487   1.000000
    8        9.467223   1.000000
    9       10.153940   1.000000
   10       10.754991   1.045731
   11       12.869954   0.000000
   12       15.441850   0.000000
   13       20.000880   0.000000
   14       25.225312   0.000000
 
  0.4444444E+00  0.3333333E+00  0.0000000E+00  0.3292181E-01
    1        2.127918   1.000000
    2        2.421141   1.000000
    3        4.399241   1.000000
    4        4.704466   1.000000
    5        7.342062   1.000000
    6        7.929932   1.000000
    7        8.949723   1.000000
    8        9.546338   1.000000
    9       10.936880   1.000000
   10       11.866463   0.012908
   11       12.649758   0.000000
   12       13.189257   0.000000
   13       21.061617   0.000000
   14       22.906250   0.000000
 
  0.4444444E+00  0.4444444E+00  0.0000000E+00  0.1646091E-01
    1        1.894227   1.000000
    2        1.990600   1.000000
    3        4.084570   1.000000
    4        4.186708   1.000000
    5        9.038549   1.000000
    6        9.398332   1.000000
    7        9.440677   1.000000
    8       10.367468   1.000000
    9       10.386500   1.000000
   10       12.263551  -0.118471
   11       12.764098   0.000000
   12       13.065058   0.000000
   13       20.249176   0.000000
   14       21.047332   0.000000
 
  0.1111111E+00  0.1111111E+00  0.1111111E+00  0.1097394E-01
    1       -0.178027   1.000000
    2        2.801741   1.000000
    3        2.801741   1.000000
    4        5.838404   1.000000
    5        5.838404   1.000000
    6        7.231768   1.000000
    7        9.245160   1.000000
    8        9.589989   1.000000
    9        9.589989   1.020012
   10       11.639006   0.797991
   11       11.639006   0.009228
   12       20.063014   0.000000
   13       20.549368   0.000000
   14       20.549368   0.000000
 
  0.2222222E+00  0.1111111E+00  0.1111111E+00  0.3292181E-01
    1        0.660620   1.000000
    2        3.219827   1.000000
    3        3.463451   1.000000
    4        5.573985   1.000000
    5        5.750154   1.000000
    6        7.837331   1.000000
    7        8.040473   1.000000
    8        8.980179   1.000000
    9       10.003243   1.000198
   10       10.277081   1.008561
   11       11.735764   0.012083
   12       17.730135   0.000000
   13       21.670336   0.000000
   14       22.914915   0.000000
 
  0.3333333E+00  0.1111111E+00  0.1111111E+00  0.3292181E-01
    1        1.822185   1.000000
    2        3.868225   1.000000
    3        4.047317   1.000000
    4        5.627688   1.000000
    5        5.655108   1.000000
    6        6.863631   1.000000
    7        8.235797   1.000000
    8        8.997058   1.000000
    9        8.998463   1.000000
   10       10.516990   1.000000
   11       11.167368   0.574635
   12       15.052816   0.000000
   13       23.544050   0.000000
   14       25.721381   0.000000
 
  0.4444444E+00  0.1111111E+00  0.1111111E+00  0.3292181E-01
    1        2.970034   1.000000
    2        3.828409   1.000000
    3        4.642351   1.000000
    4        5.309552   1.000000
    5        6.105128   1.000000
    6        6.524374   1.000000
    7        7.814257   1.000000
    8        8.103517   1.000000
    9        9.883007   1.000000
   10       10.457728   1.000000
   11       11.257719   0.577929
   12       12.798010   0.000000
   13       25.125784   0.000000
   14       26.558677   0.000000
 
  0.2222222E+00  0.2222222E+00  0.1111111E+00  0.3292181E-01
    1        1.348624   1.000000
    2        3.525249   1.000000
    3        4.118976   1.000000
    4        5.129711   1.000000
    5        5.622836   1.000000
    6        6.545033   1.000000
    7        9.104699   1.000000
    8        9.281974   1.000000
    9        9.642030   1.000000
   10        9.868517   1.004997
   11       11.880036  -0.012760
   12       19.036468   0.000000
   13       19.632887   0.000000
   14       23.623043   0.000000
 
  0.3333333E+00  0.2222222E+00  0.1111111E+00  0.6584362E-01
    1        2.152108   1.000000
    2        3.627595   1.000000
    3        4.848840   1.000000
    4        4.916598   1.000000
    5        5.812807   1.000000
    6        5.912915   1.000000
    7        8.830374   1.000000
    8        8.959627   1.000000
    9       10.170742   1.000000
   10       10.445432   1.025825
   11       11.669888   0.014519
   12       16.431426   0.000000
   13       21.193456   0.000000
   14       25.430069   0.000000
 
  0.4444444E+00  0.2222222E+00  0.1111111E+00  0.6584362E-01
    1        2.792910   1.000000
    2        3.312825   1.000000
    3        4.934596   1.000000
    4        4.976695   1.000000
    5        6.157004   1.000000
    6        6.170116   1.000000
    7        8.618410   1.000000
    8        8.695092   1.000000
    9       10.518674   1.000000
   10       11.004419   1.001235
   11       11.954694  -0.049648
   12       13.937112   0.000000
   13       22.955996   0.000000
   14       24.866746   0.000000
 
  0.3333333E+00  0.3333333E+00  0.1111111E+00  0.3292181E-01
    1        2.321207   1.000000
    2        3.122085   1.000000
    3        4.466080   1.000000
    4        5.106155   1.000000
    5        6.171407   1.000000
    6        6.666730   1.000000
    7        8.732080   1.000000
    8        9.478648   1.000000
    9       10.163294   1.000000
   10       11.704562   0.509399
   11       11.987974  -0.000794
   12       16.656197   0.000000
   13       19.739801   0.000000
   14       25.098344   0.000000
 
  0.4444444E+00  0.3333333E+00  0.1111111E+00  0.6584362E-01
    1        2.420380   1.000000
    2        2.671068   1.000000
    3        4.372779   1.000000
    4        4.616683   1.000000
    5        7.205728   1.000000
    6        7.493224   1.000000
    7        9.118465   1.000000
    8        9.473623   1.000000
    9       10.552117   1.000000
   10       11.464669   0.558974
   11       13.099165   0.000000
   12       14.804845   0.000000
   13       20.799926   0.000000
   14       22.686341   0.000000
 
  0.4444444E+00  0.4444444E+00  0.1111111E+00  0.3292181E-01
    1        2.201591   1.000000
    2        2.277549   1.000000
    3        4.084411   1.000000
    4        4.180367   1.000000
    5        8.678853   1.000000
    6        9.034812   1.000000
    7        9.529005   1.000000
    8        9.779965   1.000000
    9       10.382628   1.000000
   10       11.159100   0.760350
   11       14.066305   0.000000
   12       14.761391   0.000000
   13       19.950187   0.000000
   14       20.781785   0.000000
 
  0.2222222E+00  0.2222222E+00  0.2222222E+00  0.1097394E-01
    1        2.095738   1.000000
    2        4.315859   1.000000
    3        4.315859   1.000000
    4        4.990692   1.000000
    5        4.990692   1.000000
    6        5.283562   1.000000
    7        9.675033   1.000000
    8        9.675033   1.000000
    9       10.420036   1.000000
   10       10.635651   1.004478
   11       10.635651   0.835097
   12       19.512753   0.000000
   13       21.135945   0.000000
   14       21.135945   0.000000
 
  0.3333333E+00  0.2222222E+00  0.2222222E+00  0.3292181E-01
    1        2.827748   1.000000
    2        4.134533   1.000000
    3        4.553466   1.000000
    4        4.868462   1.000000
    5        4.999777   1.000000
    6        5.511714   1.000000
    7        9.376933   1.000000
    8        9.629377   1.000000
    9       10.170847   1.000000
   10       10.883642   1.004077
   11       11.850159   0.002843
   12       17.915394   0.000000
   13       20.594957   0.000000
   14       23.434094   0.000000
 
  0.4444444E+00  0.2222222E+00  0.2222222E+00  0.3292181E-01
    1        3.141519   1.000000
    2        3.490032   1.000000
    3        4.724737   1.000000
    4        4.801008   1.000000
    5        5.763461   1.000000
    6        6.140299   1.000000
    7        9.112221   1.000000
    8        9.124182   1.000000
    9       10.474214   1.000000
   10       10.647452   1.021285
   11       13.471652  -0.015963
   12       15.497323   0.000000
   13       21.868192   0.000000
   14       23.900278   0.000000
 
  0.3333333E+00  0.3333333E+00  0.2222222E+00  0.3292181E-01
    1        3.239101   1.000000
    2        3.569219   1.000000
    3        4.416481   1.000000
    4        4.877907   1.000000
    5        5.497833   1.000000
    6        5.953790   1.000000
    7        9.591345   1.000000
    8        9.744925   1.000000
    9       10.167966   1.000000
   10       10.877981   1.015821
   11       13.399615  -0.012898
   12       18.759506   0.000000
   13       19.151302   0.000000
   14       23.371524   0.000000
 
  0.4444444E+00  0.3333333E+00  0.2222222E+00  0.6584362E-01
    1        3.157995   1.000000
    2        3.201098   1.000000
    3        4.411565   1.000000
    4        4.642250   1.000000
    5        6.449751   1.000000
    6        6.683609   1.000000
    7        9.575202   1.000000
    8        9.684326   1.000000
    9       10.425778   1.000000
   10       10.695635   1.025456
   11       14.947493   0.000000
   12       16.741889   0.000000
   13       20.202775   0.000000
   14       22.081859   0.000000
 
  0.4444444E+00  0.4444444E+00  0.2222222E+00  0.3292181E-01
    1        3.016306   1.000000
    2        3.043760   1.000000
    3        4.124954   1.000000
    4        4.261493   1.000000
    5        7.555855   1.000000
    6        7.627916   1.000000
    7        9.859816   1.000000
    8        9.945692   1.000000
    9       10.418974   1.000000
   10       10.599059   1.025492
   11       16.152762   0.000000
   12       17.047766   0.000000
   13       19.197810   0.000000
   14       20.143983   0.000000
 
  0.3333333E+00  0.3333333E+00  0.3333333E+00  0.1097394E-01
    1        3.528408   1.000000
    2        4.454819   1.000000
    3        4.454819   1.000000
    4        4.557831   1.000000
    5        5.547547   1.000000
    6        5.547547   1.000000
    7       10.131435   1.000000
    8       10.131435   1.000000
    9       10.241585   1.000000
   10       10.241585   1.000000
   11       15.096139  -0.006182
   12       18.684381   0.000000
   13       20.968704   0.000000
   14       20.968704   0.000000
 
  0.4444444E+00  0.3333333E+00  0.3333333E+00  0.3292181E-01
    1        3.500169   1.000000
    2        3.803952   1.000000
    3        4.665651   1.000000
    4        5.060510   1.000000
    5        5.726257   1.000000
    6        6.135993   1.000000
    7       10.039800   1.000000
    8       10.060705   1.000000
    9       10.408621   1.000000
   10       10.461644   1.000000
   11       16.627163   0.000000
   12       18.098993   0.000000
   13       19.806467   0.000000
   14       21.095223   0.000000
 
  0.4444444E+00  0.4444444E+00  0.3333333E+00  0.3292181E-01
    1        3.743466   1.000000
    2        4.136239   1.000000
    3        4.301567   1.000000
    4        4.744165   1.000000
    5        6.253463   1.000000
    6        6.417551   1.000000
    7       10.235687   1.000000
    8       10.256649   1.000000
    9       10.455849   1.000000
   10       10.480303   1.000000
   11       17.807077   0.000000
   12       18.342075   0.000000
   13       19.432080   0.000000
   14       19.813798   0.000000
 
  0.4444444E+00  0.4444444E+00  0.4444444E+00  0.1097394E-01
    1        4.249294   1.000000
    2        4.710720   1.000000
    3        4.710720   1.000000
    4        5.413974   1.000000
    5        5.413974   1.000000
    6        5.564035   1.000000
    7       10.473042   1.000000
    8       10.473042   1.000000
    9       10.474675   1.000000
   10       10.474675   1.000000
   11       17.807275   0.000000
   12       17.853098   0.000000
   13       20.787809   0.000000
   14       21.762200   0.000000
