       N       E                     dE             d eps       ncg     rms          rms(c)
DAV:   1     0.211418868865E+03    0.21142E+03   -0.97777E+03  1020   0.144E+03
DAV:   2    -0.300425045988E+01   -0.21442E+03   -0.20216E+03   986   0.443E+02
DAV:   3    -0.101460753701E+02   -0.71418E+01   -0.66239E+01  1232   0.930E+01
DAV:   4    -0.102460853154E+02   -0.10001E+00   -0.99929E-01  1070   0.944E+00
DAV:   5    -0.102488143024E+02   -0.27290E-02   -0.27286E-02  1270   0.150E+00    0.474E+00
RMM:   6    -0.978449283673E+01    0.46432E+00   -0.44319E-01   988   0.910E+00    0.205E+00
RMM:   7    -0.966786823816E+01    0.11662E+00   -0.25814E-01  1010   0.548E+00    0.302E-01
RMM:   8    -0.965806470974E+01    0.98035E-02   -0.10187E-02  1023   0.146E+00    0.547E-02
RMM:   9    -0.965805005897E+01    0.14651E-04   -0.86126E-04  1147   0.319E-01    0.240E-02
RMM:  10    -0.965806587802E+01   -0.15819E-04   -0.70211E-05   895   0.109E-01    0.541E-03
RMM:  11    -0.965806623472E+01   -0.35670E-06   -0.10404E-05   544   0.347E-02
   1 F= -.96580662E+01 E0= -.96580662E+01  d E =0.000000E+00
