unknown system                          
   1.00000000000000     
     3.905268    0.000000    0.000000
     0.000000    3.905268    0.000000
     0.000000    0.000000    3.905268
   Sr   Ti   O 
     1     1     3
Direct
  0.000000  0.000000  0.000000
  0.500000  0.500000  0.500000
  0.500000  0.500000  0.000000
  0.500000  0.000000  0.500000
  0.000000  0.500000  0.500000
 
   48   48   48
  193.37      193.39      192.95      190.79      185.38      175.47      160.60      141.25      118.79      95.199    
  72.581      52.710      36.664      24.699      16.384      10.891      7.3749      5.1881      3.8508      3.0395    
  2.5521      2.2658      2.1060      2.0270      2.0034      2.0270      2.1060      2.2658      2.5521      3.0395    
  3.8508      5.1881      7.3749      10.891      16.384      24.699      36.664      52.710      72.581      95.199    
  118.79      141.25      160.60      175.47      185.38      190.79      192.95      193.39      193.39      193.32    
  192.65      190.17      184.42      174.22      159.16      139.74      117.34      93.910      71.522      51.906    
  36.099      24.331      16.162      10.766      7.3112      5.1629      3.8487      3.0513      2.5723      2.2910    
  2.1341      2.0566      2.0335      2.0566      2.1341      2.2910      2.5723      3.0513      3.8487      5.1629    
  7.3112      10.766      16.162      24.331      36.099      51.906      71.522      93.910      117.34      139.74    
  159.16      174.22      184.42      190.17      192.65      193.32      192.95      192.65      191.35      187.99    
  181.31      170.33      154.77      135.21      113.03      90.113      68.421      49.561      34.458      23.269    
  15.522      10.406      7.1317      5.0954      3.8492      3.0932      2.6394      2.3738      2.2261      2.1535    
  2.1319      2.1535      2.2261      2.3738      2.6394      3.0932      3.8492      5.0954      7.1317      10.406    
  15.522      23.269      34.458      49.561      68.421      90.113      113.03      135.21      154.77      170.33    
  181.31      187.99      191.35      192.65      190.79      190.17      187.99      183.42      175.48      163.47    
  147.32      127.71      106.02      84.018      63.500      45.876      31.901      21.625      14.539      9.8604    
  6.8682      5.0078      3.8696      3.1801      2.7682      2.5290      2.3976      2.3338      2.3150      2.3338    
  2.3976      2.5290      2.7682      3.1801      3.8696      5.0078      6.8682      9.8604      14.539      21.625    
  31.901      45.876      63.500      84.018      106.02      127.71      147.32      163.47      175.48      183.42    
  187.99      190.17      185.38      184.42      181.31      175.48      166.27      153.31      136.76      117.42    
  96.615      75.995      57.123      41.165      28.673      19.572      13.325      9.2001      6.5668      4.9315    
  3.9331      3.3316      2.9763      2.7738      2.6655      2.6143      2.5996      2.6143      2.6655      2.7738    
  2.9763      3.3316      3.9331      4.9315      6.5668      9.2001      13.325      19.572      28.673      41.165    
  57.123      75.995      96.615      117.42      136.76      153.31      166.27      175.48      181.31      184.42    
  175.47      174.22      170.33      163.47      153.31      139.80      123.30      104.71      85.317      66.569    
  49.774      35.828      25.069      17.312      12.008      8.5086      6.2829      4.9060      4.0716      3.5765    
  3.2921      3.1374      3.0599      3.0262      3.0171      3.0262      3.0599      3.1374      3.2921      3.5765    
  4.0716      4.9060      6.2829      8.5086      12.008      17.312      25.069      35.828      49.774      66.569    
  85.317      104.71      123.30      139.80      153.31      163.47      170.33      174.22      160.60      159.16    
  154.77      147.32      136.76      123.30      107.49      90.271      72.829      56.400      42.014      30.298    
  21.401      15.049      10.717      7.8728      6.0774      4.9800      4.3302      3.9614      3.7662      3.6747    
  3.6399      3.6310      3.6300      3.6310      3.6399      3.6747      3.7662      3.9614      4.3302      4.9800    
  6.0774      7.8728      10.717      15.049      21.401      30.298      42.014      56.400      72.829      90.271    
  107.49      123.30      136.76      147.32      154.77      159.16      141.25      139.74      135.21      127.71    
  117.42      104.71      90.271      75.015      59.995      46.208      34.410      24.991      17.945      12.958    
  9.5712      7.3754      6.0150      5.2123      4.7696      4.5530      4.4728      4.4675      4.4935      4.5209    
  4.5321      4.5209      4.4935      4.4675      4.4728      4.5530      4.7696      5.2123      6.0150      7.3754    
  9.5712      12.958      17.945      24.991      34.410      46.208      59.995      75.015      90.271      104.71    
  117.42      127.71      135.21      139.74      118.79      117.34      113.03      106.02      96.615      85.317    
  72.829      59.995      47.691      36.675      27.458      20.239      14.914      11.172      8.6704      7.0925    
  6.1642      5.6736      5.4678      5.4391      5.5102      5.6237      5.7363      5.8166      5.8455      5.8166    
  5.7363      5.6237      5.5102      5.4391      5.4678      5.6736      6.1642      7.0925      8.6704      11.172    
  14.914      20.239      27.458      36.675      47.691      59.995      72.829      85.317      96.615      106.02    
  113.03      117.34      95.199      93.910      90.113      84.018      75.995      66.569      56.400      46.208    
  36.675      28.338      21.511      16.258      12.431      9.7897      8.0901      7.0942      6.5999      6.4496    
  6.5247      6.7351      7.0092      7.2885      7.5249      7.6822      7.7372      7.6822      7.5249      7.2885    
  7.0092      6.7351      6.5247      6.4496      6.5999      7.0942      8.0901      9.7897      12.431      16.258    
  21.511      28.338      36.675      46.208      56.400      66.569      75.995      84.018      90.113      93.910    
  72.581      71.522      68.421      63.500      57.123      49.774      42.014      34.410      27.458      21.511    
  16.737      13.126      10.554      8.8657      7.8862      7.4469      7.4046      7.6427      8.0655      8.5913    
  9.1462      9.6626      10.081      10.353      10.447      10.353      10.081      9.6626      9.1462      8.5913    
  8.0655      7.6427      7.4046      7.4469      7.8862      8.8657      10.554      13.126      16.737      21.511    
  27.458      34.410      42.014      49.774      57.123      63.500      68.421      71.522      52.710      51.906    
  49.561      45.876      41.165      35.828      30.298      24.991      20.239      16.258      13.126      10.825    
  9.2916      8.4217      8.0995      8.2145      8.6682      9.3725      10.245      11.203      12.161      13.031    
  13.727      14.178      14.335      14.178      13.727      13.031      12.161      11.203      10.245      9.3725    
  8.6682      8.2145      8.0995      8.4217      9.2916      10.825      13.126      16.258      20.239      24.991    
  30.298      35.828      41.165      45.876      49.561      51.906      36.664      36.099      34.458      31.901    
  28.673      25.069      21.401      17.945      14.914      12.431      10.554      9.2916      8.6112      8.4557    
  8.7602      9.4593      10.489      11.783      13.265      14.845      16.410      17.833      18.977      19.721    
  19.980      19.721      18.977      17.833      16.410      14.845      13.265      11.783      10.489      9.4593    
  8.7602      8.4557      8.6112      9.2916      10.554      12.431      14.914      17.945      21.401      25.069    
  28.673      31.901      34.458      36.099      24.699      24.331      23.269      21.625      19.572      17.312    
  15.049      12.958      11.172      9.7897      8.8657      8.4217      8.4557      8.9530      9.8916      11.246    
  12.984      15.064      17.416      19.934      22.458      24.783      26.677      27.919      28.352      27.919    
  26.677      24.783      22.458      19.934      17.416      15.064      12.984      11.246      9.8916      8.9530    
  8.4557      8.4217      8.8657      9.7897      11.172      12.958      15.049      17.312      19.572      21.625    
  23.269      24.331      16.384      16.162      15.522      14.539      13.325      12.008      10.717      9.5712    
  8.6704      8.0901      7.8862      8.0995      8.7602      9.8916      11.514      13.647      16.305      19.483    
  23.128      27.107      31.179      34.996      38.147      40.232      40.963      40.232      38.147      34.996    
  31.179      27.107      23.128      19.483      16.305      13.647      11.514      9.8916      8.7602      8.0995    
  7.8862      8.0901      8.6704      9.5712      10.717      12.008      13.325      14.539      15.522      16.162    
  10.891      10.766      10.406      9.8604      9.2001      8.5086      7.8728      7.3754      7.0925      7.0942    
  7.4469      8.2145      9.4593      11.246      13.647      16.750      20.645      25.396      30.983      37.235    
  43.765      49.981      55.165      58.616      59.829      58.616      55.165      49.981      43.765      37.235    
  30.983      25.396      20.645      16.750      13.647      11.246      9.4593      8.2145      7.4469      7.0942    
  7.0925      7.3754      7.8728      8.5086      9.2001      9.8604      10.406      10.766      7.3749      7.3112    
  7.1317      6.8682      6.5668      6.2829      6.0774      6.0150      6.1642      6.5999      7.4046      8.6682    
  10.489      12.984      16.305      20.645      26.220      33.213      41.659      51.310      61.542      71.387    
  79.764      85.465      87.493      85.465      79.764      71.387      61.542      51.310      41.659      33.213    
  26.220      20.645      16.305      12.984      10.489      8.6682      7.4046      6.5999      6.1642      6.0150    
  6.0774      6.2829      6.5668      6.8682      7.1317      7.3112      5.1881      5.1629      5.0954      5.0078    
  4.9315      4.9060      4.9800      5.2123      5.6736      6.4496      7.6427      9.3725      11.783      15.064    
  19.483      25.396      33.213      43.290      55.724      70.137      85.877      101.76      115.68      125.27    
  128.70      125.27      115.68      101.76      85.877      70.137      55.724      43.290      33.213      25.396    
  19.483      15.064      11.783      9.3725      7.6427      6.4496      5.6736      5.2123      4.9800      4.9060    
  4.9315      5.0078      5.0954      5.1629      3.8508      3.8487      3.8492      3.8696      3.9331      4.0716    
  4.3302      4.7696      5.4678      6.5247      8.0655      10.245      13.265      17.416      23.128      30.983    
  41.659      55.724      73.348      94.681      119.09      144.11      166.00      180.97      186.29      180.97    
  166.00      144.11      119.09      94.681      73.348      55.724      41.659      30.983      23.128      17.416    
  13.265      10.245      8.0655      6.5247      5.4678      4.7696      4.3302      4.0716      3.9331      3.8696    
  3.8492      3.8487      3.0395      3.0513      3.0932      3.1801      3.3316      3.5765      3.9614      4.5530    
  5.4391      6.7351      8.5913      11.203      14.845      19.934      27.107      37.235      51.310      70.137    
  94.681      125.73      161.55      197.79      228.87      249.73      257.06      249.73      228.87      197.79    
  161.55      125.73      94.681      70.137      51.310      37.235      27.107      19.934      14.845      11.203    
  8.5913      6.7351      5.4391      4.5530      3.9614      3.5765      3.3316      3.1801      3.0932      3.0513    
  2.5521      2.5723      2.6394      2.7682      2.9763      3.2921      3.7662      4.4728      5.5102      7.0092    
  9.1462      12.161      16.410      22.458      31.179      43.765      61.542      85.877      119.09      161.55    
  209.78      257.28      296.76      322.53      331.44      322.53      296.76      257.28      209.78      161.55    
  119.09      85.877      61.542      43.765      31.179      22.458      16.410      12.161      9.1462      7.0092    
  5.5102      4.4728      3.7662      3.2921      2.9763      2.7682      2.6394      2.5723      2.2658      2.2910    
  2.3738      2.5290      2.7738      3.1374      3.6747      4.4675      5.6237      7.2885      9.6626      13.031    
  17.833      24.783      34.996      49.981      71.387      101.76      144.11      197.79      257.28      313.86    
  359.12      387.65      397.29      387.65      359.12      313.86      257.28      197.79      144.11      101.76    
  71.387      49.981      34.996      24.783      17.833      13.031      9.6626      7.2885      5.6237      4.4675    
  3.6747      3.1374      2.7738      2.5290      2.3738      2.2910      2.1060      2.1341      2.2261      2.3976    
  2.6655      3.0599      3.6399      4.4935      5.7363      7.5249      10.081      13.727      18.977      26.677    
  38.147      55.165      79.764      115.68      166.00      228.87      296.76      359.12      407.01      436.00    
  445.55      436.00      407.01      359.12      296.76      228.87      166.00      115.68      79.764      55.165    
  38.147      26.677      18.977      13.727      10.081      7.5249      5.7363      4.4935      3.6399      3.0599    
  2.6655      2.3976      2.2261      2.1341      2.0270      2.0566      2.1535      2.3338      2.6143      3.0262    
  3.6310      4.5209      5.8166      7.6822      10.353      14.178      19.721      27.919      40.232      58.616    
  85.465      125.27      180.97      249.73      322.53      387.65      436.00      464.27      473.35      464.27    
  436.00      387.65      322.53      249.73      180.97      125.27      85.465      58.616      40.232      27.919    
  19.721      14.178      10.353      7.6822      5.8166      4.5209      3.6310      3.0262      2.6143      2.3338    
  2.1535      2.0566      2.0034      2.0335      2.1319      2.3150      2.5996      3.0171      3.6300      4.5321    
  5.8455      7.7372      10.447      14.335      19.980      28.352      40.963      59.829      87.493      128.70    
  186.29      257.06      331.44      397.29      445.55      473.35      482.19      473.35      445.55      397.29    
  331.44      257.06      186.29      128.70      87.493      59.829      40.963      28.352      19.980      14.335    
  10.447      7.7372      5.8455      4.5321      3.6300      3.0171      2.5996      2.3150      2.1319      2.0335    
  2.0270      2.0566      2.1535      2.3338      2.6143      3.0262      3.6310      4.5209      5.8166      7.6822    
  10.353      14.178      19.721      27.919      40.232      58.616      85.465      125.27      180.97      249.73    
  322.53      387.65      436.00      464.27      473.35      464.27      436.00      387.65      322.53      249.73    
  180.97      125.27      85.465      58.616      40.232      27.919      19.721      14.178      10.353      7.6822    
  5.8166      4.5209      3.6310      3.0262      2.6143      2.3338      2.1535      2.0566      2.1060      2.1341    
  2.2261      2.3976      2.6655      3.0599      3.6399      4.4935      5.7363      7.5249      10.081      13.727    
  18.977      26.677      38.147      55.165      79.764      115.68      166.00      228.87      296.76      359.12    
  407.01      436.00      445.55      436.00      407.01      359.12      296.76      228.87      166.00      115.68    
  79.764      55.165      38.147      26.677      18.977      13.727      10.081      7.5249      5.7363      4.4935    
  3.6399      3.0599      2.6655      2.3976      2.2261      2.1341      2.2658      2.2910      2.3738      2.5290    
  2.7738      3.1374      3.6747      4.4675      5.6237      7.2885      9.6626      13.031      17.833      24.783    
  34.996      49.981      71.387      101.76      144.11      197.79      257.28      313.86      359.12      387.65    
  397.29      387.65      359.12      313.86      257.28      197.79      144.11      101.76      71.387      49.981    
  34.996      24.783      17.833      13.031      9.6626      7.2885      5.6237      4.4675      3.6747      3.1374    
  2.7738      2.5290      2.3738      2.2910      2.5521      2.5723      2.6394      2.7682      2.9763      3.2921    
  3.7662      4.4728      5.5102      7.0092      9.1462      12.161      16.410      22.458      31.179      43.765    
  61.542      85.877      119.09      161.55      209.78      257.28      296.76      322.53      331.44      322.53    
  296.76      257.28      209.78      161.55      119.09      85.877      61.542      43.765      31.179      22.458    
  16.410      12.161      9.1462      7.0092      5.5102      4.4728      3.7662      3.2921      2.9763      2.7682    
  2.6394      2.5723      3.0395      3.0513      3.0932      3.1801      3.3316      3.5765      3.9614      4.5530    
  5.4391      6.7351      8.5913      11.203      14.845      19.934      27.107      37.235      51.310      70.137    
  94.681      125.73      161.55      197.79      228.87      249.73      257.06      249.73      228.87      197.79    
  161.55      125.73      94.681      70.137      51.310      37.235      27.107      19.934      14.845      11.203    
  8.5913      6.7351      5.4391      4.5530      3.9614      3.5765      3.3316      3.1801      3.0932      3.0513    
  3.8508      3.8487      3.8492      3.8696      3.9331      4.0716      4.3302      4.7696      5.4678      6.5247    
  8.0655      10.245      13.265      17.416      23.128      30.983      41.659      55.724      73.348      94.681    
  119.09      144.11      166.00      180.97      186.29      180.97      166.00      144.11      119.09      94.681    
  73.348      55.724      41.659      30.983      23.128      17.416      13.265      10.245      8.0655      6.5247    
  5.4678      4.7696      4.3302      4.0716      3.9331      3.8696      3.8492      3.8487      5.1881      5.1629    
  5.0954      5.0078      4.9315      4.9060      4.9800      5.2123      5.6736      6.4496      7.6427      9.3725    
  11.783      15.064      19.483      25.396      33.213      43.290      55.724      70.137      85.877      101.76    
  115.68      125.27      128.70      125.27      115.68      101.76      85.877      70.137      55.724      43.290    
  33.213      25.396      19.483      15.064      11.783      9.3725      7.6427      6.4496      5.6736      5.2123    
  4.9800      4.9060      4.9315      5.0078      5.0954      5.1629      7.3749      7.3112      7.1317      6.8682    
  6.5668      6.2829      6.0774      6.0150      6.1642      6.5999      7.4046      8.6682      10.489      12.984    
  16.305      20.645      26.220      33.213      41.659      51.310      61.542      71.387      79.764      85.465    
  87.493      85.465      79.764      71.387      61.542      51.310      41.659      33.213      26.220      20.645    
  16.305      12.984      10.489      8.6682      7.4046      6.5999      6.1642      6.0150      6.0774      6.2829    
  6.5668      6.8682      7.1317      7.3112      10.891      10.766      10.406      9.8604      9.2001      8.5086    
  7.8728      7.3754      7.0925      7.0942      7.4469      8.2145      9.4593      11.246      13.647      16.750    
  20.645      25.396      30.983      37.235      43.765      49.981      55.165      58.616      59.829      58.616    
  55.165      49.981      43.765      37.235      30.983      25.396      20.645      16.750      13.647      11.246    
  9.4593      8.2145      7.4469      7.0942      7.0925      7.3754      7.8728      8.5086      9.2001      9.8604    
  10.406      10.766      16.384      16.162      15.522      14.539      13.325      12.008      10.717      9.5712    
  8.6704      8.0901      7.8862      8.0995      8.7602      9.8916      11.514      13.647      16.305      19.483    
  23.128      27.107      31.179      34.996      38.147      40.232      40.963      40.232      38.147      34.996    
  31.179      27.107      23.128      19.483      16.305      13.647      11.514      9.8916      8.7602      8.0995    
  7.8862      8.0901      8.6704      9.5712      10.717      12.008      13.325      14.539      15.522      16.162    
  24.699      24.331      23.269      21.625      19.572      17.312      15.049      12.958      11.172      9.7897    
  8.8657      8.4217      8.4557      8.9530      9.8916      11.246      12.984      15.064      17.416      19.934    
  22.458      24.783      26.677      27.919      28.352      27.919      26.677      24.783      22.458      19.934    
  17.416      15.064      12.984      11.246      9.8916      8.9530      8.4557      8.4217      8.8657      9.7897    
  11.172      12.958      15.049      17.312      19.572      21.625      23.269      24.331      36.664      36.099    
  34.458      31.901      28.673      25.069      21.401      17.945      14.914      12.431      10.554      9.2916    
  8.6112      8.4557      8.7602      9.4593      10.489      11.783      13.265      14.845      16.410      17.833    
  18.977      19.721      19.980      19.721      18.977      17.833      16.410      14.845      13.265      11.783    
  10.489      9.4593      8.7602      8.4557      8.6112      9.2916      10.554      12.431      14.914      17.945    
  21.401      25.069      28.673      31.901      34.458      36.099      52.710      51.906      49.561      45.876    
  41.165      35.828      30.298      24.991      20.239      16.258      13.126      10.825      9.2916      8.4217    
  8.0995      8.2145      8.6682      9.3725      10.245      11.203      12.161      13.031      13.727      14.178    
  14.335      14.178      13.727      13.031      12.161      11.203      10.245      9.3725      8.6682      8.2145    
  8.0995      8.4217      9.2916      10.825      13.126      16.258      20.239      24.991      30.298      35.828    
  41.165      45.876      49.561      51.906      72.581      71.522      68.421      63.500      57.123      49.774    
  42.014      34.410      27.458      21.511      16.737      13.126      10.554      8.8657      7.8862      7.4469    
  7.4046      7.6427      8.0655      8.5913      9.1462      9.6626      10.081      10.353      10.447      10.353    
  10.081      9.6626      9.1462      8.5913      8.0655      7.6427      7.4046      7.4469      7.8862      8.8657    
  10.554      13.126      16.737      21.511      27.458      34.410      42.014      49.774      57.123      63.500    
  68.421      71.522      95.199      93.910      90.113      84.018      75.995      66.569      56.400      46.208    
  36.675      28.338      21.511      16.258      12.431      9.7897      8.0901      7.0942      6.5999      6.4496    
  6.5247      6.7351      7.0092      7.2885      7.5249      7.6822      7.7372      7.6822      7.5249      7.2885    
  7.0092      6.7351      6.5247      6.4496      6.5999      7.0942      8.0901      9.7897      12.431      16.258    
  21.511      28.338      36.675      46.208      56.400      66.569      75.995      84.018      90.113      93.910    
  118.79      117.34      113.03      106.02      96.615      85.317      72.829      59.995      47.691      36.675    
  27.458      20.239      14.914      11.172      8.6704      7.0925      6.1642      5.6736      5.4678      5.4391    
  5.5102      5.6237      5.7363      5.8166      5.8455      5.8166      5.7363      5.6237      5.5102      5.4391    
  5.4678      5.6736      6.1642      7.0925      8.6704      11.172      14.914      20.239      27.458      36.675    
  47.691      59.995      72.829      85.317      96.615      106.02      113.03      117.34      141.25      139.74    
  135.21      127.71      117.42      104.71      90.271      75.015      59.995      46.208      34.410      24.991    
  17.945      12.958      9.5712      7.3754      6.0150      5.2123      4.7696      4.5530      4.4728      4.4675    
  4.4935      4.5209      4.5321      4.5209      4.4935      4.4675      4.4728      4.5530      4.7696      5.2123    
  6.0150      7.3754      9.5712      12.958      17.945      24.991      34.410      46.208      59.995      75.015    
  90.271      104.71      117.42      127.71      135.21      139.74      160.60      159.16      154.77      147.32    
  136.76      123.30      107.49      90.271      72.829      56.400      42.014      30.298      21.401      15.049    
  10.717      7.8728      6.0774      4.9800      4.3302      3.9614      3.7662      3.6747      3.6399      3.6310    
  3.6300      3.6310      3.6399      3.6747      3.7662      3.9614      4.3302      4.9800      6.0774      7.8728    
  10.717      15.049      21.401      30.298      42.014      56.400      72.829      90.271      107.49      123.30    
  136.76      147.32      154.77      159.16      175.47      174.22      170.33      163.47      153.31      139.80    
  123.30      104.71      85.317      66.569      49.774      35.828      25.069      17.312      12.008      8.5086    
  6.2829      4.9060      4.0716      3.5765      3.2921      3.1374      3.0599      3.0262      3.0171      3.0262    
  3.0599      3.1374      3.2921      3.5765      4.0716      4.9060      6.2829      8.5086      12.008      17.312    
  25.069      35.828      49.774      66.569      85.317      104.71      123.30      139.80      153.31      163.47    
  170.33      174.22      185.38      184.42      181.31      175.48      166.27      153.31      136.76      117.42    
  96.615      75.995      57.123      41.165      28.673      19.572      13.325      9.2001      6.5668      4.9315    
  3.9331      3.3316      2.9763      2.7738      2.6655      2.6143      2.5996      2.6143      2.6655      2.7738    
  2.9763      3.3316      3.9331      4.9315      6.5668      9.2001      13.325      19.572      28.673      41.165    
  57.123      75.995      96.615      117.42      136.76      153.31      166.27      175.48      181.31      184.42    
  190.79      190.17      187.99      183.42      175.48      163.47      147.32      127.71      106.02      84.018    
  63.500      45.876      31.901      21.625      14.539      9.8604      6.8682      5.0078      3.8696      3.1801    
  2.7682      2.5290      2.3976      2.3338      2.3150      2.3338      2.3976      2.5290      2.7682      3.1801    
  3.8696      5.0078      6.8682      9.8604      14.539      21.625      31.901      45.876      63.500      84.018    
  106.02      127.71      147.32      163.47      175.48      183.42      187.99      190.17      192.95      192.65    
  191.35      187.99      181.31      170.33      154.77      135.21      113.03      90.113      68.421      49.561    
  34.458      23.269      15.522      10.406      7.1317      5.0954      3.8492      3.0932      2.6394      2.3738    
  2.2261      2.1535      2.1319      2.1535      2.2261      2.3738      2.6394      3.0932      3.8492      5.0954    
  7.1317      10.406      15.522      23.269      34.458      49.561      68.421      90.113      113.03      135.21    
  154.77      170.33      181.31      187.99      191.35      192.65      193.39      193.32      192.65      190.17    
  184.42      174.22      159.16      139.74      117.34      93.910      71.522      51.906      36.099      24.331    
  16.162      10.766      7.3112      5.1629      3.8487      3.0513      2.5723      2.2910      2.1341      2.0566    
  2.0335      2.0566      2.1341      2.2910      2.5723      3.0513      3.8487      5.1629      7.3112      10.766    
  16.162      24.331      36.099      51.906      71.522      93.910      117.34      139.74      159.16      174.22    
  184.42      190.17      192.65      193.32      193.39      193.32      192.65      190.17      184.42      174.22    
  159.16      139.74      117.34      93.910      71.522      51.906      36.099      24.331      16.162      10.766    
  7.3112      5.1629      3.8487      3.0513      2.5723      2.2910      2.1341      2.0566      2.0335      2.0566    
  2.1341      2.2910      2.5723      3.0513      3.8487      5.1629      7.3112      10.766      16.162      24.331    
  36.099      51.906      71.522      93.910      117.34      139.74      159.16      174.22      184.42      190.17    
  192.65      193.32      193.32      193.17      192.28      189.50      183.42      172.95      157.71      138.23    
  115.90      92.633      70.476      51.113      35.542      23.970      15.943      10.642      7.2485      5.1379    
  3.8465      3.0629      2.5921      2.3158      2.1618      2.0858      2.0631      2.0858      2.1618      2.3158    
  2.5921      3.0629      3.8465      5.1379      7.2485      10.642      15.943      23.970      35.542      51.113    
  70.476      92.633      115.90      138.23      157.71      172.95      183.42      189.50      192.28      193.17    
  192.65      192.28      190.79      187.17      180.21      169.00      153.29      133.71      111.61      88.869    
  67.411      48.801      33.927      22.925      15.314      10.288      7.0717      5.0712      3.8468      3.1038    
  2.6580      2.3972      2.2524      2.1812      2.1601      2.1812      2.2524      2.3972      2.6580      3.1038    
  3.8468      5.0712      7.0717      10.288      15.314      22.925      33.927      48.801      67.411      88.869    