 vasp.5.4.4.18Apr17-6-g9f103f2a35 (build Jun 30 2017 11:15:00) complex          
  
 executed on    STALLO_VASP_5.4.4 date 2019.10.26  17:42:27
 running on    4 total cores
 distrk:  each k-point on    4 cores,    1 groups
 distr:  one band on NCORES_PER_BAND=   2 cores,    2 groups


--------------------------------------------------------------------------------------------------------


 INCAR:
 POTCAR:   PAW_PBE Sr_sv 07Sep2000                
 POTCAR:   PAW_PBE Ti 08Apr2002                   
 POTCAR:   PAW_PBE O 08Apr2002                    
 POTCAR:   PAW_PBE Sr_sv 07Sep2000                
   VRHFIN =Sr: 4s4p5s                                                           
   LEXCH  = PE                                                                  
   EATOM  =   842.4562 eV,   61.9188 Ry                                         
                                                                                
   TITEL  = PAW_PBE Sr_sv 07Sep2000                                             
   LULTRA =        F    use ultrasoft PP ?                                      
   IUNSCR =        1    unscreen: 0-lin 1-nonlin 2-no                           
   RPACOR =    2.200    partial core radius                                     
   POMASS =   87.620; ZVAL   =   10.000    mass and valenz                      
   RCORE  =    2.500    outmost cutoff radius                                   
   RWIGS  =    4.040; RWIGS  =    2.138    wigner-seitz radius (au A)           
   ENMAX  =  229.282; ENMIN  =  171.961 eV                                      
   RCLOC  =    2.201    cutoff for local pot                                    
   LCOR   =        T    correct aug charges                                     
   LPAW   =        T    paw PP                                                  
   EAUG   =  366.804                                                            
   DEXC   =     .000                                                            
   RMAX   =    3.045    core radius for proj-oper                               
   RAUG   =    1.300    factor for augmentation sphere                          
   RDEP   =    2.562    radius for radial grids                                 
   QCUT   =   -4.105; QGAM   =    8.210    optimization parameters              
                                                                                
   Description                                                                  
     l     E      TYP  RCUT    TYP  RCUT                                        
     0   .000     23  2.480                                                     
     0   .000     23  2.480                                                     
     1   .000     23  2.500                                                     
     1   .000     23  2.500                                                     
     2   .000     23  2.500                                                     
     2   .000     23  2.500                                                     
  local pseudopotential read in
  partial core-charges read in
  atomic valenz-charges read in
  non local Contribution for L=           0  read in
    real space projection operators read in
  non local Contribution for L=           0  read in
    real space projection operators read in
  non local Contribution for L=           1  read in
    real space projection operators read in
  non local Contribution for L=           1  read in
    real space projection operators read in
  non local Contribution for L=           2  read in
    real space projection operators read in
  non local Contribution for L=           2  read in
    real space projection operators read in
    PAW grid and wavefunctions read in
 
   number of l-projection  operators is LMAX  =           6
   number of lm-projection operators is LMMAX =          18
 
 POTCAR:   PAW_PBE Ti 08Apr2002                   
   VRHFIN =Ti: d3 s1                                                            
   LEXCH  = PE                                                                  
   EATOM  =    94.7929 eV,    6.9671 Ry                                         
                                                                                
   TITEL  = PAW_PBE Ti 08Apr2002                                                
   LULTRA =        F    use ultrasoft PP ?                                      
   IUNSCR =        1    unscreen: 0-lin 1-nonlin 2-no                           
   RPACOR =    2.200    partial core radius                                     
   POMASS =   47.880; ZVAL   =    4.000    mass and valenz                      
   RCORE  =    2.800    outmost cutoff radius                                   
   RWIGS  =    2.500; RWIGS  =    1.323    wigner-seitz radius (au A)           
   ENMAX  =  178.330; ENMIN  =  133.747 eV                                      
   RCLOC  =    2.215    cutoff for local pot                                    
   LCOR   =        T    correct aug charges                                     
   LPAW   =        T    paw PP                                                  
   EAUG   =  328.883                                                            
   DEXC   =    -.043                                                            
   RMAX   =    3.453    core radius for proj-oper                               
   RAUG   =    1.300    factor for augmentation sphere                          
   RDEP   =    2.885    radius for radial grids                                 
   QCUT   =   -3.620; QGAM   =    7.241    optimization parameters              
                                                                                
   Description                                                                  
     l     E      TYP  RCUT    TYP  RCUT                                        
     2   .000     23  2.800                                                     
     2   .000     23  2.800                                                     
     0   .000     23  2.800                                                     
     0  1.500     23  2.800                                                     
     1  -.400     23  2.800                                                     
     3   .000      7   .000                                                     
  local pseudopotential read in
  partial core-charges read in
  atomic valenz-charges read in
  non local Contribution for L=           2  read in
    real space projection operators read in
  non local Contribution for L=           2  read in
    real space projection operators read in
  non local Contribution for L=           0  read in
    real space projection operators read in
  non local Contribution for L=           0  read in
    real space projection operators read in
  non local Contribution for L=           1  read in
    real space projection operators read in
    PAW grid and wavefunctions read in
 
   number of l-projection  operators is LMAX  =           5
   number of lm-projection operators is LMMAX =          15
 
 POTCAR:   PAW_PBE O 08Apr2002                    
   VRHFIN =O: s2p4                                                              
   LEXCH  = PE                                                                  
   EATOM  =   432.3788 eV,   31.7789 Ry                                         
                                                                                
   TITEL  = PAW_PBE O 08Apr2002                                                 
   LULTRA =        F    use ultrasoft PP ?                                      
   IUNSCR =        0    unscreen: 0-lin 1-nonlin 2-no                           
   RPACOR =     .000    partial core radius                                     
   POMASS =   16.000; ZVAL   =    6.000    mass and valenz                      
   RCORE  =    1.520    outmost cutoff radius                                   
   RWIGS  =    1.550; RWIGS  =     .820    wigner-seitz radius (au A)           
   ENMAX  =  400.000; ENMIN  =  300.000 eV                                      
   ICORE  =        2    local potential                                         
   LCOR   =        T    correct aug charges                                     
   LPAW   =        T    paw PP                                                  
   EAUG   =  605.392                                                            
   DEXC   =     .000                                                            
   RMAX   =    2.264    core radius for proj-oper                               
   RAUG   =    1.300    factor for augmentation sphere                          
   RDEP   =    1.550    radius for radial grids                                 
   QCUT   =   -5.520; QGAM   =   11.041    optimization parameters              
                                                                                
   Description                                                                  
     l     E      TYP  RCUT    TYP  RCUT                                        
     0   .000     23  1.200                                                     
     0  -.700     23  1.200                                                     
     1   .000     23  1.520                                                     
     1   .600     23  1.520                                                     
     2   .000      7  1.500                                                     
  local pseudopotential read in
  atomic valenz-charges read in
  non local Contribution for L=           0  read in
    real space projection operators read in
  non local Contribution for L=           0  read in
    real space projection operators read in
  non local Contribution for L=           1  read in
    real space projection operators read in
  non local Contribution for L=           1  read in
    real space projection operators read in
    PAW grid and wavefunctions read in
 
   number of l-projection  operators is LMAX  =           4
   number of lm-projection operators is LMMAX =           8
 
 PAW_PBE Sr_sv 07Sep2000                :
 energy of atom  1       EATOM= -842.4562
 kinetic energy error for atom=    0.0012 (will be added to EATOM!!)
 PAW_PBE Ti 08Apr2002                   :
 energy of atom  2       EATOM=  -94.7929
 kinetic energy error for atom=    0.0002 (will be added to EATOM!!)
 PAW_PBE O 08Apr2002                    :
 energy of atom  3       EATOM= -432.3788
 kinetic energy error for atom=    0.0224 (will be added to EATOM!!)
 
 
 POSCAR: ICSD_CollCode262269                     
  positions in direct lattice
  No initial velocities read in
 exchange correlation table for  LEXCH =        8
   RHO(1)=    0.500       N(1)  =     2000
   RHO(2)=  100.500       N(2)  =     4000
 


--------------------------------------------------------------------------------------------------------


 ion  position               nearest neighbor table
   1  0.000  0.000  0.000-   3 2.76   4 2.76   5 2.76   4 2.76   5 2.76   3 2.76   5 2.76   5 2.76
                             3 2.76   4 2.76   4 2.76   3 2.76   2 3.38   2 3.38   2 3.38   2 3.38
   2  0.500  0.500  0.500-   3 1.95   4 1.95   5 1.95   3 1.95   4 1.95   5 1.95   1 3.38   1 3.38
                             1 3.38   1 3.38   1 3.38   1 3.38   1 3.38   1 3.38
   3  0.500  0.500  0.000-   2 1.95   2 1.95   1 2.76   1 2.76   1 2.76   1 2.76
   4  0.500  0.000  0.500-   2 1.95   2 1.95   1 2.76   1 2.76   1 2.76   1 2.76
   5  0.000  0.500  0.500-   2 1.95   2 1.95   1 2.76   1 2.76   1 2.76   1 2.76
 
  LATTYP: Found a simple cubic cell.
 ALAT       =     3.9052680000
  
  Lattice vectors:
  
 A1 = (   3.9052680000,   0.0000000000,   0.0000000000)
 A2 = (   0.0000000000,   3.9052680000,   0.0000000000)
 A3 = (   0.0000000000,   0.0000000000,   3.9052680000)


Analysis of symmetry for initial positions (statically):
=====================================================================
 Subroutine PRICEL returns:
 Original cell was already a primitive cell.
 

 Routine SETGRP: Setting up the symmetry group for a 
 simple cubic supercell.


 Subroutine GETGRP returns: Found 48 space group operations
 (whereof 48 operations were pure point group operations)
 out of a pool of 48 trial point group operations.


The static configuration has the point symmetry O_h .


Analysis of symmetry for dynamics (positions and initial velocities):
=====================================================================
 Subroutine PRICEL returns:
 Original cell was already a primitive cell.
 

 Routine SETGRP: Setting up the symmetry group for a 
 simple cubic supercell.


 Subroutine GETGRP returns: Found 48 space group operations
 (whereof 48 operations were pure point group operations)
 out of a pool of 48 trial point group operations.


The dynamic configuration has the point symmetry O_h .


 Subroutine INISYM returns: Found 48 space group operations
 (whereof 48 operations are pure point group operations),
 and found     1 'primitive' translations

 
 
 KPOINTS: k-density: 4.0                          

Automatic generation of k-mesh.
Space group operators:
 irot       det(A)        alpha          n_x          n_y          n_z        tau_x        tau_y        tau_z
    1     1.000000     0.000000     1.000000     0.000000     0.000000     0.000000     0.000000     0.000000
    2    -1.000000     0.000000     1.000000     0.000000     0.000000     0.000000     0.000000     0.000000
    3     1.000000   120.000000    -0.577350    -0.577350    -0.577350     0.000000     0.000000     0.000000
    4    -1.000000   120.000000    -0.577350    -0.577350    -0.577350     0.000000     0.000000     0.000000
    5     1.000000   120.000000     0.577350     0.577350     0.577350     0.000000     0.000000     0.000000
    6    -1.000000   120.000000     0.577350     0.577350     0.577350     0.000000     0.000000     0.000000
    7     1.000000    90.000000     0.000000     0.000000    -1.000000     0.000000     0.000000     0.000000
    8    -1.000000    90.000000     0.000000     0.000000    -1.000000     0.000000     0.000000     0.000000
    9     1.000000   180.000000     0.000000     0.707107     0.707107     0.000000     0.000000     0.000000
   10    -1.000000   180.000000     0.000000     0.707107     0.707107     0.000000     0.000000     0.000000
   11     1.000000    90.000000     0.000000     1.000000     0.000000     0.000000     0.000000     0.000000
   12    -1.000000    90.000000     0.000000     1.000000     0.000000     0.000000     0.000000     0.000000
   13     1.000000   180.000000     0.000000     0.000000     1.000000     0.000000     0.000000     0.000000
   14    -1.000000   180.000000     0.000000     0.000000     1.000000     0.000000     0.000000     0.000000
   15     1.000000   120.000000    -0.577350     0.577350     0.577350     0.000000     0.000000     0.000000
   16    -1.000000   120.000000    -0.577350     0.577350     0.577350     0.000000     0.000000     0.000000
   17     1.000000   120.000000    -0.577350     0.577350    -0.577350     0.000000     0.000000     0.000000
   18    -1.000000   120.000000    -0.577350     0.577350    -0.577350     0.000000     0.000000     0.000000
   19     1.000000    90.000000     0.000000     0.000000     1.000000     0.000000     0.000000     0.000000
   20    -1.000000    90.000000     0.000000     0.000000     1.000000     0.000000     0.000000     0.000000
   21     1.000000    90.000000    -1.000000     0.000000     0.000000     0.000000     0.000000     0.000000
   22    -1.000000    90.000000    -1.000000     0.000000     0.000000     0.000000     0.000000     0.000000
   23     1.000000   180.000000     0.707107     0.000000     0.707107     0.000000     0.000000     0.000000
   24    -1.000000   180.000000     0.707107     0.000000     0.707107     0.000000     0.000000     0.000000
   25     1.000000   120.000000     0.577350    -0.577350     0.577350     0.000000     0.000000     0.000000
   26    -1.000000   120.000000     0.577350    -0.577350     0.577350     0.000000     0.000000     0.000000
   27     1.000000   120.000000    -0.577350    -0.577350     0.577350     0.000000     0.000000     0.000000
   28    -1.000000   120.000000    -0.577350    -0.577350     0.577350     0.000000     0.000000     0.000000
   29     1.000000   180.000000     1.000000     0.000000     0.000000     0.000000     0.000000     0.000000
   30    -1.000000   180.000000     1.000000     0.000000     0.000000     0.000000     0.000000     0.000000
   31     1.000000    90.000000     0.000000    -1.000000     0.000000     0.000000     0.000000     0.000000
   32    -1.000000    90.000000     0.000000    -1.000000     0.000000     0.000000     0.000000     0.000000
   33     1.000000   180.000000     0.707107     0.707107     0.000000     0.000000     0.000000     0.000000
   34    -1.000000   180.000000     0.707107     0.707107     0.000000     0.000000     0.000000     0.000000
   35     1.000000    90.000000     1.000000     0.000000     0.000000     0.000000     0.000000     0.000000
   36    -1.000000    90.000000     1.000000     0.000000     0.000000     0.000000     0.000000     0.000000
   37     1.000000   120.000000     0.577350    -0.577350    -0.577350     0.000000     0.000000     0.000000
   38    -1.000000   120.000000     0.577350    -0.577350    -0.577350     0.000000     0.000000     0.000000
   39     1.000000   180.000000     0.000000     1.000000     0.000000     0.000000     0.000000     0.000000
   40    -1.000000   180.000000     0.000000     1.000000     0.000000     0.000000     0.000000     0.000000
   41     1.000000   120.000000     0.577350     0.577350    -0.577350     0.000000     0.000000     0.000000
   42    -1.000000   120.000000     0.577350     0.577350    -0.577350     0.000000     0.000000     0.000000
   43     1.000000   180.000000     0.000000    -0.707107     0.707107     0.000000     0.000000     0.000000
   44    -1.000000   180.000000     0.000000    -0.707107     0.707107     0.000000     0.000000     0.000000
   45     1.000000   180.000000     0.707107    -0.707107     0.000000     0.000000     0.000000     0.000000
   46    -1.000000   180.000000     0.707107    -0.707107     0.000000     0.000000     0.000000     0.000000
   47     1.000000   180.000000     0.707107     0.000000    -0.707107     0.000000     0.000000     0.000000
   48    -1.000000   180.000000     0.707107     0.000000    -0.707107     0.000000     0.000000     0.000000
 
 Subroutine IBZKPT returns following result:
 ===========================================
 
 Found     20 irreducible k-points:
 
 Following reciprocal coordinates:
            Coordinates               Weight
  0.000000  0.000000  0.000000      1.000000
  0.142857  0.000000  0.000000      6.000000
  0.285714  0.000000  0.000000      6.000000
  0.428571  0.000000  0.000000      6.000000
  0.142857  0.142857  0.000000     12.000000
  0.285714  0.142857  0.000000     24.000000
  0.428571  0.142857  0.000000     24.000000
  0.285714  0.285714  0.000000     12.000000
  0.428571  0.285714  0.000000     24.000000
  0.428571  0.428571  0.000000     12.000000
  0.142857  0.142857  0.142857      8.000000
  0.285714  0.142857  0.142857     24.000000
  0.428571  0.142857  0.142857     24.000000
  0.285714  0.285714  0.142857     24.000000
  0.428571  0.285714  0.142857     48.000000
  0.428571  0.428571  0.142857     24.000000
  0.285714  0.285714  0.285714      8.000000
  0.428571  0.285714  0.285714     24.000000
  0.428571  0.428571  0.285714     24.000000
  0.428571  0.428571  0.428571      8.000000
 
 Following cartesian coordinates:
            Coordinates               Weight
  0.000000  0.000000  0.000000      1.000000
  0.036581  0.000000  0.000000      6.000000
  0.073161  0.000000  0.000000      6.000000
  0.109742  0.000000  0.000000      6.000000
  0.036581  0.036581  0.000000     12.000000
  0.073161  0.036581  0.000000     24.000000
  0.109742  0.036581  0.000000     24.000000
  0.073161  0.073161  0.000000     12.000000
  0.109742  0.073161  0.000000     24.000000
  0.109742  0.109742  0.000000     12.000000
  0.036581  0.036581  0.036581      8.000000
  0.073161  0.036581  0.036581     24.000000
  0.109742  0.036581  0.036581     24.000000
  0.073161  0.073161  0.036581     24.000000
  0.109742  0.073161  0.036581     48.000000
  0.109742  0.109742  0.036581     24.000000
  0.073161  0.073161  0.073161      8.000000
  0.109742  0.073161  0.073161     24.000000
  0.109742  0.109742  0.073161     24.000000
  0.109742  0.109742  0.109742      8.000000
 
 TETIRR: Found    163 inequivalent tetrahedra from     2058


--------------------------------------------------------------------------------------------------------




 Dimension of arrays:
   k-points           NKPTS =     20   k-points in BZ     NKDIM =     20   number of bands    NBANDS=     20
   number of dos      NEDOS =    301   number of ions     NIONS =      5
   non local maximal  LDIM  =      6   non local SUM 2l+1 LMDIM =     18
   total plane-waves  NPLWV =  13824
   max r-space proj   IRMAX =      1   max aug-charges    IRDMAX=  16228
   dimension x,y,z NGX =    24 NGY =   24 NGZ =   24
   dimension x,y,z NGXF=    48 NGYF=   48 NGZF=   48
   support grid    NGXF=    48 NGYF=   48 NGZF=   48
   ions per type =               1   1   3
   NGX,Y,Z   is equivalent  to a cutoff of  10.22, 10.22, 10.22 a.u.
   NGXF,Y,Z  is equivalent  to a cutoff of  20.43, 20.43, 20.43 a.u.

 SYSTEM =  unknown system                          
 POSCAR =  ICSD_CollCode262269                     

 Startparameter for this run:
   NWRITE =      2    write-flag & timer
   PREC   = normal    normal or accurate (medium, high low for compatibility)
   ISTART =      0    job   : 0-new  1-cont  2-samecut
   ICHARG =      2    charge: 1-file 2-atom 10-const
   ISPIN  =      1    spin polarized calculation?
   LNONCOLLINEAR =      F non collinear calculations
   LSORBIT =      F    spin-orbit coupling
   INIWAV =      1    electr: 0-lowe 1-rand  2-diag
   LASPH  =      F    aspherical Exc in radial PAW
   METAGGA=      F    non-selfconsistent MetaGGA calc.

 Electronic Relaxation 1
   ENCUT  =  500.0 eV  36.75 Ry    6.06 a.u.   7.12  7.12  7.12*2*pi/ulx,y,z
   ENINI  =  500.0     initial cutoff
   ENAUG  =  605.4 eV  augmentation charge cutoff
   NELM   =     60;   NELMIN=  4; NELMDL=  0     # of ELM steps 
   EDIFF  = 0.1E-04   stopping-criterion for ELM
   LREAL  =      F    real-space projection
   NLSPLINE    = F    spline interpolate recip. space projectors
   LCOMPAT=      F    compatible to vasp.4.4
   GGA_COMPAT  = T    GGA compatible to vasp.4.4-vasp.4.6
   LMAXPAW     = -100 max onsite density
   LMAXMIX     =    2 max onsite mixed and CHGCAR
   VOSKOWN=      0    Vosko Wilk Nusair interpolation
   ROPT   =    0.00000   0.00000   0.00000
 Ionic relaxation
   EDIFFG = 0.1E-03   stopping-criterion for IOM
   NSW    =      0    number of steps for IOM
   NBLOCK =      1;   KBLOCK =      1    inner block; outer block 
   IBRION =     -1    ionic relax: 0-MD 1-quasi-New 2-CG
   NFREE  =      0    steps in history (QN), initial steepest desc. (CG)
   ISIF   =      2    stress and relaxation
   IWAVPR =     10    prediction:  0-non 1-charg 2-wave 3-comb
   ISYM   =      2    0-nonsym 1-usesym 2-fastsym
   LCORR  =      T    Harris-Foulkes like correction to forces

   POTIM  = 0.5000    time-step for ionic-motion
   TEIN   =    0.0    initial temperature
   TEBEG  =    0.0;   TEEND  =   0.0 temperature during run
   SMASS  =  -3.00    Nose mass-parameter (am)
   estimated Nose-frequenzy (Omega)   =  0.10E-29 period in steps =****** mass=  -0.349E-27a.u.
   SCALEE = 1.0000    scale energy and forces
   NPACO  =    256;   APACO  = 16.0  distance and # of slots for P.C.
   PSTRESS=    0.0 pullay stress

  Mass of Ions in am
   POMASS =  87.62 47.88 16.00
  Ionic Valenz
   ZVAL   =  10.00  4.00  6.00
  Atomic Wigner-Seitz radii
   RWIGS  =  -1.00 -1.00 -1.00
  virtual crystal weights 
   VCA    =   1.00  1.00  1.00
   NELECT =      32.0000    total number of electrons
   NUPDOWN=      -1.0000    fix difference up-down

 DOS related values:
   EMIN   =  10.00;   EMAX   =-10.00  energy-range for DOS
   EFERMI =   0.00
   ISMEAR =    -5;   SIGMA  =   0.20  broadening in eV -4-tet -1-fermi 0-gaus

 Electronic relaxation 2 (details)
   IALGO  =     68    algorithm
   LDIAG  =      T    sub-space diagonalisation (order eigenvalues)
   LSUBROT=      F    optimize rotation matrix (better conditioning)
   TURBO    =      0    0=normal 1=particle mesh
   IRESTART =      0    0=no restart 2=restart with 2 vectors
   NREBOOT  =      0    no. of reboots
   NMIN     =      0    reboot dimension
   EREF     =   0.00    reference energy to select bands
   IMIX   =      4    mixing-type and parameters
     AMIX     =   0.40;   BMIX     =  1.00
     AMIX_MAG =   1.60;   BMIX_MAG =  1.00
     AMIN     =   0.10
     WC   =   100.;   INIMIX=   1;  MIXPRE=   1;  MAXMIX= -45

 Intra band minimization:
   WEIMIN = 0.0000     energy-eigenvalue tresh-hold
   EBREAK =  0.13E-06  absolut break condition
   DEPER  =   0.30     relativ break condition  

   TIME   =   0.40     timestep for ELM

  volume/ion in A,a.u.               =      11.91        80.39
  Fermi-wavevector in a.u.,A,eV,Ry     =   1.330885  2.515009 24.099399  1.771256
  Thomas-Fermi vector in A             =   2.459938
 
 Write flags
   LWAVE        =      F    write WAVECAR
   LDOWNSAMPLE  =      F    k-point downsampling of WAVECAR
   LCHARG       =      T    write CHGCAR
   LVTOT        =      F    write LOCPOT, total local potential
   LVHAR        =      F    write LOCPOT, Hartree potential only
   LELF         =      F    write electronic localiz. function (ELF)
   LORBIT       =      0    0 simple, 1 ext, 2 COOP (PROOUT), +10 PAW based schemes


 Dipole corrections
   LMONO  =      F    monopole corrections only (constant potential shift)
   LDIPOL =      F    correct potential (dipole corrections)
   IDIPOL =      0    1-x, 2-y, 3-z, 4-all directions 
   EPSILON=  1.0000000 bulk dielectric constant

 Exchange correlation treatment:
   GGA     =    --    GGA type
   LEXCH   =     8    internal setting for exchange type
   VOSKOWN=      0    Vosko Wilk Nusair interpolation
   LHFCALC =     F    Hartree Fock is set to
   LHFONE  =     F    Hartree Fock one center treatment
   AEXX    =    0.0000 exact exchange contribution

 Linear response parameters
   LEPSILON=     F    determine dielectric tensor
   LRPA    =     F    only Hartree local field effects (RPA)
   LNABLA  =     F    use nabla operator in PAW spheres
   LVEL    =     F    velocity operator in full k-point grid
   LINTERFAST=   F  fast interpolation
   KINTER  =     0    interpolate to denser k-point grid
   CSHIFT  =0.1000    complex shift for real part using Kramers Kronig
   OMEGAMAX=  -1.0    maximum frequency
   DEG_THRESHOLD= 0.2000000E-02 threshold for treating states as degnerate
   RTIME   =   -0.100 relaxation time in fs
  (WPLASMAI=    0.000 imaginary part of plasma frequency in eV, 0.658/RTIME)
   DFIELD  = 0.0000000 0.0000000 0.0000000 field for delta impulse in time
 
 Orbital magnetization related:
   ORBITALMAG=     F  switch on orbital magnetization
   LCHIMAG   =     F  perturbation theory with respect to B field
   DQ        =  0.001000  dq finite difference perturbation B field
   LLRAUG    =     F  two centre corrections for induced B field



--------------------------------------------------------------------------------------------------------


 Static calculation
 charge density and potential will be updated during run
 non-spin polarized calculation
 RMM-DIIS sequential band-by-band and
  variant of blocked Davidson during initial phase
 perform sub-space diagonalisation
    before iterative eigenvector-optimisation
 modified Broyden-mixing scheme, WC =      100.0
 initial mixing is a Kerker type mixing with AMIX =  0.4000 and BMIX =      1.0000
 Hartree-type preconditioning will be used
 using additional bands            4
 reciprocal scheme for non local part
 use partial core corrections
 calculate Harris-corrections to forces 
   (improved forces if not selfconsistent)
 use gradient corrections 
 use of overlap-Matrix (Vanderbilt PP)
 Fermi weights with tetrahedron method with Bloechl corrections


--------------------------------------------------------------------------------------------------------


  energy-cutoff  :      500.00
  volume of cell :       59.56
      direct lattice vectors                 reciprocal lattice vectors
     3.905268000  0.000000000  0.000000000     0.256064373  0.000000000  0.000000000
     0.000000000  3.905268000  0.000000000     0.000000000  0.256064373  0.000000000
     0.000000000  0.000000000  3.905268000     0.000000000  0.000000000  0.256064373

  length of vectors
     3.905268000  3.905268000  3.905268000     0.256064373  0.256064373  0.256064373


 
 k-points in units of 2pi/SCALE and weight: k-density: 4.0                          
   0.00000000  0.00000000  0.00000000       0.003
   0.03658062  0.00000000  0.00000000       0.017
   0.07316125  0.00000000  0.00000000       0.017
   0.10974187  0.00000000  0.00000000       0.017
   0.03658062  0.03658062  0.00000000       0.035
   0.07316125  0.03658062  0.00000000       0.070
   0.10974187  0.03658062  0.00000000       0.070
   0.07316125  0.07316125  0.00000000       0.035
   0.10974187  0.07316125  0.00000000       0.070
   0.10974187  0.10974187  0.00000000       0.035
   0.03658062  0.03658062  0.03658062       0.023
   0.07316125  0.03658062  0.03658062       0.070
   0.10974187  0.03658062  0.03658062       0.070
   0.07316125  0.07316125  0.03658062       0.070
   0.10974187  0.07316125  0.03658062       0.140
   0.10974187  0.10974187  0.03658062       0.070
   0.07316125  0.07316125  0.07316125       0.023
   0.10974187  0.07316125  0.07316125       0.070
   0.10974187  0.10974187  0.07316125       0.070
   0.10974187  0.10974187  0.10974187       0.023
 
 k-points in reciprocal lattice and weights: k-density: 4.0                          
   0.00000000  0.00000000  0.00000000       0.003
   0.14285714  0.00000000  0.00000000       0.017
   0.28571429  0.00000000  0.00000000       0.017
   0.42857143  0.00000000  0.00000000       0.017
   0.14285714  0.14285714  0.00000000       0.035
   0.28571429  0.14285714  0.00000000       0.070
   0.42857143  0.14285714  0.00000000       0.070
   0.28571429  0.28571429  0.00000000       0.035
   0.42857143  0.28571429  0.00000000       0.070
   0.42857143  0.42857143  0.00000000       0.035
   0.14285714  0.14285714  0.14285714       0.023
   0.28571429  0.14285714  0.14285714       0.070
   0.42857143  0.14285714  0.14285714       0.070
   0.28571429  0.28571429  0.14285714       0.070
   0.42857143  0.28571429  0.14285714       0.140
   0.42857143  0.42857143  0.14285714       0.070
   0.28571429  0.28571429  0.28571429       0.023
   0.42857143  0.28571429  0.28571429       0.070
   0.42857143  0.42857143  0.28571429       0.070
   0.42857143  0.42857143  0.42857143       0.023
 
 position of ions in fractional coordinates (direct lattice) 
   0.00000000  0.00000000  0.00000000
   0.50000000  0.50000000  0.50000000
   0.50000000  0.50000000  0.00000000
   0.50000000  0.00000000  0.50000000
   0.00000000  0.50000000  0.50000000
 
 position of ions in cartesian coordinates  (Angst):
   0.00000000  0.00000000  0.00000000
   1.95263400  1.95263400  1.95263400
   1.95263400  1.95263400  0.00000000
   1.95263400  0.00000000  1.95263400
   0.00000000  1.95263400  1.95263400
 


--------------------------------------------------------------------------------------------------------


 k-point  1 :   0.0000 0.0000 0.0000  plane waves:    1503
 k-point  2 :   0.1429 0.0000 0.0000  plane waves:    1478
 k-point  3 :   0.2857 0.0000 0.0000  plane waves:    1510
 k-point  4 :   0.4286 0.0000 0.0000  plane waves:    1502
 k-point  5 :   0.1429 0.1429 0.0000  plane waves:    1500
 k-point  6 :   0.2857 0.1429 0.0000  plane waves:    1511
 k-point  7 :   0.4286 0.1429 0.0000  plane waves:    1517
 k-point  8 :   0.2857 0.2857 0.0000  plane waves:    1510
 k-point  9 :   0.4286 0.2857 0.0000  plane waves:    1524
 k-point 10 :   0.4286 0.4286 0.0000  plane waves:    1520
 k-point 11 :   0.1429 0.1429 0.1429  plane waves:    1502
 k-point 12 :   0.2857 0.1429 0.1429  plane waves:    1514
 k-point 13 :   0.4286 0.1429 0.1429  plane waves:    1514
 k-point 14 :   0.2857 0.2857 0.1429  plane waves:    1516
 k-point 15 :   0.4286 0.2857 0.1429  plane waves:    1513
 k-point 16 :   0.4286 0.4286 0.1429  plane waves:    1521
 k-point 17 :   0.2857 0.2857 0.2857  plane waves:    1508
 k-point 18 :   0.4286 0.2857 0.2857  plane waves:    1521
 k-point 19 :   0.4286 0.4286 0.2857  plane waves:    1501
 k-point 20 :   0.4286 0.4286 0.4286  plane waves:    1520

 maximum and minimum number of plane-waves per node :       764      733

 maximum number of plane-waves:      1524
 maximum index in each direction: 
   IXMAX=    7   IYMAX=    7   IZMAX=    7
   IXMIN=   -7   IYMIN=   -7   IZMIN=   -7


 parallel 3D FFT for wavefunctions:
    minimum data exchange during FFTs selected (reduces bandwidth)
 parallel 3D FFT for charge:
    minimum data exchange during FFTs selected (reduces bandwidth)


 total amount of memory used by VASP MPI-rank0    42494. kBytes
=======================================================================

   base      :      30000. kBytes
   nonl-proj :       6627. kBytes
   fftplans  :       1176. kBytes
   grid      :       2105. kBytes
   one-center:         46. kBytes
   wavefun   :       2540. kBytes
 
     INWAV:  cpu time    0.0000: real time    0.0003
 Broyden mixing: mesh for mixing (old mesh)
   NGX = 15   NGY = 15   NGZ = 15
  (NGX  = 48   NGY  = 48   NGZ  = 48)
  gives a total of   3375 points

 initial charge density was supplied:
 charge density of overlapping atoms calculated
 number of electron      32.0000000 magnetization 
 keeping initial charge density in first step


--------------------------------------------------------------------------------------------------------


 Maximum index for augmentation-charges         3835 (set IRDMAX)


--------------------------------------------------------------------------------------------------------


 First call to EWALD:  gamma=   0.454
 Maximum number of real-space cells 3x 3x 3
 Maximum number of reciprocal cells 3x 3x 3

    FEWALD:  cpu time    0.0010: real time    0.0015


--------------------------------------- Iteration      1(   1)  ---------------------------------------


    POTLOK:  cpu time    0.0190: real time    0.0509
    SETDIJ:  cpu time    0.0050: real time    0.0053
     EDDAV:  cpu time    0.2260: real time    0.2315
 BZINTS: Fermi energy: 19.282931; 32.000000 electrons
         Band energy:  96.680437;  BLOECHL correction: -0.202792
       DOS:  cpu time    0.0050: real time    0.0057
    --------------------------------------------
      LOOP:  cpu time    0.2550: real time    0.2934

 eigenvalue-minimisations  :   800
 total energy-change (2. order) : 0.3103257E+03  (-0.1520593E+04)
 number of electron      32.0000000 magnetization 
 augmentation part       32.0000000 magnetization 

 Free energy of the ion-electron system (eV)
  ---------------------------------------------------
  alpha Z        PSCENC =       185.39985751
  Ewald energy   TEWEN  =     -1934.07799583
  -Hartree energ DENC   =      -403.14003404
  -exchange      EXHF   =         0.00000000
  -V(xc)+E(xc)   XCENC  =        82.31788258
  PAW double counting   =      1333.61297253    -1284.78446064
  entropy T*S    EENTRO =         0.00000000
  eigenvalues    EBANDS =        96.68043681
  atomic energy  EATOM  =      2234.31706254
  Solvation  Ediel_sol  =         0.00000000
  ---------------------------------------------------
  free energy    TOTEN  =       310.32572147 eV

  energy without entropy =      310.32572147  energy(sigma->0) =      310.32572147


--------------------------------------------------------------------------------------------------------




--------------------------------------- Iteration      1(   2)  ---------------------------------------


     EDDAV:  cpu time    0.2940: real time    0.2951
 BZINTS: Fermi energy:  7.964392; 32.000000 electrons
         Band energy:-235.329456;  BLOECHL correction:  0.000000
       DOS:  cpu time    0.0020: real time    0.0028
    --------------------------------------------
      LOOP:  cpu time    0.2960: real time    0.2978

 eigenvalue-minimisations  :  1112
 total energy-change (2. order) :-0.3320099E+03  (-0.3228050E+03)
 number of electron      32.0000000 magnetization 
 augmentation part       32.0000000 magnetization 

 Free energy of the ion-electron system (eV)
  ---------------------------------------------------
  alpha Z        PSCENC =       185.39985751
  Ewald energy   TEWEN  =     -1934.07799583
  -Hartree energ DENC   =      -403.14003404
  -exchange      EXHF   =         0.00000000
  -V(xc)+E(xc)   XCENC  =        82.31788258
  PAW double counting   =      1333.61297253    -1284.78446064
  entropy T*S    EENTRO =         0.00000000
  eigenvalues    EBANDS =      -235.32945610
  atomic energy  EATOM  =      2234.31706254
  Solvation  Ediel_sol  =         0.00000000
  ---------------------------------------------------
  free energy    TOTEN  =       -21.68417145 eV

  energy without entropy =      -21.68417145  energy(sigma->0) =      -21.68417145


--------------------------------------------------------------------------------------------------------




--------------------------------------- Iteration      1(   3)  ---------------------------------------


     EDDAV:  cpu time    0.2510: real time    0.2503
 BZINTS: Fermi energy:  0.390699; 32.000000 electrons
         Band energy:-262.884938;  BLOECHL correction:  0.000000
       DOS:  cpu time    0.0010: real time    0.0015
    --------------------------------------------
      LOOP:  cpu time    0.2520: real time    0.2518

 eigenvalue-minimisations  :   932
 total energy-change (2. order) :-0.2755548E+02  (-0.2740889E+02)
 number of electron      32.0000000 magnetization 
 augmentation part       32.0000000 magnetization 

 Free energy of the ion-electron system (eV)
  ---------------------------------------------------
  alpha Z        PSCENC =       185.39985751
  Ewald energy   TEWEN  =     -1934.07799583
  -Hartree energ DENC   =      -403.14003404
  -exchange      EXHF   =         0.00000000
  -V(xc)+E(xc)   XCENC  =        82.31788258
  PAW double counting   =      1333.61297253    -1284.78446064
  entropy T*S    EENTRO =         0.00000000
  eigenvalues    EBANDS =      -262.88493800
  atomic energy  EATOM  =      2234.31706254
  Solvation  Ediel_sol  =         0.00000000
  ---------------------------------------------------
  free energy    TOTEN  =       -49.23965335 eV

  energy without entropy =      -49.23965335  energy(sigma->0) =      -49.23965335


--------------------------------------------------------------------------------------------------------




--------------------------------------- Iteration      1(   4)  ---------------------------------------


     EDDAV:  cpu time    0.3459: real time    0.3462
 BZINTS: Fermi energy: -0.522892; 32.000000 electrons
         Band energy:-263.848482;  BLOECHL correction:  0.000000
       DOS:  cpu time    0.0010: real time    0.0009
    --------------------------------------------
      LOOP:  cpu time    0.3469: real time    0.3470

 eigenvalue-minimisations  :  1364
 total energy-change (2. order) :-0.9635438E+00  (-0.9623708E+00)
 number of electron      32.0000000 magnetization 
 augmentation part       32.0000000 magnetization 

 Free energy of the ion-electron system (eV)
  ---------------------------------------------------
  alpha Z        PSCENC =       185.39985751
  Ewald energy   TEWEN  =     -1934.07799583
  -Hartree energ DENC   =      -403.14003404
  -exchange      EXHF   =         0.00000000
  -V(xc)+E(xc)   XCENC  =        82.31788258
  PAW double counting   =      1333.61297253    -1284.78446064
  entropy T*S    EENTRO =         0.00000000
  eigenvalues    EBANDS =      -263.84848180
  atomic energy  EATOM  =      2234.31706254
  Solvation  Ediel_sol  =         0.00000000
  ---------------------------------------------------
  free energy    TOTEN  =       -50.20319715 eV

  energy without entropy =      -50.20319715  energy(sigma->0) =      -50.20319715


--------------------------------------------------------------------------------------------------------




--------------------------------------- Iteration      1(   5)  ---------------------------------------


     EDDAV:  cpu time    0.2720: real time    0.2719
 BZINTS: Fermi energy: -0.436392; 32.000000 electrons
         Band energy:-263.873561;  BLOECHL correction:  0.000000
       DOS:  cpu time    0.0000: real time    0.0010
    CHARGE:  cpu time    0.0180: real time    0.0179
    MIXING:  cpu time    0.0010: real time    0.0011
    --------------------------------------------
      LOOP:  cpu time    0.2910: real time    0.2919

 eigenvalue-minimisations  :  1032
 total energy-change (2. order) :-0.2507966E-01  (-0.2507229E-01)
 number of electron      31.9999897 magnetization 
 augmentation part        3.4007669 magnetization 

 Broyden mixing:
  rms(total) = 0.18263E+01    rms(broyden)= 0.18260E+01
  rms(prec ) = 0.47647E+01
  weight for this iteration     100.00

 Free energy of the ion-electron system (eV)
  ---------------------------------------------------
  alpha Z        PSCENC =       185.39985751
  Ewald energy   TEWEN  =     -1934.07799583
  -Hartree energ DENC   =      -403.14003404
  -exchange      EXHF   =         0.00000000
  -V(xc)+E(xc)   XCENC  =        82.31788258
  PAW double counting   =      1333.61297253    -1284.78446064
  entropy T*S    EENTRO =         0.00000000
  eigenvalues    EBANDS =      -263.87356146
  atomic energy  EATOM  =      2234.31706254
  Solvation  Ediel_sol  =         0.00000000
  ---------------------------------------------------
  free energy    TOTEN  =       -50.22827681 eV

  energy without entropy =      -50.22827681  energy(sigma->0) =      -50.22827681


--------------------------------------------------------------------------------------------------------




--------------------------------------- Iteration      1(   6)  ---------------------------------------


    POTLOK:  cpu time    0.0160: real time    0.0184
    SETDIJ:  cpu time    0.0040: real time    0.0042
    EDDIAG:  cpu time    0.0500: real time    0.0503
  RMM-DIIS:  cpu time    0.1720: real time    0.1716
    ORTHCH:  cpu time    0.0040: real time    0.0054
 BZINTS: Fermi energy:  3.211227; 32.000000 electrons
         Band energy:-200.858244;  BLOECHL correction:  0.000000
       DOS:  cpu time    0.0010: real time    0.0009
    CHARGE:  cpu time    0.0180: real time    0.0176
    MIXING:  cpu time    0.0010: real time    0.0006
    --------------------------------------------
      LOOP:  cpu time    0.2660: real time    0.2689

 eigenvalue-minimisations  :   864
 total energy-change (2. order) : 0.9842235E+01  (-0.5834729E+01)
 number of electron      31.9999925 magnetization 
 augmentation part        3.4801008 magnetization 

 Broyden mixing:
  rms(total) = 0.62335E+00    rms(broyden)= 0.62288E+00
  rms(prec ) = 0.11363E+01
  weight for this iteration     100.00

 eigenvalues of (default mixing * dielectric matrix)
  average eigenvalue GAMMA=   0.7962
  0.7962

 Free energy of the ion-electron system (eV)
  ---------------------------------------------------
  alpha Z        PSCENC =       185.39985751
  Ewald energy   TEWEN  =     -1934.07799583
  -Hartree energ DENC   =      -457.87886794
  -exchange      EXHF   =         0.00000000
  -V(xc)+E(xc)   XCENC  =        87.11125128
  PAW double counting   =      1487.77990146    -1442.17900695
  entropy T*S    EENTRO =         0.00000000
  eigenvalues    EBANDS =      -200.85824435
  atomic energy  EATOM  =      2234.31706254
  Solvation  Ediel_sol  =         0.00000000
  ---------------------------------------------------
  free energy    TOTEN  =       -40.38604229 eV

  energy without entropy =      -40.38604229  energy(sigma->0) =      -40.38604229


--------------------------------------------------------------------------------------------------------




--------------------------------------- Iteration      1(   7)  ---------------------------------------


    POTLOK:  cpu time    0.0150: real time    0.0157
    SETDIJ:  cpu time    0.0040: real time    0.0042
    EDDIAG:  cpu time    0.0490: real time    0.0491
  RMM-DIIS:  cpu time    0.1870: real time    0.1869
    ORTHCH:  cpu time    0.0060: real time    0.0053
 BZINTS: Fermi energy:  2.643784; 32.000000 electrons
         Band energy:-210.375123;  BLOECHL correction:  0.000000
       DOS:  cpu time    0.0010: real time    0.0009
    CHARGE:  cpu time    0.0170: real time    0.0176
    MIXING:  cpu time    0.0010: real time    0.0006
    --------------------------------------------
      LOOP:  cpu time    0.2800: real time    0.2803

 eigenvalue-minimisations  :   957
 total energy-change (2. order) : 0.5946032E+00  (-0.1526284E+00)
 number of electron      31.9999922 magnetization 
 augmentation part        3.3975937 magnetization 

 Broyden mixing:
  rms(total) = 0.32137E+00    rms(broyden)= 0.32135E+00
  rms(prec ) = 0.56580E+00
  weight for this iteration     100.00

 eigenvalues of (default mixing * dielectric matrix)
  average eigenvalue GAMMA=   1.7006
  0.8844  2.5169

 Free energy of the ion-electron system (eV)
  ---------------------------------------------------
  alpha Z        PSCENC =       185.39985751
  Ewald energy   TEWEN  =     -1934.07799583
  -Hartree energ DENC   =      -445.61774556
  -exchange      EXHF   =         0.00000000
  -V(xc)+E(xc)   XCENC  =        86.24607941
  PAW double counting   =      1498.40834250    -1454.09191660
  entropy T*S    EENTRO =         0.00000000
  eigenvalues    EBANDS =      -210.37512305
  atomic energy  EATOM  =      2234.31706254
  Solvation  Ediel_sol  =         0.00000000
  ---------------------------------------------------
  free energy    TOTEN  =       -39.79143908 eV

  energy without entropy =      -39.79143908  energy(sigma->0) =      -39.79143908


--------------------------------------------------------------------------------------------------------




--------------------------------------- Iteration      1(   8)  ---------------------------------------


    POTLOK:  cpu time    0.0150: real time    0.0151
    SETDIJ:  cpu time    0.0040: real time    0.0041
    EDDIAG:  cpu time    0.0500: real time    0.0504
  RMM-DIIS:  cpu time    0.1840: real time    0.1839
    ORTHCH:  cpu time    0.0060: real time    0.0053
 BZINTS: Fermi energy:  2.403242; 32.000000 electrons
         Band energy:-216.628027;  BLOECHL correction:  0.000000
       DOS:  cpu time    0.0010: real time    0.0010
    CHARGE:  cpu time    0.0170: real time    0.0173
    MIXING:  cpu time    0.0010: real time    0.0013
    --------------------------------------------
      LOOP:  cpu time    0.2780: real time    0.2785

 eigenvalue-minimisations  :   956
 total energy-change (2. order) : 0.8083181E-01  (-0.9414063E-01)
 number of electron      31.9999920 magnetization 
 augmentation part        3.4552810 magnetization 

 Broyden mixing:
  rms(total) = 0.86132E-01    rms(broyden)= 0.86075E-01
  rms(prec ) = 0.19407E+00
  weight for this iteration     100.00

 eigenvalues of (default mixing * dielectric matrix)
  average eigenvalue GAMMA=   1.3307
  2.2952  0.8484  0.8484

 Free energy of the ion-electron system (eV)
  ---------------------------------------------------
  alpha Z        PSCENC =       185.39985751
  Ewald energy   TEWEN  =     -1934.07799583
  -Hartree energ DENC   =      -436.90228249
  -exchange      EXHF   =         0.00000000
  -V(xc)+E(xc)   XCENC  =        85.89447939
  PAW double counting   =      1547.08589226    -1504.79959343
  entropy T*S    EENTRO =         0.00000000
  eigenvalues    EBANDS =      -216.62802722
  atomic energy  EATOM  =      2234.31706254
  Solvation  Ediel_sol  =         0.00000000
  ---------------------------------------------------
  free energy    TOTEN  =       -39.71060728 eV

  energy without entropy =      -39.71060728  energy(sigma->0) =      -39.71060728


--------------------------------------------------------------------------------------------------------




--------------------------------------- Iteration      1(   9)  ---------------------------------------


    POTLOK:  cpu time    0.0140: real time    0.0155
    SETDIJ:  cpu time    0.0050: real time    0.0041
    EDDIAG:  cpu time    0.0500: real time    0.0500
  RMM-DIIS:  cpu time    0.2050: real time    0.2056
    ORTHCH:  cpu time    0.0060: real time    0.0053
 BZINTS: Fermi energy:  2.482238; 32.000000 electrons
         Band energy:-214.705283;  BLOECHL correction:  0.000000
       DOS:  cpu time    0.0010: real time    0.0009
    CHARGE:  cpu time    0.0170: real time    0.0175
    MIXING:  cpu time    0.0010: real time    0.0006
    --------------------------------------------
      LOOP:  cpu time    0.2990: real time    0.2996

 eigenvalue-minimisations  :  1078
 total energy-change (2. order) : 0.1492149E-01  (-0.5951249E-02)
 number of electron      31.9999920 magnetization 
 augmentation part        3.4487826 magnetization 

 Broyden mixing:
  rms(total) = 0.57710E-01    rms(broyden)= 0.57709E-01
  rms(prec ) = 0.12793E+00
  weight for this iteration     100.00

 eigenvalues of (default mixing * dielectric matrix)
  average eigenvalue GAMMA=   1.5435
  0.9115  0.9115  2.1756  2.1756

 Free energy of the ion-electron system (eV)
  ---------------------------------------------------
  alpha Z        PSCENC =       185.39985751
  Ewald energy   TEWEN  =     -1934.07799583
  -Hartree energ DENC   =      -438.80490493
  -exchange      EXHF   =         0.00000000
  -V(xc)+E(xc)   XCENC  =        86.03180953
  PAW double counting   =      1554.69813071    -1512.55436251
  entropy T*S    EENTRO =         0.00000000
  eigenvalues    EBANDS =      -214.70528281
  atomic energy  EATOM  =      2234.31706254
  Solvation  Ediel_sol  =         0.00000000
  ---------------------------------------------------
  free energy    TOTEN  =       -39.69568578 eV

  energy without entropy =      -39.69568578  energy(sigma->0) =      -39.69568578


--------------------------------------------------------------------------------------------------------




--------------------------------------- Iteration      1(  10)  ---------------------------------------


    POTLOK:  cpu time    0.0150: real time    0.0216
    SETDIJ:  cpu time    0.0050: real time    0.0043
    EDDIAG:  cpu time    0.0490: real time    0.0491
  RMM-DIIS:  cpu time    0.1830: real time    0.1830
    ORTHCH:  cpu time    0.0050: real time    0.0053
 BZINTS: Fermi energy:  2.634811; 32.000000 electrons
         Band energy:-211.318627;  BLOECHL correction:  0.000000
       DOS:  cpu time    0.0010: real time    0.0009
    CHARGE:  cpu time    0.0180: real time    0.0175
    MIXING:  cpu time    0.0000: real time    0.0007
    --------------------------------------------
      LOOP:  cpu time    0.2760: real time    0.2824

 eigenvalue-minimisations  :   963
 total energy-change (2. order) : 0.2435653E-02  (-0.1396614E-01)
 number of electron      31.9999921 magnetization 
 augmentation part        3.4140534 magnetization 

 Broyden mixing:
  rms(total) = 0.35359E-01    rms(broyden)= 0.35342E-01
  rms(prec ) = 0.71803E-01
  weight for this iteration     100.00

 eigenvalues of (default mixing * dielectric matrix)
  average eigenvalue GAMMA=   1.4111
  2.4882  0.9235  1.0184  1.3128  1.3128

 Free energy of the ion-electron system (eV)
  ---------------------------------------------------
  alpha Z        PSCENC =       185.39985751
  Ewald energy   TEWEN  =     -1934.07799583
  -Hartree energ DENC   =      -442.46619313
  -exchange      EXHF   =         0.00000000
  -V(xc)+E(xc)   XCENC  =        86.25186649
  PAW double counting   =      1561.60570646    -1519.40492728
  entropy T*S    EENTRO =         0.00000000
  eigenvalues    EBANDS =      -211.31862688
  atomic energy  EATOM  =      2234.31706254
  Solvation  Ediel_sol  =         0.00000000
  ---------------------------------------------------
  free energy    TOTEN  =       -39.69325013 eV

  energy without entropy =      -39.69325013  energy(sigma->0) =      -39.69325013


--------------------------------------------------------------------------------------------------------




--------------------------------------- Iteration      1(  11)  ---------------------------------------


    POTLOK:  cpu time    0.0150: real time    0.0157
    SETDIJ:  cpu time    0.0050: real time    0.0042
    EDDIAG:  cpu time    0.0500: real time    0.0498
  RMM-DIIS:  cpu time    0.1950: real time    0.1954
    ORTHCH:  cpu time    0.0060: real time    0.0053
 BZINTS: Fermi energy:  2.615632; 32.000000 electrons
         Band energy:-212.401253;  BLOECHL correction:  0.000000
       DOS:  cpu time    0.0010: real time    0.0010
    CHARGE:  cpu time    0.0170: real time    0.0176
    MIXING:  cpu time    0.0010: real time    0.0007
    --------------------------------------------
      LOOP:  cpu time    0.2900: real time    0.2897

 eigenvalue-minimisations  :  1031
 total energy-change (2. order) : 0.2736727E-02  (-0.1480290E-02)
 number of electron      31.9999921 magnetization 
 augmentation part        3.4204988 magnetization 

 Broyden mixing:
  rms(total) = 0.97436E-02    rms(broyden)= 0.97435E-02
  rms(prec ) = 0.22024E-01
  weight for this iteration     100.00

 eigenvalues of (default mixing * dielectric matrix)
  average eigenvalue GAMMA=   1.5373
  2.1175  2.1175  2.1537  0.9086  0.9086  1.0177

 Free energy of the ion-electron system (eV)
  ---------------------------------------------------
  alpha Z        PSCENC =       185.39985751
  Ewald energy   TEWEN  =     -1934.07799583
  -Hartree energ DENC   =      -441.29196790
  -exchange      EXHF   =         0.00000000
  -V(xc)+E(xc)   XCENC  =        86.19219692
  PAW double counting   =      1562.00410459    -1519.83251863
  entropy T*S    EENTRO =         0.00000000
  eigenvalues    EBANDS =      -212.40125260
  atomic energy  EATOM  =      2234.31706254
  Solvation  Ediel_sol  =         0.00000000
  ---------------------------------------------------
  free energy    TOTEN  =       -39.69051340 eV

  energy without entropy =      -39.69051340  energy(sigma->0) =      -39.69051340


--------------------------------------------------------------------------------------------------------




--------------------------------------- Iteration      1(  12)  ---------------------------------------


    POTLOK:  cpu time    0.0150: real time    0.0153
    SETDIJ:  cpu time    0.0040: real time    0.0041
    EDDIAG:  cpu time    0.0500: real time    0.0496
  RMM-DIIS:  cpu time    0.1970: real time    0.1964
    ORTHCH:  cpu time    0.0050: real time    0.0053
 BZINTS: Fermi energy:  2.634426; 32.000000 electrons
         Band energy:-213.151597;  BLOECHL correction:  0.000000
       DOS:  cpu time    0.0010: real time    0.0010
    CHARGE:  cpu time    0.0170: real time    0.0175
    MIXING:  cpu time    0.0010: real time    0.0007
    --------------------------------------------
      LOOP:  cpu time    0.2900: real time    0.2901

 eigenvalue-minimisations  :  1037
 total energy-change (2. order) :-0.1102918E-02  (-0.1203216E-02)
 number of electron      31.9999921 magnetization 
 augmentation part        3.4187077 magnetization 

 Broyden mixing:
  rms(total) = 0.19920E-01    rms(broyden)= 0.19916E-01
  rms(prec ) = 0.45895E-01
  weight for this iteration     100.00

 eigenvalues of (default mixing * dielectric matrix)
  average eigenvalue GAMMA=   1.5519
  2.9262  1.8263  1.8263  1.2494  1.2494  0.8930  0.8930

 Free energy of the ion-electron system (eV)
  ---------------------------------------------------
  alpha Z        PSCENC =       185.39985751
  Ewald energy   TEWEN  =     -1934.07799583
  -Hartree energ DENC   =      -440.62700778
  -exchange      EXHF   =         0.00000000
  -V(xc)+E(xc)   XCENC  =        86.14287866
  PAW double counting   =      1560.09819187    -1517.79300634
  entropy T*S    EENTRO =         0.00000000
  eigenvalues    EBANDS =      -213.15159696
  atomic energy  EATOM  =      2234.31706254
  Solvation  Ediel_sol  =         0.00000000
  ---------------------------------------------------
  free energy    TOTEN  =       -39.69161632 eV

  energy without entropy =      -39.69161632  energy(sigma->0) =      -39.69161632


--------------------------------------------------------------------------------------------------------




--------------------------------------- Iteration      1(  13)  ---------------------------------------


    POTLOK:  cpu time    0.0150: real time    0.0155
    SETDIJ:  cpu time    0.0050: real time    0.0042
    EDDIAG:  cpu time    0.0500: real time    0.0501
  RMM-DIIS:  cpu time    0.1850: real time    0.1856
    ORTHCH:  cpu time    0.0060: real time    0.0054
 BZINTS: Fermi energy:  2.637369; 32.000000 electrons
         Band energy:-212.352598;  BLOECHL correction:  0.000000
       DOS:  cpu time    0.0010: real time    0.0010
    CHARGE:  cpu time    0.0170: real time    0.0173
    MIXING:  cpu time    0.0010: real time    0.0007
    --------------------------------------------
      LOOP:  cpu time    0.2800: real time    0.2798

 eigenvalue-minimisations  :   996
 total energy-change (2. order) : 0.5064993E-03  (-0.9014742E-03)
 number of electron      31.9999921 magnetization 
 augmentation part        3.4201298 magnetization 

 Broyden mixing:
  rms(total) = 0.88618E-02    rms(broyden)= 0.88569E-02
  rms(prec ) = 0.24247E-01
  weight for this iteration     100.00

 eigenvalues of (default mixing * dielectric matrix)
  average eigenvalue GAMMA=   1.5439
  2.4697  2.2251  2.2251  1.3055  1.3055  1.1997  0.8104  0.8104

 Free energy of the ion-electron system (eV)
  ---------------------------------------------------
  alpha Z        PSCENC =       185.39985751
  Ewald energy   TEWEN  =     -1934.07799583
  -Hartree energ DENC   =      -441.46158413
  -exchange      EXHF   =         0.00000000
  -V(xc)+E(xc)   XCENC  =        86.20766403
  PAW double counting   =      1562.57107042    -1520.29458627
  entropy T*S    EENTRO =         0.00000000
  eigenvalues    EBANDS =      -212.35259810
  atomic energy  EATOM  =      2234.31706254
  Solvation  Ediel_sol  =         0.00000000
  ---------------------------------------------------
  free energy    TOTEN  =       -39.69110982 eV

  energy without entropy =      -39.69110982  energy(sigma->0) =      -39.69110982


--------------------------------------------------------------------------------------------------------




--------------------------------------- Iteration      1(  14)  ---------------------------------------


    POTLOK:  cpu time    0.0160: real time    0.0218
    SETDIJ:  cpu time    0.0040: real time    0.0041
    EDDIAG:  cpu time    0.0500: real time    0.0504
  RMM-DIIS:  cpu time    0.1840: real time    0.1839
    ORTHCH:  cpu time    0.0050: real time    0.0053
 BZINTS: Fermi energy:  2.635530; 32.000000 electrons
         Band energy:-212.541151;  BLOECHL correction:  0.000000
       DOS:  cpu time    0.0010: real time    0.0010
    CHARGE:  cpu time    0.0180: real time    0.0175
    MIXING:  cpu time    0.0010: real time    0.0008
    --------------------------------------------
      LOOP:  cpu time    0.2790: real time    0.2847

 eigenvalue-minimisations  :   945
 total energy-change (2. order) : 0.1450443E-03  (-0.1969256E-03)
 number of electron      31.9999921 magnetization 
 augmentation part        3.4146668 magnetization 

 Broyden mixing:
  rms(total) = 0.31588E-02    rms(broyden)= 0.31583E-02
  rms(prec ) = 0.86032E-02
  weight for this iteration     100.00

 eigenvalues of (default mixing * dielectric matrix)
  average eigenvalue GAMMA=   1.5946
  2.9311  2.9311  2.6396  1.2310  1.2310  1.1519  0.8033  0.8033  0.6289

 Free energy of the ion-electron system (eV)
  ---------------------------------------------------
  alpha Z        PSCENC =       185.39985751
  Ewald energy   TEWEN  =     -1934.07799583
  -Hartree energ DENC   =      -441.26921074
  -exchange      EXHF   =         0.00000000
  -V(xc)+E(xc)   XCENC  =        86.18768211
  PAW double counting   =      1562.03894958    -1519.74615934
  entropy T*S    EENTRO =         0.00000000
  eigenvalues    EBANDS =      -212.54115061
  atomic energy  EATOM  =      2234.31706254
  Solvation  Ediel_sol  =         0.00000000
  ---------------------------------------------------
  free energy    TOTEN  =       -39.69096478 eV

  energy without entropy =      -39.69096478  energy(sigma->0) =      -39.69096478


--------------------------------------------------------------------------------------------------------




--------------------------------------- Iteration      1(  15)  ---------------------------------------


    POTLOK:  cpu time    0.0140: real time    0.0153
    SETDIJ:  cpu time    0.0050: real time    0.0041
    EDDIAG:  cpu time    0.0500: real time    0.0501
  RMM-DIIS:  cpu time    0.1760: real time    0.1762
    ORTHCH:  cpu time    0.0050: real time    0.0054
 BZINTS: Fermi energy:  2.636770; 32.000000 electrons
         Band energy:-212.513486;  BLOECHL correction:  0.000000
       DOS:  cpu time    0.0010: real time    0.0010
    CHARGE:  cpu time    0.0180: real time    0.0174
    MIXING:  cpu time    0.0000: real time    0.0008
    --------------------------------------------
      LOOP:  cpu time    0.2690: real time    0.2703

 eigenvalue-minimisations  :   883
 total energy-change (2. order) :-0.3204854E-04  (-0.5953817E-04)
 number of electron      31.9999921 magnetization 
 augmentation part        3.4139748 magnetization 

 Broyden mixing:
  rms(total) = 0.21504E-02    rms(broyden)= 0.21502E-02
  rms(prec ) = 0.56157E-02
  weight for this iteration     100.00

 eigenvalues of (default mixing * dielectric matrix)
  average eigenvalue GAMMA=   1.5581
  3.1061  3.1061  2.4422  1.2395  1.2395  1.0328  0.7920  0.7920  0.9153  0.9153

 Free energy of the ion-electron system (eV)
  ---------------------------------------------------
  alpha Z        PSCENC =       185.39985751
  Ewald energy   TEWEN  =     -1934.07799583
  -Hartree energ DENC   =      -441.31390623
  -exchange      EXHF   =         0.00000000
  -V(xc)+E(xc)   XCENC  =        86.19127990
  PAW double counting   =      1562.11005504    -1519.80386405
  entropy T*S    EENTRO =         0.00000000
  eigenvalues    EBANDS =      -212.51348571
  atomic energy  EATOM  =      2234.31706254
  Solvation  Ediel_sol  =         0.00000000
  ---------------------------------------------------
  free energy    TOTEN  =       -39.69099683 eV

  energy without entropy =      -39.69099683  energy(sigma->0) =      -39.69099683


--------------------------------------------------------------------------------------------------------




--------------------------------------- Iteration      1(  16)  ---------------------------------------


    POTLOK:  cpu time    0.0150: real time    0.0155
    SETDIJ:  cpu time    0.0050: real time    0.0042
    EDDIAG:  cpu time    0.0500: real time    0.0498
  RMM-DIIS:  cpu time    0.1690: real time    0.1689
    ORTHCH:  cpu time    0.0050: real time    0.0053
 BZINTS: Fermi energy:  2.638416; 32.000000 electrons
         Band energy:-212.547493;  BLOECHL correction:  0.000000
       DOS:  cpu time    0.0010: real time    0.0010
    CHARGE:  cpu time    0.0170: real time    0.0176
    MIXING:  cpu time    0.0010: real time    0.0009
    --------------------------------------------
      LOOP:  cpu time    0.2630: real time    0.2632

 eigenvalue-minimisations  :   852
 total energy-change (2. order) : 0.4141735E-05  (-0.1149798E-04)
 number of electron      31.9999921 magnetization 
 augmentation part        3.4147724 magnetization 

 Broyden mixing:
  rms(total) = 0.68973E-03    rms(broyden)= 0.68972E-03
  rms(prec ) = 0.14794E-02
  weight for this iteration     100.00

 eigenvalues of (default mixing * dielectric matrix)
  average eigenvalue GAMMA=   1.5198
  2.8342  2.8342  2.6539  1.2004  1.2004  1.2484  1.2484  0.9789  0.9789  0.7701
  0.7701

 Free energy of the ion-electron system (eV)
  ---------------------------------------------------
  alpha Z        PSCENC =       185.39985751
  Ewald energy   TEWEN  =     -1934.07799583
  -Hartree energ DENC   =      -441.30364292
  -exchange      EXHF   =         0.00000000
  -V(xc)+E(xc)   XCENC  =        86.19109963
  PAW double counting   =      1562.01505288    -1519.68493349
  entropy T*S    EENTRO =         0.00000000
  eigenvalues    EBANDS =      -212.54749302
  atomic energy  EATOM  =      2234.31706254
  Solvation  Ediel_sol  =         0.00000000
  ---------------------------------------------------
  free energy    TOTEN  =       -39.69099268 eV

  energy without entropy =      -39.69099268  energy(sigma->0) =      -39.69099268


--------------------------------------------------------------------------------------------------------




--------------------------------------- Iteration      1(  17)  ---------------------------------------


    POTLOK:  cpu time    0.0150: real time    0.0154
    SETDIJ:  cpu time    0.0050: real time    0.0041
    EDDIAG:  cpu time    0.0490: real time    0.0496
  RMM-DIIS:  cpu time    0.1540: real time    0.1534
    ORTHCH:  cpu time    0.0050: real time    0.0053
 BZINTS: Fermi energy:  2.638594; 32.000000 electrons
         Band energy:-212.497792;  BLOECHL correction:  0.000000
       DOS:  cpu time    0.0010: real time    0.0010
    --------------------------------------------
      LOOP:  cpu time    0.2290: real time    0.2288

 eigenvalue-minimisations  :   751
 total energy-change (2. order) :-0.6387419E-05  (-0.6922946E-05)
 number of electron      31.9999921 magnetization 
 augmentation part        3.4147724 magnetization 

 Free energy of the ion-electron system (eV)
  ---------------------------------------------------
  alpha Z        PSCENC =       185.39985751
  Ewald energy   TEWEN  =     -1934.07799583
  -Hartree energ DENC   =      -441.35998621
  -exchange      EXHF   =         0.00000000
  -V(xc)+E(xc)   XCENC  =        86.19516399
  PAW double counting   =      1562.15671790    -1519.82402651
  entropy T*S    EENTRO =         0.00000000
  eigenvalues    EBANDS =      -212.49779247
  atomic energy  EATOM  =      2234.31706254
  Solvation  Ediel_sol  =         0.00000000
  ---------------------------------------------------
  free energy    TOTEN  =       -39.69099907 eV

  energy without entropy =      -39.69099907  energy(sigma->0) =      -39.69099907


--------------------------------------------------------------------------------------------------------




 average (electrostatic) potential at core
  the test charge radii are     1.1929  1.2598  0.7215
  (the norm of the test charge is              1.0000)
       1 -36.1346       2 -26.7944       3 -71.0538       4 -71.0538       5 -71.0538
 
 
 
 E-fermi :   2.6386     XC(G=0): -11.1506     alpha+bet :-12.6354


 k-point     1 :       0.0000    0.0000    0.0000
  band No.  band energies     occupation 
      1     -30.0813      2.00000
      2     -14.8166      2.00000
      3     -13.8107      2.00000
      4     -13.8107      2.00000
      5     -12.1453      2.00000
      6     -12.1453      2.00000
      7     -12.1453      2.00000
      8      -0.2099      2.00000
      9      -0.2099      2.00000
     10      -0.2099      2.00000
     11       1.4784      2.00000
     12       1.4784      2.00000
     13       1.4784      2.00000
     14       2.3189      2.00000
     15       2.3189      2.00000
     16       2.3189      2.00000
     17       4.3445      0.00000
     18       4.3445      0.00000
     19       4.3445      0.00000
     20       8.0312      0.00000

 k-point     2 :       0.1429    0.0000    0.0000
  band No.  band energies     occupation 
      1     -30.0769      2.00000
      2     -14.8295      2.00000
      3     -13.8325      2.00000
      4     -13.8025      2.00000
      5     -12.1362      2.00000
      6     -12.1362      2.00000
      7     -12.0104      2.00000
      8      -0.4743      2.00000
      9      -0.2232      2.00000
     10      -0.2232      2.00000
     11       1.2093      2.00000
     12       1.2093      2.00000
     13       1.3017      2.00000
     14       1.7162      2.00000
     15       2.1925      2.00000
     16       2.1925      2.00000
     17       4.3734      0.00000
     18       4.7944      0.00000
     19       4.7944      0.00000
     20       8.3639      0.00000

 k-point     3 :       0.2857    0.0000    0.0000
  band No.  band energies     occupation 
      1     -30.0669      2.00000
      2     -14.9152      2.00000
      3     -13.7857      2.00000
      4     -13.7667      2.00000
      5     -12.1157      2.00000
      6     -12.1157      2.00000
      7     -11.7557      2.00000
      8      -1.0983      2.00000
      9      -0.2427      2.00000
     10      -0.2427      2.00000
     11       0.6907      2.00000
     12       0.6907      2.00000
     13       0.7736      2.00000
     14       0.9482      2.00000
     15       2.0336      2.00000
     16       2.0336      2.00000
     17       4.4402      0.00000
     18       5.6048      0.00000
     19       5.6048      0.00000
     20       9.1805      0.00000

 k-point     4 :       0.4286    0.0000    0.0000
  band No.  band energies     occupation 
      1     -30.0589      2.00000
      2     -15.0162      2.00000
      3     -13.7721      2.00000
      4     -13.6369      2.00000
      5     -12.0990      2.00000
      6     -12.0990      2.00000
      7     -11.5842      2.00000
      8      -1.6293      2.00000
      9      -0.2315      2.00000
     10      -0.2315      2.00000
     11       0.2384      2.00000
     12       0.3175      2.00000
     13       0.3175      2.00000
     14       0.6973      2.00000
     15       1.9440      2.00000
     16       1.9440      2.00000
     17       4.4957      0.00000
     18       6.1707      0.00000
     19       6.1707      0.00000
     20       9.8305      0.00000

 k-point     5 :       0.1429    0.1429    0.0000
  band No.  band energies     occupation 
      1     -30.0726      2.00000
      2     -14.8160      2.00000
      3     -13.8668      2.00000
      4     -13.7967      2.00000
      5     -12.1268      2.00000
      6     -12.0626      2.00000
      7     -11.9652      2.00000
      8      -0.6363      2.00000
      9      -0.3416      2.00000
     10      -0.2351      2.00000
     11       0.6730      2.00000
     12       1.0058      2.00000
     13       1.4824      2.00000
     14       1.5372      2.00000
     15       1.8773      2.00000
     16       2.0115      2.00000
     17       4.7606      0.00000
     18       4.8648      0.00000
     19       5.0450      0.00000
     20       8.6963      0.00000

 k-point     6 :       0.2857    0.1429    0.0000
  band No.  band energies     occupation 
      1     -30.0629      2.00000
      2     -14.8456      2.00000
      3     -13.8582      2.00000
      4     -13.7579      2.00000
      5     -12.1057      2.00000
      6     -12.0298      2.00000
      7     -11.7716      2.00000
      8      -1.1527      2.00000
      9      -0.5086      2.00000
     10      -0.2513      2.00000
     11       0.0022      2.00000
     12       0.5640      2.00000
     13       0.9011      2.00000
     14       1.4606      2.00000
     15       1.6963      2.00000
     16       1.7877      2.00000
     17       4.8531      0.00000
     18       5.6153      0.00000
     19       5.6705      0.00000
     20       9.4113      0.00000

 k-point     7 :       0.4286    0.1429    0.0000
  band No.  band energies     occupation 
      1     -30.0552      2.00000
      2     -14.9163      2.00000
      3     -13.7732      2.00000
      4     -13.7198      2.00000
      5     -12.0885      2.00000
      6     -12.0187      2.00000
      7     -11.6278      2.00000
      8      -1.6436      2.00000
      9      -0.6951      2.00000
     10      -0.3550      2.00000
     11      -0.2346      2.00000
     12       0.2168      2.00000
     13       0.5989      2.00000
     14       1.3975      2.00000
     15       1.5450      2.00000
     16       1.6740      2.00000
     17       4.8955      0.00000
     18       6.1715      0.00000
     19       6.1920      0.00000
     20      10.0159      0.00000

 k-point     8 :       0.2857    0.2857    0.0000
  band No.  band energies     occupation 
      1     -30.0539      2.00000
      2     -14.7097      2.00000
      3     -13.9761      2.00000
      4     -13.7265      2.00000
      5     -12.0830      2.00000
      6     -11.8904      2.00000
      7     -11.7783      2.00000
      8      -1.3869      2.00000
      9      -0.9209      2.00000
     10      -0.7760      2.00000
     11      -0.2641      2.00000
     12       0.2669      2.00000
     13       0.8681      2.00000
     14       1.2170      2.00000
     15       1.4287      2.00000
     16       2.0088      2.00000
     17       5.5660      0.00000
     18       5.6904      0.00000
     19       5.9825      0.00000
     20       9.8866      0.00000

 k-point     9 :       0.4286    0.2857    0.0000
  band No.  band energies     occupation 
      1     -30.0467      2.00000
      2     -14.6536      2.00000
      3     -13.9366      2.00000
      4     -13.7598      2.00000
      5     -12.0647      2.00000
      6     -11.8638      2.00000
      7     -11.7091      2.00000
      8      -1.6987      2.00000
      9      -1.4418      2.00000
     10      -0.9922      2.00000
     11      -0.2439      2.00000
     12      -0.0022      2.00000
     13       0.8318      2.00000
     14       1.1434      2.00000
     15       1.2373      2.00000
     16       2.1304      2.00000
     17       5.6429      0.00000
     18       6.1752      0.00000
     19       6.3565      0.00000
     20      10.4423      0.00000

 k-point    10 :       0.4286    0.4286    0.0000
  band No.  band energies     occupation 
      1     -30.0399      2.00000
      2     -14.3534      2.00000
      3     -14.0508      2.00000
      4     -13.8901      2.00000
      5     -12.0454      2.00000
      6     -11.7602      2.00000
      7     -11.7454      2.00000
      8      -1.9178      2.00000
      9      -1.7889      2.00000
     10      -1.4942      2.00000
     11      -0.2464      2.00000
     12      -0.1800      2.00000
     13       0.9764      2.00000
     14       1.0097      2.00000
     15       1.0888      2.00000
     16       2.4548      2.00000
     17       6.1667      0.00000
     18       6.1884      0.00000
     19       6.6048      0.00000
     20      10.7378      0.00000

 k-point    11 :       0.1429    0.1429    0.1429
  band No.  band energies     occupation 
      1     -30.0684      2.00000
      2     -14.7861      2.00000
      3     -13.8438      2.00000
      4     -13.8438      2.00000
      5     -12.0787      2.00000
      6     -12.0787      2.00000
      7     -11.9024      2.00000
      8      -0.8034      2.00000
      9      -0.3473      2.00000
     10      -0.3473      2.00000
     11       0.5680      2.00000
     12       0.5680      2.00000
     13       1.1651      2.00000
     14       1.6754      2.00000
     15       1.8219      2.00000
     16       1.8219      2.00000
     17       5.0104      0.00000
     18       5.1028      0.00000
     19       5.1028      0.00000
     20       8.9680      0.00000

 k-point    12 :       0.2857    0.1429    0.1429
  band No.  band energies     occupation 
      1     -30.0590      2.00000
      2     -14.7741      2.00000
      3     -13.8554      2.00000
      4     -13.7898      2.00000
      5     -12.1174      2.00000
      6     -11.9930      2.00000
      7     -11.7687      2.00000
      8      -1.2200      2.00000
      9      -0.6234      2.00000
     10      -0.3619      2.00000
     11      -0.0126      2.00000
     12       0.0438      2.00000
     13       0.8883      2.00000
     14       1.5645      2.00000
     15       1.6552      2.00000
     16       1.6917      2.00000
     17       5.1254      0.00000
     18       5.6941      0.00000
     19       5.7014      0.00000
     20       9.6041      0.00000

 k-point    13 :       0.4286    0.1429    0.1429
  band No.  band energies     occupation 
      1     -30.0515      2.00000
      2     -14.8169      2.00000
      3     -13.7802      2.00000
      4     -13.7440      2.00000
      5     -12.1511      2.00000
      6     -11.9296      2.00000
      7     -11.6770      2.00000
      8      -1.6554      2.00000
      9      -0.8493      2.00000
     10      -0.4486      2.00000
     11      -0.3900      2.00000
     12      -0.2313      2.00000
     13       0.9754      2.00000
     14       1.3088      2.00000
     15       1.5171      2.00000
     16       1.6044      2.00000
     17       5.1744      0.00000
     18       6.2018      0.00000
     19       6.2179      0.00000
     20      10.1885      0.00000

 k-point    14 :       0.2857    0.2857    0.1429
  band No.  band energies     occupation 
      1     -30.0502      2.00000
      2     -14.6291      2.00000
      3     -13.9260      2.00000
      4     -13.7470      2.00000
      5     -12.1222      2.00000
      6     -11.9554      2.00000
      7     -11.7505      2.00000
      8      -1.4292      2.00000
      9      -0.9161      2.00000
     10      -0.7161      2.00000
     11      -0.4842      2.00000
     12      -0.1013      2.00000
     13       0.4473      2.00000
     14       1.4993      2.00000
     15       1.5597      2.00000
     16       2.0182      2.00000
     17       5.6998      0.00000
     18       5.7956      0.00000
     19       6.0207      0.00000
     20      10.0888      0.00000

 k-point    15 :       0.4286    0.2857    0.1429
  band No.  band energies     occupation 
      1     -30.0431      2.00000
      2     -14.5566      2.00000
      3     -13.9012      2.00000
      4     -13.7306      2.00000
      5     -12.1590      2.00000
      6     -11.8723      2.00000
      7     -11.7641      2.00000
      8      -1.6961      2.00000
      9      -1.3744      2.00000
     10      -0.9825      2.00000
     11      -0.5051      2.00000
     12      -0.3593      2.00000
     13       0.4705      2.00000
     14       1.3938      2.00000
     15       1.4921      2.00000
     16       2.1400      2.00000
     17       5.7864      0.00000
     18       6.2473      0.00000
     19       6.3918      0.00000
     20      10.6371      0.00000

 k-point    16 :       0.4286    0.4286    0.1429
  band No.  band energies     occupation 
      1     -30.0364      2.00000
      2     -14.2594      2.00000
      3     -13.9842      2.00000
      4     -13.8284      2.00000
      5     -12.1285      2.00000
      6     -11.8594      2.00000
      7     -11.8170      2.00000
      8      -1.8218      2.00000
      9      -1.7256      2.00000
     10      -1.4904      2.00000
     11      -0.5203      2.00000
     12      -0.4623      2.00000
     13       0.3347      2.00000
     14       1.4331      2.00000
     15       1.4770      2.00000
     16       2.4693      2.00000
     17       6.2641      0.00000
     18       6.2842      0.00000
     19       6.6436      0.00000
     20      10.4597      0.00000

 k-point    17 :       0.2857    0.2857    0.2857
  band No.  band energies     occupation 
      1     -30.0418      2.00000
      2     -14.4463      2.00000
      3     -13.7995      2.00000
      4     -13.7995      2.00000
      5     -12.1156      2.00000
      6     -12.1156      2.00000
      7     -11.7670      2.00000
      8      -1.5195      2.00000
      9      -0.9046      2.00000
     10      -0.9046      2.00000
     11      -0.5657      2.00000
     12      -0.5657      2.00000
     13      -0.5418      2.00000
     14       1.8066      2.00000
     15       1.8066      2.00000
     16       2.1474      2.00000
     17       6.0717      0.00000
     18       6.1201      0.00000
     19       6.1201      0.00000
     20      10.4025      0.00000

 k-point    18 :       0.4286    0.2857    0.2857
  band No.  band energies     occupation 
      1     -30.0350      2.00000
      2     -14.3063      2.00000
      3     -13.8358      2.00000
      4     -13.6780      2.00000
      5     -12.2644      2.00000
      6     -12.0098      2.00000
      7     -11.8677      2.00000
      8      -1.6972      2.00000
      9      -1.3075      2.00000
     10      -0.9985      2.00000
     11      -0.8936      2.00000
     12      -0.8217      2.00000
     13      -0.4329      2.00000
     14       1.8371      2.00000
     15       1.9709      2.00000
     16       2.2501      2.00000
     17       6.1687      0.00000
     18       6.4587      0.00000
     19       6.4832      0.00000
     20      10.5995      0.00000

 k-point    19 :       0.4286    0.4286    0.2857
  band No.  band energies     occupation 
      1     -30.0285      2.00000
      2     -14.0235      2.00000
      3     -13.8084      2.00000
      4     -13.6902      2.00000
      5     -12.2853      2.00000
      6     -12.1073      2.00000
      7     -12.0132      2.00000
      8      -1.7892      2.00000
      9      -1.4815      2.00000
     10      -1.4117      2.00000
     11      -0.9384      2.00000
     12      -0.8484      2.00000
     13      -0.7430      2.00000
     14       2.0604      2.00000
     15       2.0966      2.00000
     16       2.5060      2.00000
     17       6.5281      0.00000
     18       6.5401      0.00000
     19       6.7329      0.00000
     20      10.0651      0.00000

 k-point    20 :       0.4286    0.4286    0.4286
  band No.  band energies     occupation 
      1     -30.0222      2.00000
      2     -13.7665      2.00000
      3     -13.6221      2.00000
      4     -13.6221      2.00000
      5     -12.3507      2.00000
      6     -12.3507      2.00000
      7     -12.2373      2.00000
      8      -1.8775      2.00000
      9      -1.4736      2.00000
     10      -1.4736      2.00000
     11      -1.1730      2.00000
     12      -1.0653      2.00000
     13      -1.0653      2.00000
     14       2.4732      2.00000
     15       2.4732      2.00000
     16       2.5609      2.00000
     17       6.7987      0.00000
     18       6.8102      0.00000
     19       9.7837      0.00000
     20       9.8272      0.00000


--------------------------------------------------------------------------------------------------------


 soft charge-density along one line, spin component           1
         0         1         2         3         4         5         6         7         8         9
 total charge-density along one line
 
 pseudopotential strength for first ion, spin component:           1
-11.346  -7.402   0.000   0.000  -0.000  -0.000  -0.000   0.000
 -7.402  -5.734   0.000   0.000  -0.000  -0.000  -0.000   0.000
  0.000   0.000 -14.872  -0.000  -0.000   0.103   0.000   0.000
  0.000   0.000  -0.000 -14.872  -0.000   0.000   0.103   0.000
 -0.000  -0.000  -0.000  -0.000 -14.872   0.000   0.000   0.103
 -0.000  -0.000   0.103   0.000   0.000   0.037   0.000   0.000
 -0.000  -0.000   0.000   0.103   0.000   0.000   0.037   0.000
  0.000   0.000   0.000   0.000   0.103   0.000   0.000   0.037
 -0.000  -0.000  -0.000   0.000   0.000   0.000  -0.000  -0.000
 -0.000  -0.000   0.000   0.000   0.000  -0.000  -0.000  -0.000
  0.000   0.000  -0.000   0.000   0.000   0.000  -0.000  -0.000
 -0.000  -0.000   0.000  -0.000   0.000  -0.000   0.000  -0.000
  0.000   0.000  -0.000   0.000  -0.000   0.000  -0.000   0.000
 -0.000  -0.000  -0.000   0.000   0.000   0.000   0.000   0.000
 -0.000  -0.000   0.000   0.000   0.000   0.000   0.000   0.000
  0.000   0.000  -0.000   0.000   0.000  -0.000  -0.000   0.000
 -0.000  -0.000   0.000  -0.000   0.000   0.000   0.000   0.000
  0.000   0.000  -0.000   0.000  -0.000   0.000   0.000  -0.000
 total augmentation occupancy for first ion, spin component:           1
  2.105  -0.226   0.000   0.000   0.000   0.000   0.000   0.000   0.000   0.000   0.000   0.000   0.000   0.000   0.000   0.000
 -0.226   0.472   0.000   0.000   0.000   0.000   0.000   0.000  -0.000  -0.000   0.000   0.000   0.000   0.000   0.000   0.000
  0.000   0.000   2.025   0.000   0.000   0.071   0.000   0.000   0.000   0.000   0.000   0.000   0.000   0.000   0.000   0.000
  0.000   0.000   0.000   2.025  -0.000  -0.000   0.071   0.000   0.000   0.000   0.000   0.000   0.000   0.000   0.000   0.000
  0.000   0.000   0.000  -0.000   2.025   0.000   0.000   0.071   0.000   0.000   0.000   0.000   0.000   0.000   0.000   0.000
  0.000   0.000   0.071  -0.000  -0.000   0.297   0.000  -0.000   0.000   0.000   0.000   0.000   0.000   0.000   0.000   0.000
  0.000   0.000   0.000   0.071   0.000   0.000   0.297   0.000   0.000   0.000   0.000   0.000   0.000   0.000   0.000   0.000
  0.000   0.000  -0.000  -0.000   0.071  -0.000   0.000   0.297   0.000   0.000   0.000   0.000   0.000   0.000   0.000   0.000
  0.000   0.000   0.000   0.000   0.000   0.000   0.000   0.000   0.094  -0.000  -0.000  -0.000   0.000  -0.425   0.000   0.000
  0.000  -0.000   0.000   0.000   0.000   0.000   0.000   0.000   0.000   0.094   0.000   0.000  -0.000  -0.000  -0.425   0.000
 -0.000  -0.000   0.000   0.000   0.000   0.000   0.000   0.000  -0.000  -0.000   0.063  -0.000   0.000   0.000   0.000  -0.276
  0.000   0.000   0.000   0.000   0.000   0.000   0.000   0.000   0.000  -0.000   0.000   0.094  -0.000  -0.000  -0.000   0.000
  0.000   0.000   0.000   0.000   0.000   0.000   0.000   0.000  -0.000  -0.000   0.000  -0.000   0.063   0.000  -0.000   0.000
 -0.000   0.000   0.000   0.000   0.000   0.000   0.000   0.000  -0.425  -0.000   0.000  -0.000  -0.000   2.038  -0.000   0.000
  0.000   0.000   0.000   0.000   0.000   0.000   0.000   0.000   0.000  -0.425   0.000  -0.000  -0.000   0.000   2.038  -0.000
  0.000   0.000   0.000   0.000   0.000   0.000   0.000   0.000  -0.000  -0.000  -0.276   0.000   0.000   0.000  -0.000   1.273
 -0.000  -0.000   0.000   0.000   0.000   0.000   0.000   0.000   0.000  -0.000   0.000  -0.425   0.000   0.000  -0.000   0.000
 -0.000  -0.000   0.000   0.000   0.000   0.000   0.000   0.000   0.000   0.000   0.000   0.000  -0.276   0.000   0.000   0.000


------------------------ aborting loop because EDIFF is reached ----------------------------------------


    CHARGE:  cpu time    0.0180: real time    0.0179
    FORLOC:  cpu time    0.0020: real time    0.0020
    FORNL :  cpu time    0.0520: real time    0.0513
    STRESS:  cpu time    0.1990: real time    0.1999
    FORCOR:  cpu time    0.0160: real time    0.0159
    FORHAR:  cpu time    0.0040: real time    0.0040
    MIXING:  cpu time    0.0010: real time    0.0009
    OFIELD:  cpu time    0.0000: real time    0.0000

  FORCE on cell =-STRESS in cart. coord.  units (eV):
  Direction    XX          YY          ZZ          XY          YZ          ZX
  --------------------------------------------------------------------------------------
  Alpha Z   185.39986   185.39986   185.39986
  Ewald    -644.69310  -644.69310  -644.69310     0.00000    -0.00000    -0.00000
  Hartree   147.09104   147.09104   147.09104    -0.00000    -0.00000    -0.00000
  E(xc)    -145.39228  -145.39228  -145.39228    -0.00000    -0.00000    -0.00000
  Local      -9.63307    -9.63307    -9.63307     0.00000    -0.00000     0.00000
  n-local  -123.37438  -119.19340  -114.76004    -0.47358    -0.40962    -0.30077
  augment    28.91731    28.91731    28.91731    -0.00000    -0.00000     0.00000
  Kinetic   550.16339   562.32904   566.73622    -2.56501    -2.75982    -1.78212
  Fock        0.00000     0.00000     0.00000     0.00000     0.00000     0.00000
  -------------------------------------------------------------------------------------
  Total       2.32337     2.32337     2.32337    -0.00000    -0.00000    -0.00000
  in kB      62.49961    62.49961    62.49961    -0.00000    -0.00000    -0.00000
  external pressure =       62.50 kB  Pullay stress =        0.00 kB


 VOLUME and BASIS-vectors are now :
 -----------------------------------------------------------------------------
  energy-cutoff  :      500.00
  volume of cell :       59.56
      direct lattice vectors                 reciprocal lattice vectors
     3.905268000  0.000000000  0.000000000     0.256064373  0.000000000  0.000000000
     0.000000000  3.905268000  0.000000000     0.000000000  0.256064373  0.000000000
     0.000000000  0.000000000  3.905268000     0.000000000  0.000000000  0.256064373

  length of vectors
     3.905268000  3.905268000  3.905268000     0.256064373  0.256064373  0.256064373


 FORCES acting on ions
    electron-ion (+dipol)            ewald-force                    non-local-force                 convergence-correction
 -----------------------------------------------------------------------------------------------
   -.468E-14 -.360E-14 -.502E-14   -.987E-14 0.226E-14 -.502E-14   0.000E+00 0.000E+00 0.000E+00   -.809E-14 0.141E-13 -.380E-14
   0.803E-14 -.458E-12 -.458E-13   0.387E-14 0.424E-14 -.122E-14   0.000E+00 0.000E+00 0.000E+00   0.305E-14 -.184E-15 0.797E-15
   0.153E-12 -.142E-11 -.153E-11   0.648E-14 0.208E-14 -.144E-14   0.000E+00 0.000E+00 0.000E+00   0.690E-14 0.153E-13 -.324E-15
   0.153E-12 -.494E-14 -.193E-11   0.284E-14 -.378E-14 0.434E-14   0.000E+00 0.000E+00 0.000E+00   0.116E-13 0.667E-14 0.249E-14
   -.713E-14 0.155E-12 0.152E-12   -.327E-14 -.425E-14 0.433E-14   0.000E+00 0.000E+00 0.000E+00   -.556E-14 0.145E-13 -.101E-13
 -----------------------------------------------------------------------------------------------
   0.302E-12 -.173E-11 -.336E-11   0.432E-16 0.547E-15 0.100E-14   0.000E+00 0.000E+00 0.000E+00   0.788E-14 0.504E-13 -.110E-13
 
 
 POSITION                                       TOTAL-FORCE (eV/Angst)
 -----------------------------------------------------------------------------------
      0.00000      0.00000      0.00000         0.000000      0.000000      0.000000
      1.95263      1.95263      1.95263         0.000000      0.000000      0.000000
      1.95263      1.95263      0.00000         0.000000      0.000000      0.000000
      1.95263      0.00000      1.95263         0.000000      0.000000      0.000000
      0.00000      1.95263      1.95263         0.000000      0.000000      0.000000
 -----------------------------------------------------------------------------------
    total drift:                                0.000000     -0.000000     -0.000000


--------------------------------------------------------------------------------------------------------



  FREE ENERGIE OF THE ION-ELECTRON SYSTEM (eV)
  ---------------------------------------------------
  free  energy   TOTEN  =       -39.69099907 eV

  energy  without entropy=      -39.69099907  energy(sigma->0) =      -39.69099907
 


--------------------------------------------------------------------------------------------------------


    POTLOK:  cpu time    0.0190: real time    0.0192


--------------------------------------------------------------------------------------------------------


     LOOP+:  cpu time    5.1712: real time    5.2827
    4ORBIT:  cpu time    0.0000: real time    0.0000
 BZINTS: Fermi energy:  2.638594; 32.000000 electrons
         Band energy:-212.497792;  BLOECHL correction:  0.000000

 total amount of memory used by VASP MPI-rank0    42494. kBytes
=======================================================================

   base      :      30000. kBytes
   nonl-proj :       6627. kBytes
   fftplans  :       1176. kBytes
   grid      :       2105. kBytes
   one-center:         46. kBytes
   wavefun   :       2540. kBytes
 
  
  
 General timing and accounting informations for this job:
 ========================================================
  
                  Total CPU time used (sec):        5.901
                            User time (sec):        5.780
                          System time (sec):        0.121
                         Elapsed time (sec):        6.468
  
                   Maximum memory used (kb):       42268.
                   Average memory used (kb):           0.
  
                          Minor page faults:        14066
                          Major page faults:          132
                 Voluntary context switches:         2969
