unknown system                          
   1.00000000000000     
     2.573869    0.000000    0.000000
     1.286934    2.229036    0.000000
     0.000000    0.000000   30.304665
   Cu   H 
     4     1
Direct
  0.000000  0.000000  0.396427
  0.333332  0.333332  0.465162
  0.666668  0.666665  0.533889
  0.000000  0.000000  0.606712
  0.666668  0.666665  0.631530
 
   20   20  240
 0.47682E-01 0.43864E-01 0.34391E-01 0.22933E-01 0.13052E-01 0.66122E-02 0.32060E-02 0.10494E-02 -.11798E-02 -.32594E-02
 -.41133E-02 -.32349E-02 -.11796E-02 0.11512E-02 0.35312E-02 0.69312E-02 0.13052E-01 0.22754E-01 0.34413E-01 0.44054E-01
 0.43864E-01 0.37322E-01 0.27410E-01 0.17104E-01 0.88652E-02 0.37231E-02 0.62797E-03 -.21655E-02 -.48439E-02 -.60755E-02
 -.51874E-02 -.30946E-02 -.95822E-03 0.10434E-02 0.36265E-02 0.80989E-02 0.15868E-01 0.26782E-01 0.37753E-01 0.44288E-01
 0.34391E-01 0.27410E-01 0.18732E-01 0.10214E-01 0.35882E-02 -.92880E-03 -.49188E-02 -.92704E-02 -.12536E-01 -.12978E-01
 -.10975E-01 -.80892E-02 -.49424E-02 -.12514E-02 0.32865E-02 0.93459E-02 0.17783E-01 0.27612E-01 0.35320E-01 0.37664E-01
 0.22933E-01 0.17104E-01 0.10214E-01 0.34961E-02 -.20488E-02 -.73452E-02 -.13917E-01 -.20751E-01 -.24735E-01 -.24326E-01
 -.20660E-01 -.15185E-01 -.85468E-02 -.17057E-02 0.43520E-02 0.10218E-01 0.17052E-01 0.23787E-01 0.27525E-01 0.26877E-01
 0.13052E-01 0.88652E-02 0.35882E-02 -.20488E-02 -.82704E-02 -.16764E-01 -.27436E-01 -.36480E-01 -.39753E-01 -.36610E-01
 -.28973E-01 -.18800E-01 -.82723E-02 -.10275E-03 0.48420E-02 0.86379E-02 0.13048E-01 0.16795E-01 0.17783E-01 0.16116E-01
 0.66122E-02 0.37231E-02 -.92880E-03 -.73452E-02 -.16764E-01 -.29990E-01 -.43783E-01 -.52117E-01 -.51635E-01 -.43621E-01
 -.31139E-01 -.17309E-01 -.58533E-02 0.54364E-03 0.31065E-02 0.53318E-02 0.82478E-02 0.99509E-02 0.95311E-02 0.82265E-02
 0.32060E-02 0.62797E-03 -.49188E-02 -.13917E-01 -.27436E-01 -.43783E-01 -.56844E-01 -.60794E-01 -.55024E-01 -.42799E-01
 -.27717E-01 -.13502E-01 -.40246E-02 -.22738E-03 0.10580E-02 0.28042E-02 0.43577E-02 0.42248E-02 0.34313E-02 0.34540E-02
 0.10494E-02 -.21655E-02 -.92704E-02 -.20751E-01 -.36480E-01 -.52117E-01 -.60794E-01 -.59349E-01 -.50007E-01 -.36364E-01
 -.21424E-01 -.90039E-02 -.23638E-02 -.68638E-03 -.40382E-03 -.14158E-03 -.95964E-03 -.22476E-02 -.16867E-02 0.48580E-03
 -.11798E-02 -.48439E-02 -.12536E-01 -.24735E-01 -.39753E-01 -.51635E-01 -.55024E-01 -.50007E-01 -.39755E-01 -.26582E-01
 -.13150E-01 -.38672E-02 -.11752E-02 -.27621E-02 -.52767E-02 -.80382E-02 -.10624E-01 -.10485E-01 -.64987E-02 -.20156E-02
 -.32594E-02 -.60755E-02 -.12978E-01 -.24326E-01 -.36610E-01 -.43621E-01 -.42799E-01 -.36364E-01 -.26582E-01 -.14788E-01
 -.47317E-02 -.12928E-02 -.48963E-02 -.11406E-01 -.17579E-01 -.22378E-01 -.23666E-01 -.19123E-01 -.10911E-01 -.46386E-02
 -.41133E-02 -.51874E-02 -.10975E-01 -.20660E-01 -.28973E-01 -.31139E-01 -.27717E-01 -.21424E-01 -.13150E-01 -.47317E-02
 -.13276E-02 -.63395E-02 -.16841E-01 -.27488E-01 -.35630E-01 -.39603E-01 -.36559E-01 -.26441E-01 -.14688E-01 -.69609E-02
 -.32349E-02 -.30946E-02 -.80892E-02 -.15185E-01 -.18800E-01 -.17309E-01 -.13502E-01 -.90039E-02 -.38672E-02 -.12928E-02
 -.63395E-02 -.19054E-01 -.33947E-01 -.46364E-01 -.54365E-01 -.55186E-01 -.46393E-01 -.31187E-01 -.16950E-01 -.78115E-02
 -.11796E-02 -.95822E-03 -.49424E-02 -.85468E-02 -.82723E-02 -.58533E-02 -.40246E-02 -.23638E-02 -.11752E-02 -.48963E-02
 -.16841E-01 -.33947E-01 -.50513E-01 -.63306E-01 -.69635E-01 -.65464E-01 -.50511E-01 -.31557E-01 -.16205E-01 -.64054E-02
 0.11512E-02 0.10434E-02 -.12514E-02 -.17057E-02 -.10275E-03 0.54364E-03 -.22738E-03 -.68638E-03 -.27621E-02 -.11406E-01
 -.27488E-01 -.46364E-01 -.63306E-01 -.75095E-01 -.77212E-01 -.66313E-01 -.46320E-01 -.26423E-01 -.12219E-01 -.33311E-02
 0.35312E-02 0.36265E-02 0.32865E-02 0.43520E-02 0.48420E-02 0.31065E-02 0.10580E-02 -.40382E-03 -.52767E-02 -.17579E-01
 -.35630E-01 -.54365E-01 -.69635E-01 -.77212E-01 -.72432E-01 -.55644E-01 -.34697E-01 -.17838E-01 -.68450E-02 0.15910E-03
 0.69312E-02 0.80989E-02 0.93459E-02 0.10218E-01 0.86379E-02 0.53318E-02 0.28042E-02 -.14158E-03 -.80382E-02 -.22378E-01
 -.39603E-01 -.55186E-01 -.65464E-01 -.66313E-01 -.55644E-01 -.37862E-01 -.21152E-01 -.96167E-02 -.17845E-02 0.38829E-02
 0.13052E-01 0.15868E-01 0.17783E-01 0.17052E-01 0.13048E-01 0.82478E-02 0.43577E-02 -.95964E-03 -.10624E-01 -.23666E-01
 -.36559E-01 -.46393E-01 -.50511E-01 -.46320E-01 -.34697E-01 -.21152E-01 -.10622E-01 -.31188E-02 0.34525E-02 0.91205E-02
 0.22754E-01 0.26782E-01 0.27612E-01 0.23787E-01 0.16795E-01 0.99509E-02 0.42248E-02 -.22476E-02 -.10485E-01 -.19123E-01
 -.26441E-01 -.31187E-01 -.31557E-01 -.26423E-01 -.17838E-01 -.96167E-02 -.31188E-02 0.31977E-02 0.10259E-01 0.17083E-01
 0.34413E-01 0.37753E-01 0.35320E-01 0.27525E-01 0.17783E-01 0.95311E-02 0.34313E-02 -.16867E-02 -.64987E-02 -.10911E-01
 -.14688E-01 -.16950E-01 -.16205E-01 -.12219E-01 -.68450E-02 -.17845E-02 0.34525E-02 0.10259E-01 0.18665E-01 0.27312E-01
 0.44054E-01 0.44288E-01 0.37664E-01 0.26877E-01 0.16116E-01 0.82265E-02 0.34540E-02 0.48580E-03 -.20156E-02 -.46386E-02
 -.69609E-02 -.78115E-02 -.64054E-02 -.33311E-02 0.15910E-03 0.38829E-02 0.91205E-02 0.17083E-01 0.27312E-01 0.37437E-01
 -.22422E-01 -.20636E-01 -.16535E-01 -.11151E-01 -.57308E-02 -.16960E-02 0.22785E-03 0.54447E-03 0.18859E-03 -.35532E-03
 -.79564E-03 -.64614E-03 0.18918E-03 0.89125E-03 0.38174E-03 -.18280E-02 -.57319E-02 -.11055E-01 -.16785E-01 -.21081E-01
 -.20636E-01 -.17739E-01 -.12720E-01 -.72638E-02 -.29768E-02 -.65686E-03 -.14607E-03 -.63332E-03 -.11440E-02 -.10594E-02
 -.39430E-03 0.39205E-03 0.80159E-03 0.44927E-03 -.10346E-02 -.39444E-02 -.81981E-02 -.13147E-01 -.17686E-01 -.20531E-01
 -.16535E-01 -.12720E-01 -.78442E-02 -.39449E-02 -.17292E-02 -.83642E-03 -.81889E-03 -.11366E-02 -.10304E-02 -.31731E-03
 0.24774E-03 0.71169E-04 -.48649E-03 -.10557E-02 -.22151E-02 -.47183E-02 -.83777E-02 -.12341E-01 -.15750E-01 -.17540E-01
 -.11151E-01 -.72638E-02 -.39449E-02 -.22099E-02 -.12898E-02 -.65795E-03 -.61855E-03 -.94207E-03 -.87765E-03 -.62988E-03
 -.10291E-02 -.17357E-02 -.16274E-02 -.10010E-02 -.15221E-02 -.38636E-02 -.70699E-02 -.10168E-01 -.12604E-01 -.13264E-01
 -.57308E-02 -.29768E-02 -.17292E-02 -.12898E-02 -.54239E-03 -.13716E-03 -.88754E-03 -.18826E-02 -.21041E-02 -.21396E-02
 -.24983E-02 -.21324E-02 -.54386E-03 0.49455E-03 -.70651E-03 -.33376E-02 -.57349E-02 -.75932E-02 -.88322E-02 -.83152E-02
 -.16960E-02 -.65686E-03 -.83642E-03 -.65795E-03 -.13716E-03 -.87071E-03 -.26660E-02 -.35119E-02 -.29841E-02 -.24749E-02
 -.21083E-02 -.76379E-03 0.85880E-03 0.62044E-03 -.14600E-02 -.31912E-02 -.38052E-02 -.43799E-02 -.48084E-02 -.37559E-02
 0.22785E-03 -.14607E-03 -.81889E-03 -.61855E-03 -.88754E-03 -.26660E-02 -.40911E-02 -.34258E-02 -.20295E-02 -.16221E-02
 -.13364E-02 -.18626E-03 0.37550E-03 -.79962E-03 -.19891E-02 -.15721E-02 -.88462E-03 -.14011E-02 -.18380E-02 -.83415E-03
 0.54447E-03 -.63332E-03 -.11366E-02 -.94207E-03 -.18826E-02 -.35119E-02 -.34258E-02 -.17827E-02 -.11610E-02 -.18837E-02
 -.18039E-02 -.69920E-03 -.48158E-03 -.10565E-02 -.41258E-03 0.11290E-02 0.11717E-02 -.20308E-03 -.51088E-03 0.48473E-03
 0.18859E-03 -.11440E-02 -.10304E-02 -.87765E-03 -.21041E-02 -.29841E-02 -.20295E-02 -.11610E-02 -.21058E-02 -.29692E-02
 -.17764E-02 -.96952E-04 0.19235E-03 0.36858E-03 0.17397E-02 0.25102E-02 0.12096E-02 -.10967E-03 0.47562E-03 0.12235E-02
 -.35532E-03 -.10594E-02 -.31731E-03 -.62988E-03 -.21396E-02 -.24749E-02 -.16221E-02 -.18837E-02 -.29692E-02 -.22177E-02
 0.21864E-03 0.14406E-02 0.10715E-02 0.14696E-02 0.27343E-02 0.25813E-02 0.11897E-02 0.10784E-02 0.20992E-02 0.16055E-02
 -.79564E-03 -.39430E-03 0.24774E-03 -.10291E-02 -.24983E-02 -.21083E-02 -.13364E-02 -.18039E-02 -.17764E-02 0.21864E-03
 0.19723E-02 0.15385E-02 0.95556E-03 0.23432E-02 0.39320E-02 0.36420E-02 0.29234E-02 0.33667E-02 0.32292E-02 0.10802E-02
 -.64614E-03 0.39205E-03 0.71169E-04 -.17357E-02 -.21324E-02 -.76379E-03 -.18626E-03 -.69920E-03 -.96952E-04 0.14406E-02
 0.15385E-02 0.71526E-03 0.19377E-02 0.49896E-02 0.65144E-02 0.57344E-02 0.49710E-02 0.45801E-02 0.27023E-02 0.20033E-04
 0.18918E-03 0.80159E-03 -.48649E-03 -.16274E-02 -.54386E-03 0.85880E-03 0.37550E-03 -.48158E-03 0.19235E-03 0.10715E-02
 0.95556E-03 0.19377E-02 0.53946E-02 0.84654E-02 0.83347E-02 0.65281E-02 0.53962E-02 0.40541E-02 0.14521E-02 -.34834E-03
 0.89125E-03 0.44927E-03 -.10557E-02 -.10010E-02 0.49455E-03 0.62044E-03 -.79962E-03 -.10565E-02 0.36858E-03 0.14696E-02
 0.23432E-02 0.49896E-02 0.84654E-02 0.93933E-02 0.74988E-02 0.57356E-02 0.49175E-02 0.32073E-02 0.83552E-03 0.15200E-03
 0.38174E-03 -.10346E-02 -.22151E-02 -.15221E-02 -.70651E-03 -.14600E-02 -.19891E-02 -.41258E-03 0.17397E-02 0.27343E-02
 0.39320E-02 0.65144E-02 0.83347E-02 0.74988E-02 0.58121E-02 0.53108E-02 0.46882E-02 0.24959E-02 0.48696E-03 0.33977E-03
 -.18280E-02 -.39444E-02 -.47183E-02 -.38636E-02 -.33376E-02 -.31912E-02 -.15721E-02 0.11290E-02 0.25102E-02 0.25813E-02
 0.36420E-02 0.57344E-02 0.65281E-02 0.57356E-02 0.53108E-02 0.52725E-02 0.37107E-02 0.97760E-03 -.50668E-03 -.69194E-03
 -.57319E-02 -.81981E-02 -.83777E-02 -.70699E-02 -.57349E-02 -.38052E-02 -.88462E-03 0.11717E-02 0.12096E-02 0.11897E-02
 0.29234E-02 0.49710E-02 0.53962E-02 0.49175E-02 0.46882E-02 0.37107E-02 0.12113E-02 -.11172E-02 -.20033E-02 -.30742E-02
 -.11055E-01 -.13147E-01 -.12341E-01 -.10168E-01 -.75932E-02 -.43799E-02 -.14011E-02 -.20308E-03 -.10967E-03 0.10784E-02
 0.33667E-02 0.45801E-02 0.40541E-02 0.32073E-02 0.24959E-02 0.97760E-03 -.11172E-02 -.25825E-02 -.39990E-02 -.70620E-02
 -.16785E-01 -.17686E-01 -.15750E-01 -.12604E-01 -.88322E-02 -.48084E-02 -.18380E-02 -.51088E-03 0.47562E-03 0.20992E-02
 0.32292E-02 0.27023E-02 0.14521E-02 0.83552E-03 0.48696E-03 -.50668E-03 -.20033E-02 -.39990E-02 -.75495E-02 -.12636E-01
 -.21081E-01 -.20531E-01 -.17540E-01 -.13264E-01 -.83152E-02 -.37559E-02 -.83415E-03 0.48473E-03 0.12235E-02 0.16055E-02
 0.10802E-02 0.20033E-04 -.34834E-03 0.15200E-03 0.33977E-03 -.69194E-03 -.30742E-02 -.70620E-02 -.12636E-01 -.18143E-01
 -.47356E-01 -.43314E-01 -.34429E-01 -.23338E-01 -.12732E-01 -.52073E-02 -.15232E-02 0.74378E-04 0.14549E-02 0.25256E-02
 0.25315E-02 0.19193E-02 0.14548E-02 0.66439E-03 -.15417E-02 -.57901E-02 -.12733E-01 -.22965E-01 -.34950E-01 -.44394E-01
 -.43314E-01 -.37073E-01 -.27059E-01 -.16292E-01 -.76607E-02 -.26231E-02 -.29456E-03 0.13905E-02 0.33994E-02 0.50497E-02
 0.54923E-02 0.47231E-02 0.30539E-02 0.48158E-03 -.32813E-02 -.88300E-02 -.16927E-01 -.27286E-01 -.37397E-01 -.43529E-01
 -.34429E-01 -.27059E-01 -.17703E-01 -.94387E-02 -.36367E-02 0.40165E-03 0.41875E-02 0.84581E-02 0.12461E-01 0.14521E-01
 0.13459E-01 0.96935E-02 0.48762E-02 0.28662E-03 -.43054E-02 -.10117E-01 -.17822E-01 -.26503E-01 -.33789E-01 -.36944E-01
 -.23338E-01 -.16292E-01 -.94387E-02 -.41065E-02 0.96614E-03 0.72701E-02 0.14660E-01 0.21668E-01 0.26242E-01 0.26330E-01
 0.21403E-01 0.13693E-01 0.65316E-02 0.12012E-02 -.35856E-02 -.92803E-02 -.15853E-01 -.22224E-01 -.26750E-01 -.27421E-01
 -.12732E-01 -.76607E-02 -.36367E-02 0.96614E-03 0.85641E-02 0.18799E-01 0.29093E-01 0.36926E-01 0.40021E-01 0.36542E-01
 0.27407E-01 0.16843E-01 0.85627E-02 0.25885E-02 -.28468E-02 -.81559E-02 -.12733E-01 -.16353E-01 -.18328E-01 -.17123E-01
 -.52073E-02 -.26231E-02 0.40165E-03 0.72701E-02 0.18799E-01 0.31923E-01 0.43231E-01 0.50454E-01 0.51028E-01 0.43451E-01
 0.30596E-01 0.18090E-01 0.88127E-02 0.18430E-02 -.36146E-02 -.69178E-02 -.84526E-02 -.96103E-02 -.10049E-01 -.83352E-02
 -.15232E-02 -.29456E-03 0.41875E-02 0.14660E-01 0.29093E-01 0.43231E-01 0.54347E-01 0.59943E-01 0.56652E-01 0.44334E-01
 0.28474E-01 0.15109E-01 0.56853E-02 -.74401E-03 -.38103E-02 -.35753E-02 -.26712E-02 -.31320E-02 -.36505E-02 -.27469E-02
 0.74378E-04 0.13905E-02 0.84581E-02 0.21668E-01 0.36926E-01 0.50454E-01 0.59943E-01 0.61786E-01 0.53049E-01 0.36807E-01
 0.20615E-01 0.90671E-02 0.18946E-02 -.13912E-02 -.40430E-03 0.26188E-02 0.37001E-02 0.22387E-02 0.88542E-03 0.50219E-03
 0.14549E-02 0.33994E-02 0.12461E-01 0.26242E-01 0.40021E-01 0.51028E-01 0.56652E-01 0.53049E-01 0.40022E-01 0.23906E-01
 0.11583E-01 0.45161E-02 0.14558E-02 0.26163E-02 0.72376E-02 0.11094E-01 0.10911E-01 0.82975E-02 0.59302E-02 0.35815E-02
 0.25256E-02 0.50497E-02 0.14521E-01 0.26330E-01 0.36542E-01 0.43451E-01 0.44334E-01 0.36807E-01 0.23906E-01 0.12531E-01
 0.62631E-02 0.41499E-02 0.57619E-02 0.11690E-01 0.19124E-01 0.22835E-01 0.21338E-01 0.17353E-01 0.12455E-01 0.65748E-02
 0.25315E-02 0.54923E-02 0.13459E-01 0.21403E-01 0.27407E-01 0.30596E-01 0.28474E-01 0.20615E-01 0.11583E-01 0.62631E-02
 0.52837E-02 0.79298E-02 0.15277E-01 0.26513E-01 0.36078E-01 0.38795E-01 0.34990E-01 0.27514E-01 0.17672E-01 0.76334E-02
 0.19193E-02 0.47231E-02 0.96935E-02 0.13693E-01 0.16843E-01 0.18090E-01 0.15109E-01 0.90671E-02 0.45161E-02 0.41499E-02
 0.79298E-02 0.16688E-01 0.31061E-01 0.46703E-01 0.55958E-01 0.55220E-01 0.46695E-01 0.33585E-01 0.18556E-01 0.63638E-02
 0.14548E-02 0.30539E-02 0.48762E-02 0.65316E-02 0.85627E-02 0.88127E-02 0.56853E-02 0.18946E-02 0.14558E-02 0.57619E-02
 0.15277E-01 0.31061E-01 0.50787E-01 0.66680E-01 0.71572E-01 0.64963E-01 0.50789E-01 0.32904E-01 0.15635E-01 0.44330E-02
 0.66439E-03 0.48158E-03 0.28662E-03 0.12012E-02 0.25885E-02 0.18430E-02 -.74401E-03 -.13912E-02 0.26163E-02 0.11690E-01
 0.26513E-01 0.46703E-01 0.66680E-01 0.77867E-01 0.76196E-01 0.64228E-01 0.46516E-01 0.27179E-01 0.11236E-01 0.27516E-02
 -.15417E-02 -.32813E-02 -.43054E-02 -.35856E-02 -.28468E-02 -.36146E-02 -.38103E-02 -.40430E-03 0.72376E-02 0.19124E-01
 0.36078E-01 0.55958E-01 0.71572E-01 0.76196E-01 0.69325E-01 0.54830E-01 0.36657E-01 0.18906E-01 0.63000E-02 0.53653E-03
 -.57901E-02 -.88300E-02 -.10117E-01 -.92803E-02 -.81559E-02 -.69178E-02 -.35753E-02 0.26188E-02 0.11094E-01 0.22835E-01
 0.38795E-01 0.55220E-01 0.64963E-01 0.64228E-01 0.54830E-01 0.40312E-01 0.23865E-01 0.96064E-02 0.99237E-03 -.28919E-02
 -.12733E-01 -.16927E-01 -.17822E-01 -.15853E-01 -.12733E-01 -.84526E-02 -.26712E-02 0.37001E-02 0.10911E-01 0.21338E-01
 0.34990E-01 0.46695E-01 0.50789E-01 0.46516E-01 0.36657E-01 0.23865E-01 0.10914E-01 0.12829E-02 -.40024E-02 -.78643E-02
 -.22965E-01 -.27286E-01 -.26503E-01 -.22224E-01 -.16353E-01 -.96103E-02 -.31320E-02 0.22387E-02 0.82975E-02 0.17353E-01
 0.27514E-01 0.33585E-01 0.32904E-01 0.27179E-01 0.18906E-01 0.96064E-02 0.12829E-02 -.44689E-02 -.91593E-02 -.15581E-01
 -.34950E-01 -.37397E-01 -.33789E-01 -.26750E-01 -.18328E-01 -.10049E-01 -.36505E-02 0.88542E-03 0.59302E-02 0.12455E-01
 0.17672E-01 0.18556E-01 0.15635E-01 0.11236E-01 0.63000E-02 0.99237E-03 -.40024E-02 -.91593E-02 -.16645E-01 -.26599E-01
 -.44394E-01 -.43529E-01 -.36944E-01 -.27421E-01 -.17123E-01 -.83352E-02 -.27469E-02 0.50219E-03 0.35815E-02 0.65748E-02
 0.76334E-02 0.63638E-02 0.44330E-02 0.27516E-02 0.53653E-03 -.28919E-02 -.78643E-02 -.15581E-01 -.26599E-01 -.37921E-01
 0.21126E-01 0.20329E-01 0.15609E-01 0.97142E-02 0.56352E-02 0.33557E-02 0.15493E-02 0.32398E-03 0.12499E-03 0.13723E-04
 -.69351E-03 -.90737E-03 0.12404E-03 0.11559E-02 0.13572E-02 0.23219E-02 0.56341E-02 0.10364E-01 0.14818E-01 0.18615E-01
 0.20329E-01 0.17226E-01 0.11913E-01 0.71722E-02 0.41413E-02 0.19712E-02 0.21943E-03 -.47252E-03 -.10119E-03 0.36384E-03
 0.58468E-03 0.10114E-02 0.14192E-02 0.11749E-02 0.10314E-02 0.27702E-02 0.68370E-02 0.11887E-01 0.16524E-01 0.19795E-01
 0.15609E-01 0.11913E-01 0.77304E-02 0.42930E-02 0.18401E-02 0.26743E-03 -.22244E-03 0.42431E-03 0.15501E-02 0.22742E-02
 0.22667E-02 0.16877E-02 0.82220E-03 0.25668E-03 0.98912E-03 0.37093E-02 0.80244E-02 0.12644E-01 0.16106E-01 0.17245E-01
 0.97142E-02 0.71722E-02 0.42930E-02 0.16959E-02 0.38026E-03 0.60610E-03 0.16257E-02 0.26508E-02 0.33101E-02 0.32371E-02
 0.22088E-02 0.80849E-03 0.99329E-04 0.56295E-03 0.20505E-02 0.45281E-02 0.78552E-02 0.10958E-01 0.12360E-01 0.11678E-01
 0.56352E-02 0.41413E-02 0.18401E-02 0.38026E-03 0.10543E-02 0.26658E-02 0.34390E-02 0.34390E-02 0.34029E-02 0.29293E-02
 0.16789E-02 0.74932E-03 0.10539E-02 0.18411E-02 0.23963E-02 0.35106E-02 0.56372E-02 0.73652E-02 0.74318E-02 0.65478E-02
 0.33557E-02 0.19712E-02 0.26743E-03 0.60610E-03 0.26658E-02 0.37256E-02 0.31808E-02 0.29851E-02 0.36061E-02 0.34301E-02
 0.23081E-02 0.18734E-02 0.21745E-02 0.16928E-02 0.79019E-03 0.14295E-02 0.33852E-02 0.43687E-02 0.39191E-02 0.35702E-02
 0.15493E-02 0.21943E-03 -.22244E-03 0.16257E-02 0.34390E-02 0.31808E-02 0.27125E-02 0.40047E-02 0.52615E-02 0.43429E-02
 0.26481E-02 0.20913E-02 0.15788E-02 -.25328E-04 -.80746E-03 0.77707E-03 0.26176E-02 0.24766E-02 0.16120E-02 0.16957E-02
 0.32398E-03 -.47252E-03 0.42431E-03 0.26508E-02 0.34390E-02 0.29851E-02 0.40047E-02 0.60486E-02 0.58239E-02 0.32015E-02
 0.14063E-02 0.12048E-02 0.38509E-03 -.10050E-02 -.52102E-03 0.14391E-02 0.17639E-02 0.21591E-03 -.38799E-03 0.39398E-03
 0.12499E-03 -.10119E-03 0.15501E-02 0.33101E-02 0.34029E-02 0.36061E-02 0.52615E-02 0.58239E-02 0.34062E-02 0.73047E-03
 0.54010E-03 0.10855E-02 0.12290E-03 -.74301E-03 0.20968E-03 0.88232E-03 -.64022E-03 -.20896E-02 -.11407E-02 0.33276E-03
 0.13723E-04 0.36384E-03 0.22742E-02 0.32371E-02 0.29293E-02 0.34301E-02 0.43429E-02 0.32015E-02 0.73047E-03 0.19555E-03
 0.15131E-02 0.14655E-02 -.31096E-03 -.10892E-02 -.64276E-03 -.13907E-02 -.29931E-02 -.25267E-02 -.18769E-03 0.78219E-03
 -.69351E-03 0.58468E-03 0.22667E-02 0.22088E-02 0.16789E-02 0.23081E-02 0.26481E-02 0.14063E-02 0.54010E-03 0.15131E-02
 0.20424E-02 0.15743E-03 -.20886E-02 -.24590E-02 -.23644E-02 -.33366E-02 -.35312E-02 -.14805E-02 0.42671E-03 0.22805E-04
 -.90737E-03 0.10114E-02 0.16877E-02 0.80849E-03 0.74932E-03 0.18734E-02 0.20913E-02 0.12048E-02 0.10855E-02 0.14655E-02
 0.15743E-03 -.24595E-02 -.37085E-02 -.33487E-02 -.35347E-02 -.42314E-02 -.33466E-02 -.13056E-02 -.71191E-03 -.14562E-02
 0.12404E-03 0.14192E-02 0.82220E-03 0.99329E-04 0.10539E-02 0.21745E-02 0.15788E-02 0.38509E-03 0.12290E-03 -.31096E-03
 -.20886E-02 -.37085E-02 -.37777E-02 -.36958E-02 -.47053E-02 -.51905E-02 -.37765E-02 -.21409E-02 -.18698E-02 -.15475E-02
 0.11559E-02 0.11749E-02 0.25668E-03 0.56295E-03 0.18411E-02 0.16928E-02 -.25328E-04 -.10050E-02 -.74301E-03 -.10892E-02
 -.24590E-02 -.33487E-02 -.36958E-02 -.48855E-02 -.63319E-02 -.58682E-02 -.36502E-02 -.19916E-02 -.13618E-02 -.25576E-03
 0.13572E-02 0.10314E-02 0.98912E-03 0.20505E-02 0.23963E-02 0.79019E-03 -.80746E-03 -.52102E-03 0.20968E-03 -.64276E-03
 -.23644E-02 -.35347E-02 -.47053E-02 -.63319E-02 -.66759E-02 -.45860E-02 -.19632E-02 -.83908E-03 -.41158E-03 0.60787E-03
 0.23219E-02 0.27702E-02 0.37093E-02 0.45281E-02 0.35106E-02 0.14295E-02 0.77707E-03 0.14391E-02 0.88232E-03 -.13907E-02
 -.33366E-02 -.42314E-02 -.51905E-02 -.58682E-02 -.45860E-02 -.19341E-02 -.46381E-03 -.55912E-03 -.17659E-03 0.12645E-02
 0.56341E-02 0.68370E-02 0.80244E-02 0.78552E-02 0.56372E-02 0.33852E-02 0.26176E-02 0.17639E-02 -.64022E-03 -.29931E-02
 -.35312E-02 -.33466E-02 -.37765E-02 -.36502E-02 -.19632E-02 -.46381E-03 -.63906E-03 -.78073E-03 0.10747E-02 0.38309E-02
 0.10364E-01 0.11887E-01 0.12644E-01 0.10958E-01 0.73652E-02 0.43687E-02 0.24766E-02 0.21591E-03 -.20896E-02 -.25267E-02
 -.14805E-02 -.13056E-02 -.21409E-02 -.19916E-02 -.83908E-03 -.55912E-03 -.78073E-03 0.98440E-03 0.48884E-02 0.83767E-02
 0.14818E-01 0.16524E-01 0.16106E-01 0.12360E-01 0.74318E-02 0.39191E-02 0.16120E-02 -.38799E-03 -.11407E-02 -.18769E-03
 0.42671E-03 -.71191E-03 -.18698E-02 -.13618E-02 -.41158E-03 -.17659E-03 0.10747E-02 0.48884E-02 0.95129E-02 0.12694E-01
 0.18615E-01 0.19795E-01 0.17245E-01 0.11678E-01 0.65478E-02 0.35702E-02 0.16957E-02 0.39398E-03 0.33276E-03 0.78219E-03
 0.22805E-04 -.14562E-02 -.15475E-02 -.25576E-03 0.60787E-03 0.12645E-02 0.38309E-02 0.83767E-02 0.12694E-01 0.15896E-01
 0.47645E-01 0.45109E-01 0.34933E-01 0.22390E-01 0.13050E-01 0.74920E-02 0.35259E-02 0.55180E-03 -.11734E-02 -.26155E-02
 -.40980E-02 -.38511E-02 -.11742E-02 0.16268E-02 0.31603E-02 0.60068E-02 0.13048E-01 0.23317E-01 0.33871E-01 0.42761E-01
 0.45109E-01 0.38312E-01 0.26898E-01 0.16373E-01 0.93075E-02 0.43414E-02 0.11868E-03 -.29365E-02 -.46590E-02 -.56978E-02
 -.56981E-02 -.37563E-02 -.81618E-03 0.12520E-02 0.31182E-02 0.77344E-02 0.16339E-01 0.27072E-01 0.37232E-01 0.44256E-01
 0.34933E-01 0.26898E-01 0.17619E-01 0.99783E-02 0.41312E-02 -.10531E-02 -.57966E-02 -.95395E-02 -.11991E-01 -.12863E-01
 -.11556E-01 -.82485E-02 -.43961E-02 -.96048E-03 0.30966E-02 0.94895E-02 0.18328E-01 0.27805E-01 0.35285E-01 0.38149E-01
 0.22390E-01 0.16373E-01 0.99783E-02 0.39265E-02 -.17801E-02 -.76943E-02 -.14141E-01 -.20263E-01 -.24199E-01 -.24434E-01
 -.20885E-01 -.14808E-01 -.79682E-02 -.16493E-02 0.41147E-02 0.10290E-01 0.17302E-01 0.23765E-01 0.27294E-01 0.26600E-01
 0.13050E-01 0.93075E-02 0.41312E-02 -.17801E-02 -.82837E-02 -.16709E-01 -.27112E-01 -.36155E-01 -.39756E-01 -.36793E-01
 -.28947E-01 -.18585E-01 -.82820E-02 -.47972E-03 0.44551E-02 0.85418E-02 0.13053E-01 0.16538E-01 0.17251E-01 0.15674E-01
 0.74920E-02 0.43414E-02 -.10531E-02 -.76943E-02 -.16709E-01 -.29753E-01 -.43903E-01 -.52500E-01 -.51832E-01 -.43623E-01
 -.31260E-01 -.17583E-01 -.61006E-02 0.35596E-03 0.29713E-02 0.53495E-02 0.83432E-02 0.98715E-02 0.94124E-02 0.85981E-02
 0.35259E-02 0.11868E-03 -.57966E-02 -.14141E-01 -.27112E-01 -.43903E-01 -.57488E-01 -.61051E-01 -.54695E-01 -.42681E-01
 -.28073E-01 -.13660E-01 -.36945E-02 0.76797E-04 0.10999E-02 0.29427E-02 0.46712E-02 0.44242E-02 0.36387E-02 0.39502E-02
 0.55180E-03 -.29365E-02 -.95395E-02 -.20263E-01 -.36155E-01 -.52500E-01 -.61051E-01 -.58808E-01 -.49418E-01 -.36512E-01
 -.21700E-01 -.85887E-02 -.17266E-02 -.64004E-03 -.66051E-03 -.29875E-04 -.68493E-03 -.23201E-02 -.19524E-02 0.26098E-03
 -.11734E-02 -.46590E-02 -.11991E-01 -.24199E-01 -.39756E-01 -.51832E-01 -.54695E-01 -.49418E-01 -.39751E-01 -.27023E-01
 -.13132E-01 -.34015E-02 -.11770E-02 -.33712E-02 -.56359E-02 -.78681E-02 -.10632E-01 -.11015E-01 -.70291E-02 -.21861E-02
 -.26155E-02 -.56978E-02 -.12863E-01 -.24434E-01 -.36793E-01 -.43623E-01 -.42681E-01 -.36512E-01 -.27023E-01 -.15030E-01
 -.46123E-02 -.13357E-02 -.53937E-02 -.11830E-01 -.17454E-01 -.22104E-01 -.23810E-01 -.19450E-01 -.10791E-01 -.40206E-02
 -.40980E-02 -.56981E-02 -.11556E-01 -.20885E-01 -.28947E-01 -.31260E-01 -.28073E-01 -.21700E-01 -.13132E-01 -.46123E-02
 -.13793E-02 -.65036E-02 -.16827E-01 -.27196E-01 -.35285E-01 -.39448E-01 -.36530E-01 -.26239E-01 -.14190E-01 -.64755E-02
 -.38511E-02 -.37563E-02 -.82485E-02 -.14808E-01 -.18585E-01 -.17583E-01 -.13660E-01 -.85887E-02 -.34015E-02 -.13357E-02
 -.65036E-02 -.18749E-01 -.33430E-01 -.46223E-01 -.54516E-01 -.55172E-01 -.46211E-01 -.31148E-01 -.17122E-01 -.81650E-02
 -.11742E-02 -.81618E-03 -.43961E-02 -.79682E-02 -.82820E-02 -.61006E-02 -.36945E-02 -.17266E-02 -.11770E-02 -.53937E-02
 -.16827E-01 -.33430E-01 -.50512E-01 -.63965E-01 -.69995E-01 -.65240E-01 -.50512E-01 -.32138E-01 -.16748E-01 -.65394E-02
 0.16268E-02 0.12520E-02 -.96048E-03 -.16493E-02 -.47972E-03 0.35596E-03 0.76797E-04 -.64004E-03 -.33712E-02 -.11830E-01
 -.27196E-01 -.46223E-01 -.63965E-01 -.75683E-01 -.76906E-01 -.65860E-01 -.46639E-01 -.26927E-01 -.11921E-01 -.25323E-02
 0.31603E-02 0.31182E-02 0.30966E-02 0.41147E-02 0.44551E-02 0.29713E-02 0.10999E-02 -.66051E-03 -.56359E-02 -.17454E-01
 -.35285E-01 -.54516E-01 -.69995E-01 -.76906E-01 -.71690E-01 -.55491E-01 -.35060E-01 -.17628E-01 -.59405E-02 0.65692E-03
 0.60068E-02 0.77344E-02 0.94895E-02 0.10290E-01 0.85418E-02 0.53495E-02 0.29427E-02 -.29875E-04 -.78681E-02 -.22104E-01
 -.39448E-01 -.55172E-01 -.65240E-01 -.65860E-01 -.55491E-01 -.38158E-01 -.21278E-01 -.92644E-02 -.16359E-02 0.32340E-02
 0.13048E-01 0.16339E-01 0.18328E-01 0.17302E-01 0.13053E-01 0.83432E-02 0.46712E-02 -.68493E-03 -.10632E-01 -.23810E-01
 -.36530E-01 -.46211E-01 -.50512E-01 -.46639E-01 -.35060E-01 -.21278E-01 -.10633E-01 -.33589E-02 0.29163E-02 0.86476E-02
 0.23317E-01 0.27072E-01 0.27805E-01 0.23765E-01 0.16538E-01 0.98715E-02 0.44242E-02 -.23201E-02 -.11015E-01 -.19450E-01
 -.26239E-01 -.31148E-01 -.32138E-01 -.26927E-01 -.17628E-01 -.92644E-02 -.33589E-02 0.27768E-02 0.10462E-01 0.17790E-01
 0.33871E-01 0.37232E-01 0.35285E-01 0.27294E-01 0.17251E-01 0.94124E-02 0.36387E-02 -.19524E-02 -.70291E-02 -.10791E-01
 -.14190E-01 -.17122E-01 -.16748E-01 -.11921E-01 -.59405E-02 -.16359E-02 0.29163E-02 0.10462E-01 0.19731E-01 0.27808E-01
 0.42761E-01 0.44256E-01 0.38149E-01 0.26600E-01 0.15674E-01 0.85981E-02 0.39502E-02 0.26098E-03 -.21861E-02 -.40206E-02
 -.64755E-02 -.81650E-02 -.65394E-02 -.25323E-02 0.65692E-03 0.32340E-02 0.86476E-02 0.17790E-01 0.27808E-01 0.36426E-01
 -.19278E-01 -.16456E-01 -.13699E-01 -.10189E-01 -.49148E-02 -.45021E-03 0.67725E-03 0.58815E-04 0.12527E-03 0.15276E-03
 -.94359E-03 -.13977E-02 0.12556E-03 0.13787E-02 0.13897E-03 -.23876E-02 -.49161E-02 -.89859E-02 -.15033E-01 -.19441E-01
 -.16456E-01 -.14256E-01 -.11446E-01 -.69300E-02 -.20191E-02 0.14961E-03 -.64355E-03 -.15124E-02 -.11716E-02 -.96206E-03
 -.11828E-02 -.47739E-03 0.83797E-03 0.66788E-03 -.13578E-02 -.37939E-02 -.66619E-02 -.11072E-01 -.15716E-01 -.17631E-01
 -.13699E-01 -.11446E-01 -.77948E-02 -.35688E-02 -.96523E-03 -.10017E-02 -.19526E-02 -.18725E-02 -.11267E-02 -.91318E-03
 -.97320E-03 -.55356E-03 -.19493E-03 -.80574E-03 -.21854E-02 -.39646E-02 -.66709E-02 -.10361E-01 -.13490E-01 -.14566E-01
 -.10189E-01 -.69300E-02 -.35688E-02 -.15445E-02 -.10995E-02 -.14027E-02 -.15931E-02 -.15485E-02 -.16540E-02 -.20519E-02
 -.23523E-02 -.21117E-02 -.14434E-02 -.10212E-02 -.15244E-02 -.31802E-02 -.57547E-02 -.86815E-02 -.11048E-01 -.11755E-01
 -.49148E-02 -.20191E-02 -.96523E-03 -.10995E-02 -.10059E-02 -.10139E-02 -.20277E-02 -.34532E-02 -.41687E-02 -.42188E-02
 -.39398E-02 -.28515E-02 -.10028E-02 0.41814E-04 -.87066E-03 -.29183E-02 -.49117E-02 -.67846E-02 -.82010E-02 -.76911E-02
 -.45021E-03 0.14961E-03 -.10017E-02 -.14027E-02 -.10139E-02 -.22416E-02 -.50407E-02 -.65491E-02 -.58338E-02 -.47301E-02
 -.38360E-02 -.19713E-02 0.21653E-03 0.39292E-03 -.14080E-02 -.28104E-02 -.31954E-02 -.38489E-02 -.43156E-02 -.28671E-02
 0.67725E-03 -.64355E-03 -.19526E-02 -.15931E-02 -.20277E-02 -.50407E-02 -.76166E-02 -.68022E-02 -.45785E-02 -.37560E-02
 -.31566E-02 -.10957E-02 0.44868E-03 -.48538E-03 -.18197E-02 -.12518E-02 -.35704E-03 -.97595E-03 -.14176E-02 -.15592E-03
 0.58815E-04 -.15124E-02 -.18725E-02 -.15485E-02 -.34532E-02 -.65491E-02 -.68022E-02 -.43594E-02 -.32254E-02 -.39280E-02
 -.31757E-02 -.75134E-03 0.47687E-04 -.99810E-03 -.67751E-03 0.11698E-02 0.13306E-02 -.39336E-03 -.85079E-03 0.25021E-03
 0.12527E-03 -.11716E-02 -.11267E-02 -.16540E-02 -.41687E-02 -.58338E-02 -.45785E-02 -.32254E-02 -.41658E-02 -.47249E-02
 -.24001E-02 0.15863E-03 0.12203E-03 -.39137E-03 0.10454E-02 0.21787E-02 0.63293E-03 -.11441E-02 -.39128E-03 0.90231E-03
 0.15276E-03 -.96206E-03 -.91318E-03 -.20519E-02 -.42188E-02 -.47301E-02 -.37560E-02 -.39280E-02 -.47249E-02 -.31698E-02
 0.60067E-04 0.12628E-02 0.29317E-03 0.43545E-03 0.18953E-02 0.16684E-02 -.14293E-03 -.21272E-03 0.16115E-02 0.19449E-02
 -.94359E-03 -.11828E-02 -.97320E-03 -.23523E-02 -.39398E-02 -.38360E-02 -.31566E-02 -.31757E-02 -.24001E-02 0.60067E-04
 0.17584E-02 0.10081E-02 0.12965E-03 0.12164E-02 0.23892E-02 0.17292E-02 0.10651E-02 0.21524E-02 0.28902E-02 0.12000E-02
 -.13977E-02 -.47739E-03 -.55356E-03 -.21117E-02 -.28515E-02 -.19713E-02 -.10957E-02 -.75134E-03 0.15863E-03 0.12628E-02
 0.10081E-02 0.90334E-04 0.74889E-03 0.26742E-02 0.34442E-02 0.28296E-02 0.26960E-02 0.29144E-02 0.16005E-02 -.70174E-03
 0.12556E-03 0.83797E-03 -.19493E-03 -.14434E-02 -.10028E-02 0.21653E-03 0.44868E-03 0.47687E-04 0.12203E-03 0.29317E-03
 0.12965E-03 0.74889E-03 0.27199E-02 0.43609E-02 0.42341E-02 0.33044E-02 0.27186E-02 0.17687E-02 0.68623E-04 -.76554E-03
 0.13787E-02 0.66788E-03 -.80574E-03 -.10212E-02 0.41814E-04 0.39292E-03 -.48538E-03 -.99810E-03 -.39137E-03 0.43545E-03
 0.12164E-02 0.26742E-02 0.43609E-02 0.47510E-02 0.37492E-02 0.27406E-02 0.21422E-02 0.12880E-02 0.52310E-03 0.79910E-03
 0.13897E-03 -.13578E-02 -.21854E-02 -.15244E-02 -.87066E-03 -.14080E-02 -.18197E-02 -.67751E-03 0.10454E-02 0.18953E-02
 0.23892E-02 0.34442E-02 0.42341E-02 0.37492E-02 0.28122E-02 0.25450E-02 0.24391E-02 0.17436E-02 0.10566E-02 0.83015E-03
 -.23876E-02 -.37939E-02 -.39646E-02 -.31802E-02 -.29183E-02 -.28104E-02 -.12518E-02 0.11698E-02 0.21787E-02 0.16684E-02
 0.17292E-02 0.28296E-02 0.33044E-02 0.27406E-02 0.25450E-02 0.29095E-02 0.23974E-02 0.82655E-03 -.42996E-03 -.11573E-02
 -.49161E-02 -.66619E-02 -.66709E-02 -.57547E-02 -.49117E-02 -.31954E-02 -.35704E-03 0.13306E-02 0.63293E-03 -.14293E-03
 0.10651E-02 0.26960E-02 0.27186E-02 0.21422E-02 0.24391E-02 0.23974E-02 0.63048E-03 -.14765E-02 -.23259E-02 -.30303E-02
 -.89859E-02 -.11072E-01 -.10361E-01 -.86815E-02 -.67846E-02 -.38489E-02 -.97595E-03 -.39336E-03 -.11441E-02 -.21272E-03
 0.21524E-02 0.29144E-02 0.17687E-02 0.12880E-02 0.17436E-02 0.82655E-03 -.14765E-02 -.27786E-02 -.31850E-02 -.52897E-02
 -.15033E-01 -.15716E-01 -.13490E-01 -.11048E-01 -.82010E-02 -.43156E-02 -.14176E-02 -.85079E-03 -.39128E-03 0.16115E-02
 0.28902E-02 0.16005E-02 0.68623E-04 0.52310E-03 0.10566E-02 -.42996E-03 -.23259E-02 -.31850E-02 -.53205E-02 -.10353E-01
 -.19441E-01 -.17631E-01 -.14566E-01 -.11755E-01 -.76911E-02 -.28671E-02 -.15592E-03 0.25021E-03 0.90231E-03 0.19449E-02
 0.12000E-02 -.70174E-03 -.76554E-03 0.79910E-03 0.83015E-03 -.11573E-02 -.30303E-02 -.52897E-02 -.10353E-01 -.16661E-01
 -.47383E-01 -.42062E-01 -.33889E-01 -.23890E-01 -.12741E-01 -.43257E-02 -.11996E-02 -.42107E-03 0.14674E-02 0.31847E-02
 0.25664E-02 0.13184E-02 0.14681E-02 0.11437E-02 -.19112E-02 -.67159E-02 -.12741E-01 -.22408E-01 -.35496E-01 -.45684E-01
 -.42062E-01 -.36076E-01 -.27572E-01 -.17030E-01 -.72235E-02 -.20014E-02 -.79536E-03 0.62794E-03 0.35925E-02 0.54385E-02
 0.49972E-02 0.40787E-02 0.32094E-02 0.69485E-03 -.37926E-02 -.91990E-02 -.16458E-01 -.26998E-01 -.37920E-01 -.43559E-01