unknown system                          
   1.00000000000000     
     2.573869    0.000000    0.000000
     1.286934    2.229036    0.000000
     0.000000    0.000000   30.304665
   Cu   H 
     4     1
Direct
  0.000000  0.000000  0.396427
  0.333332  0.333332  0.465162
  0.666668  0.666665  0.533889
  0.000000  0.000000  0.606712
  0.666668  0.666665  0.631530
 
   20   20  240
 0.47682161225E-01 0.43864238294E-01 0.34390760289E-01 0.22933289832E-01 0.13052387422E-01
 0.66122100176E-02 0.32059773875E-02 0.10494490530E-02 -.11797622786E-02 -.32594205425E-02
 -.41132777375E-02 -.32349243443E-02 -.11795644552E-02 0.11511682221E-02 0.35311820680E-02
 0.69312292587E-02 0.13052301787E-01 0.22754028385E-01 0.34413246987E-01 0.44054144519E-01
 0.43864238294E-01 0.37322371922E-01 0.27410140411E-01 0.17103689362E-01 0.88651916680E-02
 0.37230564777E-02 0.62796787870E-03 -.21654772046E-02 -.48439154548E-02 -.60754616519E-02
 -.51873712635E-02 -.30945714231E-02 -.95822269773E-03 0.10434116229E-02 0.36265195082E-02
 0.80989328718E-02 0.15868395404E-01 0.26782204514E-01 0.37753053206E-01 0.44287840464E-01
 0.34390760289E-01 0.27410140411E-01 0.18732415656E-01 0.10213774563E-01 0.35882056482E-02
 -.92879985969E-03 -.49188195399E-02 -.92703568160E-02 -.12535863542E-01 -.12977876618E-01
 -.10975103887E-01 -.80892308992E-02 -.49423938959E-02 -.12514375935E-02 0.32865246484E-02
 0.93458600014E-02 0.17783310462E-01 0.27612270113E-01 0.35319734320E-01 0.37664426858E-01
 0.22933289833E-01 0.17103689362E-01 0.10213774563E-01 0.34960932016E-02 -.20487633780E-02
 -.73451959864E-02 -.13917119162E-01 -.20750671716E-01 -.24735052140E-01 -.24326191261E-01
 -.20659709611E-01 -.15185331341E-01 -.85467880044E-02 -.17056702920E-02 0.43519769386E-02
 0.10217873772E-01 0.17052169245E-01 0.23787209821E-01 0.27524763939E-01 0.26876736663E-01
 0.13052387422E-01 0.88651916673E-02 0.35882056472E-02 -.20487633785E-02 -.82704248871E-02
 -.16764360548E-01 -.27436453107E-01 -.36479756763E-01 -.39752897533E-01 -.36610178534E-01
 -.28973317321E-01 -.18800028982E-01 -.82723075539E-02 -.10274751352E-03 0.48420414498E-02
 0.86379389786E-02 0.13047826808E-01 0.16794764570E-01 0.17783225281E-01 0.16116226708E-01
 0.66122100146E-02 0.37230564756E-02 -.92879986131E-03 -.73451959873E-02 -.16764360548E-01
 -.29990416598E-01 -.43783309867E-01 -.52116959049E-01 -.51635230525E-01 -.43621198699E-01
 -.31139306469E-01 -.17308783076E-01 -.58533250656E-02 0.54363679888E-03 0.31065418024E-02
 0.53317841747E-02 0.82478309212E-02 0.99509247510E-02 0.95310556644E-02 0.82264572760E-02
 0.32059773821E-02 0.62796787485E-03 -.49188195422E-02 -.13917119163E-01 -.27436453107E-01
 -.43783309867E-01 -.56843689663E-01 -.60793888039E-01 -.55023854982E-01 -.42798957054E-01
 -.27717283869E-01 -.13502053599E-01 -.40246090784E-02 -.22737894171E-03 0.10580359340E-02
 0.28042221972E-02 0.43576654243E-02 0.42247777246E-02 0.34313236746E-02 0.34540310400E-02
 0.10494490456E-02 -.21654772098E-02 -.92703568186E-02 -.20750671716E-01 -.36479756761E-01
 -.52116959047E-01 -.60793888037E-01 -.59349075437E-01 -.50007241217E-01 -.36363547014E-01
 -.21423654008E-01 -.90039324749E-02 -.23638311464E-02 -.68637612194E-03 -.40381559205E-03
 -.14158362482E-03 -.95964264618E-03 -.22476018855E-02 -.16866915652E-02 0.48579578505E-03
 -.11797622861E-02 -.48439154603E-02 -.12535863544E-01 -.24735052139E-01 -.39752897530E-01
 -.51635230521E-01 -.55023854980E-01 -.50007241216E-01 -.39755096519E-01 -.26582030023E-01
 -.13149604706E-01 -.38672006878E-02 -.11751517862E-02 -.27620600996E-02 -.52766691083E-02
 -.80381705411E-02 -.10623542754E-01 -.10484578843E-01 -.64986662054E-02 -.20156298891E-02
 -.32594205498E-02 -.60754616579E-02 -.12977876621E-01 -.24326191260E-01 -.36610178531E-01
 -.43621198695E-01 -.42798957051E-01 -.36363547013E-01 -.26582030023E-01 -.14787634402E-01
 -.47317100560E-02 -.12927519630E-02 -.48962768718E-02 -.11406167701E-01 -.17578712815E-01
 -.22378049990E-01 -.23665677844E-01 -.19122506635E-01 -.10911240497E-01 -.46385715413E-02
 -.41132777432E-02 -.51873712694E-02 -.10975103891E-01 -.20659709612E-01 -.28973317319E-01
 -.31139306466E-01 -.27717283866E-01 -.21423654008E-01 -.13149604707E-01 -.47317100566E-02
 -.13276390273E-02 -.63394988326E-02 -.16840762065E-01 -.27487543911E-01 -.35629625690E-01
 -.39602862833E-01 -.36558913109E-01 -.26441163185E-01 -.14688206483E-01 -.69609137276E-02
 -.32349243494E-02 -.30945714290E-02 -.80892309041E-02 -.15185331344E-01 -.18800028982E-01
 -.17308783074E-01 -.13502053598E-01 -.90039324757E-02 -.38672006899E-02 -.12927519648E-02
 -.63394988334E-02 -.19053752453E-01 -.33946945438E-01 -.46364112611E-01 -.54364811755E-01
 -.55185760944E-01 -.46392611427E-01 -.31186985952E-01 -.16950212098E-01 -.78115358282E-02
 -.11795644597E-02 -.95822270316E-03 -.49423939014E-02 -.85467880085E-02 -.82723075556E-02
 -.58533250658E-02 -.40246090786E-02 -.23638311478E-02 -.11751517885E-02 -.48962768738E-02
 -.16840762065E-01 -.33946945437E-01 -.50512736659E-01 -.63306445610E-01 -.69635322971E-01
 -.65464310624E-01 -.50511470181E-01 -.31557471667E-01 -.16204705512E-01 -.64054070337E-02
 0.11511682180E-02 0.10434116181E-02 -.12514375989E-02 -.17056702966E-02 -.10274751586E-03
 0.54363679845E-03 -.22737894155E-03 -.68637612283E-03 -.27620601013E-02 -.11406167702E-01
 -.27487543910E-01 -.46364112608E-01 -.63306445607E-01 -.75094701074E-01 -.77212265681E-01
 -.66313281440E-01 -.46319964843E-01 -.26422987867E-01 -.12218691554E-01 -.33311188402E-02
 0.35311820654E-02 0.36265195049E-02 0.32865246442E-02 0.43519769350E-02 0.48420414485E-02
 0.31065418034E-02 0.10580359360E-02 -.40381559084E-03 -.52766691083E-02 -.17578712814E-01
 -.35629625687E-01 -.54364811750E-01 -.69635322964E-01 -.77212265676E-01 -.72432082388E-01
 -.55643783264E-01 -.34696567052E-01 -.17838190186E-01 -.68449553358E-02 0.15910259479E-03
 0.69312292576E-02 0.80989328701E-02 0.93458599987E-02 0.10217873769E-01 0.86379389787E-02
 0.53317841776E-02 0.28042222018E-02 -.14158362092E-03 -.80381705388E-02 -.22378049989E-01
 -.39602862829E-01 -.55185760937E-01 -.65464310614E-01 -.66313281431E-01 -.55643783258E-01
 -.37862003180E-01 -.21151501056E-01 -.96167141165E-02 -.17844832550E-02 0.38829413423E-02
 0.13052301788E-01 0.15868395404E-01 0.17783310461E-01 0.17052169244E-01 0.13047826809E-01
 0.82478309259E-02 0.43576654313E-02 -.95964263959E-03 -.10623542749E-01 -.23665677841E-01
 -.36558913106E-01 -.46392611421E-01 -.50511470170E-01 -.46319964831E-01 -.34696567043E-01
 -.21151501051E-01 -.10622377288E-01 -.31187559821E-02 0.34525302128E-02 0.91205225369E-02
 0.22754028387E-01 0.26782204515E-01 0.27612270112E-01 0.23787209821E-01 0.16794764571E-01
 0.99509247561E-02 0.42247777327E-02 -.22476018771E-02 -.10484578836E-01 -.19122506631E-01
 -.26441163182E-01 -.31186985947E-01 -.31557471659E-01 -.26422987856E-01 -.17838190177E-01
 -.96167141107E-02 -.31187559799E-02 0.31977217489E-02 0.10258794056E-01 0.17083210608E-01
 0.34413246988E-01 0.37753053206E-01 0.35319734319E-01 0.27524763939E-01 0.17783225282E-01
 0.95310556690E-02 0.34313236823E-02 -.16866915560E-02 -.64986661978E-02 -.10911240492E-01
 -.14688206479E-01 -.16950212094E-01 -.16204705507E-01 -.12218691547E-01 -.68449553294E-02
 -.17844832507E-02 0.34525302143E-02 0.10258794056E-01 0.18664912689E-01 0.27312091734E-01
 0.44054144519E-01 0.44287840464E-01 0.37664426856E-01 0.26876736662E-01 0.16116226709E-01
 0.82264572796E-02 0.34540310469E-02 0.48579579371E-03 -.20156298811E-02 -.46385715346E-02
 -.69609137230E-02 -.78115358241E-02 -.64054070296E-02 -.33311188358E-02 0.15910259852E-03
 0.38829413443E-02 0.91205225371E-02 0.17083210607E-01 0.27312091732E-01 0.37436839410E-01
 -.22421751767E-01 -.20635564115E-01 -.16535233694E-01 -.11151452038E-01 -.57307503837E-02
 -.16959821659E-02 0.22785165071E-03 0.54446630767E-03 0.18858718503E-03 -.35532105199E-03
 -.79563509133E-03 -.64614490721E-03 0.18918433963E-03 0.89125334465E-03 0.38174170889E-03
 -.18280310654E-02 -.57319049577E-02 -.11055106079E-01 -.16784550550E-01 -.21080579789E-01
 -.20635564115E-01 -.17739024830E-01 -.12720306675E-01 -.72637589526E-02 -.29768120839E-02
 -.65686225300E-03 -.14607069279E-03 -.63332058596E-03 -.11439663296E-02 -.10593612315E-02
 -.39429906028E-03 0.39205265679E-03 0.80159217736E-03 0.44926663104E-03 -.10346439882E-02
 -.39444185885E-02 -.81980770948E-02 -.13147100394E-01 -.17685654743E-01 -.20531275057E-01
 -.16535233694E-01 -.12720306675E-01 -.78441627539E-02 -.39448537345E-02 -.17291556197E-02
 -.83641753717E-03 -.81889317534E-03 -.11365506493E-02 -.10303992454E-02 -.31731381486E-03
 0.24774296008E-03 0.71169327125E-04 -.48649258634E-03 -.10556846052E-02 -.22151268291E-02
 -.47182899931E-02 -.83777160070E-02 -.12340579975E-01 -.15749839193E-01 -.17540448486E-01
 -.11151452038E-01 -.72637589528E-02 -.39448537351E-02 -.22098648051E-02 -.12897564305E-02
 -.65795191911E-03 -.61854720906E-03 -.94206829782E-03 -.87764764830E-03 -.62987682668E-03
 -.10291102548E-02 -.17356987407E-02 -.16273932468E-02 -.10009729267E-02 -.15220906528E-02
 -.38635811750E-02 -.70698710786E-02 -.10167901563E-01 -.12604453328E-01 -.13263500414E-01
 -.57307503833E-02 -.29768120843E-02 -.17291556209E-02 -.12897564311E-02 -.54239405809E-03
 -.13715842923E-03 -.88753503316E-03 -.18826475640E-02 -.21041263506E-02 -.21396426011E-02
 -.24983224232E-02 -.21324136177E-02 -.54386461953E-03 0.49454667883E-03 -.70651340738E-03
 -.33375783202E-02 -.57349349171E-02 -.75931893594E-02 -.88322413623E-02 -.83151864459E-02
 -.16959821654E-02 -.65686225363E-03 -.83641753827E-03 -.65795191990E-03 -.13715842936E-03
 -.87071381376E-03 -.26659798293E-02 -.35118834994E-02 -.29840994273E-02 -.24748857800E-02
 -.21082810595E-02 -.76379055229E-03 0.85880345125E-03 0.62043883113E-03 -.14600287513E-02
 -.31911914031E-02 -.38051571451E-02 -.43799436393E-02 -.48083952051E-02 -.37559120685E-02
 0.22785165137E-03 -.14607069295E-03 -.81889317595E-03 -.61854720898E-03 -.88753503216E-03
 -.26659798281E-02 -.40910586023E-02 -.34258081566E-02 -.20294686542E-02 -.16220614289E-02
 -.13363918828E-02 -.18625581587E-03 0.37550335763E-03 -.79961520643E-03 -.19891024817E-02
 -.15721481903E-02 -.88462391975E-03 -.14011017261E-02 -.18380222027E-02 -.83415268814E-03
 0.54446630844E-03 -.63332058521E-03 -.11365506486E-02 -.94206829644E-03 -.18826475616E-02
 -.35118834961E-02 -.34258081542E-02 -.17827074854E-02 -.11609982802E-02 -.18837250391E-02
 -.18039421495E-02 -.69920011077E-03 -.48158373876E-03 -.10564919309E-02 -.41258156217E-03
 0.11289532995E-02 0.11717347379E-02 -.20307617007E-03 -.51087823898E-03 0.48473052741E-03
 0.18858718630E-03 -.11439663277E-02 -.10303992433E-02 -.87764764571E-03 -.21041263466E-02
 -.29840994221E-02 -.20294686495E-02 -.11609982776E-02 -.21057542081E-02 -.29692243860E-02
 -.17763614296E-02 -.96952224602E-04 0.19235284813E-03 0.36857630744E-03 0.17397190438E-02
 0.25102394043E-02 0.12096112471E-02 -.10967109121E-03 0.47562304427E-03 0.12235271559E-02
 -.35532105094E-03 -.10593612295E-02 -.31731381329E-03 -.62987682456E-03 -.21396425972E-02
 -.24748857745E-02 -.16220614236E-02 -.18837250359E-02 -.29692243857E-02 -.22177471326E-02
 0.21864133144E-03 0.14406292272E-02 0.10715076831E-02 0.14695554921E-02 0.27343382398E-02
 0.25812682115E-02 0.11897153592E-02 0.10784015436E-02 0.20991650167E-02 0.16055458832E-02
 -.79563508945E-03 -.39429905908E-03 0.24774295982E-03 -.10291102547E-02 -.24983224205E-02
 -.21082810546E-02 -.13363918787E-02 -.18039421483E-02 -.17763614312E-02 0.21864132981E-03
 0.19723378007E-02 0.15384851892E-02 0.95556390439E-03 0.23431635385E-02 0.39320338389E-02
 0.36420314983E-02 0.29233777681E-02 0.33666663406E-02 0.32291644089E-02 0.10801544813E-02
 -.64614490532E-03 0.39205265620E-03 0.71169323700E-04 -.17356987436E-02 -.21324136170E-02
 -.76379054920E-03 -.18625581416E-03 -.69920011333E-03 -.96952230241E-04 0.14406292231E-02
 0.15384851886E-02 0.71526330053E-03 0.19377422565E-02 0.49895905475E-02 0.65144011667E-02
 0.57343896302E-02 0.49710078410E-02 0.45800694490E-02 0.27022992377E-02 0.20033047424E-04
 0.18918434178E-03 0.80159217489E-03 -.48649259256E-03 -.16273932520E-02 -.54386462023E-03
 0.85880345302E-03 0.37550335677E-03 -.48158374496E-03 0.19235283976E-03 0.10715076794E-02
 0.95556390874E-03 0.19377422645E-02 0.53946408971E-02 0.84653718521E-02 0.83346579613E-02
 0.65280865756E-02 0.53962050461E-02 0.40540744110E-02 0.14521123409E-02 -.34833793364E-03
 0.89125334651E-03 0.44926662730E-03 -.10556846129E-02 -.10009729326E-02 0.49454667800E-03
 0.62043883234E-03 -.79961520856E-03 -.10564919387E-02 0.36857629956E-03 0.14695554931E-02
 0.23431635539E-02 0.49895905721E-02 0.84653718717E-02 0.93932555331E-02 0.74988139663E-02
 0.57355888620E-02 0.49175409121E-02 0.32072563466E-02 0.83552187986E-03 0.15200129139E-03
 0.38174171057E-03 -.10346439920E-02 -.22151268358E-02 -.15220906573E-02 -.70651340710E-03
 -.14600287498E-02 -.19891024836E-02 -.41258156841E-03 0.17397190401E-02 0.27343382492E-02
 0.39320338672E-02 0.65144012094E-02 0.83346580035E-02 0.74988139914E-02 0.58121305183E-02
 0.53108130361E-02 0.46882119672E-02 0.24959214836E-02 0.48695739604E-03 0.33976677456E-03
 -.18280310643E-02 -.39444185912E-02 -.47182899977E-02 -.38635811775E-02 -.33375783190E-02
 -.31911914015E-02 -.15721481914E-02 0.11289532962E-02 0.25102394063E-02 0.25812682284E-02
 0.36420315355E-02 0.57343896831E-02 0.65280866306E-02 0.57355889036E-02 0.53108130556E-02
 0.52725039720E-02 0.37107318062E-02 0.97759814851E-03 -.50668483111E-03 -.69194103084E-03
 -.57319049568E-02 -.81980770962E-02 -.83777160090E-02 -.70698710791E-02 -.57349349159E-02
 -.38051571439E-02 -.88462392020E-03 0.11717347377E-02 0.12096112531E-02 0.11897153791E-02
 0.29233778047E-02 0.49710078906E-02 0.53962050979E-02 0.49175409540E-02 0.46882119921E-02
 0.37107318153E-02 0.12113254521E-02 -.11172256303E-02 -.20033285357E-02 -.30741765641E-02
 -.11055106079E-01 -.13147100394E-01 -.12340579976E-01 -.10167901563E-01 -.75931893591E-02
 -.43799436393E-02 -.14011017267E-02 -.20307616899E-03 -.10967108445E-03 0.10784015601E-02
 0.33666663679E-02 0.45800694831E-02 0.40540744453E-02 0.32072563742E-02 0.24959215006E-02
 0.97759815578E-03 -.11172256287E-02 -.25825156476E-02 -.39990123022E-02 -.70620120015E-02
 -.16784550550E-01 -.17685654743E-01 -.15749839193E-01 -.12604453328E-01 -.88322413628E-02
 -.48083952065E-02 -.18380222040E-02 -.51087823821E-03 0.47562304853E-03 0.20991650262E-02
 0.32291644226E-02 0.27022992528E-02 0.14521123544E-02 0.83552188926E-03 0.48695740047E-03
 -.50668483006E-03 -.20033285364E-02 -.39990123028E-02 -.75495074319E-02 -.12635539571E-01
 -.21080579789E-01 -.20531275056E-01 -.17540448486E-01 -.13263500415E-01 -.83151864468E-02
 -.37559120699E-02 -.83415268948E-03 0.48473052706E-03 0.12235271570E-02 0.16055458858E-02
 0.10801544841E-02 0.20033049527E-04 -.34833793359E-03 0.15200128959E-03 0.33976677173E-03
 -.69194103364E-03 -.30741765659E-02 -.70620120028E-02 -.12635539572E-01 -.18142643243E-01
 -.47355909994E-01 -.43314155631E-01 -.34429496738E-01 -.23337527688E-01 -.12731653500E-01
 -.52072854169E-02 -.15232262787E-02 0.74378023552E-04 0.14548748194E-02 0.25255796752E-02
 0.25315326971E-02 0.19193151587E-02 0.14547691855E-02 0.66438784504E-03 -.15417493710E-02
 -.57900896750E-02 -.12733001447E-01 -.22964909948E-01 -.34950056135E-01 -.44393609104E-01
 -.43314155632E-01 -.37072818507E-01 -.27058771579E-01 -.16291714018E-01 -.76606995815E-02
 -.26230580687E-02 -.29456109971E-03 0.13904706859E-02 0.33993672076E-02 0.50497309847E-02
 0.54922959720E-02 0.47230927884E-02 0.30539289238E-02 0.48158360742E-03 -.32813031493E-02
 -.88300251257E-02 -.16926665222E-01 -.27285663584E-01 -.37396647959E-01 -.43528810881E-01
 -.34429496739E-01 -.27058771579E-01 -.17702547332E-01 -.94387007574E-02 -.36366787344E-02
 0.40165130654E-03 0.41875479106E-02 0.84580622665E-02 0.12461445514E-01 0.14521388296E-01
 0.13458529667E-01 0.96935251594E-02 0.48762129500E-02 0.28662261203E-03 -.43054474560E-02
 -.10117416175E-01 -.17822170624E-01 -.26503322896E-01 -.33788547419E-01 -.36944190496E-01
 -.23337527688E-01 -.16291714019E-01 -.94387007578E-02 -.41064589580E-02 0.96613911616E-03
 0.72701111028E-02 0.14659892315E-01 0.21667531186E-01 0.26242396037E-01 0.26329843703E-01
 0.21403197185E-01 0.13692788015E-01 0.65316245657E-02 0.12011670045E-02 -.35856169301E-02
 -.92802910544E-02 -.15852943380E-01 -.22224004496E-01 -.26750207571E-01 -.27420719594E-01
 -.12731653499E-01 -.76606995814E-02 -.36366787348E-02 0.96613911595E-03 0.85640505426E-02
 0.18799069670E-01 0.29092823647E-01 0.36925652730E-01 0.40021412557E-01 0.36542406866E-01
 0.27407449278E-01 0.16843030608E-01 0.85626897471E-02 0.25884670007E-02 -.28468426454E-02
 -.81558786266E-02 -.12732839335E-01 -.16353350005E-01 -.18328227938E-01 -.17122654156E-01
 -.52072854136E-02 -.26230580672E-02 0.40165130692E-03 0.72701111028E-02 0.18799069670E-01
 0.31923238729E-01 0.43230545963E-01 0.50454065658E-01 0.51028340210E-01 0.43450669179E-01
 0.30595797071E-01 0.18089693297E-01 0.88127487419E-02 0.18430299749E-02 -.36146492892E-02
 -.69177946546E-02 -.84526499699E-02 -.96103217475E-02 -.10049106484E-01 -.83351716677E-02
 -.15232262727E-02 -.29456109608E-03 0.41875479122E-02 0.14659892316E-01 0.29092823647E-01
 0.43230545963E-01 0.54347127165E-01 0.59942661356E-01 0.56652150326E-01 0.44333693736E-01
 0.28473602744E-01 0.15109349685E-01 0.56853254842E-02 -.74401373662E-03 -.38103090085E-02
 -.35753463920E-02 -.26711856328E-02 -.31320127304E-02 -.36505090145E-02 -.27468617492E-02
 0.74378031478E-04 0.13904706917E-02 0.84580622697E-02 0.21667531188E-01 0.36925652731E-01
 0.50454065659E-01 0.59942661356E-01 0.61785919764E-01 0.53048627665E-01 0.36806637845E-01
 0.20614931442E-01 0.90671006359E-02 0.18946457554E-02 -.13912361297E-02 -.40429913782E-03
 0.26188386913E-02 0.37001385043E-02 0.22387008499E-02 0.88541767013E-03 0.50218709270E-03
 0.14548748282E-02 0.33993672153E-02 0.12461445519E-01 0.26242396039E-01 0.40021412558E-01
 0.51028340211E-01 0.56652150327E-01 0.53048627666E-01 0.40021912452E-01 0.23906366447E-01
 0.11583167792E-01 0.45161450577E-02 0.14558305662E-02 0.26163368366E-02 0.72376220663E-02
 0.11093531772E-01 0.10911480338E-01 0.82975019796E-02 0.59301991397E-02 0.35814823619E-02
 0.25255796831E-02 0.50497309924E-02 0.14521388301E-01 0.26329843705E-01 0.36542406866E-01
 0.43450669181E-01 0.44333693738E-01 0.36806637846E-01 0.23906366447E-01 0.12531033991E-01
 0.62630620935E-02 0.41498878072E-02 0.57618938112E-02 0.11690332028E-01 0.19123794072E-01
 0.22835410371E-01 0.21338317224E-01 0.17353456437E-01 0.12455250645E-01 0.65747505239E-02
 0.25315327047E-02 0.54922959789E-02 0.13458529670E-01 0.21403197185E-01 0.27407449279E-01
 0.30595797072E-01 0.28473602746E-01 0.20614931443E-01 0.11583167791E-01 0.62630620926E-02
 0.52837236777E-02 0.79298356715E-02 0.15276846798E-01 0.26513323137E-01 0.36078220142E-01
 0.38794697622E-01 0.34990132086E-01 0.27514221514E-01 0.17671538878E-01 0.76333820564E-02
 0.19193151654E-02 0.47230927933E-02 0.96935251607E-02 0.13692788014E-01 0.16843030609E-01
 0.18089693299E-01 0.15109349685E-01 0.90671006339E-02 0.45161450539E-02 0.41498878048E-02
 0.79298356718E-02 0.16687676863E-01 0.31060747353E-01 0.46702741271E-01 0.55958253818E-01
 0.55219701110E-01 0.46694630213E-01 0.33584515393E-01 0.18556140282E-01 0.63637758286E-02
 0.14547691921E-02 0.30539289267E-02 0.48762129491E-02 0.65316245645E-02 0.85626897481E-02
 0.88127487437E-02 0.56853254834E-02 0.18946457504E-02 0.14558305601E-02 0.57618938095E-02
 0.15276846803E-01 0.31060747361E-01 0.50787405019E-01 0.66679577936E-01 0.71572309809E-01
 0.64963416243E-01 0.50789312154E-01 0.32903600677E-01 0.15634530251E-01 0.44330479567E-02
 0.66438785078E-03 0.48158360830E-03 0.28662260954E-03 0.12011670030E-02 0.25884670021E-02
 0.18430299765E-02 -.74401373908E-03 -.13912361369E-02 0.26163368304E-02 0.11690332031E-01
 0.26513323152E-01 0.46702741294E-01 0.66679577953E-01 0.77867357880E-01 0.76196454914E-01
 0.64227768267E-01 0.46515720282E-01 0.27178684942E-01 0.11236186453E-01 0.27516344442E-02
 -.15417493666E-02 -.32813031497E-02 -.43054474586E-02 -.35856169312E-02 -.28468426438E-02
 -.36146492887E-02 -.38103090125E-02 -.40429914542E-03 0.72376220625E-02 0.19123794081E-01
 0.36078220168E-01 0.55958253856E-01 0.71572309845E-01 0.76196454934E-01 0.69324633878E-01
 0.54830158587E-01 0.36657039786E-01 0.18906153180E-01 0.62999948980E-02 0.53652603333E-03
 -.57900896728E-02 -.88300251267E-02 -.10117416177E-01 -.92802910546E-02 -.81558786257E-02
 -.69177946560E-02 -.35753463977E-02 0.26188386841E-02 0.11093531772E-01 0.22835410387E-01
 0.38794697656E-01 0.55219701157E-01 0.64963416290E-01 0.64227768299E-01 0.54830158601E-01
 0.40312059191E-01 0.23864771156E-01 0.96064112042E-02 0.99237425587E-03 -.28918592276E-02
 -.12733001447E-01 -.16926665223E-01 -.17822170625E-01 -.15852943380E-01 -.12732839335E-01
 -.84526499734E-02 -.26711856400E-02 0.37001384976E-02 0.10911480340E-01 0.21338317242E-01
 0.34990132120E-01 0.46694630257E-01 0.50789312197E-01 0.46515720313E-01 0.36657039802E-01
 0.23864771161E-01 0.10913555810E-01 0.12828684440E-02 -.40023895214E-02 -.78642536357E-02
 -.22964909949E-01 -.27285663584E-01 -.26503322895E-01 -.22224004495E-01 -.16353350007E-01
 -.96103217528E-02 -.31320127388E-02 0.22387008426E-02 0.82975019803E-02 0.17353456450E-01
 0.27514221538E-01 0.33584515423E-01 0.32903600704E-01 0.27178684960E-01 0.18906153188E-01
 0.96064112057E-02 0.12828684435E-02 -.44689355818E-02 -.91592880255E-02 -.15581381227E-01
 -.34950056136E-01 -.37396647958E-01 -.33788547417E-01 -.26750207571E-01 -.18328227939E-01
 -.10049106490E-01 -.36505090235E-02 0.88541766203E-03 0.59301991366E-02 0.12455250650E-01
 0.17671538888E-01 0.18556140294E-01 0.15634530259E-01 0.11236186455E-01 0.62999948962E-02
 0.99237425267E-03 -.40023895235E-02 -.91592880260E-02 -.16645416042E-01 -.26599002170E-01
 -.44393609104E-01 -.43528810881E-01 -.36944190495E-01 -.27420719593E-01 -.17122654158E-01
 -.83351716729E-02 -.27468617572E-02 0.50218708393E-03 0.35814823549E-02 0.65747505204E-02
 0.76333820547E-02 0.63637758270E-02 0.44330479527E-02 0.27516344381E-02 0.53652602675E-03
 -.28918592323E-02 -.78642536379E-02 -.15581381228E-01 -.26599002170E-01 -.37920538194E-01
 0.21126203212E-01 0.20328508498E-01 0.15609450622E-01 0.97141524346E-02 0.56352407241E-02
 0.33556764027E-02 0.15492886870E-02 0.32398005519E-03 0.12499312556E-03 0.13723465727E-04
 -.69350777947E-03 -.90736777415E-03 0.12403565375E-03 0.11559212023E-02 0.13571609734E-02
 0.23219338468E-02 0.56341075111E-02 0.10363504817E-01 0.14818223258E-01 0.18615163041E-01
 0.20328508497E-01 0.17225504182E-01 0.11913491625E-01 0.71722000345E-02 0.41412511095E-02
 0.19711907948E-02 0.21943153770E-03 -.47251683763E-03 -.10118807624E-03 0.36383527837E-03
 0.58468081054E-03 0.10113611867E-02 0.14191674606E-02 0.11748744381E-02 0.10314075400E-02
 0.27701974434E-02 0.68369543919E-02 0.11886581252E-01 0.16524390597E-01 0.19794867723E-01
 0.15609450621E-01 0.11913491625E-01 0.77303668916E-02 0.42929595636E-02 0.18400916483E-02
 0.26743483211E-03 -.22244462828E-03 0.42430944121E-03 0.15500809749E-02 0.22742150389E-02
 0.22666621994E-02 0.16877298360E-02 0.82220278805E-03 0.25668053144E-03 0.98912190310E-03
 0.37093395540E-02 0.80243518009E-02 0.12644111043E-01 0.16105673498E-01 0.17245286232E-01
 0.97141524336E-02 0.71722000340E-02 0.42929595635E-02 0.16958505414E-02 0.38025887020E-03
 0.60610390091E-03 0.16257002054E-02 0.26507534075E-02 0.33101301665E-02 0.32371163490E-02
 0.22087574248E-02 0.80849091549E-03 0.99328972926E-04 0.56294783433E-03 0.20505460448E-02
 0.45280969948E-02 0.78552316386E-02 0.10957684851E-01 0.12360470810E-01 0.11678291303E-01
 0.56352407244E-02 0.41412511100E-02 0.18400916487E-02 0.38025887058E-03 0.10542539948E-02
 0.26658115721E-02 0.34390169375E-02 0.34389688586E-02 0.34028617640E-02 0.29293168190E-02
 0.16788907837E-02 0.74932314786E-03 0.10539179225E-02 0.18410789376E-02 0.23963442952E-02
 0.35106148972E-02 0.56371900861E-02 0.73652418317E-02 0.74318175468E-02 0.65477596597E-02
 0.33556764055E-02 0.19711907968E-02 0.26743483356E-03 0.60610390157E-03 0.26658115719E-02
 0.37256052787E-02 0.31807869739E-02 0.29851117172E-02 0.36060691805E-02 0.34301136873E-02
 0.23080658268E-02 0.18734305444E-02 0.21744872792E-02 0.16927664494E-02 0.79018510274E-03
 0.14295498636E-02 0.33852488006E-02 0.43687385363E-02 0.39190534186E-02 0.35702086185E-02
 0.15492886924E-02 0.21943154151E-03 -.22244462625E-03 0.16257002059E-02 0.34390169370E-02
 0.31807869730E-02 0.27124967609E-02 0.40047105441E-02 0.52614661379E-02 0.43429126033E-02
 0.26481384179E-02 0.20912658458E-02 0.15787578240E-02 -.25328105721E-04 -.80745636047E-03
 0.77706622508E-03 0.26175879544E-02 0.24766478879E-02 0.16120160170E-02 0.16956740340E-02
 0.32398006231E-03 -.47251683262E-03 0.42430944359E-03 0.26507534073E-02 0.34389688566E-02
 0.29851117146E-02 0.40047105427E-02 0.60486112856E-02 0.58239336696E-02 0.32015238003E-02
 0.14063248053E-02 0.12047804688E-02 0.38509274272E-03 -.10050125485E-02 -.52102337762E-03
 0.14390820319E-02 0.17639144342E-02 0.21590585052E-03 -.38799275011E-03 0.39397925147E-03
 0.12499313326E-03 -.10118807037E-03 0.15500809777E-02 0.33101301658E-02 0.34028617607E-02
 0.36060691769E-02 0.52614661348E-02 0.58239336685E-02 0.34061997793E-02 0.73046689531E-03
 0.54010163831E-03 0.10855349793E-02 0.12290480751E-03 -.74301165862E-03 0.20968480194E-03
 0.88231861916E-03 -.64021929899E-03 -.20896132120E-02 -.11406716389E-02 0.33276153207E-03
 0.13723472158E-04 0.36383528401E-03 0.22742150419E-02 0.32371163484E-02 0.29293168152E-02
 0.34301136829E-02 0.43429125999E-02 0.32015237986E-02 0.73046689491E-03 0.19555165039E-03
 0.15130994833E-02 0.14655080776E-02 -.31096335680E-03 -.10891787801E-02 -.64275825441E-03
 -.13907391001E-02 -.29930593082E-02 -.25266549710E-02 -.18768651078E-03 0.78219088721E-03
 -.69350777373E-03 0.58468081611E-03 0.22666622032E-02 0.22087574252E-02 0.16788907814E-02
 0.23080658235E-02 0.26481384153E-02 0.14063248046E-02 0.54010163891E-03 0.15130994844E-02
 0.20423686590E-02 0.15743273203E-03 -.20885840358E-02 -.24589943443E-02 -.23644478245E-02
 -.33365571128E-02 -.35311998877E-02 -.14804828833E-02 0.42670964315E-03 0.22805074302E-04
 -.90736776938E-03 0.10113611922E-02 0.16877298407E-02 0.80849091768E-03 0.74932314753E-03
 0.18734305428E-02 0.20912658447E-02 0.12047804692E-02 0.10855349809E-02 0.14655080795E-02
 0.15743273280E-03 -.24594565860E-02 -.37085198513E-02 -.33486664995E-02 -.35347252533E-02
 -.42314428466E-02 -.33466127549E-02 -.13056196145E-02 -.71191328994E-03 -.14562380264E-02
 0.12403565833E-03 0.14191674661E-02 0.82220279351E-03 0.99328976720E-04 0.10539179240E-02
 0.21744872792E-02 0.15787578239E-02 0.38509274374E-03 0.12290480969E-03 -.31096335467E-03
 -.20885840351E-02 -.37085198515E-02 -.37777283221E-02 -.36958039777E-02 -.47052601022E-02
 -.51904722032E-02 -.37764726533E-02 -.21409090451E-02 -.18698470597E-02 -.15474811965E-02
 0.11559212063E-02 0.11748744428E-02 0.25668053661E-03 0.56294783857E-03 0.18410789397E-02
 0.16927664495E-02 -.25328106119E-04 -.10050125482E-02 -.74301165710E-03 -.10891787787E-02
 -.24589943442E-02 -.33486665013E-02 -.36958039798E-02 -.48854975787E-02 -.63318913728E-02
 -.58681948793E-02 -.36501620443E-02 -.19915541564E-02 -.13617681461E-02 -.25576325577E-03
 0.13571609762E-02 0.10314075432E-02 0.98912190717E-03 0.20505460483E-02 0.23963442968E-02
 0.79018510168E-03 -.80745636268E-03 -.52102337918E-03 0.20968480191E-03 -.64275825386E-03
 -.23644478254E-02 -.35347252567E-02 -.47052601068E-02 -.63318913766E-02 -.66758980674E-02
 -.45860296282E-02 -.19631771616E-02 -.83908321039E-03 -.41157509594E-03 0.60786977458E-03
 0.23219338477E-02 0.27701974450E-02 0.37093395566E-02 0.45280969968E-02 0.35106148970E-02
 0.14295498606E-02 0.77706622034E-03 0.14390820277E-02 0.88231861717E-03 -.13907391006E-02
 -.33365571143E-02 -.42314428508E-02 -.51904722104E-02 -.58681948872E-02 -.45860296331E-02
 -.19340664595E-02 -.46381467408E-03 -.55912496721E-03 -.17659005152E-03 0.12644513911E-02
 0.56341075106E-02 0.68369543921E-02 0.80243518022E-02 0.78552316398E-02 0.56371900852E-02
 0.33852487962E-02 0.26175879476E-02 0.17639144278E-02 -.64021930298E-03 -.29930593095E-02
 -.35311998891E-02 -.33466127587E-02 -.37764726609E-02 -.36501620537E-02 -.19631771698E-02
 -.46381467817E-03 -.63906375136E-03 -.78073378033E-03 0.10747131997E-02 0.38308510964E-02
 0.10363504815E-01 0.11886581251E-01 0.12644111044E-01 0.10957684852E-01 0.73652418301E-02
 0.43687385314E-02 0.24766478800E-02 0.21590584238E-03 -.20896132178E-02 -.25266549737E-02
 -.14804828848E-02 -.13056196177E-02 -.21409090515E-02 -.19915541650E-02 -.83908321872E-03
 -.55912497276E-03 -.78073378240E-03 0.98439561727E-03 0.48883821843E-02 0.83767132339E-02
 0.14818223256E-01 0.16524390597E-01 0.16105673499E-01 0.12360470811E-01 0.74318175456E-02
 0.39190534139E-02 0.16120160093E-02 -.38799275880E-03 -.11406716462E-02 -.18768651518E-03
 0.42670964057E-03 -.71191329294E-03 -.18698470645E-02 -.13617681525E-02 -.41157510221E-03
 -.17659005573E-03 0.10747131980E-02 0.48883821844E-02 0.95128544247E-02 0.12693567531E-01
 0.18615163040E-01 0.19794867724E-01 0.17245286233E-01 0.11678291303E-01 0.65477596593E-02
 0.35702086147E-02 0.16956740272E-02 0.39397924299E-03 0.33276152406E-03 0.78219088130E-03
 0.22805069939E-04 -.14562380299E-02 -.15474812006E-02 -.25576326033E-03 0.60786977066E-03
 0.12644513890E-02 0.38308510965E-02 0.83767132349E-02 0.12693567531E-01 0.15895555652E-01
 0.47645481428E-01 0.45109181353E-01 0.34933262385E-01 0.22390349277E-01 0.13049500839E-01
 0.74920363320E-02 0.35258964476E-02 0.55180200424E-03 -.11734463212E-02 -.26155197374E-02
 -.40980023883E-02 -.38510550811E-02 -.11741921091E-02 0.16268114663E-02 0.31603308447E-02
 0.60067592389E-02 0.13048309319E-01 0.23316529387E-01 0.33870975882E-01 0.42761222086E-01
 0.45109181353E-01 0.38311565505E-01 0.26897938325E-01 0.16373476741E-01 0.93074648675E-02