    5    5    1    1
  0.3477306E+02  0.2573869E-09  0.2573869E-09  0.3030466E-08  0.5000000E-15
  1.000000000000000E-004
  CAR 
 unknown system                          
     45     14     28
 
  0.0000000E+00  0.0000000E+00  0.0000000E+00  0.1000000E-01
    1      -11.968140   1.000000
    2      -10.666899   1.000000
    3       -8.948783   1.000000
    4       -7.448905   1.000000
    5       -5.748978   1.000000
    6       -5.656633   1.000000
    7       -5.656427   1.000000
    8       -5.479314   1.000000
    9       -5.211758   1.000000
   10       -5.177721   1.000000
   11       -5.177409   1.000000
   12       -5.149419   1.000000
   13       -5.149161   1.000000
   14       -4.903150   1.000000
   15       -4.902860   1.000000
   16       -4.763128   1.000000
   17       -4.763026   1.000000
   18       -4.738816   1.000000
   19       -4.402229   1.000000
   20       -4.402150   1.000000
   21       -4.179888   1.000000
   22       -4.179852   1.000000
   23       -3.902664   1.000000
   24       -3.902593   1.000000
   25       -2.813067   1.000000
   26        1.638140   0.000000
   27        1.901919   0.000000
   28        2.297865   0.000000
 
  0.1000000E+00  0.6938894E-17  0.0000000E+00  0.6000000E-01
    1      -11.677168   1.000000
    2      -10.364712   1.000000
    3       -8.681398   1.000000
    4       -7.229195   1.000000
    5       -5.839193   1.000000
    6       -5.716763   1.000000
    7       -5.621503   1.000000
    8       -5.546225   1.000000
    9       -5.284966   1.000000
   10       -5.247862   1.000000
   11       -5.222998   1.000000
   12       -5.087266   1.000000
   13       -5.068909   1.000000
   14       -5.003548   1.000000
   15       -4.919443   1.000000
   16       -4.834380   1.000000
   17       -4.750979   1.000000
   18       -4.604805   1.000000
   19       -4.421086   1.000000
   20       -4.383444   1.000000
   21       -4.207238   1.000000
   22       -4.176373   1.000000
   23       -3.897615   1.000000
   24       -3.665845   1.000000
   25       -2.120129   0.026100
   26        1.892167   0.000000
   27        2.202967   0.000000
   28        2.599782   0.000000
 
  0.2000000E+00 -0.1387779E-16  0.0000000E+00  0.6000000E-01
    1      -10.858378   1.000000
    2       -9.504870   1.000000
    3       -7.981970   1.000000
    4       -6.716650   1.000000
    5       -6.123406   1.000000
    6       -5.897750   1.000000
    7       -5.715897   1.000000
    8       -5.586847   1.000000
    9       -5.422474   1.000000
   10       -5.251795   1.000000
   11       -5.188693   1.000000
   12       -5.114296   1.000000
   13       -5.024136   1.000000
   14       -4.920889   1.000000
   15       -4.830746   1.000000
   16       -4.772712   1.000000
   17       -4.699741   1.000000
   18       -4.532982   1.000000
   19       -4.470827   1.000000
   20       -4.369959   1.000000
   21       -4.179399   1.000000
   22       -3.989063   1.000000
   23       -3.890956   1.000000
   24       -2.764897   1.000000
   25       -0.768911   0.000000
   26        2.646596   0.000000
   27        3.105145   0.000000
   28        3.504157   0.000000
 
  0.3000000E+00 -0.2775558E-16  0.0000000E+00  0.6000000E-01
    1       -9.738662   1.000000
    2       -8.291145   1.000000
    3       -7.266066   1.000000
    4       -6.486485   1.000000
    5       -6.233813   1.000000
    6       -6.126474   1.000000
    7       -5.818095   1.000000
    8       -5.587631   1.000000
    9       -5.494667   1.000000
   10       -5.209894   1.000000
   11       -5.098901   1.000000
   12       -4.977199   1.000000
   13       -4.902733   1.000000
   14       -4.792956   1.000000
   15       -4.750258   1.000000
   16       -4.542483   1.000000
   17       -4.456957   1.000000
   18       -4.282161   1.000000
   19       -4.239980   1.000000
   20       -4.170662   1.000000
   21       -4.053245   1.000000
   22       -3.876044   1.000000
   23       -3.519729   1.000000
   24       -1.569982   0.000000
   25        0.942456   0.000000
   26        3.845390   0.000000
   27        4.559200   0.000000
   28        4.956004   0.000000
 
  0.4000000E+00 -0.2775558E-16  0.0000000E+00  0.6000000E-01
    1       -8.898594   1.000000
    2       -7.278312   1.000000
    3       -6.926761   1.000000
    4       -6.506417   1.000000
    5       -6.395995   1.000000
    6       -6.238719   1.000000
    7       -5.916329   1.000000
    8       -5.371242   1.000000
    9       -5.276981   1.000000
   10       -5.182348   1.000000
   11       -5.139811   1.000000
   12       -4.914363   1.000000
   13       -4.810309   1.000000
   14       -4.515181   1.000000
   15       -4.357968   1.000000
   16       -4.249491   1.000000
   17       -4.045763   1.000000
   18       -4.019917   1.000000
   19       -3.950150   1.000000
   20       -3.875481   1.000000
   21       -3.735659   1.000000
   22       -3.471378   1.000000
   23       -2.458209   0.997742
   24       -0.185090   0.000000
   25        2.230014   0.000000
   26        2.502614   0.000000
   27        3.362745   0.000000
   28        4.738407   0.000000
 
  0.5000000E+00 -0.2775558E-16  0.0000000E+00  0.3000000E-01
    1       -8.668512   1.000000
    2       -6.995372   1.000000
    3       -6.850941   1.000000
    4       -6.518326   1.000000
    5       -6.458419   1.000000
    6       -6.271988   1.000000
    7       -5.932100   1.000000
    8       -5.325994   1.000000
    9       -5.215006   1.000000
   10       -5.189092   1.000000
   11       -4.935265   1.000000
   12       -4.917407   1.000000
   13       -4.571186   1.000000
   14       -4.411872   1.000000
   15       -4.328019   1.000000
   16       -4.089130   1.000000
   17       -3.960014   1.000000
   18       -3.859220   1.000000
   19       -3.792607   1.000000
   20       -3.675258   1.000000
   21       -3.620315   1.000000
   22       -2.156444   0.076661
   23       -1.296196   0.000000
   24       -0.738489   0.000000
   25        1.155883   0.000000
   26        1.831099   0.000000
   27        2.935866   0.000000
   28        4.169759   0.000000
 
  0.2000000E+00  0.1000000E+00  0.0000000E+00  0.6000000E-01
    1      -11.120267   1.000000
    2       -9.781633   1.000000
    3       -8.192262   1.000000
    4       -6.850125   1.000000
    5       -6.052368   1.000000
    6       -5.786880   1.000000
    7       -5.755893   1.000000
    8       -5.511047   1.000000
    9       -5.384393   1.000000
   10       -5.329081   1.000000
   11       -5.238880   1.000000
   12       -5.068206   1.000000
   13       -5.028134   1.000000
   14       -5.016497   1.000000
   15       -4.865393   1.000000
   16       -4.801375   1.000000
   17       -4.621759   1.000000
   18       -4.544514   1.000000
   19       -4.510931   1.000000
   20       -4.368856   1.000000
   21       -4.260902   1.000000
   22       -3.997510   1.000000
   23       -3.934916   1.000000
   24       -3.022016   1.000000
   25       -1.166169   0.000000
   26        2.397453   0.000000
   27        2.804937   0.000000
   28        3.203145   0.000000
 
  0.3000000E+00  0.1000000E+00  0.0000000E+00  0.1200000E+00
    1      -10.133671   1.000000
    2       -8.723626   1.000000
    3       -7.453939   1.000000
    4       -6.467167   1.000000
    5       -6.128771   1.000000
    6       -6.015545   1.000000
    7       -5.823674   1.000000
    8       -5.692553   1.000000
    9       -5.549067   1.000000
   10       -5.224181   1.000000
   11       -5.190387   1.000000
   12       -5.108163   1.000000
   13       -4.980286   1.000000
   14       -4.945281   1.000000
   15       -4.817946   1.000000
   16       -4.690118   1.000000
   17       -4.537043   1.000000
   18       -4.391739   1.000000
   19       -4.273938   1.000000
   20       -4.206287   1.000000
   21       -4.063319   1.000000
   22       -3.953914   1.000000
   23       -3.635488   1.000000
   24       -1.999808   0.000135
   25        0.317071   0.000000
   26        3.405974   0.000000
   27        4.001630   0.000000
   28        4.406961   0.000000
 
  0.4000000E+00  0.1000000E+00  0.0000000E+00  0.1200000E+00
    1       -9.118493   1.000000
    2       -7.543887   1.000000
    3       -6.941037   1.000000
    4       -6.442499   1.000000
    5       -6.250290   1.000000
    6       -6.135027   1.000000
    7       -5.874765   1.000000
    8       -5.589826   1.000000
    9       -5.495435   1.000000
   10       -5.242951   1.000000
   11       -5.191672   1.000000
   12       -5.024947   1.000000
   13       -4.872204   1.000000
   14       -4.662881   1.000000
   15       -4.602109   1.000000
   16       -4.443608   1.000000
   17       -4.337964   1.000000
   18       -4.194902   1.000000
   19       -4.081440   1.000000
   20       -3.899846   1.000000
   21       -3.859229   1.000000
   22       -3.543842   1.000000
   23       -2.756650   1.000000
   24       -0.582913   0.000000
   25        2.122209   0.000000
   26        3.822785   0.000000
   27        4.522424   0.000000
   28        5.333347   0.000000
 
  0.5000000E+00  0.1000000E+00  0.0000000E+00  0.1200000E+00
    1       -8.636579   1.000000
    2       -6.919493   1.000000
    3       -6.759656   1.000000
    4       -6.430422   1.000000
    5       -6.362224   1.000000
    6       -6.179729   1.000000
    7       -5.936232   1.000000
    8       -5.459968   1.000000
    9       -5.319231   1.000000
   10       -5.189100   1.000000
   11       -5.142092   1.000000
   12       -5.013240   1.000000
   13       -4.768125   1.000000
   14       -4.455390   1.000000
   15       -4.368487   1.000000
   16       -4.184017   1.000000
   17       -4.053084   1.000000
   18       -3.995060   1.000000
   19       -3.937284   1.000000
   20       -3.783731   1.000000
   21       -3.413143   1.000000
   22       -2.264867   0.541982
   23       -1.274726   0.000000
   24        0.168103   0.000000
   25        1.648085   0.000000
   26        2.127227   0.000000
   27        3.189079   0.000000
   28        4.627882   0.000000
 
  0.4000000E+00  0.2000000E+00  0.0000000E+00  0.6000000E-01
    1       -9.207250   1.000000
    2       -7.639704   1.000000
    3       -6.908958   1.000000
    4       -6.398619   1.000000
    5       -6.095806   1.000000
    6       -5.947600   1.000000
    7       -5.881413   1.000000
    8       -5.800161   1.000000
    9       -5.504212   1.000000
   10       -5.366322   1.000000
   11       -5.296420   1.000000
   12       -5.223953   1.000000
   13       -4.912602   1.000000
   14       -4.848106   1.000000
   15       -4.740949   1.000000
   16       -4.546977   1.000000
   17       -4.377019   1.000000
   18       -4.235542   1.000000
   19       -4.121959   1.000000
   20       -3.893845   1.000000
   21       -3.855556   1.000000
   22       -3.491175   1.000000
   23       -2.757454   1.000000
   24       -0.711587   0.000000
   25        1.915138   0.000000
   26        4.667720   0.000000
   27        5.182656   0.000000
   28        5.656742   0.000000
 
  0.5000000E+00  0.2000000E+00  0.0000000E+00  0.1200000E+00
    1       -8.581470   1.000000
    2       -6.759565   1.000000
    3       -6.560931   1.000000
    4       -6.320296   1.000000
    5       -6.150497   1.000000
    6       -6.045794   1.000000
    7       -5.874403   1.000000
    8       -5.706713   1.000000
    9       -5.531480   1.000000
   10       -5.436365   1.000000
   11       -5.319471   1.000000
   12       -4.991396   1.000000
   13       -4.917640   1.000000
   14       -4.761392   1.000000
   15       -4.594945   1.000000
   16       -4.463978   1.000000
   17       -4.302121   1.000000
   18       -4.127481   1.000000
   19       -3.951685   1.000000
   20       -3.802763   1.000000
   21       -3.180995   1.000000
   22       -2.282043   0.636208
   23       -1.137731   0.000000
   24        0.967684   0.000000
   25        2.968105   0.000000
   26        3.301702   0.000000
   27        4.074800   0.000000
   28        5.237053   0.000000
 
 -0.4000000E+00  0.2000000E+00  0.0000000E+00  0.6000000E-01
    1       -8.416100   1.000000
    2       -6.556225   1.000000
    3       -6.479405   1.000000
    4       -6.231157   1.000000
    5       -6.145461   1.000000
    6       -6.060009   1.000000
    7       -5.878586   1.000000
    8       -5.746219   1.000000
    9       -5.518259   1.000000
   10       -5.362970   1.000000
   11       -5.256167   1.000000
   12       -5.039675   1.000000
   13       -4.873777   1.000000
   14       -4.623718   1.000000
   15       -4.491927   1.000000
   16       -4.442260   1.000000
   17       -4.192249   1.000000
   18       -4.032527   1.000000
   19       -3.974457   1.000000
   20       -3.868805   1.000000
   21       -2.354219   0.914510
   22       -0.659001   0.000000
   23       -0.116495   0.000000
   24        0.647797   0.000000
   25        1.972054   0.000000
   26        2.349932   0.000000
   27        3.636133   0.000000
   28        4.736859   0.000000
 
 -0.4000000E+00  0.3000000E+00  0.0000000E+00  0.6000000E-01
    1       -8.323510   1.000000
    2       -6.324169   1.000000
    3       -6.252143   1.000000
    4       -6.166920   1.000000
    5       -6.052961   1.000000
    6       -5.924731   1.000000
    7       -5.881779   1.000000
    8       -5.830522   1.000000
    9       -5.704485   1.000000
   10       -5.531971   1.000000
   11       -5.341239   1.000000
   12       -4.965435   1.000000
   13       -4.915855   1.000000
   14       -4.819774   1.000000
   15       -4.612768   1.000000
   16       -4.451782   1.000000
   17       -4.363861   1.000000
   18       -4.072519   1.000000
   19       -3.986359   1.000000
   20       -3.892991   1.000000
   21       -1.886741   0.000000
   22       -0.313394   0.000000
   23        0.813880   0.000000
   24        2.042001   0.000000
   25        2.449721   0.000000
   26        2.968947   0.000000
   27        3.191107   0.000000
   28        4.104841   0.000000
