unknown system                          
   1.00000000000000     
     2.573869    0.000000    0.000000
     1.286934    2.229036    0.000000
     0.000000    0.000000   30.304665
   Cu   H 
     4     1
Direct
  0.000000  0.000000  0.396427
  0.333332  0.333332  0.465162
  0.666668  0.666665  0.533889
  0.000000  0.000000  0.606712
  0.666668  0.666665  0.631530
 
   10   10  120
 -.65919E-16 0.12490E-15 0.40142E-14 0.12268E-08 0.29657E-13 0.33241E-11 0.95479E-14 0.89768E-10 0.14988E-14 0.48572E-16
 0.11102E-15 0.49960E-15 0.89977E-13 0.28321E-10 0.35069E-13 0.66672E-10 0.11435E-13 0.50557E-12 0.97145E-15 0.52909E-16
 0.41044E-14 0.90067E-13 0.22064E-12 0.82254E-13 0.74246E-14 0.75301E-13 0.13975E-13 0.93245E-13 0.15231E-14 0.53950E-15
 0.12268E-08 0.28321E-10 0.82115E-13 0.12229E-12 0.15321E-13 0.24602E-11 0.83406E-14 0.15085E-11 0.45991E-13 0.48045E-12
 0.29532E-13 0.35014E-13 0.73552E-14 0.15349E-13 0.97006E-14 0.30226E-13 0.15821E-14 0.27492E-13 0.30573E-13 0.23037E-13
 0.33241E-11 0.66671E-10 0.75259E-13 0.24602E-11 0.30254E-13 0.14056E-11 0.84516E-14 0.11255E-13 0.76050E-14 0.82315E-12
 0.94924E-14 0.11435E-13 0.14030E-13 0.83406E-14 0.14988E-14 0.83822E-14 0.17764E-14 0.41633E-15 0.51348E-15 0.64254E-14
 0.89768E-10 0.50557E-12 0.93217E-13 0.15086E-11 0.27436E-13 0.11310E-13 0.44409E-15 0.10825E-14 0.67585E-14 0.27536E-11
 0.15682E-14 0.10686E-14 0.15300E-14 0.46033E-13 0.30642E-13 0.76605E-14 0.59674E-15 0.67030E-14 0.39260E-13 0.34653E-13
 0.93675E-16 0.66787E-16 0.46838E-15 0.48044E-12 0.22968E-13 0.82327E-12 0.64670E-14 0.27535E-11 0.34667E-13 0.16376E-14
 0.11796E-15 0.20470E-15 0.81185E-14 0.14572E-11 0.83822E-14 0.48746E-12 0.40787E-13 0.16650E-11 0.12455E-14 0.12317E-15
 0.15613E-15 0.60021E-15 0.11073E-12 0.60256E-11 0.16792E-13 0.10073E-10 0.29934E-13 0.62431E-12 0.15751E-14 0.15613E-15
 0.82052E-14 0.11077E-12 0.27207E-12 0.51459E-13 0.40107E-14 0.54998E-13 0.27381E-13 0.10499E-12 0.23245E-14 0.69389E-15
 0.14572E-11 0.60256E-11 0.51376E-13 0.28422E-13 0.45658E-14 0.57132E-12 0.23259E-13 0.16716E-11 0.51563E-13 0.58255E-12
 0.82850E-14 0.16820E-13 0.39968E-14 0.45519E-14 0.34694E-14 0.14738E-13 0.20262E-14 0.17847E-13 0.28574E-13 0.13531E-13
 0.48744E-12 0.10073E-10 0.54956E-13 0.57131E-12 0.14794E-13 0.13741E-11 0.17625E-13 0.28186E-13 0.18763E-13 0.60455E-11
 0.40815E-13 0.29948E-13 0.27367E-13 0.23162E-13 0.19568E-14 0.17639E-13 0.53291E-14 0.14433E-14 0.12768E-14 0.12976E-13
 0.16651E-11 0.62429E-12 0.10489E-12 0.16717E-11 0.17875E-13 0.28227E-13 0.14155E-14 0.24980E-14 0.18888E-13 0.19605E-10
 0.13531E-14 0.17104E-14 0.23696E-14 0.51688E-13 0.28741E-13 0.18846E-13 0.13878E-14 0.18929E-13 0.39677E-13 0.37671E-13
 0.16133E-15 0.11796E-15 0.70430E-15 0.58258E-12 0.13489E-13 0.60455E-11 0.13031E-13 0.19605E-10 0.37650E-13 0.26992E-14
 0.45103E-16 0.18388E-15 0.96381E-14 0.35652E-13 0.25119E-14 0.37886E-13 0.43215E-13 0.42993E-13 0.45103E-15 0.76328E-16
 0.16306E-15 0.43021E-15 0.12963E-12 0.18699E-11 0.88263E-14 0.12575E-11 0.64129E-13 0.82249E-12 0.19151E-14 0.13878E-15
 0.97630E-14 0.12963E-12 0.23376E-12 0.15959E-13 0.24980E-14 0.21719E-13 0.34722E-13 0.10135E-12 0.28866E-14 0.89512E-15
 0.35680E-13 0.18699E-11 0.15932E-13 0.94647E-14 0.16515E-14 0.13826E-12 0.50057E-13 0.18645E-11 0.58023E-13 0.68728E-12
 0.24286E-14 0.87430E-14 0.24702E-14 0.16515E-14 0.16376E-14 0.79936E-14 0.19706E-14 0.90206E-14 0.20733E-13 0.66613E-14
 0.37803E-13 0.12574E-11 0.21677E-13 0.13835E-12 0.79797E-14 0.15111E-11 0.43299E-13 0.65198E-13 0.32641E-13 0.75074E-10
 0.43091E-13 0.64129E-13 0.34861E-13 0.50154E-13 0.19568E-14 0.43215E-13 0.18124E-13 0.51903E-14 0.28588E-14 0.33751E-13
 0.43118E-13 0.82249E-12 0.10131E-12 0.18646E-11 0.90344E-14 0.65226E-13 0.52180E-14 0.73830E-14 0.35749E-13 0.56458E-08
 0.51348E-15 0.20678E-14 0.29352E-14 0.58092E-13 0.20789E-13 0.32752E-13 0.28311E-14 0.35860E-13 0.28866E-13 0.43077E-13
 0.11796E-15 0.11102E-15 0.84655E-15 0.68727E-12 0.66891E-14 0.75074E-10 0.33792E-13 0.56458E-08 0.43021E-13 0.42258E-14
 0.13184E-15 0.22204E-15 0.75079E-14 0.67307E-14 0.12074E-14 0.70499E-14 0.11491E-13 0.87985E-14 0.11102E-15 0.15959E-15
 0.22204E-15 0.49960E-15 0.14465E-12 0.10734E-11 0.52180E-14 0.54834E-12 0.27077E-12 0.92991E-12 0.28588E-14 0.19429E-15
 0.76189E-14 0.14468E-12 0.22823E-12 0.11269E-13 0.15959E-14 0.15793E-13 0.53416E-13 0.10691E-12 0.32196E-14 0.86042E-15
 0.67030E-14 0.10734E-11 0.11130E-13 0.51070E-14 0.74940E-15 0.86264E-13 0.21941E-12 0.19886E-11 0.53860E-13 0.69444E-12
 0.11935E-14 0.51070E-14 0.15959E-14 0.77716E-15 0.77716E-15 0.48017E-14 0.22898E-14 0.63838E-14 0.15335E-13 0.44409E-14
 0.69111E-14 0.54824E-12 0.15737E-13 0.86361E-13 0.48433E-14 0.15339E-11 0.14300E-12 0.99609E-12 0.80130E-13 0.20682E-11
 0.11602E-13 0.27071E-12 0.53374E-13 0.21944E-12 0.23592E-14 0.14305E-12 0.12612E-12 0.37470E-13 0.71887E-14 0.10747E-12
 0.89095E-14 0.92992E-12 0.10686E-12 0.19888E-11 0.65226E-14 0.99606E-12 0.37387E-13 0.48100E-13 0.10292E-12 0.10161E-10
 0.18041E-15 0.29560E-14 0.33445E-14 0.54054E-13 0.15363E-13 0.80103E-13 0.73275E-14 0.10281E-12 0.17319E-13 0.38830E-13
 0.13878E-15 0.19429E-15 0.87430E-15 0.69439E-12 0.44964E-14 0.20683E-11 0.10755E-12 0.10161E-10 0.38844E-13 0.65781E-14
 0.41633E-16 0.20817E-15 0.49127E-14 0.18874E-14 0.48572E-15 0.20262E-14 0.16237E-14 0.26368E-14 0.69389E-16 0.13878E-15
 0.19429E-15 0.37470E-15 0.17253E-12 0.52995E-12 0.30254E-14 0.23323E-12 0.11590E-11 0.11346E-11 0.39552E-14 0.29143E-15
 0.50515E-14 0.17254E-12 0.19797E-12 0.33029E-14 0.90206E-15 0.57732E-14 0.49100E-13 0.11824E-12 0.39690E-14 0.13045E-14
 0.18874E-14 0.52996E-12 0.31780E-14 0.21927E-14 0.23592E-15 0.38830E-13 0.83071E-12 0.22399E-11 0.72012E-13 0.87300E-12
 0.45797E-15 0.29976E-14 0.90206E-15 0.22204E-15 0.23592E-15 0.28588E-14 0.18319E-14 0.32474E-14 0.98255E-14 0.22204E-14
 0.20539E-14 0.23304E-12 0.57315E-14 0.38899E-13 0.28172E-14 0.17915E-11 0.40543E-12 0.20781E-09 0.89817E-13 0.12529E-11
 0.16931E-14 0.11590E-11 0.49086E-13 0.83075E-12 0.17208E-14 0.40534E-12 0.13942E-11 0.37886E-12 0.16265E-13 0.27572E-12
 0.26923E-14 0.11346E-11 0.11827E-12 0.22399E-11 0.31919E-14 0.20781E-09 0.37897E-12 0.14823E-11 0.11657E-12 0.39315E-11
 0.15266E-15 0.40384E-14 0.40384E-14 0.72067E-13 0.98810E-14 0.89928E-13 0.16209E-13 0.11668E-12 0.59952E-14 0.44520E-13
 0.13878E-15 0.26368E-15 0.13184E-14 0.87298E-12 0.22482E-14 0.12529E-11 0.27581E-12 0.39315E-11 0.44423E-13 0.12809E-13
 0.55511E-16 0.13878E-15 0.32196E-14 0.77716E-15 0.33307E-15 0.10270E-14 0.52736E-15 0.11796E-14 -.55511E-16 0.11102E-15
 0.16653E-15 0.48572E-15 0.27764E-12 0.36084E-12 0.21094E-14 0.15131E-12 0.21661E-10 0.12540E-11 0.66891E-14 0.29143E-15
 0.33862E-14 0.27767E-12 0.18438E-12 0.21372E-14 0.65919E-15 0.41633E-14 0.39135E-13 0.16984E-12 0.54817E-14 0.12768E-14
 0.77716E-15 0.36082E-12 0.20400E-14 0.16584E-14 0.20123E-15 0.26784E-13 0.24742E-10 0.23253E-11 0.82309E-13 0.90966E-12
 0.30531E-15 0.21094E-14 0.68001E-15 0.18735E-15 0.16653E-15 0.18596E-14 0.20539E-14 0.23870E-14 0.85210E-14 0.16376E-14
 0.91593E-15 0.15125E-12 0.40939E-14 0.26812E-13 0.18596E-14 0.18773E-11 0.18793E-11 0.67319E-10 0.11999E-12 0.82079E-12
 0.52736E-15 0.21660E-10 0.39121E-13 0.24742E-10 0.20539E-14 0.18792E-11 0.10452E-09 0.24931E-11 0.38969E-13 0.89381E-12
 0.12212E-14 0.12540E-11 0.16974E-12 0.23253E-11 0.25535E-14 0.67319E-10 0.24930E-11 0.30511E-11 0.15379E-12 0.17731E-11
 0.97145E-16 0.67585E-14 0.55511E-14 0.82351E-13 0.84932E-14 0.11990E-12 0.39080E-13 0.15368E-12 0.35250E-14 0.45242E-13
 0.11102E-15 0.27756E-15 0.13184E-14 0.90966E-12 0.16098E-14 0.82073E-12 0.89381E-12 0.17732E-11 0.45228E-13 0.20928E-13
 0.41633E-16 0.20817E-15 0.17902E-14 0.27756E-15 0.27756E-15 0.41633E-15 0.13878E-15 0.49960E-15 -.27756E-16 0.20817E-15
 0.13878E-15 0.13878E-15 0.27521E-12 0.21678E-12 0.12212E-14 0.82961E-13 0.10234E-09 0.14237E-11 0.82850E-14 0.54123E-15
 0.19013E-14 0.27529E-12 0.15374E-12 0.63144E-15 0.40939E-15 0.18527E-14 0.16834E-13 0.15128E-12 0.57176E-14 0.12629E-14
 0.33307E-15 0.21675E-12 0.54817E-15 0.10096E-14 0.90206E-16 0.15883E-13 0.11043E-09 0.25417E-11 0.90525E-13 0.12228E-11
 0.22204E-15 0.11935E-14 0.34694E-15 0.90206E-16 0.62450E-16 0.10547E-14 0.14017E-14 0.14710E-14 0.56344E-14 0.94369E-15
 0.44409E-15 0.82920E-13 0.17972E-14 0.15911E-13 0.11241E-14 0.23984E-11 0.18010E-11 0.41078E-14 0.68501E-13 0.14518E-11
 0.13878E-15 0.10234E-09 0.16924E-13 0.11043E-09 0.14017E-14 0.18010E-11 0.78187E-12 0.81962E-13 0.23148E-13 0.67391E-12
 0.58287E-15 0.14238E-11 0.15130E-12 0.25418E-11 0.16098E-14 0.39135E-14 0.81851E-13 0.95479E-14 0.82045E-13 0.12407E-11
 0.55511E-16 0.83544E-14 0.57315E-14 0.90525E-13 0.56344E-14 0.68667E-13 0.23204E-13 0.82129E-13  0.0000     0.46449E-13
 0.69389E-16 0.49960E-15 0.12629E-14 0.12228E-11 0.99920E-15 0.14517E-11 0.67377E-12 0.12408E-11 0.46380E-13 0.42522E-13
 0.12490E-15 0.15266E-15 0.13600E-14 0.16653E-15 0.16653E-15 0.24980E-15 -.13878E-16 0.34694E-15 -.41633E-16 0.17347E-15
 0.19429E-15 0.62450E-16 0.61801E-12 0.16356E-12 0.86042E-15 0.60972E-13 0.14296E-10 0.14767E-11 0.12962E-13 0.76328E-15
 0.14710E-14 0.61812E-12 0.15796E-12 0.26368E-15 0.28623E-15 0.99920E-15 0.67168E-14 0.22193E-12 0.78271E-14 0.16237E-14
 0.22204E-15 0.16354E-12 0.20817E-15 0.80144E-15 0.34694E-16 0.11375E-13 0.87861E-11 0.25729E-11 0.10411E-12 0.14410E-11
 0.15266E-15 0.88818E-15 0.23939E-15 0.55511E-16 0.32960E-16 0.69389E-15 0.13184E-14 0.11102E-14 0.44409E-14 0.72164E-15
 0.27756E-15 0.60944E-13 0.98532E-15 0.11439E-13 0.70777E-15 0.25731E-11 0.87297E-12 0.36082E-15 0.45575E-13 0.39025E-11
 0.15266E-15 0.14296E-10 0.68279E-14 0.87860E-11 0.13461E-14 0.87297E-12 0.97311E-13 0.15238E-13 0.11019E-13 0.32119E-12
 0.38858E-15 0.14769E-11 0.22179E-12 0.25730E-11 0.12212E-14 0.33307E-15 0.15210E-13 0.52736E-15 0.54123E-13 0.82095E-12
 0.11102E-15 0.12962E-13 0.79381E-14 0.10411E-12 0.45242E-14 0.45519E-13 0.11047E-13 0.54040E-13 0.15266E-14 0.47747E-13
 0.76328E-16 0.74940E-15 0.15890E-14 0.14409E-11 0.66613E-15 0.39024E-11 0.32117E-12 0.82084E-12 0.47677E-13 0.96451E-13
 0.11102E-15 0.83267E-16 0.11033E-14 0.83267E-16 0.13878E-15 0.19429E-15  0.0000     0.13184E-15 0.11102E-15 0.90206E-16
 0.10408E-15 0.55511E-16 0.63811E-12 0.11856E-12 0.59674E-15 0.45880E-13 0.14257E-11 0.15719E-11 0.19068E-13 0.11657E-14
 0.11796E-14 0.63811E-12 0.17479E-12 0.13878E-15 0.26194E-15 0.74940E-15 0.28241E-14 0.22599E-12 0.92149E-14 0.24841E-14
 0.11102E-15 0.11853E-12 0.13878E-15 0.54817E-15 0.76328E-16 0.96711E-14 0.75287E-12 0.27850E-11 0.98935E-13 0.90830E-12
 0.97145E-16 0.59674E-15 0.20730E-15 0.20817E-16 -.22551E-16 0.60368E-15 0.13461E-14 0.81879E-15 0.36221E-14 0.44409E-15
 0.13878E-15 0.45844E-13 0.69389E-15 0.96572E-14 0.59674E-15 0.37825E-11 0.25491E-12 0.72164E-15 0.27894E-13 0.53827E-11
 0.27756E-16 0.14257E-11 0.29178E-14 0.75289E-12 0.12629E-14 0.25488E-12 0.21594E-13 0.47184E-14 0.44409E-14 0.11081E-12
 0.20817E-15 0.15719E-11 0.22594E-12 0.27850E-11 0.86042E-15 0.63838E-15 0.47046E-14 0.83267E-16 0.31877E-13 0.67496E-12
 0.11102E-15 0.19013E-13 0.93398E-14 0.98907E-13 0.36221E-14 0.27908E-13 0.44686E-14 0.31947E-13 0.56899E-14 0.44062E-13
 0.41633E-16 0.11102E-14 0.24356E-14 0.90825E-12 0.45797E-15 0.53826E-11 0.11082E-12 0.67495E-12 0.44020E-13 0.41998E-12
 0.11102E-15 0.97145E-16 0.10408E-14 0.11102E-15 0.41633E-16 0.16653E-15 -.13878E-16 0.11796E-15 0.13878E-16 0.69389E-16
 0.11102E-15 0.10408E-15 0.13307E-11 0.79260E-13 0.38858E-15 0.32679E-13 0.27851E-12 0.14728E-11 0.30698E-13 0.21927E-14
 0.11033E-14 0.13308E-11 0.19921E-12 0.72858E-16 0.12230E-15 0.28796E-15 0.95757E-15 0.30317E-12 0.11977E-13 0.44409E-14
 0.83267E-16 0.79284E-13 -.17347E-16 0.39790E-15 -.27756E-16 0.79962E-14 0.13644E-12 0.27456E-11 0.11648E-12 0.13939E-11
 0.41633E-16 0.37817E-15 0.10929E-15 -.45103E-16 -.32960E-16 0.43021E-15 0.92287E-15 0.62450E-15 0.27200E-14 0.34694E-15
 0.22204E-15 0.32620E-13 0.28449E-15 0.80942E-14 0.37470E-15 0.43281E-11 0.93772E-13 0.17625E-14 0.15640E-13 0.33795E-12
 0.83267E-16 0.27850E-12 0.88124E-15 0.13637E-12 0.89512E-15 0.93758E-13 0.77854E-14 0.15959E-14 0.15890E-14 0.47011E-13
 0.16653E-15 0.14728E-11 0.30308E-12 0.27457E-11 0.72858E-15 0.16515E-14 0.16792E-14 -.90206E-16 0.18104E-13 0.51882E-12
 0.12490E-15 0.30753E-13 0.11997E-13 0.11655E-12 0.27200E-14 0.15585E-13 0.16376E-14 0.18090E-13 0.92287E-14 0.44645E-13
 0.83267E-16 0.21511E-14 0.44340E-14 0.13938E-11 0.35388E-15 0.33794E-12 0.47080E-13 0.51892E-12 0.44582E-13 0.11604E-10
 -.13878E-16 0.12490E-15 0.83267E-15 0.27756E-16 0.11102E-15 0.10408E-15 -.13878E-16 0.69389E-16 0.69389E-17 0.11102E-15
 0.83267E-16 0.51695E-14 0.17505E-11 0.65302E-13 0.32613E-15 0.27221E-13 0.11845E-12 0.15188E-11 0.41224E-13 0.43021E-14
 0.93675E-15 0.17505E-11 0.19530E-12 -.13878E-16 0.86736E-16 0.27062E-15 0.13184E-15 0.31709E-12 0.13524E-13 0.33862E-14
 0.13878E-15 0.65344E-13 0.20817E-16 0.41980E-15 0.62450E-16 0.87742E-14 0.62145E-13 0.29156E-11 0.12913E-12 0.10567E-11
 0.69389E-16 0.31225E-15 0.10408E-15 -.17347E-16 0.17347E-16 0.34001E-15 0.92981E-15 0.51348E-15 0.20955E-14 0.29837E-15
 0.14572E-15 0.27110E-13 0.23939E-15 0.88506E-14 0.34001E-15 0.63266E-11 0.40537E-13 0.97145E-15 0.98532E-14 0.81754E-13
 0.41633E-16 0.11849E-12 0.11796E-15 0.62186E-13 0.79103E-15 0.40488E-13 0.36082E-14 0.90206E-15 0.73552E-15 0.23141E-13
 0.10408E-15 0.15189E-11 0.31706E-12 0.29157E-11 0.52042E-15 0.98532E-15 0.80491E-15 -.41633E-16 0.11033E-13 0.44902E-12
 0.62450E-16 0.41293E-13 0.13656E-13 0.12908E-12 0.20955E-14 0.98949E-14 0.77716E-15 0.11109E-13 0.12913E-13 0.42445E-13
  0.0000     0.43854E-14 0.32474E-14 0.10567E-11 0.33307E-15 0.81810E-13 0.23086E-13 0.44899E-12 0.42404E-13 0.21396E-11
 0.11796E-15 0.69389E-16 0.79103E-15 0.55511E-16 0.13878E-15 0.13878E-15  0.0000     0.76328E-16 0.13878E-16 0.13184E-15
 0.76328E-16 0.28061E-13 0.20257E-11 0.46414E-13 0.29143E-15 0.20518E-13 0.45221E-13 0.13418E-11 0.61784E-13 0.97561E-14
 0.83267E-15 0.20258E-11 0.22238E-12 0.13878E-16 0.10408E-15 0.18735E-15 0.41633E-16 0.33696E-12 0.15946E-13 0.39968E-14
 0.34694E-16 0.46435E-13 0.69389E-17 0.38164E-15 -.13878E-16 0.88540E-14 0.22649E-13 0.28174E-11 0.13700E-12 0.67056E-12
 0.13878E-16 0.29837E-15 0.48572E-16 -.41633E-16 0.69389E-17 0.19429E-15 0.72164E-15 0.35388E-15 0.17625E-14 0.20817E-15
 0.13184E-15 0.20511E-13 0.19429E-15 0.89373E-14 0.22898E-15 0.97016E-11 0.20629E-13 0.83961E-15 0.70499E-14 0.24342E-13
 0.69389E-16 0.45297E-13 0.55511E-16 0.22655E-13 0.72164E-15 0.20602E-13 0.21788E-14 0.61756E-15 0.42327E-15 0.12067E-13
 0.48572E-16 0.13418E-11 0.33690E-12 0.28174E-11 0.45797E-15 0.69389E-15 0.52042E-15 -.34694E-16 0.78687E-14 0.37621E-12
 0.83267E-16 0.61923E-13 0.16001E-13 0.13707E-12 0.18041E-14 0.69389E-14 0.52736E-15 0.79659E-14 0.13559E-13 0.39795E-13
 0.62450E-16 0.97700E-14 0.38788E-14 0.67049E-12 0.13878E-15 0.24314E-13 0.12115E-13 0.37621E-12 0.39760E-13 0.63834E-12
 -.34694E-16 0.34694E-16 0.83961E-15  0.0000     0.41633E-16 0.90206E-16 -.55511E-16 0.69389E-17 0.69389E-17 0.20817E-16
 0.34694E-16 0.31982E-12 0.97109E-11 0.37977E-13 0.19429E-15 0.17424E-13 0.26402E-13 0.13096E-11 0.10061E-12 0.29803E-13
 0.88818E-15 0.97109E-11 0.22264E-12 0.27756E-16 0.97145E-16 0.20817E-16 0.20817E-16 0.42134E-12 0.21719E-13 0.95340E-14
 0.69389E-17 0.37935E-13  0.0000     0.32613E-15 0.20817E-16 0.87222E-14 0.12920E-13 0.28832E-11 0.14492E-12 0.47642E-12
 0.27756E-16 0.23592E-15 0.20817E-16 -.27756E-16 -.27756E-16 0.22204E-15 0.69389E-15 0.31919E-15 0.14502E-14 0.21511E-15
 0.34694E-16 0.17375E-13 0.34694E-16 0.88124E-14 0.17347E-15 0.21722E-10 0.11796E-13 0.62450E-15 0.42466E-14 0.10880E-13
 -.27756E-16 0.26465E-13 0.69389E-16 0.12955E-13 0.58981E-15 0.11831E-13 0.11935E-14 0.38858E-15 0.32613E-15 0.73136E-14
 0.97145E-16 0.13096E-11 0.42132E-12 0.28832E-11 0.29143E-15 0.70083E-15 0.34694E-15 0.69389E-17 0.51625E-14 0.33452E-12
 0.13878E-16 0.10074E-12 0.21858E-13 0.14495E-12 0.14641E-14 0.42258E-14 0.27062E-15 0.52042E-14 0.15016E-13 0.38414E-13
 0.13878E-16 0.29823E-13 0.94924E-14 0.47642E-12 0.15959E-15 0.10839E-13 0.73899E-14 0.33448E-12 0.38525E-13 0.31157E-12
 0.41633E-16 0.83267E-16 0.58981E-15 -.69389E-17 0.41633E-16 0.55511E-16 -.97145E-16 0.97145E-16 0.20817E-16 0.10408E-15
 0.83267E-16 0.69535E-12 0.33417E-11 0.27790E-13 0.15266E-15 0.13808E-13 0.13899E-13 0.11789E-11 0.12027E-12 0.91011E-13
 0.66613E-15 0.33418E-11 0.26290E-12 0.41633E-16 0.41633E-16 0.90206E-16 0.55511E-16 0.33859E-12 0.19498E-13 0.14322E-13
  0.0000     0.27700E-13 -.13878E-16 0.38858E-15 0.20817E-16 0.88124E-14 0.66058E-14 0.26842E-11 0.12756E-12 0.29830E-13
 0.13878E-16 0.13878E-15 0.15959E-15 -.34694E-16 -.13878E-16 0.13878E-15 0.47184E-15 0.22204E-15 0.13045E-14 0.13878E-15
 0.48572E-16 0.13795E-13 0.97145E-16 0.88402E-14 0.14572E-15 0.41457E-10 0.72164E-14 0.50654E-15 0.32543E-14 0.47948E-14
 0.27756E-16 0.13892E-13 0.27756E-16 0.66058E-14 0.44409E-15 0.72789E-14 0.77022E-15 0.27756E-15 0.76328E-16 0.46005E-14
 0.20817E-16 0.11790E-11 0.33851E-12 0.26844E-11 0.29143E-15 0.43715E-15 0.24980E-15 -.34694E-16 0.39274E-14 0.29332E-12
 0.83267E-16 0.12041E-12 0.19547E-13 0.12763E-12 0.14155E-14 0.31572E-14 0.14572E-15 0.39274E-14 0.14017E-13 0.34757E-13
 0.13878E-15 0.91011E-13 0.14287E-13 0.29754E-13 0.83267E-16 0.48017E-14 0.46005E-14 0.29325E-12 0.34799E-13 0.25373E-12
 -.27756E-16 0.90206E-16 0.76328E-15  0.0000     0.83267E-16 -.13878E-16 -.34694E-16 0.62450E-16 0.69389E-17 0.48572E-16
 0.62450E-16 0.18338E-12 0.93456E-11 0.22995E-13 0.19429E-15 0.12719E-13 0.91663E-14 0.14888E-11 0.17916E-12 0.14206E-11
 0.81879E-15 0.93456E-11 0.28134E-12 0.48572E-16 0.62450E-16 0.41633E-16 -.69389E-16 0.77126E-12 0.28810E-13 0.43021E-13
 0.20817E-16 0.23023E-13 0.69389E-17 0.22204E-15 0.27756E-16 0.96034E-14 0.44270E-14 0.27185E-11 0.15360E-12 0.33508E-13
 0.90206E-16 0.12490E-15 0.41633E-16 -.13878E-16 -.27756E-16 0.12490E-15 0.38858E-15 0.23592E-15 0.11102E-14 0.83267E-16
 0.55511E-16 0.12691E-13 0.55511E-16 0.96312E-14 0.12490E-15 0.10262E-09 0.47393E-14 0.49960E-15 0.23072E-14 0.31780E-14
 0.27756E-16 0.92426E-14 0.69389E-16 0.44548E-14 0.37470E-15 0.47948E-14 0.54470E-15 0.33307E-15 0.20817E-15 0.32058E-14
 0.76328E-16 0.14888E-11 0.77124E-12 0.27186E-11 0.24286E-15 0.49613E-15 0.23245E-15 -.12143E-16 0.37574E-14 0.27608E-12
 0.41633E-16 0.17927E-12 0.28921E-13 0.15360E-12 0.12212E-14 0.24668E-14 0.26021E-15 0.37748E-14 0.15092E-13 0.33709E-13
 0.13878E-16 0.14207E-11 0.42980E-13 0.33473E-13 0.83267E-16 0.31641E-14 0.33445E-14 0.27605E-12 0.33640E-13 0.21420E-12
 0.27756E-16 0.41633E-16 0.56899E-15 0.69389E-17 0.55511E-16 0.97145E-16 -.83267E-16 0.27756E-16 -.41633E-16 0.27756E-16
 0.41633E-16 0.87930E-13 0.15770E-10 0.17125E-13 0.13878E-15 0.89304E-14 0.57385E-14 0.15074E-11 0.15464E-12 0.54167E-10
 0.55511E-15 0.15770E-10 0.29047E-12 0.13878E-16 -.41633E-16 0.13878E-16 0.41633E-16 0.87017E-12 0.20456E-13 0.12740E-13
  0.0000     0.17153E-13 -.41633E-16 0.22898E-15  0.0000     0.76883E-14 0.25605E-14 0.24733E-11 0.13976E-12 0.83440E-13
 0.48572E-16 0.76328E-16 0.55511E-16 -.13878E-16 -.83267E-16 0.62450E-16 0.30531E-15 0.12490E-15 0.11553E-14 0.48572E-16
 -.62450E-16 0.89442E-14 0.20817E-16 0.77091E-14 0.13878E-16 0.28038E-09 0.30254E-14 0.48746E-15 0.16029E-14 0.32613E-15
 0.13878E-16 0.57176E-14 0.12490E-15 0.25813E-14 0.27062E-15 0.30011E-14 0.23592E-15 0.19689E-15 -.30358E-16 0.20782E-14
 -.27756E-16 0.15074E-11 0.87012E-12 0.24733E-11 0.97145E-16 0.41460E-15 0.24893E-15 -.89338E-16 0.23783E-14 0.24778E-12
 0.34694E-16 0.15473E-12 0.20442E-13 0.13974E-12 0.11727E-14 0.15127E-14 -.72858E-16 0.23662E-14 0.14527E-13 0.29927E-13
 -.69389E-16 0.54167E-10 0.12691E-13 0.83357E-13 -.48572E-16 0.29837E-15 0.21233E-14 0.24767E-12 0.29955E-13 0.17893E-12
 0.83267E-16 0.97145E-16 0.76328E-15 0.48572E-16 0.55511E-16 0.55511E-16 0.20817E-16 0.97145E-16 0.48572E-16 0.62450E-16
 0.13878E-16 0.79131E-13 0.23853E-10 0.13781E-13 0.97145E-16 0.88679E-14 0.39552E-14 0.15830E-11 0.24343E-12 0.59464E-10
 0.84655E-15 0.23853E-10 0.30801E-12 0.55511E-16 0.34694E-16 0.76328E-16 0.16653E-15 0.11054E-11 0.28574E-13 0.62977E-13
 0.13878E-16 0.13801E-13 0.13878E-16 0.36776E-15 0.55511E-16 0.10103E-13 0.17347E-14 0.24466E-11 0.16589E-12 0.33307E-13
 0.55511E-16 0.34694E-16 0.55511E-16 0.55511E-16  0.0000     0.15959E-15 0.40939E-15 0.26368E-15 0.12629E-14 0.10755E-15
 0.11102E-15 0.88263E-14 0.41633E-16 0.10103E-13 0.13878E-15 0.77456E-10 0.27200E-14 0.43498E-15 0.17625E-14 0.11588E-14
 -.20817E-16 0.39413E-14  0.0000     0.17694E-14 0.35388E-15 0.27200E-14 0.53343E-15 0.30531E-15 -.44019E-16 0.18388E-14
 0.55511E-16 0.15829E-11 0.11053E-11 0.24467E-11 0.19429E-15 0.41894E-15 0.27756E-15 0.52909E-16 0.34660E-14 0.21377E-12
 0.41633E-16 0.24353E-12 0.28588E-13 0.16592E-12 0.12976E-14 0.19151E-14 0.40766E-16 0.35145E-14 0.13330E-13 0.28234E-13
  0.0000     0.59464E-10 0.62922E-13 0.33258E-13 0.76328E-16 0.11276E-14 0.19377E-14 0.21374E-12 0.28186E-13 0.21295E-12
 -.27756E-16 -.13878E-16 0.62450E-15 -.41633E-16 -.27756E-16 0.41633E-16 -.55511E-16 -.13878E-16 -.34694E-16 0.11102E-15
 -.13878E-16 0.71748E-13 0.86815E-11 0.10152E-13 0.41633E-16 0.68001E-14 0.27062E-14 0.14931E-11 0.17129E-12 0.63666E-12
 0.63838E-15 0.86815E-11 0.34750E-12 -.13878E-16 -.13878E-16 0.13878E-16 0.11102E-15 0.97750E-12 0.22010E-13 0.26673E-13
 0.20817E-16 0.10179E-13 -.13878E-16 0.31919E-15 -.27756E-16 0.89373E-14 0.11519E-14 0.21897E-11 0.13214E-12 0.17301E-12
  0.0000      0.0000     0.55511E-16 0.27756E-16 0.27756E-16 -.13878E-16 0.20123E-15 0.69389E-16 0.11900E-14 -.41633E-16
 -.13878E-16 0.68279E-14 -.13878E-16 0.89095E-14 -.41633E-16 0.12559E-10 0.14155E-14 0.28103E-15 0.94369E-15 -.34694E-17
 0.27756E-16 0.26645E-14 0.11102E-15 0.11588E-14 0.25674E-15 0.15266E-14 0.45103E-16  0.0000     -.97145E-16 0.10686E-14
 -.27756E-16 0.14931E-11 0.97741E-12 0.21897E-11 0.13878E-15 0.19082E-15 0.12490E-15 -.91940E-16 0.21788E-14 0.20822E-12
 -.20817E-16 0.17138E-12 0.22066E-13 0.13209E-12 0.13808E-14 0.92981E-15 -.19082E-16 0.22274E-14 0.12067E-13 0.25140E-13
 0.55511E-16 0.63659E-12 0.26701E-13 0.17295E-12 0.13878E-16 -.12143E-15 0.12525E-14 0.20809E-12 0.25084E-13 0.21332E-12
 -.13878E-16 0.41633E-16 0.73552E-15 -.41633E-16 0.41633E-16 0.41633E-16  0.0000     -.27756E-16  0.0000     0.83267E-16
 0.27756E-16 0.88540E-13 0.19738E-11 0.95202E-14 0.11796E-15 0.60230E-14 0.22413E-14 0.17656E-11 0.21658E-12 0.11396E-12
 0.86042E-15 0.19738E-11 0.34439E-12 -.13878E-16 0.55511E-16 0.13878E-16  0.0000     0.17826E-11 0.28838E-13 0.20317E-13
 0.27756E-16 0.94091E-14 0.27756E-16 0.33307E-15 0.27756E-16 0.93259E-14 0.94369E-15 0.21519E-11 0.15239E-12 0.73684E-13
 0.13878E-16 0.76328E-16  0.0000      0.0000      0.0000     0.13878E-15 0.30531E-15 0.11102E-15 0.15335E-14  0.0000    
 0.27756E-16 0.59952E-14 -.69389E-16 0.92704E-14 0.83267E-16 0.69856E-11 0.13878E-14 0.38164E-15 0.14849E-14 0.19429E-15
  0.0000     0.22274E-14 0.12490E-15 0.98532E-15 0.20817E-15 0.14433E-14 0.34348E-15 0.69389E-16 -.13878E-16 0.99920E-15
 0.13878E-16 0.17656E-11 0.17826E-11 0.21520E-11 0.13878E-15 0.39552E-15 0.83267E-16 0.79797E-16 0.30254E-14 0.18233E-12
 0.13878E-16 0.21663E-12 0.28894E-13 0.15238E-12 0.16376E-14 0.15266E-14 0.55511E-16 0.29143E-14 0.11151E-13 0.27978E-13
 -.83267E-16 0.11395E-12 0.20262E-13 0.73552E-13  0.0000     0.25674E-15 0.11380E-14 0.18224E-12 0.28005E-13 0.24123E-12
  0.0000     -.27756E-16 0.61062E-15 -.83267E-16 0.55511E-16 0.41633E-16 0.55511E-16 -.13878E-16 -.69389E-16 0.11102E-15
 0.27756E-16 0.10374E-12 0.13828E-11 0.76050E-14 0.34694E-16 0.56621E-14 0.17070E-14 0.16635E-11 0.16283E-12 0.32196E-13
 0.68001E-15 0.13829E-11 0.37620E-12 -.13878E-16  0.0000     0.55511E-16 -.27756E-16 0.25149E-11 0.21289E-13 0.24702E-14
 -.27756E-16 0.76050E-14 -.27756E-16 0.41633E-15 -.27756E-16 0.97561E-14 0.59674E-15 0.19105E-11 0.13554E-12 0.12208E-12
 0.13878E-16 0.34694E-16 -.27756E-16 -.55511E-16 -.55511E-16 0.11102E-15 0.18041E-15 0.83267E-16 0.13045E-14 0.27756E-16
 -.55511E-16 0.56066E-14  0.0000     0.96728E-14 0.27756E-16 0.48353E-11 0.95757E-15 0.30531E-15 0.91593E-15 0.69389E-16
 0.27756E-16 0.15959E-14 0.41633E-16 0.65226E-15 0.16653E-15 0.90206E-15 0.41633E-16  0.0000     -.55511E-16 0.61062E-15
  0.0000     0.16634E-11 0.25149E-11 0.19106E-11 0.83267E-16 0.26368E-15 -.11102E-15 -.83267E-16 0.23315E-14 0.16750E-12
 -.69389E-16 0.16288E-12 0.21261E-13 0.13563E-12 0.14017E-14 0.99920E-15 -.13878E-16 0.22760E-14 0.10214E-13 0.26756E-13
 0.13878E-16 0.32169E-13 0.24147E-14 0.12194E-12  0.0000     -.34694E-16 0.66613E-15 0.16739E-12 0.26784E-13 0.27552E-12
 -.69389E-16  0.0000     0.77716E-15 -.13878E-16 0.97145E-16  0.0000     0.13878E-16 0.27756E-16 0.27756E-16 0.41633E-16
  0.0000     0.17172E-12 0.54841E-12 0.68695E-14 0.55511E-16 0.60230E-14 0.13184E-14 0.18958E-11 0.15253E-12 0.11824E-13
 0.90206E-15 0.54839E-12 0.39171E-12 0.13878E-16 0.27756E-16 0.97145E-16 0.16653E-15 0.53275E-11 0.22635E-13 0.63838E-15
 0.13878E-16 0.68973E-14 0.13878E-16 0.40246E-15 -.55511E-16 0.11033E-13 0.55511E-15 0.18461E-11 0.12831E-12 0.14165E-12
 0.27756E-16 -.27756E-16 -.69389E-16  0.0000     0.27756E-16 0.11102E-15 0.16653E-15 0.13878E-15 0.16376E-14 0.97145E-16
 -.13878E-16 0.60230E-14 0.13878E-16 0.10894E-13 0.55511E-16 0.20239E-11 0.88818E-15 0.26368E-15 0.10547E-14 0.48572E-16
 -.13878E-16 0.13045E-14 0.97145E-16 0.52736E-15 0.12490E-15 0.81879E-15 0.20817E-15 0.15266E-15 0.83267E-16 0.66613E-15
  0.0000     0.18957E-11 0.53276E-11 0.18462E-11 0.83267E-16 0.20817E-15 0.11102E-15 0.41633E-16 0.23453E-14 0.16387E-12
 0.69389E-16 0.15257E-12 0.22649E-13 0.12837E-12 0.16792E-14 0.10131E-14 0.69389E-16 0.23592E-14 0.92010E-14 0.31863E-13
 0.97145E-16 0.11796E-13 0.56899E-15 0.14164E-12 0.12490E-15 0.34694E-16 0.69389E-15 0.16388E-12 0.31766E-13 0.27468E-12
 0.48572E-16 -.20817E-16 0.80491E-15 0.41633E-16 0.27756E-16 0.69389E-16 0.13878E-16 0.13878E-16 0.55511E-16 -.34694E-16
  0.0000     0.48112E-12 0.13733E-11 0.54540E-14 0.41633E-16 0.70777E-14 0.11657E-14 0.19138E-11 0.14080E-12 0.58772E-14
 0.91593E-15 0.13733E-11 0.46467E-12 0.11102E-15 0.27756E-16 0.83267E-16 -.69389E-16 0.90371E-11 0.19790E-13 0.55511E-15
 0.83267E-16 0.54956E-14 0.69389E-16 0.36082E-15 -.27756E-16 0.10755E-13 0.45797E-15 0.16424E-11 0.12126E-12 0.10260E-12
 0.41633E-16 -.27756E-16 -.69389E-16  0.0000     -.55511E-16 0.13878E-15 0.13878E-15 0.83267E-16 0.17625E-14 0.55511E-16
 0.69389E-16 0.70777E-14 -.13878E-16 0.10700E-13 -.13878E-16 0.30931E-11 0.63838E-15 0.27756E-15 0.11935E-14 0.97145E-16
 -.27756E-16 0.10825E-14  0.0000     0.44409E-15 0.11102E-15 0.72164E-15 0.30531E-15 0.16653E-15 0.11102E-15 0.52736E-15
 0.13878E-16 0.19139E-11 0.90370E-11 0.16424E-11 0.11102E-15 0.19429E-15 0.41633E-16  0.0000     0.24841E-14 0.14071E-12
 0.27756E-16 0.14086E-12 0.19762E-13 0.12126E-12 0.17902E-14 0.10686E-14 0.55511E-16 0.24564E-14 0.79659E-14 0.32918E-13
 0.13878E-16 0.58564E-14 0.51348E-15 0.10243E-12 0.27756E-16 0.83267E-16 0.63838E-15 0.14067E-12 0.32863E-13 0.39018E-12
 0.72858E-16 0.69389E-17 0.72858E-15 -.13878E-16 0.83267E-16 0.27756E-16 -.69389E-16 -.83267E-16 -.69389E-17 0.10408E-15
 0.20817E-16 0.81504E-11 0.37219E-10 0.49682E-14 0.41633E-16 0.86597E-14 0.10547E-14 0.20360E-11 0.11288E-12 0.29907E-14
 0.77716E-15 0.37219E-10 0.50593E-12  0.0000     -.13878E-16 0.13878E-16  0.0000     0.13195E-10 0.14856E-13 0.18735E-15
 0.27756E-16 0.49544E-14 0.13878E-16 0.52736E-15 0.83267E-16 0.14766E-13 0.44409E-15 0.15258E-11 0.98047E-13 0.12400E-12
 0.41633E-16 0.69389E-16 0.27756E-16 -.55511E-16 0.13878E-16 0.69389E-16 0.69389E-16 0.27756E-16 0.20817E-14 0.83267E-16
 0.13878E-16 0.86320E-14 -.55511E-16 0.14669E-13 0.69389E-16 0.16930E-11 0.61062E-15 0.11102E-15 0.13461E-14  0.0000    
 -.27756E-16 0.98532E-15 0.27756E-16 0.37470E-15 0.97145E-16 0.61062E-15 0.15266E-15 0.97145E-16  0.0000     0.44409E-15
  0.0000     0.20361E-11 0.13195E-10 0.15259E-11 0.55511E-16 0.15266E-15 0.27756E-16 -.55511E-16 0.31364E-14 0.14595E-12
  0.0000     0.11284E-12 0.14884E-13 0.97977E-13 0.21511E-14 0.13045E-14 0.55511E-16 0.29976E-14 0.69805E-14 0.33765E-13
  0.0000     0.29490E-14 0.18041E-15 0.12396E-12 0.13878E-16 0.27756E-16 0.52736E-15 0.14579E-12 0.33765E-13 0.39764E-12
 0.43368E-16 -.17347E-16 0.10547E-14 -.55511E-16 0.97145E-16 0.27756E-16 -.13878E-16  0.0000      0.0000     0.52042E-16
 -.17347E-16 0.10790E-11 0.10496E-12 0.50515E-14  0.0000     0.96867E-14 0.13461E-14 0.23095E-11 0.12517E-12 0.14884E-14
 0.11310E-14 0.10506E-12 0.56440E-12 0.55511E-16 0.13878E-16 0.27756E-16 0.27756E-16 0.30182E-09 0.16168E-13 0.66613E-15
 0.13878E-16 0.51209E-14 -.69389E-16 0.59674E-15 0.27756E-16 0.13378E-13 0.34694E-15 0.14727E-11 0.13982E-12 0.61513E-13
 0.41633E-16 -.27756E-16 -.69389E-16  0.0000     0.41633E-16 0.83267E-16 0.18041E-15 0.13878E-16 0.22760E-14 0.41633E-16
 -.13878E-16 0.97145E-14 -.11102E-15 0.13420E-13 0.55511E-16 0.30763E-11 0.83267E-15 0.23592E-15 0.12629E-14 0.27756E-16
 -.13878E-16 0.12906E-14 -.41633E-16 0.36082E-15 0.13878E-15 0.81879E-15 0.19429E-15 0.19429E-15 0.27756E-16 0.58287E-15
  0.0000     0.23096E-11 0.30182E-09 0.14727E-11 0.83267E-16 0.13878E-15 0.27756E-16 -.97145E-16 0.29560E-14 0.17590E-12
 0.69389E-17 0.12522E-12 0.16154E-13 0.13982E-12 0.24147E-14 0.11657E-14 0.13878E-16 0.29005E-14 0.64809E-14 0.46241E-13
 0.91940E-16 0.14849E-14 0.61756E-15 0.61430E-13 0.55511E-16 0.55511E-16 0.58287E-15 0.17585E-12 0.46130E-13 0.56412E-12
 -.58113E-16 0.60092E-16 0.10105E-14 -.39465E-16 0.93675E-16 0.22551E-16 -.60173E-17 -.69931E-17 0.29057E-16 0.27213E-16
 0.73048E-16 0.10760E-12 0.55036E-13 0.50927E-14 0.55511E-16 0.13338E-13 0.20366E-14 0.26568E-11 0.11783E-12 0.10653E-14
 0.11072E-14 0.55066E-13 0.67822E-12 0.52042E-17 0.56379E-16 -.45970E-16 0.42501E-16 0.67336E-10 0.13910E-13 0.73726E-16
 0.30791E-16 0.51218E-14 -.74593E-16 0.61756E-15 0.10408E-16 0.18965E-13 0.43498E-15 0.13874E-11 0.18519E-12 0.30730E-13