 vasp.5.4.4.18Apr17-6-g9f103f2a35 (build Jun 30 2017 11:15:00) complex          
  
 executed on    STALLO_VASP_5.4.4 date 2019.10.11  11:50:03
 running on    4 total cores
 distrk:  each k-point on    4 cores,    1 groups
 distr:  one band on NCORES_PER_BAND=   2 cores,    2 groups


--------------------------------------------------------------------------------------------------------


 INCAR:
 POTCAR:   PAW_PBE Cu 05Jan2001                   
 POTCAR:   PAW_PBE H 15Jun2001                    
 POTCAR:   PAW_PBE Cu 05Jan2001                   
   VRHFIN =Cu: d10 p1                                                           
   LEXCH  = PE                                                                  
   EATOM  =  1390.9800 eV,  102.2341 Ry                                         
                                                                                
   TITEL  = PAW_PBE Cu 05Jan2001                                                
   LULTRA =        F    use ultrasoft PP ?                                      
   IUNSCR =        1    unscreen: 0-lin 1-nonlin 2-no                           
   RPACOR =    2.000    partial core radius                                     
   POMASS =   63.546; ZVAL   =   11.000    mass and valenz                      
   RCORE  =    2.300    outmost cutoff radius                                   
   RWIGS  =    2.480; RWIGS  =    1.312    wigner-seitz radius (au A)           
   ENMAX  =  273.214; ENMIN  =  204.910 eV                                      
   RCLOC  =    1.712    cutoff for local pot                                    
   LCOR   =        T    correct aug charges                                     
   LPAW   =        T    paw PP                                                  
   EAUG   =  516.456                                                            
   DEXC   =    -.008                                                            
   RMAX   =    2.789    core radius for proj-oper                               
   RAUG   =    1.300    factor for augmentation sphere                          
   RDEP   =    2.302    radius for radial grids                                 
   QCUT   =   -4.481; QGAM   =    8.962    optimization parameters              
                                                                                
   Description                                                                  
     l     E      TYP  RCUT    TYP  RCUT                                        
     2   .000     23  2.300                                                     
     2   .000     23  2.300                                                     
     0   .000     23  2.300                                                     
     0   .000     23  2.300                                                     
     1  -.200     23  2.300                                                     
     1   .000     23  2.300                                                     
     3   .000      7   .000                                                     
  local pseudopotential read in
  partial core-charges read in
  atomic valenz-charges read in
  non local Contribution for L=           2  read in
    real space projection operators read in
  non local Contribution for L=           2  read in
    real space projection operators read in
  non local Contribution for L=           0  read in
    real space projection operators read in
  non local Contribution for L=           0  read in
    real space projection operators read in
  non local Contribution for L=           1  read in
    real space projection operators read in
  non local Contribution for L=           1  read in
    real space projection operators read in
    PAW grid and wavefunctions read in
 
   number of l-projection  operators is LMAX  =           6
   number of lm-projection operators is LMMAX =          18
 
 POTCAR:   PAW_PBE H 15Jun2001                    
   VRHFIN =H: ultrasoft test                                                    
   LEXCH  = PE                                                                  
   EATOM  =    12.4884 eV,     .9179 Ry                                         
                                                                                
   TITEL  = PAW_PBE H 15Jun2001                                                 
   LULTRA =        F    use ultrasoft PP ?                                      
   IUNSCR =        0    unscreen: 0-lin 1-nonlin 2-no                           
   RPACOR =     .000    partial core radius                                     
   POMASS =    1.000; ZVAL   =    1.000    mass and valenz                      
   RCORE  =    1.100    outmost cutoff radius                                   
   RWIGS  =     .700; RWIGS  =     .370    wigner-seitz radius (au A)           
   ENMAX  =  250.000; ENMIN  =  200.000 eV                                      
   RCLOC  =     .701    cutoff for local pot                                    
   LCOR   =        T    correct aug charges                                     
   LPAW   =        T    paw PP                                                  
   EAUG   =  400.000                                                            
   RMAX   =    2.174    core radius for proj-oper                               
   RAUG   =    1.200    factor for augmentation sphere                          
   RDEP   =    1.112    radius for radial grids                                 
   QCUT   =   -5.749; QGAM   =   11.498    optimization parameters              
                                                                                
   Description                                                                  
     l     E      TYP  RCUT    TYP  RCUT                                        
     0   .000     23  1.100                                                     
     0   .500     23  1.100                                                     
     1  -.300     23  1.100                                                     
  local pseudopotential read in
  atomic valenz-charges read in
  non local Contribution for L=           0  read in
    real space projection operators read in
  non local Contribution for L=           0  read in
    real space projection operators read in
  non local Contribution for L=           1  read in
    real space projection operators read in
    PAW grid and wavefunctions read in
 
   number of l-projection  operators is LMAX  =           3
   number of lm-projection operators is LMMAX =           5
 

 ----------------------------------------------------------------------------- 
|                                                                             |
|  ADVICE TO THIS USER RUNNING 'VASP/VAMP'   (HEAR YOUR MASTER'S VOICE ...):  |
|                                                                             |
|      You have a (more or less) 'small supercell' and for smaller cells      |
|      it is recommended  to use the reciprocal-space projection scheme!      |
|      The real space optimization is not  efficient for small cells and it   |
|      is also less accurate ...                                              |
|      Therefore set LREAL=.FALSE. in the  INCAR file                         |
|                                                                             |
 ----------------------------------------------------------------------------- 

 Optimization of the real space projectors (new method)

 maximal supplied QI-value         = 16.25
 optimisation between [QCUT,QGAM] = [  7.96, 16.09] = [ 17.76, 72.49] Ry 
 Optimized for a Real-space Cutoff    1.70 Angstroem

   l    n(q)    QCUT    max X(q) W(low)/X(q) W(high)/X(q)  e(spline) 
   2      7     7.963     4.977    0.65E-04    0.90E-04    0.59E-07
   2      7     7.963    13.467    0.48E-03    0.73E-03    0.12E-06
   0      8     7.963    13.303    0.22E-04    0.12E-04    0.51E-08
   0      8     7.963    44.613    0.10E-03    0.16E-03    0.47E-07
   1      8     7.963     5.276    0.66E-04    0.10E-04    0.22E-07
   1      8     7.963     7.322    0.38E-03    0.18E-03    0.17E-06
 Optimization of the real space projectors (new method)

 maximal supplied QI-value         = 34.20
 optimisation between [QCUT,QGAM] = [  7.87, 16.08] = [ 17.33, 72.37] Ry 
 Optimized for a Real-space Cutoff    1.85 Angstroem

   l    n(q)    QCUT    max X(q) W(low)/X(q) W(high)/X(q)  e(spline) 
   0      9     7.867     4.436    0.44E-04    0.71E-04    0.23E-06
   0      9     7.867    15.341    0.29E-03    0.73E-03    0.99E-06
   1      8     7.867     4.196    0.27E-03    0.13E-02    0.91E-06
 PAW_PBE Cu 05Jan2001                   :
 energy of atom  1       EATOM=-1390.9800
 kinetic energy error for atom=    0.0930 (will be added to EATOM!!)
 PAW_PBE H 15Jun2001                    :
 energy of atom  2       EATOM=  -12.4884
 kinetic energy error for atom=    0.0868 (will be added to EATOM!!)
 
 
 POSCAR: Cu  H                                   
  positions in cartesian coordinates
  velocities in cartesian coordinates
 exchange correlation table for  LEXCH =        8
   RHO(1)=    0.500       N(1)  =     2000
   RHO(2)=  100.500       N(2)  =     4000
 


--------------------------------------------------------------------------------------------------------


 ion  position               nearest neighbor table
   1  0.000  0.000  0.396-   2 2.56   2 2.56   2 2.56
   2  0.333  0.333  0.465-   3 2.56   3 2.56   3 2.56   1 2.56   1 2.56   1 2.56
   3  0.667  0.667  0.534-   2 2.56   2 2.56   2 2.56   4 2.66   4 2.66   4 2.66
   4  0.000  0.000  0.607-   5 1.67   5 1.67   5 1.67   3 2.66   3 2.66   3 2.66
   5  0.667  0.667  0.632-   4 1.67   4 1.67   4 1.67
 
  LATTYP: Found a hexagonal cell.
 ALAT       =     2.5738686835
 C/A-ratio  =    11.7739747694
  
  Lattice vectors:
  
 A1 = (   1.2869343418,  -2.2290356659,   0.0000000000)
 A2 = (  -2.5738686835,   0.0000000000,   0.0000000000)
 A3 = (   0.0000000000,   0.0000000000, -30.3046649396)


Analysis of symmetry for initial positions (statically):
=====================================================================
 Subroutine PRICEL returns:
 Original cell was already a primitive cell.
 

 Routine SETGRP: Setting up the symmetry group for a 
 hexagonal supercell.


 Subroutine GETGRP returns: Found  6 space group operations
 (whereof  6 operations were pure point group operations)
 out of a pool of 24 trial point group operations.


The static configuration has the point symmetry C_3v.


Analysis of symmetry for dynamics (positions and initial velocities):
=====================================================================
 Subroutine PRICEL returns:
 Original cell was already a primitive cell.
 

 Routine SETGRP: Setting up the symmetry group for a 
 hexagonal supercell.


 Subroutine GETGRP returns: Found  6 space group operations
 (whereof  6 operations were pure point group operations)
 out of a pool of 24 trial point group operations.


The dynamic configuration has the point symmetry C_3v.


 Subroutine INISYM returns: Found  6 space group operations
 (whereof  6 operations are pure point group operations),
 and found     1 'primitive' translations

 
 
 KPOINTS: k-density: 4.0                          

Automatic generation of k-mesh.
Space group operators:
 irot       det(A)        alpha          n_x          n_y          n_z        tau_x        tau_y        tau_z
    1     1.000000     0.000001     1.000000     0.000000     0.000000     0.000000     0.000000     0.000000
    2     1.000000   120.000000     0.000000     0.000000     1.000000     0.000000     0.000000     0.000000
    3     1.000000   120.000000     0.000000     0.000000    -1.000000     0.000000     0.000000     0.000000
    4    -1.000000   180.000000     0.500000    -0.866025     0.000000     0.000000     0.000000     0.000000
    5    -1.000000   180.000000     1.000000     0.000000     0.000000     0.000000     0.000000     0.000000
    6    -1.000000   180.000000    -0.500000    -0.866025     0.000000     0.000000     0.000000     0.000000
 
 Subroutine IBZKPT returns following result:
 ===========================================
 
 Found     14 irreducible k-points:
 
 Following reciprocal coordinates:
            Coordinates               Weight
  0.000000  0.000000  0.000000      1.000000
  0.100000  0.000000  0.000000      6.000000
  0.200000 -0.000000  0.000000      6.000000
  0.300000 -0.000000  0.000000      6.000000
  0.400000 -0.000000  0.000000      6.000000
  0.500000 -0.000000  0.000000      3.000000
  0.200000  0.100000  0.000000      6.000000
  0.300000  0.100000  0.000000     12.000000
  0.400000  0.100000  0.000000     12.000000
  0.500000  0.100000  0.000000     12.000000
  0.400000  0.200000  0.000000      6.000000
  0.500000  0.200000  0.000000     12.000000
 -0.400000  0.200000  0.000000      6.000000
 -0.400000  0.300000  0.000000      6.000000
 
 Following cartesian coordinates:
            Coordinates               Weight
  0.000000  0.000000  0.000000      1.000000
  0.038852 -0.022431  0.000000      6.000000
  0.077704 -0.044862  0.000000      6.000000
  0.116556 -0.067294  0.000000      6.000000
  0.155408 -0.089725  0.000000      6.000000
  0.194260 -0.112156  0.000000      3.000000
  0.077704 -0.000000  0.000000      6.000000
  0.116556 -0.022431  0.000000     12.000000
  0.155408 -0.044862  0.000000     12.000000
  0.194260 -0.067294  0.000000     12.000000
  0.155408  0.000000  0.000000      6.000000
  0.194260 -0.022431  0.000000     12.000000
 -0.155408  0.179450  0.000000      6.000000
 -0.155408  0.224312  0.000000      6.000000
 


--------------------------------------------------------------------------------------------------------




 Dimension of arrays:
   k-points           NKPTS =     14   k-points in BZ     NKDIM =     14   number of bands    NBANDS=     28
   number of dos      NEDOS =   2401   number of ions     NIONS =      5
   non local maximal  LDIM  =      6   non local SUM 2l+1 LMDIM =     18
   total plane-waves  NPLWV =  12000
   max r-space proj   IRMAX =   1888   max aug-charges    IRDMAX=   2622
   dimension x,y,z NGX =    10 NGY =   10 NGZ =  120
   dimension x,y,z NGXF=    20 NGYF=   20 NGZF=  240
   support grid    NGXF=    20 NGYF=   20 NGZF=  240
   ions per type =               4   1
   NGX,Y,Z   is equivalent  to a cutoff of   6.46,  6.46,  6.58 a.u.
   NGXF,Y,Z  is equivalent  to a cutoff of  12.92, 12.92, 13.17 a.u.

 SYSTEM =  unknown system                          
 POSCAR =  Cu  H                                   

 Startparameter for this run:
   NWRITE =      2    write-flag & timer
   PREC   = normal    normal or accurate (medium, high low for compatibility)
   ISTART =      0    job   : 0-new  1-cont  2-samecut
   ICHARG =      2    charge: 1-file 2-atom 10-const
   ISPIN  =      1    spin polarized calculation?
   LNONCOLLINEAR =      F non collinear calculations
   LSORBIT =      F    spin-orbit coupling
   INIWAV =      1    electr: 0-lowe 1-rand  2-diag
   LASPH  =      F    aspherical Exc in radial PAW
   METAGGA=      F    non-selfconsistent MetaGGA calc.

 Electronic Relaxation 1
   ENCUT  =  250.0 eV  18.37 Ry    4.29 a.u.   3.32  3.32 39.07*2*pi/ulx,y,z
   ENINI  =  250.0     initial cutoff
   ENAUG  =  516.5 eV  augmentation charge cutoff
   NELM   =     60;   NELMIN=  4; NELMDL=  0     # of ELM steps 
   EDIFF  = 0.1E-05   stopping-criterion for ELM
   LREAL  =      T    real-space projection
   NLSPLINE    = F    spline interpolate recip. space projectors
   LCOMPAT=      F    compatible to vasp.4.4
   GGA_COMPAT  = T    GGA compatible to vasp.4.4-vasp.4.6
   LMAXPAW     = -100 max onsite density
   LMAXMIX     =    2 max onsite mixed and CHGCAR
   VOSKOWN=      0    Vosko Wilk Nusair interpolation
   ROPT   =   -0.00050  -0.00050
 Ionic relaxation
   EDIFFG = 0.1E-04   stopping-criterion for IOM
   NSW    =      0    number of steps for IOM
   NBLOCK =      1;   KBLOCK =      1    inner block; outer block 
   IBRION =     -1    ionic relax: 0-MD 1-quasi-New 2-CG
   NFREE  =      0    steps in history (QN), initial steepest desc. (CG)
   ISIF   =      2    stress and relaxation
   IWAVPR =     10    prediction:  0-non 1-charg 2-wave 3-comb
   ISYM   =      2    0-nonsym 1-usesym 2-fastsym
   LCORR  =      T    Harris-Foulkes like correction to forces

   POTIM  = 0.5000    time-step for ionic-motion
   TEIN   =    0.0    initial temperature
   TEBEG  =    0.0;   TEEND  =   0.0 temperature during run
   SMASS  =  -3.00    Nose mass-parameter (am)
   estimated Nose-frequenzy (Omega)   =  0.10E-29 period in steps =****** mass=  -0.151E-27a.u.
   SCALEE = 1.0000    scale energy and forces
   NPACO  =    256;   APACO  = 16.0  distance and # of slots for P.C.
   PSTRESS=    0.0 pullay stress

  Mass of Ions in am
   POMASS =  63.55  1.00
  Ionic Valenz
   ZVAL   =  11.00  1.00
  Atomic Wigner-Seitz radii
   RWIGS  =  -1.00 -1.00
  virtual crystal weights 
   VCA    =   1.00  1.00
   NELECT =      45.0000    total number of electrons
   NUPDOWN=      -1.0000    fix difference up-down

 DOS related values:
   EMIN   = -17.00;   EMAX   =  7.00  energy-range for DOS
   EFERMI =   0.00
   ISMEAR =     0;   SIGMA  =   0.10  broadening in eV -4-tet -1-fermi 0-gaus

 Electronic relaxation 2 (details)
   IALGO  =     68    algorithm
   LDIAG  =      T    sub-space diagonalisation (order eigenvalues)
   LSUBROT=      F    optimize rotation matrix (better conditioning)
   TURBO    =      0    0=normal 1=particle mesh
   IRESTART =      0    0=no restart 2=restart with 2 vectors
   NREBOOT  =      0    no. of reboots
   NMIN     =      0    reboot dimension
   EREF     =   0.00    reference energy to select bands
   IMIX   =      4    mixing-type and parameters
     AMIX     =   0.40;   BMIX     =  1.00
     AMIX_MAG =   1.60;   BMIX_MAG =  1.00
     AMIN     =   0.10
     WC   =   100.;   INIMIX=   1;  MIXPRE=   1;  MAXMIX= -45

 Intra band minimization:
   WEIMIN = 0.0000     energy-eigenvalue tresh-hold
   EBREAK =  0.89E-08  absolut break condition
   DEPER  =   0.30     relativ break condition  

   TIME   =   0.40     timestep for ELM

  volume/ion in A,a.u.               =      34.77       234.66
  Fermi-wavevector in a.u.,A,eV,Ry     =   1.043297  1.971546 14.809520  1.088469
  Thomas-Fermi vector in A             =   2.178000
 
 Write flags
   LWAVE        =      F    write WAVECAR
   LDOWNSAMPLE  =      F    k-point downsampling of WAVECAR
   LCHARG       =      T    write CHGCAR
   LVTOT        =      F    write LOCPOT, total local potential
   LVHAR        =      F    write LOCPOT, Hartree potential only
   LELF         =      T    write electronic localiz. function (ELF)
   LORBIT       =     11    0 simple, 1 ext, 2 COOP (PROOUT), +10 PAW based schemes


 Dipole corrections
   LMONO  =      F    monopole corrections only (constant potential shift)
   LDIPOL =      F    correct potential (dipole corrections)
   IDIPOL =      0    1-x, 2-y, 3-z, 4-all directions 
   EPSILON=  1.0000000 bulk dielectric constant

 Exchange correlation treatment:
   GGA     =    --    GGA type
   LEXCH   =     8    internal setting for exchange type
   VOSKOWN=      0    Vosko Wilk Nusair interpolation
   LHFCALC =     F    Hartree Fock is set to
   LHFONE  =     F    Hartree Fock one center treatment
   AEXX    =    0.0000 exact exchange contribution

 Linear response parameters
   LEPSILON=     F    determine dielectric tensor
   LRPA    =     F    only Hartree local field effects (RPA)
   LNABLA  =     F    use nabla operator in PAW spheres
   LVEL    =     F    velocity operator in full k-point grid
   LINTERFAST=   F  fast interpolation
   KINTER  =     0    interpolate to denser k-point grid
   CSHIFT  =0.1000    complex shift for real part using Kramers Kronig
   OMEGAMAX=  -1.0    maximum frequency
   DEG_THRESHOLD= 0.2000000E-02 threshold for treating states as degnerate
   RTIME   =   -0.100 relaxation time in fs
  (WPLASMAI=    0.000 imaginary part of plasma frequency in eV, 0.658/RTIME)
   DFIELD  = 0.0000000 0.0000000 0.0000000 field for delta impulse in time
 
 Orbital magnetization related:
   ORBITALMAG=     F  switch on orbital magnetization
   LCHIMAG   =     F  perturbation theory with respect to B field
   DQ        =  0.001000  dq finite difference perturbation B field
   LLRAUG    =     F  two centre corrections for induced B field



--------------------------------------------------------------------------------------------------------


 Static calculation
 charge density and potential will be updated during run
 non-spin polarized calculation
 RMM-DIIS sequential band-by-band and
  variant of blocked Davidson during initial phase
 perform sub-space diagonalisation
    before iterative eigenvector-optimisation
 modified Broyden-mixing scheme, WC =      100.0
 initial mixing is a Kerker type mixing with AMIX =  0.4000 and BMIX =      1.0000
 Hartree-type preconditioning will be used
 using additional bands            5
 real space projection scheme for non local part
 use partial core corrections
 calculate Harris-corrections to forces 
   (improved forces if not selfconsistent)
 use gradient corrections 
 use of overlap-Matrix (Vanderbilt PP)
 Gauss-broadening in eV      SIGMA  =   0.10


--------------------------------------------------------------------------------------------------------


  energy-cutoff  :      250.00
  volume of cell :      173.87
      direct lattice vectors                 reciprocal lattice vectors
     2.573868684  0.000000000  0.000000000     0.388520209 -0.224312248  0.000000000
     1.286934342  2.229035666  0.000000000     0.000000000  0.448624495  0.000000000
     0.000000000  0.000000000 30.304664940     0.000000000  0.000000000  0.032998220

  length of vectors
     2.573868684  2.573868684 30.304664940     0.448624495  0.448624495  0.032998220


 
 k-points in units of 2pi/SCALE and weight: k-density: 4.0                          
   0.00000000  0.00000000  0.00000000       0.010
   0.03885202 -0.02243122  0.00000000       0.060
   0.07770404 -0.04486245  0.00000000       0.060
   0.11655606 -0.06729367  0.00000000       0.060
   0.15540808 -0.08972490  0.00000000       0.060
   0.19426010 -0.11215612  0.00000000       0.030
   0.07770404 -0.00000000  0.00000000       0.060
   0.11655606 -0.02243122  0.00000000       0.120
   0.15540808 -0.04486245  0.00000000       0.120
   0.19426010 -0.06729367  0.00000000       0.120
   0.15540808  0.00000000  0.00000000       0.060
   0.19426010 -0.02243122  0.00000000       0.120
  -0.15540808  0.17944980  0.00000000       0.060
  -0.15540808  0.22431225  0.00000000       0.060
 
 k-points in reciprocal lattice and weights: k-density: 4.0                          
   0.00000000  0.00000000  0.00000000       0.010
   0.10000000  0.00000000  0.00000000       0.060
   0.20000000 -0.00000000  0.00000000       0.060
   0.30000000 -0.00000000  0.00000000       0.060
   0.40000000 -0.00000000  0.00000000       0.060
   0.50000000 -0.00000000  0.00000000       0.030
   0.20000000  0.10000000  0.00000000       0.060
   0.30000000  0.10000000  0.00000000       0.120
   0.40000000  0.10000000  0.00000000       0.120
   0.50000000  0.10000000  0.00000000       0.120
   0.40000000  0.20000000  0.00000000       0.060
   0.50000000  0.20000000  0.00000000       0.120
  -0.40000000  0.20000000  0.00000000       0.060
  -0.40000000  0.30000000  0.00000000       0.060
 
 position of ions in fractional coordinates (direct lattice) 
   0.00000000  0.00000000  0.39642709
   0.33333207  0.33333249  0.46516172
   0.66666803  0.66666497  0.53388942
   0.00000000  0.00000000  0.60671220
   0.66666803  0.66666497  0.63152950
 
 position of ions in cartesian coordinates  (Angst):
   0.00000000  0.00000000 12.01359000
   1.28693000  0.74301000 14.09657000
   2.57387000  1.48602000 16.17934000
   0.00000000  0.00000000 18.38621000
   2.57387000  1.48602000 19.13829000
 


--------------------------------------------------------------------------------------------------------


 k-point  1 :   0.0000 0.0000 0.0000  plane waves:    1609
 k-point  2 :   0.1000 0.0000 0.0000  plane waves:    1589
 k-point  3 :   0.2000-0.0000 0.0000  plane waves:    1586
 k-point  4 :   0.3000-0.0000 0.0000  plane waves:    1542
 k-point  5 :   0.4000-0.0000 0.0000  plane waves:    1568
 k-point  6 :   0.5000-0.0000 0.0000  plane waves:    1570
 k-point  7 :   0.2000 0.1000 0.0000  plane waves:    1579
 k-point  8 :   0.3000 0.1000 0.0000  plane waves:    1569
 k-point  9 :   0.4000 0.1000 0.0000  plane waves:    1552
 k-point 10 :   0.5000 0.1000 0.0000  plane waves:    1549
 k-point 11 :   0.4000 0.2000 0.0000  plane waves:    1545
 k-point 12 :   0.5000 0.2000 0.0000  plane waves:    1549
 k-point 13 :  -0.4000 0.2000 0.0000  plane waves:    1546
 k-point 14 :  -0.4000 0.3000 0.0000  plane waves:    1547

 maximum and minimum number of plane-waves per node :       808      768

 maximum number of plane-waves:      1609
 maximum index in each direction: 
   IXMAX=    3   IYMAX=    3   IZMAX=   39
   IXMIN=   -3   IYMIN=   -3   IZMIN=  -39


 real space projection operators:
  total allocation   :        841.76 KBytes
  max/ min on nodes  :        424.49        417.27


 parallel 3D FFT for wavefunctions:
    minimum data exchange during FFTs selected (reduces bandwidth)
 parallel 3D FFT for charge:
    minimum data exchange during FFTs selected (reduces bandwidth)


 total amount of memory used by VASP MPI-rank0    35976. kBytes
=======================================================================

   base      :      30000. kBytes
   nonlr-proj:        678. kBytes
   fftplans  :        995. kBytes
   grid      :       1592. kBytes
   one-center:         46. kBytes
   wavefun   :       2665. kBytes
 
     INWAV:  cpu time    0.0010: real time    0.0004
 Broyden mixing: mesh for mixing (old mesh)
   NGX =  7   NGY =  7   NGZ = 79
  (NGX  = 20   NGY  = 20   NGZ  =240)
  gives a total of   3871 points

 initial charge density was supplied:
 charge density of overlapping atoms calculated
 number of electron      45.0000000 magnetization 
 keeping initial charge density in first step


--------------------------------------------------------------------------------------------------------


 Maximum index for non-local projection operator          895
 Maximum index for augmentation-charges          590 (set IRDMAX)


--------------------------------------------------------------------------------------------------------


 First call to EWALD:  gamma=   0.318
 Maximum number of real-space cells 6x 6x 1
 Maximum number of reciprocal cells 2x 2x13

    FEWALD:  cpu time    0.0010: real time    0.0016


--------------------------------------- Iteration      1(   1)  ---------------------------------------


    POTLOK:  cpu time    0.0150: real time    0.0213
    SETDIJ:  cpu time    0.0040: real time    0.0040
     EDDAV:  cpu time    0.2750: real time    0.2804
       DOS:  cpu time    0.0020: real time    0.0025
    --------------------------------------------
      LOOP:  cpu time    0.2960: real time    0.3082

 eigenvalue-minimisations  :   808
 total energy-change (2. order) : 0.1997797E+03  (-0.1399441E+04)
 number of electron      45.0000000 magnetization 
 augmentation part       45.0000000 magnetization 

 Free energy of the ion-electron system (eV)
  ---------------------------------------------------
  alpha Z        PSCENC =       120.87645803
  Ewald energy   TEWEN  =     37838.74623380
  -Hartree energ DENC   =    -42958.24755362
  -exchange      EXHF   =         0.00000000
  -V(xc)+E(xc)   XCENC  =       177.54243407
  PAW double counting   =      4328.99049516    -4905.09836044
  entropy T*S    EENTRO =        -0.01058077
  eigenvalues    EBANDS =        21.03096289
  atomic energy  EATOM  =      5575.94961827
  Solvation  Ediel_sol  =         0.00000000
  ---------------------------------------------------
  free energy    TOTEN  =       199.77970739 eV

  energy without entropy =      199.79028816  energy(sigma->0) =      199.78499777


--------------------------------------------------------------------------------------------------------




--------------------------------------- Iteration      1(   2)  ---------------------------------------


     EDDAV:  cpu time    0.2770: real time    0.2780
       DOS:  cpu time    0.0030: real time    0.0026
    --------------------------------------------
      LOOP:  cpu time    0.2800: real time    0.2806

 eigenvalue-minimisations  :   836
 total energy-change (2. order) :-0.2103059E+03  (-0.2041817E+03)
 number of electron      45.0000000 magnetization 
 augmentation part       45.0000000 magnetization 

 Free energy of the ion-electron system (eV)
  ---------------------------------------------------
  alpha Z        PSCENC =       120.87645803
  Ewald energy   TEWEN  =     37838.74623380
  -Hartree energ DENC   =    -42958.24755362
  -exchange      EXHF   =         0.00000000
  -V(xc)+E(xc)   XCENC  =       177.54243407
  PAW double counting   =      4328.99049516    -4905.09836044
  entropy T*S    EENTRO =        -0.00738032
  eigenvalues    EBANDS =      -189.27809190
  atomic energy  EATOM  =      5575.94961827
  Solvation  Ediel_sol  =         0.00000000
  ---------------------------------------------------
  free energy    TOTEN  =       -10.52614695 eV

  energy without entropy =      -10.51876663  energy(sigma->0) =      -10.52245679


--------------------------------------------------------------------------------------------------------




--------------------------------------- Iteration      1(   3)  ---------------------------------------


     EDDAV:  cpu time    0.2840: real time    0.2849
       DOS:  cpu time    0.0020: real time    0.0026
    --------------------------------------------
      LOOP:  cpu time    0.2860: real time    0.2876

 eigenvalue-minimisations  :   864
 total energy-change (2. order) :-0.1049889E+02  (-0.1029818E+02)
 number of electron      45.0000000 magnetization 
 augmentation part       45.0000000 magnetization 

 Free energy of the ion-electron system (eV)
  ---------------------------------------------------
  alpha Z        PSCENC =       120.87645803
  Ewald energy   TEWEN  =     37838.74623380
  -Hartree energ DENC   =    -42958.24755362
  -exchange      EXHF   =         0.00000000
  -V(xc)+E(xc)   XCENC  =       177.54243407
  PAW double counting   =      4328.99049516    -4905.09836044
  entropy T*S    EENTRO =        -0.01289698
  eigenvalues    EBANDS =      -199.77146691
  atomic energy  EATOM  =      5575.94961827
  Solvation  Ediel_sol  =         0.00000000
  ---------------------------------------------------
  free energy    TOTEN  =       -21.02503861 eV

  energy without entropy =      -21.01214163  energy(sigma->0) =      -21.01859012


--------------------------------------------------------------------------------------------------------




--------------------------------------- Iteration      1(   4)  ---------------------------------------


     EDDAV:  cpu time    0.2860: real time    0.2876
       DOS:  cpu time    0.0020: real time    0.0026
    --------------------------------------------
      LOOP:  cpu time    0.2880: real time    0.2902

 eigenvalue-minimisations  :   864
 total energy-change (2. order) :-0.1319134E+00  (-0.1313443E+00)
 number of electron      45.0000000 magnetization 
 augmentation part       45.0000000 magnetization 

 Free energy of the ion-electron system (eV)
  ---------------------------------------------------
  alpha Z        PSCENC =       120.87645803
  Ewald energy   TEWEN  =     37838.74623380
  -Hartree energ DENC   =    -42958.24755362
  -exchange      EXHF   =         0.00000000
  -V(xc)+E(xc)   XCENC  =       177.54243407
  PAW double counting   =      4328.99049516    -4905.09836044
  entropy T*S    EENTRO =        -0.01212075
  eigenvalues    EBANDS =      -199.90415652
  atomic energy  EATOM  =      5575.94961827
  Solvation  Ediel_sol  =         0.00000000
  ---------------------------------------------------
  free energy    TOTEN  =       -21.15695200 eV

  energy without entropy =      -21.14483125  energy(sigma->0) =      -21.15089163


--------------------------------------------------------------------------------------------------------




--------------------------------------- Iteration      1(   5)  ---------------------------------------


     EDDAV:  cpu time    0.2940: real time    0.2933
       DOS:  cpu time    0.0020: real time    0.0026
    CHARGE:  cpu time    0.0170: real time    0.0169
    MIXING:  cpu time    0.0010: real time    0.0008
    --------------------------------------------
      LOOP:  cpu time    0.3140: real time    0.3136

 eigenvalue-minimisations  :   896
 total energy-change (2. order) :-0.1418204E-02  (-0.1418158E-02)
 number of electron      44.9999999 magnetization 
 augmentation part       26.7263339 magnetization 

 Broyden mixing:
  rms(total) = 0.14545E+01    rms(broyden)= 0.14543E+01
  rms(prec ) = 0.15045E+01
  weight for this iteration     100.00

 Free energy of the ion-electron system (eV)
  ---------------------------------------------------
  alpha Z        PSCENC =       120.87645803
  Ewald energy   TEWEN  =     37838.74623380
  -Hartree energ DENC   =    -42958.24755362
  -exchange      EXHF   =         0.00000000
  -V(xc)+E(xc)   XCENC  =       177.54243407
  PAW double counting   =      4328.99049516    -4905.09836044
  entropy T*S    EENTRO =        -0.01211904
  eigenvalues    EBANDS =      -199.90557644
  atomic energy  EATOM  =      5575.94961827
  Solvation  Ediel_sol  =         0.00000000
  ---------------------------------------------------
  free energy    TOTEN  =       -21.15837020 eV

  energy without entropy =      -21.14625117  energy(sigma->0) =      -21.15231069


--------------------------------------------------------------------------------------------------------




--------------------------------------- Iteration      1(   6)  ---------------------------------------


    POTLOK:  cpu time    0.0110: real time    0.0117
    SETDIJ:  cpu time    0.0030: real time    0.0031
    EDDIAG:  cpu time    0.0550: real time    0.0559
  RMM-DIIS:  cpu time    0.1590: real time    0.1583
    ORTHCH:  cpu time    0.0060: real time    0.0072
       DOS:  cpu time    0.0030: real time    0.0026
    CHARGE:  cpu time    0.0160: real time    0.0164
    MIXING:  cpu time    0.0010: real time    0.0006
    --------------------------------------------
      LOOP:  cpu time    0.2540: real time    0.2559

 eigenvalue-minimisations  :   849
 total energy-change (2. order) : 0.2071469E+01  (-0.4265773E+01)
 number of electron      44.9999999 magnetization 
 augmentation part       30.0327381 magnetization 

 Broyden mixing:
  rms(total) = 0.73826E+00    rms(broyden)= 0.73804E+00
  rms(prec ) = 0.77492E+00
  weight for this iteration     100.00

 eigenvalues of (default mixing * dielectric matrix)
  average eigenvalue GAMMA=   0.6689
  0.6689

 Free energy of the ion-electron system (eV)
  ---------------------------------------------------
  alpha Z        PSCENC =       120.87645803
  Ewald energy   TEWEN  =     37838.74623380
  -Hartree energ DENC   =    -42845.61906572
  -exchange      EXHF   =         0.00000000
  -V(xc)+E(xc)   XCENC  =       172.44529336
  PAW double counting   =      4220.05611086    -4761.44168478
  entropy T*S    EENTRO =        -0.00902351
  eigenvalues    EBANDS =      -340.09084169
  atomic energy  EATOM  =      5575.94961827
  Solvation  Ediel_sol  =         0.00000000
  ---------------------------------------------------
  free energy    TOTEN  =       -19.08690138 eV

  energy without entropy =      -19.07787787  energy(sigma->0) =      -19.08238963


--------------------------------------------------------------------------------------------------------




--------------------------------------- Iteration      1(   7)  ---------------------------------------


    POTLOK:  cpu time    0.0110: real time    0.0114
    SETDIJ:  cpu time    0.0040: real time    0.0032
    EDDIAG:  cpu time    0.0550: real time    0.0555
  RMM-DIIS:  cpu time    0.1930: real time    0.1930
    ORTHCH:  cpu time    0.0080: real time    0.0085
       DOS:  cpu time    0.0030: real time    0.0027
    CHARGE:  cpu time    0.0160: real time    0.0163
    MIXING:  cpu time    0.0010: real time    0.0005
    --------------------------------------------
      LOOP:  cpu time    0.2910: real time    0.2910

 eigenvalue-minimisations  :   854
 total energy-change (2. order) : 0.1559807E+01  (-0.7012982E+00)
 number of electron      44.9999999 magnetization 
 augmentation part       28.7006208 magnetization 

 Broyden mixing:
  rms(total) = 0.26519E+00    rms(broyden)= 0.26494E+00
  rms(prec ) = 0.36320E+00
  weight for this iteration     100.00

 eigenvalues of (default mixing * dielectric matrix)
  average eigenvalue GAMMA=   0.5637
  0.7297  0.3978

 Free energy of the ion-electron system (eV)
  ---------------------------------------------------
  alpha Z        PSCENC =       120.87645803
  Ewald energy   TEWEN  =     37838.74623380
  -Hartree energ DENC   =    -42890.16096570
  -exchange      EXHF   =         0.00000000
  -V(xc)+E(xc)   XCENC  =       174.11443908
  PAW double counting   =      4318.06947749    -4883.71504456
  entropy T*S    EENTRO =        -0.01125172
  eigenvalues    EBANDS =      -271.39605955
  atomic energy  EATOM  =      5575.94961827
  Solvation  Ediel_sol  =         0.00000000
  ---------------------------------------------------
  free energy    TOTEN  =       -17.52709484 eV

  energy without entropy =      -17.51584312  energy(sigma->0) =      -17.52146898


--------------------------------------------------------------------------------------------------------




--------------------------------------- Iteration      1(   8)  ---------------------------------------


    POTLOK:  cpu time    0.0110: real time    0.0139
    SETDIJ:  cpu time    0.0040: real time    0.0032
    EDDIAG:  cpu time    0.0540: real time    0.0552
  RMM-DIIS:  cpu time    0.1600: real time    0.1602
    ORTHCH:  cpu time    0.0070: real time    0.0072
       DOS:  cpu time    0.0030: real time    0.0027
    CHARGE:  cpu time    0.0160: real time    0.0164
    MIXING:  cpu time    0.0020: real time    0.0005
    --------------------------------------------
      LOOP:  cpu time    0.2570: real time    0.2593

 eigenvalue-minimisations  :   858
 total energy-change (2. order) : 0.2046376E+00  (-0.2072100E-01)
 number of electron      44.9999999 magnetization 
 augmentation part       28.7349053 magnetization 

 Broyden mixing:
  rms(total) = 0.15524E+00    rms(broyden)= 0.15509E+00
  rms(prec ) = 0.17960E+00
  weight for this iteration     100.00

 eigenvalues of (default mixing * dielectric matrix)
  average eigenvalue GAMMA=   0.8008
  1.5679  0.6158  0.2187

 Free energy of the ion-electron system (eV)
  ---------------------------------------------------
  alpha Z        PSCENC =       120.87645803
  Ewald energy   TEWEN  =     37838.74623380
  -Hartree energ DENC   =    -42892.44017530
  -exchange      EXHF   =         0.00000000
  -V(xc)+E(xc)   XCENC  =       174.04231631
  PAW double counting   =      4331.23356456    -4898.89848031
  entropy T*S    EENTRO =        -0.01751815
  eigenvalues    EBANDS =      -266.81447442
  atomic energy  EATOM  =      5575.94961827
  Solvation  Ediel_sol  =         0.00000000
  ---------------------------------------------------
  free energy    TOTEN  =       -17.32245721 eV

  energy without entropy =      -17.30493907  energy(sigma->0) =      -17.31369814


--------------------------------------------------------------------------------------------------------




--------------------------------------- Iteration      1(   9)  ---------------------------------------


    POTLOK:  cpu time    0.0110: real time    0.0114
    SETDIJ:  cpu time    0.0030: real time    0.0032
    EDDIAG:  cpu time    0.0550: real time    0.0553
  RMM-DIIS:  cpu time    0.1590: real time    0.1594
    ORTHCH:  cpu time    0.0070: real time    0.0072
       DOS:  cpu time    0.0030: real time    0.0026
    CHARGE:  cpu time    0.0160: real time    0.0164
    MIXING:  cpu time    0.0010: real time    0.0010
    --------------------------------------------
      LOOP:  cpu time    0.2550: real time    0.2566

 eigenvalue-minimisations  :   845
 total energy-change (2. order) : 0.6831424E-01  (-0.6175994E-02)
 number of electron      45.0000000 magnetization 
 augmentation part       28.7355105 magnetization 

 Broyden mixing:
  rms(total) = 0.71818E-01    rms(broyden)= 0.71808E-01
  rms(prec ) = 0.78091E-01
  weight for this iteration     100.00

 eigenvalues of (default mixing * dielectric matrix)
  average eigenvalue GAMMA=   0.8314
  1.8653  0.6068  0.6068  0.2467

 Free energy of the ion-electron system (eV)
  ---------------------------------------------------
  alpha Z        PSCENC =       120.87645803
  Ewald energy   TEWEN  =     37838.74623380
  -Hartree energ DENC   =    -42896.20994907
  -exchange      EXHF   =         0.00000000
  -V(xc)+E(xc)   XCENC  =       173.80012463
  PAW double counting   =      4368.66527087    -4941.51621518
  entropy T*S    EENTRO =        -0.01461169
  eigenvalues    EBANDS =      -257.55107263
  atomic energy  EATOM  =      5575.94961827
  Solvation  Ediel_sol  =         0.00000000
  ---------------------------------------------------
  free energy    TOTEN  =       -17.25414297 eV

  energy without entropy =      -17.23953128  energy(sigma->0) =      -17.24683713


--------------------------------------------------------------------------------------------------------




--------------------------------------- Iteration      1(  10)  ---------------------------------------


    POTLOK:  cpu time    0.0110: real time    0.0115
    SETDIJ:  cpu time    0.0040: real time    0.0032
    EDDIAG:  cpu time    0.0550: real time    0.0552
  RMM-DIIS:  cpu time    0.1590: real time    0.1592
    ORTHCH:  cpu time    0.0070: real time    0.0072
       DOS:  cpu time    0.0020: real time    0.0026
    CHARGE:  cpu time    0.0170: real time    0.0164
    MIXING:  cpu time    0.0010: real time    0.0006
    --------------------------------------------
      LOOP:  cpu time    0.2560: real time    0.2560

 eigenvalue-minimisations  :   853
 total energy-change (2. order) : 0.1360176E-01  (-0.2341983E-02)
 number of electron      44.9999999 magnetization 
 augmentation part       28.7599272 magnetization 

 Broyden mixing:
  rms(total) = 0.40738E-01    rms(broyden)= 0.40726E-01
  rms(prec ) = 0.44680E-01
  weight for this iteration     100.00

 eigenvalues of (default mixing * dielectric matrix)
  average eigenvalue GAMMA=   0.9028
  2.2096  0.9779  0.6580  0.2450  0.4232

 Free energy of the ion-electron system (eV)
  ---------------------------------------------------
  alpha Z        PSCENC =       120.87645803
  Ewald energy   TEWEN  =     37838.74623380
  -Hartree energ DENC   =    -42897.03098930
  -exchange      EXHF   =         0.00000000
  -V(xc)+E(xc)   XCENC  =       173.64918121
  PAW double counting   =      4386.55267768    -4961.50749886
  entropy T*S    EENTRO =        -0.01543379
  eigenvalues    EBANDS =      -254.46078825
  atomic energy  EATOM  =      5575.94961827
  Solvation  Ediel_sol  =         0.00000000
  ---------------------------------------------------
  free energy    TOTEN  =       -17.24054121 eV

  energy without entropy =      -17.22510742  energy(sigma->0) =      -17.23282431


--------------------------------------------------------------------------------------------------------




--------------------------------------- Iteration      1(  11)  ---------------------------------------


    POTLOK:  cpu time    0.0110: real time    0.0113
    SETDIJ:  cpu time    0.0030: real time    0.0032
    EDDIAG:  cpu time    0.0550: real time    0.0552
  RMM-DIIS:  cpu time    0.1630: real time    0.1631
    ORTHCH:  cpu time    0.0070: real time    0.0072
       DOS:  cpu time    0.0030: real time    0.0026
    CHARGE:  cpu time    0.0160: real time    0.0164
    MIXING:  cpu time    0.0010: real time    0.0006
    --------------------------------------------
      LOOP:  cpu time    0.2590: real time    0.2597

 eigenvalue-minimisations  :   872
 total energy-change (2. order) : 0.4079552E-02  (-0.6033045E-03)
 number of electron      45.0000000 magnetization 
 augmentation part       28.7739519 magnetization 

 Broyden mixing:
  rms(total) = 0.19090E-01    rms(broyden)= 0.19073E-01
  rms(prec ) = 0.23436E-01
  weight for this iteration     100.00

 eigenvalues of (default mixing * dielectric matrix)
  average eigenvalue GAMMA=   0.9819
  2.1950  1.6191  0.7677  0.6544  0.2422  0.4129

 Free energy of the ion-electron system (eV)
  ---------------------------------------------------
  alpha Z        PSCENC =       120.87645803
  Ewald energy   TEWEN  =     37838.74623380
  -Hartree energ DENC   =    -42898.36002522
  -exchange      EXHF   =         0.00000000
  -V(xc)+E(xc)   XCENC  =       173.58558345
  PAW double counting   =      4393.27868984    -4968.89757072
  entropy T*S    EENTRO =        -0.01613826
  eigenvalues    EBANDS =      -252.39931084
  atomic energy  EATOM  =      5575.94961827
  Solvation  Ediel_sol  =         0.00000000
  ---------------------------------------------------
  free energy    TOTEN  =       -17.23646166 eV

  energy without entropy =      -17.22032339  energy(sigma->0) =      -17.22839253


--------------------------------------------------------------------------------------------------------




--------------------------------------- Iteration      1(  12)  ---------------------------------------


    POTLOK:  cpu time    0.0120: real time    0.0143
    SETDIJ:  cpu time    0.0030: real time    0.0032
    EDDIAG:  cpu time    0.0550: real time    0.0553
  RMM-DIIS:  cpu time    0.1570: real time    0.1570
    ORTHCH:  cpu time    0.0070: real time    0.0072
       DOS:  cpu time    0.0030: real time    0.0026
    CHARGE:  cpu time    0.0160: real time    0.0164
    MIXING:  cpu time    0.0010: real time    0.0006
    --------------------------------------------
      LOOP:  cpu time    0.2540: real time    0.2566

 eigenvalue-minimisations  :   846
 total energy-change (2. order) : 0.1787934E-02  (-0.1910763E-03)
 number of electron      44.9999999 magnetization 
 augmentation part       28.7924002 magnetization 

 Broyden mixing:
  rms(total) = 0.52648E-02    rms(broyden)= 0.52285E-02
  rms(prec ) = 0.78595E-02
  weight for this iteration     100.00

 eigenvalues of (default mixing * dielectric matrix)
  average eigenvalue GAMMA=   1.0765
  2.2665  2.2665  0.9980  0.7107  0.6488  0.2420  0.4029

 Free energy of the ion-electron system (eV)
  ---------------------------------------------------
  alpha Z        PSCENC =       120.87645803
  Ewald energy   TEWEN  =     37838.74623380
  -Hartree energ DENC   =    -42900.41053621
  -exchange      EXHF   =         0.00000000
  -V(xc)+E(xc)   XCENC  =       173.53608882
  PAW double counting   =      4398.54460008    -4974.49226424
  entropy T*S    EENTRO =        -0.01533418
  eigenvalues    EBANDS =      -249.96953811
  atomic energy  EATOM  =      5575.94961827
  Solvation  Ediel_sol  =         0.00000000
  ---------------------------------------------------
  free energy    TOTEN  =       -17.23467372 eV

  energy without entropy =      -17.21933955  energy(sigma->0) =      -17.22700664


--------------------------------------------------------------------------------------------------------




--------------------------------------- Iteration      1(  13)  ---------------------------------------


    POTLOK:  cpu time    0.0110: real time    0.0114
    SETDIJ:  cpu time    0.0030: real time    0.0031
    EDDIAG:  cpu time    0.0550: real time    0.0552
  RMM-DIIS:  cpu time    0.1570: real time    0.1568
    ORTHCH:  cpu time    0.0060: real time    0.0072
       DOS:  cpu time    0.0030: real time    0.0027
    CHARGE:  cpu time    0.0170: real time    0.0166
    MIXING:  cpu time    0.0010: real time    0.0007
    --------------------------------------------
      LOOP:  cpu time    0.2530: real time    0.2536

 eigenvalue-minimisations  :   845
 total energy-change (2. order) : 0.3651210E-03  (-0.3338892E-04)
 number of electron      44.9999999 magnetization 
 augmentation part       28.7883860 magnetization 

 Broyden mixing:
  rms(total) = 0.45899E-02    rms(broyden)= 0.45570E-02
  rms(prec ) = 0.57779E-02
  weight for this iteration     100.00

 eigenvalues of (default mixing * dielectric matrix)
  average eigenvalue GAMMA=   1.0438
  2.3493  2.3493  1.2420  0.6960  0.6779  0.2420  0.4238  0.3698

 Free energy of the ion-electron system (eV)
  ---------------------------------------------------
  alpha Z        PSCENC =       120.87645803
  Ewald energy   TEWEN  =     37838.74623380
  -Hartree energ DENC   =    -42903.10136409
  -exchange      EXHF   =         0.00000000
  -V(xc)+E(xc)   XCENC  =       173.53803013
  PAW double counting   =      4400.37405163    -4976.46365480
  entropy T*S    EENTRO =        -0.01549988
  eigenvalues    EBANDS =      -247.13818169
  atomic energy  EATOM  =      5575.94961827
  Solvation  Ediel_sol  =         0.00000000
  ---------------------------------------------------
  free energy    TOTEN  =       -17.23430860 eV

  energy without entropy =      -17.21880872  energy(sigma->0) =      -17.22655866


--------------------------------------------------------------------------------------------------------




--------------------------------------- Iteration      1(  14)  ---------------------------------------


    POTLOK:  cpu time    0.0110: real time    0.0113
    SETDIJ:  cpu time    0.0030: real time    0.0031
    EDDIAG:  cpu time    0.0550: real time    0.0551
  RMM-DIIS:  cpu time    0.1560: real time    0.1552
    ORTHCH:  cpu time    0.0060: real time    0.0072
       DOS:  cpu time    0.0030: real time    0.0026
    CHARGE:  cpu time    0.0160: real time    0.0165
    MIXING:  cpu time    0.0010: real time    0.0007
    --------------------------------------------
      LOOP:  cpu time    0.2510: real time    0.2518

 eigenvalue-minimisations  :   832
 total energy-change (2. order) :-0.7230080E-05  (-0.2766782E-04)
 number of electron      44.9999999 magnetization 
 augmentation part       28.7859543 magnetization 

 Broyden mixing:
  rms(total) = 0.32493E-02    rms(broyden)= 0.32035E-02
  rms(prec ) = 0.42116E-02
  weight for this iteration     100.00

 eigenvalues of (default mixing * dielectric matrix)
  average eigenvalue GAMMA=   1.0547
  2.5351  2.5351  1.3236  0.7352  0.7352  0.6189  0.2420  0.4023  0.3646

 Free energy of the ion-electron system (eV)
  ---------------------------------------------------
  alpha Z        PSCENC =       120.87645803
  Ewald energy   TEWEN  =     37838.74623380
  -Hartree energ DENC   =    -42904.73535089
  -exchange      EXHF   =         0.00000000
  -V(xc)+E(xc)   XCENC  =       173.54350357
  PAW double counting   =      4400.69195228    -4976.80358827
  entropy T*S    EENTRO =        -0.01559146
  eigenvalues    EBANDS =      -245.48755117
  atomic energy  EATOM  =      5575.94961827
  Solvation  Ediel_sol  =         0.00000000
  ---------------------------------------------------
  free energy    TOTEN  =       -17.23431583 eV

  energy without entropy =      -17.21872437  energy(sigma->0) =      -17.22652010


--------------------------------------------------------------------------------------------------------




--------------------------------------- Iteration      1(  15)  ---------------------------------------


    POTLOK:  cpu time    0.0120: real time    0.0114
    SETDIJ:  cpu time    0.0030: real time    0.0032
    EDDIAG:  cpu time    0.0550: real time    0.0551
  RMM-DIIS:  cpu time    0.1510: real time    0.1505
    ORTHCH:  cpu time    0.0060: real time    0.0072
       DOS:  cpu time    0.0030: real time    0.0026
    CHARGE:  cpu time    0.0170: real time    0.0165
    MIXING:  cpu time    0.0000: real time    0.0007
    --------------------------------------------
      LOOP:  cpu time    0.2470: real time    0.2472

 eigenvalue-minimisations  :   811
 total energy-change (2. order) :-0.1495869E-03  (-0.9213260E-05)
 number of electron      44.9999999 magnetization 
 augmentation part       28.7876913 magnetization 

 Broyden mixing:
  rms(total) = 0.16301E-02    rms(broyden)= 0.15381E-02
  rms(prec ) = 0.23681E-02
  weight for this iteration     100.00

 eigenvalues of (default mixing * dielectric matrix)
  average eigenvalue GAMMA=   1.2652
  3.0879  3.0879  1.9178  1.1409  1.0159  0.7246  0.6414  0.2420  0.4093  0.3845

 Free energy of the ion-electron system (eV)
  ---------------------------------------------------
  alpha Z        PSCENC =       120.87645803
  Ewald energy   TEWEN  =     37838.74623380
  -Hartree energ DENC   =    -42906.33218139
  -exchange      EXHF   =         0.00000000
  -V(xc)+E(xc)   XCENC  =       173.54360722
  PAW double counting   =      4400.65538597    -4976.73451105
  entropy T*S    EENTRO =        -0.01557186
  eigenvalues    EBANDS =      -243.92350442
  atomic energy  EATOM  =      5575.94961827
  Solvation  Ediel_sol  =         0.00000000
  ---------------------------------------------------
  free energy    TOTEN  =       -17.23446542 eV

  energy without entropy =      -17.21889357  energy(sigma->0) =      -17.22667949


--------------------------------------------------------------------------------------------------------




--------------------------------------- Iteration      1(  16)  ---------------------------------------


    POTLOK:  cpu time    0.0120: real time    0.0130
    SETDIJ:  cpu time    0.0030: real time    0.0032
    EDDIAG:  cpu time    0.0550: real time    0.0551
  RMM-DIIS:  cpu time    0.1460: real time    0.1468
    ORTHCH:  cpu time    0.0080: real time    0.0072
       DOS:  cpu time    0.0020: real time    0.0026
    CHARGE:  cpu time    0.0170: real time    0.0166
    MIXING:  cpu time    0.0010: real time    0.0008
    --------------------------------------------
      LOOP:  cpu time    0.2440: real time    0.2453

 eigenvalue-minimisations  :   794
 total energy-change (2. order) :-0.4147473E-03  (-0.1330492E-04)
 number of electron      44.9999999 magnetization 
 augmentation part       28.7882193 magnetization 

 Broyden mixing:
  rms(total) = 0.11561E-02    rms(broyden)= 0.10221E-02
  rms(prec ) = 0.14256E-02
  weight for this iteration     100.00
  WARNING: grid for Broyden might be to small

 eigenvalues of (default mixing * dielectric matrix)
  average eigenvalue GAMMA=   1.4050
  4.5554  2.8583  2.1859  1.4030  1.1384  0.9113  0.7261  0.6392  0.2420  0.4086
  0.3870

 Free energy of the ion-electron system (eV)
  ---------------------------------------------------
  alpha Z        PSCENC =       120.87645803
  Ewald energy   TEWEN  =     37838.74623380
  -Hartree energ DENC   =    -42908.64615429
  -exchange      EXHF   =         0.00000000
  -V(xc)+E(xc)   XCENC  =       173.54967646
  PAW double counting   =      4399.72974428    -4975.73997880
  entropy T*S    EENTRO =        -0.01556672
  eigenvalues    EBANDS =      -241.68491120
  atomic energy  EATOM  =      5575.94961827
  Solvation  Ediel_sol  =         0.00000000
  ---------------------------------------------------
  free energy    TOTEN  =       -17.23488017 eV

  energy without entropy =      -17.21931345  energy(sigma->0) =      -17.22709681


--------------------------------------------------------------------------------------------------------




--------------------------------------- Iteration      1(  17)  ---------------------------------------


    POTLOK:  cpu time    0.0110: real time    0.0112
    SETDIJ:  cpu time    0.0030: real time    0.0032
    EDDIAG:  cpu time    0.0550: real time    0.0552
  RMM-DIIS:  cpu time    0.1460: real time    0.1459
    ORTHCH:  cpu time    0.0070: real time    0.0072
       DOS:  cpu time    0.0030: real time    0.0026
    CHARGE:  cpu time    0.0160: real time    0.0166
    MIXING:  cpu time    0.0010: real time    0.0008
    --------------------------------------------
      LOOP:  cpu time    0.2420: real time    0.2426

 eigenvalue-minimisations  :   779
 total energy-change (2. order) :-0.1233950E-03  (-0.3631114E-05)
 number of electron      44.9999999 magnetization 
 augmentation part       28.7873058 magnetization 

 Broyden mixing:
  rms(total) = 0.89301E-03    rms(broyden)= 0.71142E-03
  rms(prec ) = 0.98758E-03
  weight for this iteration     100.00
  WARNING: grid for Broyden might be to small

 eigenvalues of (default mixing * dielectric matrix)
  average eigenvalue GAMMA=   1.5823
  5.5762  3.2615  2.3023  2.3023  1.2953  0.9223  0.9223  0.7270  0.6401  0.2420
  0.4086  0.3873

 Free energy of the ion-electron system (eV)
  ---------------------------------------------------
  alpha Z        PSCENC =       120.87645803
  Ewald energy   TEWEN  =     37838.74623380
  -Hartree energ DENC   =    -42909.56427865
  -exchange      EXHF   =         0.00000000
  -V(xc)+E(xc)   XCENC  =       173.55203046
  PAW double counting   =      4399.56655023    -4975.58784366
  entropy T*S    EENTRO =        -0.01565241
  eigenvalues    EBANDS =      -240.75811964
  atomic energy  EATOM  =      5575.94961827
  Solvation  Ediel_sol  =         0.00000000
  ---------------------------------------------------
  free energy    TOTEN  =       -17.23500356 eV

  energy without entropy =      -17.21935116  energy(sigma->0) =      -17.22717736


--------------------------------------------------------------------------------------------------------




--------------------------------------- Iteration      1(  18)  ---------------------------------------


    POTLOK:  cpu time    0.0110: real time    0.0111
    SETDIJ:  cpu time    0.0030: real time    0.0032
    EDDIAG:  cpu time    0.0550: real time    0.0551
  RMM-DIIS:  cpu time    0.1210: real time    0.1213
    ORTHCH:  cpu time    0.0070: real time    0.0072
       DOS:  cpu time    0.0030: real time    0.0026
    CHARGE:  cpu time    0.0160: real time    0.0165
    MIXING:  cpu time    0.0020: real time    0.0009
    --------------------------------------------
      LOOP:  cpu time    0.2180: real time    0.2178

 eigenvalue-minimisations  :   630
 total energy-change (2. order) :-0.7223894E-04  (-0.9018957E-06)
 number of electron      44.9999999 magnetization 
 augmentation part       28.7875306 magnetization 

 Broyden mixing:
  rms(total) = 0.81342E-03    rms(broyden)= 0.60846E-03
  rms(prec ) = 0.91387E-03
  weight for this iteration     100.00
  WARNING: grid for Broyden might be to small

 eigenvalues of (default mixing * dielectric matrix)
  average eigenvalue GAMMA=   1.6100
  5.9909  3.6328  2.3441  2.3441  1.3025  1.1559  0.9682  0.2420  0.7769  0.7367
  0.6400  0.4086  0.3873

 Free energy of the ion-electron system (eV)
  ---------------------------------------------------
  alpha Z        PSCENC =       120.87645803
  Ewald energy   TEWEN  =     37838.74623380
  -Hartree energ DENC   =    -42910.14863252
  -exchange      EXHF   =         0.00000000
  -V(xc)+E(xc)   XCENC  =       173.55089271
  PAW double counting   =      4399.70068531    -4975.73235056
  entropy T*S    EENTRO =        -0.01557635
  eigenvalues    EBANDS =      -240.16240450
  atomic energy  EATOM  =      5575.94961827
  Solvation  Ediel_sol  =         0.00000000
  ---------------------------------------------------
  free energy    TOTEN  =       -17.23507580 eV

  energy without entropy =      -17.21949945  energy(sigma->0) =      -17.22728763


--------------------------------------------------------------------------------------------------------




--------------------------------------- Iteration      1(  19)  ---------------------------------------


    POTLOK:  cpu time    0.0110: real time    0.0111
    SETDIJ:  cpu time    0.0030: real time    0.0031
    EDDIAG:  cpu time    0.0550: real time    0.0552
  RMM-DIIS:  cpu time    0.1110: real time    0.1107
    ORTHCH:  cpu time    0.0060: real time    0.0072
       DOS:  cpu time    0.0030: real time    0.0026
    CHARGE:  cpu time    0.0170: real time    0.0166
    MIXING:  cpu time    0.0010: real time    0.0009
    --------------------------------------------
      LOOP:  cpu time    0.2070: real time    0.2075

 eigenvalue-minimisations  :   542
 total energy-change (2. order) :-0.1610166E-04  (-0.1600727E-06)
 number of electron      44.9999999 magnetization 
 augmentation part       28.7877754 magnetization 

 Broyden mixing:
  rms(total) = 0.56566E-03    rms(broyden)= 0.17101E-03
  rms(prec ) = 0.23953E-03
  weight for this iteration     100.00
  WARNING: grid for Broyden might be to small

 eigenvalues of (default mixing * dielectric matrix)
  average eigenvalue GAMMA=   1.7218
  5.9588  4.7446  2.4073  2.4073  2.1152  1.2408  0.2420  1.0833  0.9632  0.6400
  0.7704  0.7369  0.4086  0.3873

 Free energy of the ion-electron system (eV)
  ---------------------------------------------------
  alpha Z        PSCENC =       120.87645803
  Ewald energy   TEWEN  =     37838.74623380
  -Hartree energ DENC   =    -42910.21914355
  -exchange      EXHF   =         0.00000000
  -V(xc)+E(xc)   XCENC  =       173.55052743
  PAW double counting   =      4399.69798874    -4975.72692902
  entropy T*S    EENTRO =        -0.01561919
  eigenvalues    EBANDS =      -240.09422641
  atomic energy  EATOM  =      5575.94961827
  Solvation  Ediel_sol  =         0.00000000
  ---------------------------------------------------
  free energy    TOTEN  =       -17.23509190 eV

  energy without entropy =      -17.21947272  energy(sigma->0) =      -17.22728231


--------------------------------------------------------------------------------------------------------




--------------------------------------- Iteration      1(  20)  ---------------------------------------


    POTLOK:  cpu time    0.0110: real time    0.0112
    SETDIJ:  cpu time    0.0030: real time    0.0032
    EDDIAG:  cpu time    0.0550: real time    0.0552
  RMM-DIIS:  cpu time    0.1050: real time    0.1047
    ORTHCH:  cpu time    0.0070: real time    0.0072
       DOS:  cpu time    0.0030: real time    0.0026
    CHARGE:  cpu time    0.0160: real time    0.0164
    MIXING:  cpu time    0.0010: real time    0.0010
    --------------------------------------------
      LOOP:  cpu time    0.2010: real time    0.2014

 eigenvalue-minimisations  :   512
 total energy-change (2. order) :-0.1981677E-04  (-0.1037496E-06)
 number of electron      44.9999999 magnetization 
 augmentation part       28.7875659 magnetization 

 Broyden mixing:
  rms(total) = 0.55259E-03    rms(broyden)= 0.12184E-03
  rms(prec ) = 0.19782E-03
  weight for this iteration     100.00
  WARNING: grid for Broyden might be to small

 eigenvalues of (default mixing * dielectric matrix)
  average eigenvalue GAMMA=   1.8162
  6.8731  5.1065  2.6863  2.6863  2.0705  1.4617  1.1579  1.0045  1.0045  0.7784
  0.7351  0.6399  0.2420  0.4086  0.3873

 Free energy of the ion-electron system (eV)
  ---------------------------------------------------
  alpha Z        PSCENC =       120.87645803
  Ewald energy   TEWEN  =     37838.74623380
  -Hartree energ DENC   =    -42910.36649739
  -exchange      EXHF   =         0.00000000
  -V(xc)+E(xc)   XCENC  =       173.55064239
  PAW double counting   =      4399.74325796    -4975.77677403
  entropy T*S    EENTRO =        -0.01563374
  eigenvalues    EBANDS =      -239.94241700
  atomic energy  EATOM  =      5575.94961827
  Solvation  Ediel_sol  =         0.00000000
  ---------------------------------------------------
  free energy    TOTEN  =       -17.23511172 eV

  energy without entropy =      -17.21947798  energy(sigma->0) =      -17.22729485


--------------------------------------------------------------------------------------------------------




--------------------------------------- Iteration      1(  21)  ---------------------------------------


    POTLOK:  cpu time    0.0110: real time    0.0134
    SETDIJ:  cpu time    0.0030: real time    0.0032
    EDDIAG:  cpu time    0.0550: real time    0.0551
  RMM-DIIS:  cpu time    0.1020: real time    0.1019
    ORTHCH:  cpu time    0.0070: real time    0.0073
       DOS:  cpu time    0.0030: real time    0.0027
    CHARGE:  cpu time    0.0160: real time    0.0164
    MIXING:  cpu time    0.0010: real time    0.0010
    --------------------------------------------
      LOOP:  cpu time    0.1980: real time    0.2009

 eigenvalue-minimisations  :   490
 total energy-change (2. order) :-0.9232334E-05  (-0.4835147E-07)
 number of electron      44.9999999 magnetization 
 augmentation part       28.7877108 magnetization 

 Broyden mixing:
  rms(total) = 0.54494E-03    rms(broyden)= 0.80401E-04
  rms(prec ) = 0.11311E-03
  weight for this iteration     100.00
  WARNING: grid for Broyden might be to small

 eigenvalues of (default mixing * dielectric matrix)
  average eigenvalue GAMMA=   1.9476
  7.8906  5.4586  3.4411  2.5205  2.0977  2.0977  1.3388  0.2420  1.0762  1.0762
  0.9693  0.6399  0.7823  0.7345  0.4086  0.3873

 Free energy of the ion-electron system (eV)
  ---------------------------------------------------
  alpha Z        PSCENC =       120.87645803
  Ewald energy   TEWEN  =     37838.74623380
  -Hartree energ DENC   =    -42910.43698388
  -exchange      EXHF   =         0.00000000
  -V(xc)+E(xc)   XCENC  =       173.55070773
  PAW double counting   =      4399.70967193    -4975.73692312
  entropy T*S    EENTRO =        -0.01561834
  eigenvalues    EBANDS =      -239.87828538
  atomic energy  EATOM  =      5575.94961827
  Solvation  Ediel_sol  =         0.00000000
  ---------------------------------------------------
  free energy    TOTEN  =       -17.23512095 eV

  energy without entropy =      -17.21950262  energy(sigma->0) =      -17.22731179


--------------------------------------------------------------------------------------------------------




--------------------------------------- Iteration      1(  22)  ---------------------------------------


    POTLOK:  cpu time    0.0110: real time    0.0112
    SETDIJ:  cpu time    0.0040: real time    0.0032
    EDDIAG:  cpu time    0.0550: real time    0.0552
  RMM-DIIS:  cpu time    0.1000: real time    0.1003
    ORTHCH:  cpu time    0.0070: real time    0.0072
       DOS:  cpu time    0.0030: real time    0.0027
    CHARGE:  cpu time    0.0160: real time    0.0164
    MIXING:  cpu time    0.0010: real time    0.0010
    --------------------------------------------
      LOOP:  cpu time    0.1970: real time    0.1972

 eigenvalue-minimisations  :   480
 total energy-change (2. order) :-0.3362581E-05  (-0.2277900E-07)
 number of electron      44.9999999 magnetization 
 augmentation part       28.7875222 magnetization 

 Broyden mixing:
  rms(total) = 0.54546E-03    rms(broyden)= 0.84057E-04
  rms(prec ) = 0.98421E-04
  weight for this iteration     100.00
  WARNING: grid for Broyden might be to small

 eigenvalues of (default mixing * dielectric matrix)
  average eigenvalue GAMMA=   1.9926
  8.1940  5.8656  3.5300  2.8455  2.4584  1.9814  1.5842  0.2420  1.1960  1.0133
  1.0133  0.9956  0.6399  0.7850  0.7342  0.4086  0.3873

 Free energy of the ion-electron system (eV)
  ---------------------------------------------------
  alpha Z        PSCENC =       120.87645803
  Ewald energy   TEWEN  =     37838.74623380
  -Hartree energ DENC   =    -42910.47355935
  -exchange      EXHF   =         0.00000000
  -V(xc)+E(xc)   XCENC  =       173.55092524
  PAW double counting   =      4399.71793733    -4975.74813959
  entropy T*S    EENTRO =        -0.01562902
  eigenvalues    EBANDS =      -239.83896902
  atomic energy  EATOM  =      5575.94961827
  Solvation  Ediel_sol  =         0.00000000
  ---------------------------------------------------
  free energy    TOTEN  =       -17.23512432 eV

  energy without entropy =      -17.21949529  energy(sigma->0) =      -17.22730980


--------------------------------------------------------------------------------------------------------




--------------------------------------- Iteration      1(  23)  ---------------------------------------


    POTLOK:  cpu time    0.0110: real time    0.0114
    SETDIJ:  cpu time    0.0040: real time    0.0031
    EDDIAG:  cpu time    0.0540: real time    0.0551
  RMM-DIIS:  cpu time    0.1010: real time    0.1003
    ORTHCH:  cpu time    0.0060: real time    0.0072
       DOS:  cpu time    0.0030: real time    0.0026
    --------------------------------------------
      LOOP:  cpu time    0.1790: real time    0.1798

 eigenvalue-minimisations  :   467
 total energy-change (2. order) :-0.7144881E-06  (-0.1025057E-07)
 number of electron      44.9999999 magnetization 
 augmentation part       28.7875222 magnetization 

 Free energy of the ion-electron system (eV)
  ---------------------------------------------------
  alpha Z        PSCENC =       120.87645803
  Ewald energy   TEWEN  =     37838.74623380
  -Hartree energ DENC   =    -42910.47355143
  -exchange      EXHF   =         0.00000000
  -V(xc)+E(xc)   XCENC  =       173.55070960
  PAW double counting   =      4399.70570331    -4975.73465979
  entropy T*S    EENTRO =        -0.01562431
  eigenvalues    EBANDS =      -239.84001252
  atomic energy  EATOM  =      5575.94961827
  Solvation  Ediel_sol  =         0.00000000
  ---------------------------------------------------
  free energy    TOTEN  =       -17.23512503 eV

  energy without entropy =      -17.21950072  energy(sigma->0) =      -17.22731288


--------------------------------------------------------------------------------------------------------




 average (electrostatic) potential at core
  the test charge radii are     1.0053  0.5201
  (the norm of the test charge is              1.0000)
       1 -45.6928       2 -45.9288       3 -45.8860       4 -46.3654       5 -39.4507
 
 
 
 E-fermi :  -2.2574     XC(G=0):  -4.4116     alpha+bet : -2.7756


 k-point     1 :       0.0000    0.0000    0.0000
  band No.  band energies     occupation 
      1     -11.9681      2.00000
      2     -10.6669      2.00000
      3      -8.9488      2.00000
      4      -7.4489      2.00000
      5      -5.7490      2.00000
      6      -5.6566      2.00000
      7      -5.6564      2.00000
      8      -5.4793      2.00000
      9      -5.2118      2.00000
     10      -5.1777      2.00000
     11      -5.1774      2.00000
     12      -5.1494      2.00000
     13      -5.1492      2.00000
     14      -4.9032      2.00000
     15      -4.9029      2.00000
     16      -4.7631      2.00000
     17      -4.7630      2.00000
     18      -4.7388      2.00000
     19      -4.4022      2.00000
     20      -4.4021      2.00000
     21      -4.1799      2.00000
     22      -4.1799      2.00000
     23      -3.9027      2.00000
     24      -3.9026      2.00000
     25      -2.8131      2.00000
     26       1.6381      0.00000
     27       1.9019      0.00000
     28       2.2979      0.00000

 k-point     2 :       0.1000    0.0000    0.0000
  band No.  band energies     occupation 
      1     -11.6772      2.00000
      2     -10.3647      2.00000
      3      -8.6814      2.00000
      4      -7.2292      2.00000
      5      -5.8392      2.00000
      6      -5.7168      2.00000
      7      -5.6215      2.00000
      8      -5.5462      2.00000
      9      -5.2850      2.00000
     10      -5.2479      2.00000
     11      -5.2230      2.00000
     12      -5.0873      2.00000
     13      -5.0689      2.00000
     14      -5.0035      2.00000
     15      -4.9194      2.00000
     16      -4.8344      2.00000
     17      -4.7510      2.00000
     18      -4.6048      2.00000
     19      -4.4211      2.00000
     20      -4.3834      2.00000
     21      -4.2072      2.00000
     22      -4.1764      2.00000
     23      -3.8976      2.00000
     24      -3.6658      2.00000
     25      -2.1201      0.05220
     26       1.8922      0.00000
     27       2.2030      0.00000
     28       2.5998      0.00000

 k-point     3 :       0.2000   -0.0000    0.0000
  band No.  band energies     occupation 
      1     -10.8584      2.00000
      2      -9.5049      2.00000
      3      -7.9820      2.00000
      4      -6.7166      2.00000
      5      -6.1234      2.00000
      6      -5.8977      2.00000
      7      -5.7159      2.00000
      8      -5.5868      2.00000
      9      -5.4225      2.00000
     10      -5.2518      2.00000
     11      -5.1887      2.00000
     12      -5.1143      2.00000
     13      -5.0241      2.00000
     14      -4.9209      2.00000
     15      -4.8307      2.00000
     16      -4.7727      2.00000
     17      -4.6997      2.00000
     18      -4.5330      2.00000
     19      -4.4708      2.00000
     20      -4.3700      2.00000
     21      -4.1794      2.00000
     22      -3.9891      2.00000
     23      -3.8910      2.00000
     24      -2.7649      2.00000
     25      -0.7689      0.00000
     26       2.6466      0.00000
     27       3.1051      0.00000
     28       3.5042      0.00000

 k-point     4 :       0.3000   -0.0000    0.0000
  band No.  band energies     occupation 
      1      -9.7387      2.00000
      2      -8.2911      2.00000
      3      -7.2661      2.00000
      4      -6.4865      2.00000
      5      -6.2338      2.00000
      6      -6.1265      2.00000
      7      -5.8181      2.00000
      8      -5.5876      2.00000
      9      -5.4947      2.00000
     10      -5.2099      2.00000
     11      -5.0989      2.00000
     12      -4.9772      2.00000
     13      -4.9027      2.00000
     14      -4.7930      2.00000
     15      -4.7503      2.00000
     16      -4.5425      2.00000
     17      -4.4570      2.00000
     18      -4.2822      2.00000
     19      -4.2400      2.00000
     20      -4.1707      2.00000
     21      -4.0532      2.00000
     22      -3.8760      2.00000
     23      -3.5197      2.00000
     24      -1.5700      0.00000
     25       0.9425      0.00000
     26       3.8454      0.00000
     27       4.5592      0.00000
     28       4.9560      0.00000

 k-point     5 :       0.4000   -0.0000    0.0000
  band No.  band energies     occupation 
      1      -8.8986      2.00000
      2      -7.2783      2.00000
      3      -6.9268      2.00000
      4      -6.5064      2.00000
      5      -6.3960      2.00000
      6      -6.2387      2.00000
      7      -5.9163      2.00000
      8      -5.3712      2.00000
      9      -5.2770      2.00000
     10      -5.1823      2.00000
     11      -5.1398      2.00000
     12      -4.9144      2.00000
     13      -4.8103      2.00000
     14      -4.5152      2.00000
     15      -4.3580      2.00000
     16      -4.2495      2.00000
     17      -4.0458      2.00000
     18      -4.0199      2.00000
     19      -3.9501      2.00000
     20      -3.8755      2.00000
     21      -3.7357      2.00000
     22      -3.4714      2.00000
     23      -2.4582      1.99548
     24      -0.1851      0.00000
     25       2.2300      0.00000
     26       2.5026      0.00000
     27       3.3627      0.00000
     28       4.7384      0.00000

 k-point     6 :       0.5000   -0.0000    0.0000
  band No.  band energies     occupation 
      1      -8.6685      2.00000
      2      -6.9954      2.00000
      3      -6.8509      2.00000
      4      -6.5183      2.00000
      5      -6.4584      2.00000
      6      -6.2720      2.00000
      7      -5.9321      2.00000
      8      -5.3260      2.00000
      9      -5.2150      2.00000
     10      -5.1891      2.00000
     11      -4.9353      2.00000
     12      -4.9174      2.00000
     13      -4.5712      2.00000
     14      -4.4119      2.00000
     15      -4.3280      2.00000
     16      -4.0891      2.00000
     17      -3.9600      2.00000
     18      -3.8592      2.00000
     19      -3.7926      2.00000
     20      -3.6753      2.00000
     21      -3.6203      2.00000
     22      -2.1564      0.15332
     23      -1.2962      0.00000
     24      -0.7385      0.00000
     25       1.1559      0.00000
     26       1.8311      0.00000
     27       2.9359      0.00000
     28       4.1698      0.00000

 k-point     7 :       0.2000    0.1000    0.0000
  band No.  band energies     occupation 
      1     -11.1203      2.00000
      2      -9.7816      2.00000
      3      -8.1923      2.00000
      4      -6.8501      2.00000
      5      -6.0524      2.00000
      6      -5.7869      2.00000
      7      -5.7559      2.00000
      8      -5.5110      2.00000
      9      -5.3844      2.00000
     10      -5.3291      2.00000
     11      -5.2389      2.00000
     12      -5.0682      2.00000
     13      -5.0281      2.00000
     14      -5.0165      2.00000
     15      -4.8654      2.00000
     16      -4.8014      2.00000
     17      -4.6218      2.00000
     18      -4.5445      2.00000
     19      -4.5109      2.00000
     20      -4.3689      2.00000
     21      -4.2609      2.00000
     22      -3.9975      2.00000
     23      -3.9349      2.00000
     24      -3.0220      2.00000
     25      -1.1662      0.00000
     26       2.3975      0.00000
     27       2.8049      0.00000
     28       3.2031      0.00000

 k-point     8 :       0.3000    0.1000    0.0000
  band No.  band energies     occupation 
      1     -10.1337      2.00000
      2      -8.7236      2.00000
      3      -7.4539      2.00000
      4      -6.4672      2.00000
      5      -6.1288      2.00000
      6      -6.0155      2.00000
      7      -5.8237      2.00000
      8      -5.6926      2.00000
      9      -5.5491      2.00000
     10      -5.2242      2.00000
     11      -5.1904      2.00000
     12      -5.1082      2.00000
     13      -4.9803      2.00000
     14      -4.9453      2.00000
     15      -4.8179      2.00000
     16      -4.6901      2.00000
     17      -4.5370      2.00000
     18      -4.3917      2.00000
     19      -4.2739      2.00000
     20      -4.2063      2.00000
     21      -4.0633      2.00000
     22      -3.9539      2.00000
     23      -3.6355      2.00000
     24      -1.9998      0.00027
     25       0.3171      0.00000
     26       3.4060      0.00000
     27       4.0016      0.00000
     28       4.4070      0.00000

 k-point     9 :       0.4000    0.1000    0.0000
  band No.  band energies     occupation 
      1      -9.1185      2.00000
      2      -7.5439      2.00000
      3      -6.9410      2.00000
      4      -6.4425      2.00000
      5      -6.2503      2.00000
      6      -6.1350      2.00000
      7      -5.8748      2.00000
      8      -5.5898      2.00000
      9      -5.4954      2.00000
     10      -5.2430      2.00000
     11      -5.1917      2.00000
     12      -5.0249      2.00000
     13      -4.8722      2.00000
     14      -4.6629      2.00000
     15      -4.6021      2.00000
     16      -4.4436      2.00000
     17      -4.3380      2.00000
     18      -4.1949      2.00000
     19      -4.0814      2.00000
     20      -3.8998      2.00000
     21      -3.8592      2.00000
     22      -3.5438      2.00000
     23      -2.7567      2.00000
     24      -0.5829      0.00000
     25       2.1222      0.00000
     26       3.8228      0.00000
     27       4.5224      0.00000
     28       5.3333      0.00000

 k-point    10 :       0.5000    0.1000    0.0000
  band No.  band energies     occupation 
      1      -8.6366      2.00000
      2      -6.9195      2.00000
      3      -6.7597      2.00000
      4      -6.4304      2.00000
      5      -6.3622      2.00000
      6      -6.1797      2.00000
      7      -5.9362      2.00000
      8      -5.4600      2.00000
      9      -5.3192      2.00000
     10      -5.1891      2.00000
     11      -5.1421      2.00000
     12      -5.0132      2.00000
     13      -4.7681      2.00000
     14      -4.4554      2.00000
     15      -4.3685      2.00000
     16      -4.1840      2.00000
     17      -4.0531      2.00000
     18      -3.9951      2.00000
     19      -3.9373      2.00000
     20      -3.7837      2.00000
     21      -3.4131      2.00000
     22      -2.2649      1.08396
     23      -1.2747      0.00000
     24       0.1681      0.00000
     25       1.6481      0.00000
     26       2.1272      0.00000
     27       3.1891      0.00000
     28       4.6279      0.00000

 k-point    11 :       0.4000    0.2000    0.0000
  band No.  band energies     occupation 
      1      -9.2073      2.00000
      2      -7.6397      2.00000
      3      -6.9090      2.00000
      4      -6.3986      2.00000
      5      -6.0958      2.00000
      6      -5.9476      2.00000
      7      -5.8814      2.00000
      8      -5.8002      2.00000
      9      -5.5042      2.00000
     10      -5.3663      2.00000
     11      -5.2964      2.00000
     12      -5.2240      2.00000
     13      -4.9126      2.00000
     14      -4.8481      2.00000
     15      -4.7409      2.00000
     16      -4.5470      2.00000
     17      -4.3770      2.00000
     18      -4.2355      2.00000
     19      -4.1220      2.00000
     20      -3.8938      2.00000
     21      -3.8556      2.00000
     22      -3.4912      2.00000
     23      -2.7575      2.00000
     24      -0.7116      0.00000
     25       1.9151      0.00000
     26       4.6677      0.00000
     27       5.1827      0.00000
     28       5.6567      0.00000

 k-point    12 :       0.5000    0.2000    0.0000
  band No.  band energies     occupation 
      1      -8.5815      2.00000
      2      -6.7596      2.00000
      3      -6.5609      2.00000
      4      -6.3203      2.00000
      5      -6.1505      2.00000
      6      -6.0458      2.00000
      7      -5.8744      2.00000
      8      -5.7067      2.00000
      9      -5.5315      2.00000
     10      -5.4364      2.00000
     11      -5.3195      2.00000
     12      -4.9914      2.00000
     13      -4.9176      2.00000
     14      -4.7614      2.00000
     15      -4.5949      2.00000
     16      -4.4640      2.00000
     17      -4.3021      2.00000
     18      -4.1275      2.00000
     19      -3.9517      2.00000
     20      -3.8028      2.00000
     21      -3.1810      2.00000
     22      -2.2820      1.27242
     23      -1.1377      0.00000
     24       0.9677      0.00000
     25       2.9681      0.00000
     26       3.3017      0.00000
     27       4.0748      0.00000
     28       5.2371      0.00000

 k-point    13 :      -0.4000    0.2000    0.0000
  band No.  band energies     occupation 
      1      -8.4161      2.00000
      2      -6.5562      2.00000
      3      -6.4794      2.00000
      4      -6.2312      2.00000
      5      -6.1455      2.00000
      6      -6.0600      2.00000
      7      -5.8786      2.00000
      8      -5.7462      2.00000
      9      -5.5183      2.00000
     10      -5.3630      2.00000
     11      -5.2562      2.00000
     12      -5.0397      2.00000
     13      -4.8738      2.00000
     14      -4.6237      2.00000
     15      -4.4919      2.00000
     16      -4.4423      2.00000
     17      -4.1922      2.00000
     18      -4.0325      2.00000
     19      -3.9745      2.00000
     20      -3.8688      2.00000
     21      -2.3542      1.82902
     22      -0.6590      0.00000
     23      -0.1165      0.00000
     24       0.6478      0.00000
     25       1.9721      0.00000
     26       2.3499      0.00000
     27       3.6361      0.00000
     28       4.7369      0.00000

 k-point    14 :      -0.4000    0.3000    0.0000
  band No.  band energies     occupation 
      1      -8.3235      2.00000
      2      -6.3242      2.00000
      3      -6.2521      2.00000
      4      -6.1669      2.00000
      5      -6.0530      2.00000
      6      -5.9247      2.00000
      7      -5.8818      2.00000
      8      -5.8305      2.00000
      9      -5.7045      2.00000
     10      -5.5320      2.00000
     11      -5.3412      2.00000
     12      -4.9654      2.00000
     13      -4.9159      2.00000
     14      -4.8198      2.00000
     15      -4.6128      2.00000
     16      -4.4518      2.00000
     17      -4.3639      2.00000
     18      -4.0725      2.00000
     19      -3.9864      2.00000
     20      -3.8930      2.00000
     21      -1.8867      0.00000
     22      -0.3134      0.00000
     23       0.8139      0.00000
     24       2.0420      0.00000
     25       2.4497      0.00000
     26       2.9689      0.00000
     27       3.1911      0.00000
     28       4.1048      0.00000


--------------------------------------------------------------------------------------------------------


 soft charge-density along one line, spin component           1
         0         1         2         3         4         5         6         7         8         9
 total charge-density along one line
 
 pseudopotential strength for first ion, spin component:           1
-10.754   0.000   0.000  -0.004   0.000   1.701  -0.000  -0.000
  0.000 -10.733  -0.000   0.000  -0.004  -0.000   1.691   0.000
  0.000  -0.000 -10.734  -0.000   0.000  -0.000   0.000   1.690
 -0.004   0.000  -0.000 -10.733   0.000   0.002  -0.000   0.000
  0.000  -0.004   0.000   0.000 -10.754  -0.000   0.002  -0.000
  1.701  -0.000  -0.000   0.002  -0.000   0.794   0.000   0.000
 -0.000   1.691   0.000  -0.000   0.002   0.000   0.798  -0.000
 -0.000   0.000   1.690   0.000  -0.000   0.000  -0.000   0.799
  0.002  -0.000   0.000   1.691  -0.000  -0.001   0.000  -0.000
 -0.000   0.002  -0.000  -0.000   1.701   0.000  -0.001   0.000
  0.000   0.000  -0.005   0.000   0.000   0.000   0.000   0.002
 -0.000  -0.000   0.000  -0.000  -0.000   0.000   0.000  -0.000
  0.000  -0.010  -0.000  -0.000   0.000  -0.000   0.006  -0.000
 -0.000   0.000  -0.010   0.000  -0.000  -0.000  -0.000   0.006
  0.000  -0.000  -0.000  -0.010   0.000   0.000  -0.000  -0.000
 -0.000   0.005   0.000   0.000  -0.000   0.000  -0.003  -0.000
  0.000   0.000   0.006   0.000   0.000  -0.000   0.000  -0.003
 -0.000   0.000   0.000   0.005  -0.000   0.000  -0.000  -0.000
 total augmentation occupancy for first ion, spin component:           1
  1.927   0.000  -0.000  -0.002  -0.000  -0.003   0.000   0.000   0.010  -0.000   0.000  -0.000   0.000  -0.000   0.005   0.000
  0.000   1.932   0.000   0.000  -0.002   0.000  -0.035  -0.000   0.000   0.010   0.000   0.000  -0.002   0.000   0.000  -0.005
 -0.000   0.000   1.935   0.000  -0.000   0.000  -0.000  -0.025  -0.000   0.000   0.017   0.040  -0.000   0.036   0.000   0.000
 -0.002   0.000   0.000   1.932   0.000   0.010   0.000  -0.000  -0.035  -0.000   0.000  -0.000   0.000   0.000  -0.002  -0.000
 -0.000  -0.002  -0.000   0.000   1.927  -0.000   0.010   0.000  -0.000  -0.003  -0.000  -0.000   0.005  -0.000  -0.000  -0.001
 -0.003   0.000   0.000   0.010  -0.000   0.060  -0.000  -0.000   0.001  -0.000   0.000  -0.000  -0.000   0.000   0.005   0.000
  0.000  -0.035  -0.000   0.000   0.010  -0.000   0.039   0.000   0.000   0.001  -0.000   0.000   0.031  -0.000   0.000  -0.003
  0.000  -0.000  -0.025  -0.000   0.000  -0.000  -0.000   0.056   0.000  -0.000  -0.075   0.013  -0.000   0.042  -0.000   0.000
  0.010   0.000  -0.000  -0.035  -0.000   0.001   0.000  -0.000   0.039   0.000   0.000   0.000   0.000  -0.000   0.031   0.000
  0.000   0.010   0.000  -0.000  -0.003  -0.000   0.001  -0.000   0.000   0.060   0.000  -0.000   0.005  -0.000  -0.000  -0.000
  0.000   0.000   0.017   0.000  -0.000   0.000   0.000  -0.075  -0.000   0.000   1.244  -0.280   0.000   0.071   0.000   0.000
 -0.000   0.000   0.040  -0.000  -0.000   0.000   0.000   0.013   0.000  -0.000  -0.280   0.109   0.000  -0.045  -0.000   0.000
  0.000  -0.002  -0.000   0.000   0.005   0.000   0.031  -0.000   0.000   0.005   0.000   0.000   0.170   0.000   0.000  -0.010
 -0.000   0.000   0.036   0.000  -0.000  -0.000   0.000   0.042   0.000  -0.000   0.071  -0.045   0.000   0.091   0.000   0.000
  0.005   0.000   0.000  -0.002  -0.000   0.005   0.000   0.000   0.031  -0.000   0.000  -0.000   0.000   0.000   0.170   0.000
 -0.000  -0.005   0.000   0.000  -0.001   0.000  -0.003   0.000  -0.000  -0.000   0.000   0.000  -0.010  -0.000   0.000   0.001
  0.000   0.000  -0.008   0.000   0.000   0.000  -0.000  -0.002   0.000   0.000  -0.013   0.006   0.000  -0.007   0.000  -0.000
 -0.001  -0.000   0.000  -0.005   0.000  -0.000   0.000   0.000  -0.003   0.000  -0.000   0.000   0.000   0.000  -0.010  -0.000


------------------------ aborting loop because EDIFF is reached ----------------------------------------


 


 total charge     
 
# of ion       s       p       d       tot
------------------------------------------
    1        0.457   0.286   9.219   9.961
    2        0.443   0.368   9.222  10.033
    3        0.449   0.355   9.212  10.016
    4        0.432   0.479   9.218  10.128
    5        0.545   0.021   0.000   0.566
--------------------------------------------------
tot          2.325   1.509  36.870  40.705
 
    CHARGE:  cpu time    0.0150: real time    0.0165
    FORLOC:  cpu time    0.0020: real time    0.0014
    FORNL :  cpu time    0.0830: real time    0.0823
    STRESS:  cpu time    0.2520: real time    0.2524
    FORCOR:  cpu time    0.0110: real time    0.0115
    FORHAR:  cpu time    0.0030: real time    0.0031
    MIXING:  cpu time    0.0010: real time    0.0011
    OFIELD:  cpu time    0.0000: real time    0.0000

  FORCE on cell =-STRESS in cart. coord.  units (eV):
  Direction    XX          YY          ZZ          XY          YZ          ZX
  --------------------------------------------------------------------------------------
  Alpha Z   120.87646   120.87646   120.87646
  Ewald   40775.69614 40775.69660-43712.65015     0.00008     0.00019    -0.00007
  Hartree 42084.38744 42084.38739-41258.27771     0.00001     0.00001    -0.00002
  E(xc)    -253.19649  -253.19496  -253.83502    -0.00133     0.00017     0.00030
  Local  -83126.19559-83126.20137 84700.25375     0.00477    -0.00094    -0.00134
  n-local  -158.08105  -153.91077  -156.80054     2.49039    -0.51028     0.23243
  augment   225.27500   225.28392   226.98545    -0.00779     0.00260     0.00454
  Kinetic   337.63554   311.86773   328.61687    -9.92685     0.07056    -0.26349
  Fock        0.00000     0.00000     0.00000     0.00000     0.00000     0.00000
  -------------------------------------------------------------------------------------
  Total      -4.39877    -4.39877    -4.83088     0.00000     0.00000    -0.00000
  in kB     -40.53487   -40.53487   -44.51684     0.00000     0.00000    -0.00000
  external pressure =      -41.86 kB  Pullay stress =        0.00 kB


 VOLUME and BASIS-vectors are now :
 -----------------------------------------------------------------------------
  energy-cutoff  :      250.00
  volume of cell :      173.87
      direct lattice vectors                 reciprocal lattice vectors
     2.573868684  0.000000000  0.000000000     0.388520209 -0.224312248  0.000000000
     1.286934342  2.229035666  0.000000000     0.000000000  0.448624495  0.000000000
     0.000000000  0.000000000 30.304664940     0.000000000  0.000000000  0.032998220

  length of vectors
     2.573868684  2.573868684 30.304664940     0.448624495  0.448624495  0.032998220


 FORCES acting on ions
    electron-ion (+dipol)            ewald-force                    non-local-force                 convergence-correction
 -----------------------------------------------------------------------------------------------
   -.286E-03 -.174E-03 0.421E+04   -.946E-04 -.414E-04 -.421E+04   0.867E-18 -.867E-18 -.150E+01   -.160E-08 -.892E-09 -.173E-02
   0.111E-03 0.100E-03 0.148E+04   0.218E-03 0.603E-07 -.148E+04   -.976E-18 -.217E-18 -.774E+00   -.120E-08 -.816E-09 -.741E-03
   0.154E-04 0.242E-03 -.126E+04   -.144E-03 0.100E-03 0.125E+04   0.000E+00 0.173E-17 0.553E+00   0.117E-08 0.992E-09 0.515E-03
   0.257E-03 0.198E-03 -.397E+04   0.873E-04 -.251E-03 0.397E+04   0.139E-15 0.000E+00 0.707E+00   0.119E-07 0.697E-08 0.566E-03
   0.912E-04 0.677E-04 -.465E+03   -.671E-04 0.192E-03 0.467E+03   0.000E+00 -.104E-16 -.138E+01   0.378E-09 0.813E-09 0.825E-04
 -----------------------------------------------------------------------------------------------
   0.189E-03 0.434E-03 0.240E+01   -.150E-12 0.336E-13 -.131E-11   0.139E-15 -.976E-17 -.239E+01   0.106E-07 0.707E-08 -.130E-02
 
 
 POSITION                                       TOTAL-FORCE (eV/Angst)
 -----------------------------------------------------------------------------------
      0.00000      0.00000     12.01359         0.000000      0.000000      0.054124
      1.28693      0.74301     14.09657        -0.000000     -0.000000     -0.005251
      2.57387      1.48602     16.17934        -0.000000     -0.000000     -0.024173
      0.00000      0.00000     18.38621         0.000000      0.000000     -0.399253
      2.57387      1.48602     19.13829        -0.000000      0.000000      0.374553
 -----------------------------------------------------------------------------------
    total drift:                                0.000189      0.000434      0.007959


--------------------------------------------------------------------------------------------------------



  FREE ENERGIE OF THE ION-ELECTRON SYSTEM (eV)
  ---------------------------------------------------
  free  energy   TOTEN  =       -17.23512503 eV

  energy  without entropy=      -17.21950072  energy(sigma->0) =      -17.22731288
 


--------------------------------------------------------------------------------------------------------


    POTLOK:  cpu time    0.0150: real time    0.0142


--------------------------------------------------------------------------------------------------------


     LOOP+:  cpu time    6.2191: real time    6.2619
    4ORBIT:  cpu time    0.0000: real time    0.0000
 


 total charge     
 
# of ion       s       p       d       tot
------------------------------------------
    1        0.457   0.286   9.219   9.961
    2        0.443   0.368   9.222  10.033
    3        0.449   0.355   9.212  10.016
    4        0.432   0.479   9.218  10.128
    5        0.545   0.021   0.000   0.566
--------------------------------------------------
tot          2.325   1.509  36.870  40.705
 

 total amount of memory used by VASP MPI-rank0    35976. kBytes
=======================================================================

   base      :      30000. kBytes
   nonlr-proj:        678. kBytes
   fftplans  :        995. kBytes
   grid      :       1592. kBytes
   one-center:         46. kBytes
   wavefun   :       2665. kBytes
 
  
  
 General timing and accounting informations for this job:
 ========================================================
  
                  Total CPU time used (sec):        7.384
                            User time (sec):        7.241
                          System time (sec):        0.143
                         Elapsed time (sec):        7.563
  
                   Maximum memory used (kb):       35592.
                   Average memory used (kb):           0.
  
                          Minor page faults:        12041
                          Major page faults:          133
                 Voluntary context switches:         2801
