PROCAR lm decomposed
# of k-points:   14         # of bands:   28         # of ions:    5

 k-point     1 :    0.00000000 0.00000000 0.00000000     weight = 0.01000000

band     1 # energy  -11.96813966 # occ.  2.00000000
 
ion      s     py     pz     px    dxy    dyz    dz2    dxz  x2-y2    tot
    1  0.002  0.000  0.000  0.000  0.000  0.000  0.000  0.000  0.000  0.002
    2  0.013  0.000  0.001  0.000  0.000  0.000  0.000  0.000  0.000  0.014
    3  0.067  0.000  0.004  0.000  0.000  0.000  0.000  0.000  0.000  0.071
    4  0.368  0.000  0.003  0.000  0.000  0.000  0.028  0.000  0.000  0.399
    5  0.146  0.000  0.001  0.000  0.000  0.000  0.000  0.000  0.000  0.148
tot    0.597  0.000  0.009  0.000  0.000  0.000  0.028  0.000  0.000  0.634
 
band     2 # energy  -10.66689859 # occ.  2.00000000
 
ion      s     py     pz     px    dxy    dyz    dz2    dxz  x2-y2    tot
    1  0.115  0.000  0.011  0.000  0.000  0.000  0.000  0.000  0.000  0.126
    2  0.293  0.000  0.000  0.000  0.000  0.000  0.002  0.000  0.000  0.295
    3  0.099  0.000  0.014  0.000  0.000  0.000  0.001  0.000  0.000  0.113
    4  0.024  0.000  0.007  0.000  0.000  0.000  0.011  0.000  0.000  0.043
    5  0.022  0.000  0.000  0.000  0.000  0.000  0.000  0.000  0.000  0.022
tot    0.554  0.000  0.032  0.000  0.000  0.000  0.014  0.000  0.000  0.600
 
band     3 # energy   -8.94878304 # occ.  2.00000000
 
ion      s     py     pz     px    dxy    dyz    dz2    dxz  x2-y2    tot
    1  0.200  0.000  0.002  0.000  0.000  0.000  0.020  0.000  0.000  0.223
    2  0.005  0.000  0.049  0.000  0.000  0.000  0.001  0.000  0.000  0.054
    3  0.217  0.000  0.000  0.000  0.000  0.000  0.036  0.000  0.000  0.254
    4  0.003  0.000  0.024  0.000  0.000  0.000  0.030  0.000  0.000  0.057
    5  0.020  0.000  0.000  0.000  0.000  0.000  0.000  0.000  0.000  0.020
tot    0.446  0.000  0.075  0.000  0.000  0.000  0.088  0.000  0.000  0.609
 
band     4 # energy   -7.44890532 # occ.  2.00000000
 
ion      s     py     pz     px    dxy    dyz    dz2    dxz  x2-y2    tot
    1  0.105  0.000  0.005  0.000  0.000  0.000  0.133  0.000  0.000  0.244
    2  0.099  0.000  0.003  0.000  0.000  0.000  0.235  0.000  0.000  0.336
    3  0.033  0.000  0.015  0.000  0.000  0.000  0.085  0.000  0.000  0.133
    4  0.000  0.000  0.009  0.000  0.000  0.000  0.020  0.000  0.000  0.030
    5  0.004  0.000  0.000  0.000  0.000  0.000  0.000  0.000  0.000  0.004
tot    0.241  0.000  0.032  0.000  0.000  0.000  0.474  0.000  0.000  0.747
 
band     5 # energy   -5.74897828 # occ.  2.00000000
 
ion      s     py     pz     px    dxy    dyz    dz2    dxz  x2-y2    tot
    1  0.000  0.000  0.000  0.000  0.000  0.000  0.000  0.000  0.000  0.001
    2  0.000  0.000  0.001  0.000  0.000  0.000  0.035  0.000  0.000  0.037
    3  0.002  0.000  0.006  0.000  0.000  0.000  0.021  0.000  0.000  0.029
    4  0.003  0.000  0.005  0.000  0.000  0.000  0.798  0.000  0.000  0.806
    5  0.009  0.000  0.002  0.000  0.000  0.000  0.000  0.000  0.000  0.011
tot    0.014  0.000  0.015  0.000  0.000  0.000  0.854  0.000  0.000  0.883
 
band     6 # energy   -5.65663292 # occ.  2.00000000
 
ion      s     py     pz     px    dxy    dyz    dz2    dxz  x2-y2    tot
    1  0.000  0.000  0.000  0.000  0.000  0.000  0.000  0.000  0.000  0.000
    2  0.000  0.000  0.000  0.000  0.000  0.000  0.000  0.000  0.001  0.001
    3  0.000  0.000  0.000  0.000  0.001  0.007  0.000  0.002  0.004  0.014
    4  0.000  0.000  0.000  0.000  0.239  0.003  0.000  0.001  0.707  0.950
    5  0.000  0.002  0.000  0.001  0.000  0.000  0.000  0.000  0.000  0.003
tot    0.000  0.003  0.000  0.001  0.240  0.010  0.000  0.003  0.712  0.969
 
band     7 # energy   -5.65642720 # occ.  2.00000000
 
ion      s     py     pz     px    dxy    dyz    dz2    dxz  x2-y2    tot
    1  0.000  0.000  0.000  0.000  0.000  0.000  0.000  0.000  0.000  0.000
    2  0.000  0.000  0.000  0.000  0.001  0.000  0.000  0.000  0.000  0.001
    3  0.000  0.000  0.000  0.000  0.004  0.002  0.000  0.007  0.001  0.014
    4  0.000  0.000  0.000  0.000  0.707  0.001  0.000  0.003  0.239  0.950
    5  0.000  0.001  0.000  0.002  0.000  0.000  0.000  0.000  0.000  0.003
tot    0.000  0.001  0.000  0.003  0.712  0.003  0.000  0.010  0.240  0.969
 
band     8 # energy   -5.47931354 # occ.  2.00000000
 
ion      s     py     pz     px    dxy    dyz    dz2    dxz  x2-y2    tot
    1  0.000  0.000  0.001  0.000  0.000  0.000  0.061  0.000  0.000  0.062
    2  0.002  0.000  0.005  0.000  0.000  0.000  0.008  0.000  0.000  0.015
    3  0.004  0.000  0.008  0.000  0.000  0.000  0.682  0.000  0.000  0.693
    4  0.003  0.000  0.050  0.000  0.000  0.000  0.001  0.000  0.000  0.054
    5  0.022  0.000  0.000  0.000  0.000  0.000  0.000  0.000  0.000  0.023
tot    0.032  0.000  0.064  0.000  0.000  0.000  0.752  0.000  0.000  0.848
 
band     9 # energy   -5.21175790 # occ.  2.00000000
 
ion      s     py     pz     px    dxy    dyz    dz2    dxz  x2-y2    tot
    1  0.000  0.000  0.006  0.000  0.000  0.000  0.321  0.000  0.000  0.327
    2  0.004  0.000  0.001  0.000  0.000  0.000  0.529  0.000  0.000  0.533
    3  0.001  0.000  0.008  0.000  0.000  0.000  0.044  0.000  0.000  0.054
    4  0.000  0.000  0.007  0.000  0.000  0.000  0.011  0.000  0.000  0.018
    5  0.003  0.000  0.000  0.000  0.000  0.000  0.000  0.000  0.000  0.003
tot    0.009  0.000  0.021  0.000  0.000  0.000  0.904  0.000  0.000  0.935
 
band    10 # energy   -5.17772100 # occ.  2.00000000
 
ion      s     py     pz     px    dxy    dyz    dz2    dxz  x2-y2    tot
    1  0.000  0.000  0.000  0.000  0.005  0.016  0.000  0.005  0.015  0.041
    2  0.000  0.000  0.000  0.000  0.191  0.000  0.000  0.000  0.573  0.764
    3  0.000  0.000  0.000  0.000  0.032  0.018  0.000  0.006  0.094  0.150
    4  0.000  0.000  0.000  0.000  0.001  0.003  0.000  0.001  0.004  0.009
    5  0.000  0.000  0.000  0.000  0.000  0.000  0.000  0.000  0.000  0.000
tot    0.000  0.000  0.000  0.000  0.229  0.037  0.000  0.012  0.686  0.965
 
band    11 # energy   -5.17740941 # occ.  2.00000000
 
ion      s     py     pz     px    dxy    dyz    dz2    dxz  x2-y2    tot
    1  0.000  0.000  0.000  0.000  0.015  0.005  0.000  0.016  0.005  0.041
    2  0.000  0.000  0.000  0.000  0.573  0.000  0.000  0.000  0.191  0.764
    3  0.000  0.000  0.000  0.000  0.094  0.006  0.000  0.018  0.031  0.150
    4  0.000  0.000  0.000  0.000  0.004  0.001  0.000  0.003  0.001  0.009
    5  0.000  0.000  0.000  0.000  0.000  0.000  0.000  0.000  0.000  0.000
tot    0.000  0.000  0.000  0.000  0.686  0.012  0.000  0.037  0.229  0.965
 
band    12 # energy   -5.14941895 # occ.  2.00000000
 
ion      s     py     pz     px    dxy    dyz    dz2    dxz  x2-y2    tot
    1  0.000  0.000  0.000  0.000  0.004  0.009  0.000  0.003  0.011  0.026
    2  0.000  0.000  0.000  0.000  0.024  0.064  0.000  0.021  0.072  0.181
    3  0.000  0.000  0.000  0.000  0.144  0.036  0.000  0.012  0.436  0.627
    4  0.000  0.000  0.000  0.000  0.001  0.099  0.000  0.033  0.002  0.134
    5  0.000  0.000  0.000  0.000  0.000  0.000  0.000  0.000  0.000  0.000
tot    0.000  0.000  0.000  0.000  0.172  0.208  0.000  0.069  0.520  0.968
 
band    13 # energy   -5.14916096 # occ.  2.00000000
 
ion      s     py     pz     px    dxy    dyz    dz2    dxz  x2-y2    tot
    1  0.000  0.000  0.000  0.000  0.011  0.003  0.000  0.009  0.004  0.026
    2  0.000  0.000  0.000  0.000  0.072  0.021  0.000  0.064  0.024  0.181
    3  0.000  0.000  0.000  0.000  0.435  0.012  0.000  0.036  0.144  0.627
    4  0.000  0.000  0.000  0.000  0.002  0.033  0.000  0.099  0.001  0.134
    5  0.000  0.000  0.000  0.000  0.000  0.000  0.000  0.000  0.000  0.000
tot    0.000  0.000  0.000  0.000  0.520  0.069  0.000  0.208  0.172  0.968
 
band    14 # energy   -4.90315012 # occ.  2.00000000
 
ion      s     py     pz     px    dxy    dyz    dz2    dxz  x2-y2    tot
    1  0.000  0.000  0.000  0.000  0.201  0.006  0.000  0.002  0.600  0.808
    2  0.000  0.000  0.000  0.000  0.000  0.061  0.000  0.020  0.001  0.083
    3  0.000  0.000  0.000  0.000  0.010  0.001  0.000  0.000  0.030  0.042
    4  0.000  0.000  0.000  0.000  0.000  0.026  0.000  0.009  0.001  0.036
    5  0.000  0.000  0.000  0.000  0.000  0.000  0.000  0.000  0.000  0.000
tot    0.000  0.000  0.000  0.000  0.211  0.094  0.000  0.031  0.632  0.969
 
band    15 # energy   -4.90285976 # occ.  2.00000000
 
ion      s     py     pz     px    dxy    dyz    dz2    dxz  x2-y2    tot
    1  0.000  0.000  0.000  0.000  0.600  0.002  0.000  0.006  0.201  0.808
    2  0.000  0.000  0.000  0.000  0.001  0.020  0.000  0.061  0.000  0.083
    3  0.000  0.000  0.000  0.000  0.030  0.000  0.000  0.001  0.010  0.042
    4  0.000  0.000  0.000  0.000  0.001  0.009  0.000  0.026  0.000  0.036
    5  0.000  0.000  0.000  0.000  0.000  0.000  0.000  0.000  0.000  0.000
tot    0.000  0.000  0.000  0.000  0.632  0.031  0.000  0.094  0.211  0.969
 
band    16 # energy   -4.76312775 # occ.  2.00000000
 
ion      s     py     pz     px    dxy    dyz    dz2    dxz  x2-y2    tot
    1  0.000  0.000  0.000  0.000  0.003  0.002  0.000  0.001  0.011  0.016
    2  0.000  0.000  0.000  0.000  0.003  0.005  0.000  0.002  0.009  0.018
    3  0.000  0.000  0.000  0.000  0.036  0.023  0.000  0.007  0.123  0.189
    4  0.000  0.000  0.000  0.000  0.000  0.589  0.000  0.170  0.000  0.760
    5  0.000  0.001  0.000  0.000  0.000  0.000  0.000  0.000  0.000  0.001
tot    0.000  0.001  0.000  0.000  0.041  0.620  0.000  0.179  0.143  0.984
 
band    17 # energy   -4.76302640 # occ.  2.00000000
 
ion      s     py     pz     px    dxy    dyz    dz2    dxz  x2-y2    tot
    1  0.000  0.000  0.000  0.000  0.011  0.001  0.000  0.002  0.003  0.016
    2  0.000  0.000  0.000  0.000  0.009  0.002  0.000  0.005  0.003  0.018
    3  0.000  0.000  0.000  0.000  0.123  0.007  0.000  0.023  0.036  0.189
    4  0.000  0.000  0.000  0.000  0.000  0.170  0.000  0.589  0.000  0.759
    5  0.000  0.000  0.000  0.001  0.000  0.000  0.000  0.000  0.000  0.001
tot    0.000  0.000  0.000  0.001  0.143  0.179  0.000  0.619  0.041  0.984
 
band    18 # energy   -4.73881572 # occ.  2.00000000
 
ion      s     py     pz     px    dxy    dyz    dz2    dxz  x2-y2    tot
    1  0.029  0.000  0.001  0.000  0.000  0.000  0.346  0.000  0.000  0.376
    2  0.016  0.000  0.041  0.000  0.000  0.000  0.070  0.000  0.000  0.127
    3  0.000  0.000  0.082  0.000  0.000  0.000  0.003  0.000  0.000  0.085
    4  0.010  0.000  0.062  0.000  0.000  0.000  0.000  0.000  0.000  0.072
    5  0.022  0.000  0.000  0.000  0.000  0.000  0.000  0.000  0.000  0.022
tot    0.076  0.000  0.187  0.000  0.000  0.000  0.420  0.000  0.000  0.683
 
band    19 # energy   -4.40222908 # occ.  2.00000000
 
ion      s     py     pz     px    dxy    dyz    dz2    dxz  x2-y2    tot
    1  0.000  0.000  0.000  0.000  0.028  0.036  0.000  0.014  0.074  0.152
    2  0.000  0.000  0.000  0.000  0.019  0.321  0.000  0.119  0.051  0.510
    3  0.000  0.000  0.000  0.000  0.013  0.188  0.000  0.070  0.034  0.305
    4  0.000  0.000  0.000  0.000  0.001  0.009  0.000  0.003  0.003  0.017
    5  0.000  0.000  0.000  0.000  0.000  0.000  0.000  0.000  0.000  0.000
tot    0.000  0.000  0.000  0.000  0.061  0.554  0.000  0.207  0.163  0.984
 
band    20 # energy   -4.40214972 # occ.  2.00000000
 
ion      s     py     pz     px    dxy    dyz    dz2    dxz  x2-y2    tot
    1  0.000  0.000  0.000  0.000  0.074  0.014  0.000  0.036  0.028  0.152
    2  0.000  0.000  0.000  0.000  0.051  0.119  0.000  0.320  0.019  0.510
    3  0.000  0.000  0.000  0.000  0.034  0.070  0.000  0.188  0.013  0.305
    4  0.000  0.000  0.000  0.000  0.003  0.003  0.000  0.009  0.001  0.017
    5  0.000  0.000  0.000  0.000  0.000  0.000  0.000  0.000  0.000  0.000
tot    0.000  0.000  0.000  0.000  0.163  0.206  0.000  0.554  0.061  0.984
 
band    21 # energy   -4.17988803 # occ.  2.00000000
 
ion      s     py     pz     px    dxy    dyz    dz2    dxz  x2-y2    tot
    1  0.000  0.000  0.000  0.000  0.002  0.268  0.000  0.082  0.007  0.360
    2  0.000  0.000  0.000  0.000  0.000  0.071  0.000  0.022  0.000  0.093
    3  0.000  0.000  0.000  0.000  0.001  0.375  0.000  0.114  0.004  0.495
    4  0.000  0.000  0.000  0.000  0.001  0.025  0.000  0.008  0.004  0.038
    5  0.000  0.000  0.000  0.000  0.000  0.000  0.000  0.000  0.000  0.000
tot    0.000  0.000  0.000  0.000  0.005  0.740  0.000  0.225  0.016  0.986
 
band    22 # energy   -4.17985240 # occ.  2.00000000
 
ion      s     py     pz     px    dxy    dyz    dz2    dxz  x2-y2    tot
    1  0.000  0.000  0.000  0.000  0.007  0.082  0.000  0.268  0.002  0.360
    2  0.000  0.000  0.000  0.000  0.000  0.022  0.000  0.071  0.000  0.093
    3  0.000  0.000  0.000  0.000  0.004  0.114  0.000  0.375  0.001  0.495
    4  0.000  0.000  0.000  0.000  0.004  0.008  0.000  0.025  0.001  0.038
    5  0.000  0.000  0.000  0.000  0.000  0.000  0.000  0.000  0.000  0.000
tot    0.000  0.000  0.000  0.000  0.016  0.225  0.000  0.740  0.005  0.986
 
band    23 # energy   -3.90266356 # occ.  2.00000000
 
ion      s     py     pz     px    dxy    dyz    dz2    dxz  x2-y2    tot
    1  0.000  0.000  0.000  0.000  0.002  0.409  0.000  0.133  0.006  0.550
    2  0.000  0.000  0.000  0.000  0.006  0.209  0.000  0.068  0.019  0.302
    3  0.000  0.000  0.000  0.000  0.002  0.093  0.000  0.031  0.005  0.131
    4  0.000  0.000  0.000  0.000  0.000  0.004  0.000  0.001  0.001  0.006
    5  0.000  0.000  0.000  0.000  0.000  0.000  0.000  0.000  0.000  0.000
tot    0.000  0.000  0.000  0.000  0.010  0.715  0.000  0.233  0.031  0.990
 
band    24 # energy   -3.90259265 # occ.  2.00000000
 
ion      s     py     pz     px    dxy    dyz    dz2    dxz  x2-y2    tot
    1  0.000  0.000  0.000  0.000  0.006  0.133  0.000  0.409  0.002  0.550
    2  0.000  0.000  0.000  0.000  0.019  0.068  0.000  0.209  0.006  0.303
    3  0.000  0.000  0.000  0.000  0.005  0.031  0.000  0.093  0.002  0.131
    4  0.000  0.000  0.000  0.000  0.001  0.001  0.000  0.004  0.000  0.006
    5  0.000  0.000  0.000  0.000  0.000  0.000  0.000  0.000  0.000  0.000
tot    0.000  0.000  0.000  0.000  0.031  0.233  0.000  0.715  0.010  0.990
 
band    25 # energy   -2.81306674 # occ.  2.00000000
 
ion      s     py     pz     px    dxy    dyz    dz2    dxz  x2-y2    tot
    1  0.019  0.000  0.153  0.000  0.000  0.000  0.027  0.000  0.000  0.199
    2  0.014  0.000  0.081  0.000  0.000  0.000  0.022  0.000  0.000  0.117
    3  0.011  0.000  0.037  0.000  0.000  0.000  0.020  0.000  0.000  0.068
    4  0.007  0.000  0.016  0.000  0.000  0.000  0.003  0.000  0.000  0.027
    5  0.004  0.000  0.000  0.000  0.000  0.000  0.000  0.000  0.000  0.004
tot    0.056  0.000  0.287  0.000  0.000  0.000  0.073  0.000  0.000  0.416
 
band    26 # energy    1.63813965 # occ.  0.00000000
 
ion      s     py     pz     px    dxy    dyz    dz2    dxz  x2-y2    tot
    1  0.013  0.000  0.002  0.000  0.000  0.000  0.013  0.000  0.000  0.028
    2  0.019  0.000  0.002  0.000  0.000  0.000  0.017  0.000  0.000  0.038
    3  0.027  0.000  0.002  0.000  0.000  0.000  0.025  0.000  0.000  0.054
    4  0.026  0.000  0.001  0.000  0.000  0.000  0.036  0.000  0.000  0.062
    5  0.001  0.000  0.002  0.000  0.000  0.000  0.000  0.000  0.000  0.003
tot    0.087  0.000  0.007  0.000  0.000  0.000  0.091  0.000  0.000  0.185
 
band    27 # energy    1.90191872 # occ.  0.00000000
 
ion      s     py     pz     px    dxy    dyz    dz2    dxz  x2-y2    tot
    1  0.007  0.000  0.002  0.000  0.000  0.000  0.007  0.000  0.000  0.016
    2  0.003  0.000  0.002  0.000  0.000  0.000  0.002  0.000  0.000  0.008
    3  0.000  0.000  0.003  0.000  0.000  0.000  0.000  0.000  0.000  0.003
    4  0.000  0.000  0.002  0.000  0.000  0.000  0.001  0.000  0.000  0.003
    5  0.002  0.000  0.000  0.000  0.000  0.000  0.000  0.000  0.000  0.002
tot    0.012  0.000  0.009  0.000  0.000  0.000  0.011  0.000  0.000  0.032
 
band    28 # energy    2.29786534 # occ.  0.00000000
 
ion      s     py     pz     px    dxy    dyz    dz2    dxz  x2-y2    tot
    1  0.005  0.000  0.002  0.000  0.000  0.000  0.005  0.000  0.000  0.012
    2  0.001  0.000  0.003  0.000  0.000  0.000  0.001  0.000  0.000  0.005
    3  0.000  0.000  0.004  0.000  0.000  0.000  0.000  0.000  0.000  0.004
    4  0.002  0.000  0.001  0.000  0.000  0.000  0.005  0.000  0.000  0.008
    5  0.002  0.000  0.000  0.000  0.000  0.000  0.000  0.000  0.000  0.003
tot    0.010  0.000  0.011  0.000  0.000  0.000  0.011  0.000  0.000  0.031
 

 k-point     2 :    0.10000000 0.00000000 0.00000000     weight = 0.06000000

band     1 # energy  -11.67716839 # occ.  2.00000000
 
ion      s     py     pz     px    dxy    dyz    dz2    dxz  x2-y2    tot
    1  0.001  0.000  0.000  0.000  0.000  0.000  0.000  0.000  0.000  0.002
    2  0.012  0.000  0.001  0.000  0.000  0.000  0.000  0.000  0.000  0.013
    3  0.062  0.000  0.004  0.001  0.000  0.000  0.001  0.000  0.000  0.068
    4  0.355  0.003  0.003  0.010  0.001  0.000  0.026  0.001  0.000  0.400
    5  0.152  0.000  0.001  0.000  0.000  0.000  0.000  0.000  0.000  0.153
tot    0.582  0.004  0.009  0.012  0.001  0.000  0.027  0.001  0.000  0.636
 
band     2 # energy  -10.36471182 # occ.  2.00000000
 
ion      s     py     pz     px    dxy    dyz    dz2    dxz  x2-y2    tot
    1  0.110  0.001  0.011  0.002  0.000  0.000  0.000  0.001  0.000  0.125
    2  0.285  0.002  0.000  0.006  0.000  0.000  0.001  0.000  0.000  0.295
    3  0.100  0.001  0.013  0.002  0.000  0.000  0.000  0.001  0.000  0.118
    4  0.020  0.000  0.007  0.001  0.000  0.000  0.011  0.001  0.000  0.041
    5  0.021  0.000  0.000  0.000  0.000  0.000  0.000  0.000  0.000  0.021
tot    0.536  0.004  0.031  0.012  0.001  0.001  0.013  0.003  0.000  0.600
 
band     3 # energy   -8.68139818 # occ.  2.00000000
 
ion      s     py     pz     px    dxy    dyz    dz2    dxz  x2-y2    tot
    1  0.189  0.002  0.003  0.005  0.000  0.000  0.017  0.000  0.000  0.216
    2  0.006  0.000  0.048  0.000  0.000  0.002  0.001  0.005  0.000  0.062
    3  0.208  0.002  0.000  0.005  0.000  0.000  0.033  0.000  0.000  0.249
    4  0.002  0.000  0.024  0.000  0.001  0.002  0.031  0.005  0.000  0.065
    5  0.020  0.000  0.000  0.000  0.000  0.000  0.000  0.000  0.000  0.020
tot    0.425  0.003  0.075  0.010  0.001  0.003  0.083  0.010  0.000  0.612
 
band     4 # energy   -7.22919485 # occ.  2.00000000
 
ion      s     py     pz     px    dxy    dyz    dz2    dxz  x2-y2    tot
    1  0.101  0.001  0.004  0.004  0.001  0.000  0.136  0.000  0.000  0.248
    2  0.088  0.001  0.003  0.004  0.001  0.000  0.238  0.001  0.000  0.337
    3  0.027  0.000  0.015  0.001  0.000  0.001  0.082  0.003  0.000  0.130
    4  0.001  0.000  0.009  0.000  0.001  0.001  0.020  0.003  0.000  0.036
    5  0.004  0.000  0.000  0.000  0.000  0.000  0.000  0.000  0.000  0.004
tot    0.221  0.003  0.032  0.009  0.003  0.002  0.476  0.007  0.001  0.753
 
band     5 # energy   -5.83919253 # occ.  2.00000000
 
ion      s     py     pz     px    dxy    dyz    dz2    dxz  x2-y2    tot
    1  0.000  0.000  0.000  0.000  0.000  0.000  0.001  0.000  0.000  0.002
    2  0.000  0.000  0.000  0.000  0.003  0.000  0.001  0.000  0.001  0.005
    3  0.000  0.000  0.003  0.000  0.011  0.002  0.051  0.006  0.004  0.077
    4  0.003  0.000  0.019  0.000  0.364  0.027  0.184  0.080  0.121  0.798
    5  0.017  0.001  0.000  0.002  0.000  0.000  0.000  0.000  0.000  0.020
tot    0.021  0.001  0.022  0.002  0.378  0.029  0.237  0.086  0.126  0.902
 
band     6 # energy   -5.71676273 # occ.  2.00000000
 
ion      s     py     pz     px    dxy    dyz    dz2    dxz  x2-y2    tot
    1  0.001  0.000  0.000  0.000  0.001  0.000  0.003  0.000  0.000  0.006
    2  0.001  0.000  0.003  0.000  0.008  0.000  0.076  0.001  0.003  0.092
    3  0.001  0.000  0.014  0.000  0.008  0.015  0.062  0.045  0.003  0.147
    4  0.007  0.000  0.001  0.000  0.095  0.001  0.521  0.004  0.032  0.662
    5  0.001  0.000  0.001  0.000  0.000  0.000  0.000  0.000  0.000  0.002
tot    0.011  0.000  0.019  0.001  0.112  0.017  0.662  0.050  0.038  0.909
 
band     7 # energy   -5.62150265 # occ.  2.00000000
 
ion      s     py     pz     px    dxy    dyz    dz2    dxz  x2-y2    tot
    1  0.000  0.000  0.001  0.000  0.000  0.000  0.035  0.000  0.000  0.036
    2  0.002  0.000  0.001  0.000  0.020  0.002  0.001  0.007  0.007  0.039
    3  0.001  0.000  0.007  0.001  0.000  0.000  0.340  0.001  0.000  0.351
    4  0.001  0.000  0.026  0.000  0.211  0.033  0.021  0.099  0.071  0.462
    5  0.009  0.000  0.000  0.000  0.000  0.000  0.000  0.000  0.000  0.010
tot    0.013  0.000  0.035  0.001  0.231  0.036  0.397  0.107  0.078  0.898
 
band     8 # energy   -5.54622456 # occ.  2.00000000
 
ion      s     py     pz     px    dxy    dyz    dz2    dxz  x2-y2    tot
    1  0.000  0.000  0.000  0.000  0.000  0.000  0.000  0.000  0.000  0.000
    2  0.000  0.000  0.000  0.000  0.000  0.000  0.000  0.000  0.001  0.002
    3  0.000  0.000  0.000  0.000  0.001  0.008  0.000  0.003  0.003  0.015
    4  0.000  0.001  0.000  0.000  0.237  0.004  0.000  0.001  0.708  0.951
    5  0.000  0.002  0.000  0.001  0.000  0.000  0.000  0.000  0.000  0.003
tot    0.000  0.003  0.000  0.001  0.238  0.012  0.000  0.004  0.712  0.970
 
band     9 # energy   -5.28496626 # occ.  2.00000000
 
ion      s     py     pz     px    dxy    dyz    dz2    dxz  x2-y2    tot
    1  0.003  0.000  0.001  0.000  0.034  0.006  0.089  0.018  0.011  0.162
    2  0.002  0.000  0.010  0.000  0.084  0.041  0.083  0.124  0.028  0.373
    3  0.000  0.000  0.017  0.000  0.141  0.001  0.037  0.002  0.047  0.246
    4  0.002  0.000  0.004  0.000  0.016  0.026  0.011  0.078  0.005  0.142
    5  0.001  0.000  0.000  0.000  0.000  0.000  0.000  0.000  0.000  0.001
tot    0.008  0.000  0.032  0.000  0.275  0.074  0.220  0.221  0.092  0.923
 
band    10 # energy   -5.24786205 # occ.  2.00000000
 
ion      s     py     pz     px    dxy    dyz    dz2    dxz  x2-y2    tot
    1  0.001  0.000  0.001  0.000  0.014  0.005  0.060  0.016  0.005  0.102
    2  0.001  0.000  0.000  0.001  0.320  0.002  0.141  0.006  0.107  0.579
    3  0.000  0.000  0.002  0.000  0.102  0.007  0.046  0.021  0.034  0.212
    4  0.001  0.000  0.002  0.000  0.002  0.006  0.028  0.017  0.001  0.056
    5  0.001  0.000  0.000  0.000  0.000  0.000  0.000  0.000  0.000  0.001
tot    0.004  0.000  0.006  0.001  0.438  0.020  0.274  0.059  0.147  0.950
 
band    11 # energy   -5.22299834 # occ.  2.00000000
 
ion      s     py     pz     px    dxy    dyz    dz2    dxz  x2-y2    tot
    1  0.001  0.000  0.002  0.000  0.037  0.002  0.073  0.006  0.012  0.134
    2  0.002  0.000  0.002  0.000  0.164  0.009  0.213  0.027  0.055  0.472
    3  0.001  0.000  0.006  0.000  0.107  0.004  0.119  0.013  0.036  0.286
    4  0.000  0.000  0.003  0.000  0.013  0.002  0.020  0.006  0.004  0.049
    5  0.001  0.000  0.000  0.000  0.000  0.000  0.000  0.000  0.000  0.002
tot    0.005  0.000  0.013  0.001  0.322  0.018  0.425  0.052  0.108  0.943
 
band    12 # energy   -5.08726624 # occ.  2.00000000
 
ion      s     py     pz     px    dxy    dyz    dz2    dxz  x2-y2    tot
    1  0.000  0.000  0.000  0.000  0.002  0.020  0.000  0.007  0.006  0.035
    2  0.000  0.000  0.000  0.000  0.074  0.063  0.000  0.021  0.222  0.380
    3  0.000  0.000  0.000  0.000  0.073  0.064  0.000  0.021  0.218  0.377
    4  0.000  0.000  0.000  0.000  0.000  0.132  0.000  0.044  0.001  0.178
    5  0.000  0.000  0.000  0.000  0.000  0.000  0.000  0.000  0.000  0.000
tot    0.000  0.001  0.000  0.000  0.149  0.280  0.000  0.093  0.447  0.970
 
band    13 # energy   -5.06890858 # occ.  2.00000000
 
ion      s     py     pz     px    dxy    dyz    dz2    dxz  x2-y2    tot
    1  0.000  0.000  0.000  0.000  0.006  0.009  0.000  0.003  0.019  0.037
    2  0.000  0.001  0.000  0.000  0.134  0.015  0.000  0.005  0.399  0.553
    3  0.000  0.000  0.000  0.000  0.077  0.011  0.000  0.004  0.230  0.322
    4  0.000  0.000  0.000  0.000  0.002  0.035  0.000  0.012  0.006  0.054
    5  0.000  0.000  0.000  0.000  0.000  0.000  0.000  0.000  0.000  0.000
tot    0.000  0.001  0.000  0.000  0.218  0.070  0.000  0.023  0.654  0.967
 
band    14 # energy   -5.00354839 # occ.  2.00000000
 
ion      s     py     pz     px    dxy    dyz    dz2    dxz  x2-y2    tot
    1  0.003  0.000  0.002  0.000  0.033  0.003  0.290  0.008  0.011  0.350
    2  0.001  0.000  0.016  0.000  0.027  0.005  0.050  0.016  0.009  0.124
    3  0.000  0.000  0.008  0.000  0.284  0.009  0.001  0.027  0.094  0.423
    4  0.001  0.000  0.006  0.000  0.002  0.003  0.004  0.010  0.001  0.028
    5  0.002  0.000  0.000  0.000  0.000  0.000  0.000  0.000  0.000  0.002
tot    0.007  0.000  0.032  0.000  0.346  0.020  0.345  0.061  0.115  0.927
 
band    15 # energy   -4.91944319 # occ.  2.00000000
 
ion      s     py     pz     px    dxy    dyz    dz2    dxz  x2-y2    tot
    1  0.002  0.000  0.000  0.001  0.524  0.001  0.047  0.004  0.176  0.756
    2  0.000  0.000  0.008  0.000  0.008  0.003  0.020  0.009  0.003  0.051
    3  0.001  0.000  0.004  0.000  0.009  0.014  0.043  0.042  0.003  0.116
    4  0.000  0.000  0.001  0.000  0.005  0.005  0.001  0.015  0.002  0.028
    5  0.000  0.000  0.000  0.000  0.000  0.000  0.000  0.000  0.000  0.000
tot    0.003  0.000  0.014  0.001  0.546  0.024  0.111  0.071  0.183  0.952
 
band    16 # energy   -4.83437990 # occ.  2.00000000
 
ion      s     py     pz     px    dxy    dyz    dz2    dxz  x2-y2    tot
    1  0.000  0.000  0.000  0.000  0.126  0.014  0.000  0.005  0.375  0.520
    2  0.000  0.000  0.000  0.000  0.002  0.106  0.000  0.036  0.005  0.149
    3  0.000  0.000  0.000  0.000  0.005  0.012  0.000  0.004  0.014  0.035
    4  0.000  0.000  0.000  0.000  0.001  0.201  0.000  0.067  0.002  0.270
    5  0.000  0.000  0.000  0.000  0.000  0.000  0.000  0.000  0.000  0.000
tot    0.000  0.001  0.000  0.000  0.132  0.333  0.000  0.111  0.395  0.973
 
band    17 # energy   -4.75097868 # occ.  2.00000000
 
ion      s     py     pz     px    dxy    dyz    dz2    dxz  x2-y2    tot
    1  0.000  0.000  0.000  0.000  0.065  0.001  0.000  0.000  0.193  0.259
    2  0.000  0.000  0.000  0.000  0.004  0.001  0.000  0.000  0.013  0.018
    3  0.000  0.000  0.000  0.000  0.067  0.017  0.000  0.006  0.200  0.290
    4  0.000  0.000  0.000  0.000  0.000  0.309  0.000  0.103  0.000  0.411
    5  0.000  0.000  0.000  0.000  0.000  0.000  0.000  0.000  0.000  0.000
tot    0.000  0.001  0.000  0.000  0.136  0.327  0.000  0.109  0.406  0.979
 
band    18 # energy   -4.60480463 # occ.  2.00000000
 
ion      s     py     pz     px    dxy    dyz    dz2    dxz  x2-y2    tot
    1  0.001  0.000  0.001  0.000  0.026  0.011  0.013  0.033  0.009  0.094
    2  0.000  0.000  0.000  0.000  0.027  0.012  0.003  0.037  0.009  0.088
    3  0.004  0.000  0.002  0.000  0.035  0.083  0.029  0.250  0.012  0.415
    4  0.000  0.000  0.013  0.000  0.005  0.074  0.021  0.221  0.002  0.336
    5  0.006  0.000  0.000  0.001  0.000  0.000  0.000  0.000  0.000  0.007
tot    0.012  0.000  0.017  0.001  0.093  0.180  0.066  0.541  0.031  0.941
 
band    19 # energy   -4.42108601 # occ.  2.00000000
 
ion      s     py     pz     px    dxy    dyz    dz2    dxz  x2-y2    tot
    1  0.000  0.000  0.000  0.000  0.039  0.053  0.000  0.017  0.117  0.225
    2  0.000  0.000  0.000  0.000  0.018  0.264  0.000  0.088  0.053  0.423
    3  0.000  0.000  0.000  0.000  0.017  0.168  0.000  0.056  0.052  0.294
    4  0.000  0.000  0.000  0.000  0.001  0.027  0.000  0.009  0.004  0.041
    5  0.000  0.000  0.000  0.000  0.000  0.000  0.000  0.000  0.000  0.000
tot    0.000  0.000  0.000  0.000  0.075  0.512  0.000  0.170  0.226  0.983
 
band    20 # energy   -4.38344407 # occ.  2.00000000
 
ion      s     py     pz     px    dxy    dyz    dz2    dxz  x2-y2    tot
    1  0.000  0.000  0.004  0.000  0.035  0.093  0.000  0.278  0.012  0.423
    2  0.001  0.000  0.004  0.000  0.047  0.055  0.000  0.166  0.015  0.288
    3  0.003  0.000  0.002  0.000  0.013  0.023  0.025  0.071  0.004  0.142
    4  0.000  0.000  0.005  0.000  0.002  0.023  0.003  0.069  0.001  0.102
    5  0.002  0.000  0.000  0.000  0.000  0.000  0.000  0.000  0.000  0.002
tot    0.006  0.000  0.015  0.000  0.097  0.194  0.028  0.584  0.032  0.956
 
band    21 # energy   -4.20723849 # occ.  2.00000000
 
ion      s     py     pz     px    dxy    dyz    dz2    dxz  x2-y2    tot
    1  0.011  0.000  0.014  0.000  0.014  0.083  0.080  0.249  0.005  0.457
    2  0.001  0.000  0.001  0.000  0.011  0.082  0.003  0.246  0.004  0.347
    3  0.001  0.000  0.004  0.000  0.006  0.001  0.009  0.002  0.002  0.026
    4  0.000  0.000  0.007  0.000  0.000  0.014  0.001  0.041  0.000  0.063
    5  0.003  0.000  0.000  0.000  0.000  0.000  0.000  0.000  0.000  0.003
tot    0.016  0.000  0.028  0.001  0.031  0.179  0.093  0.538  0.010  0.896
 
band    22 # energy   -4.17637288 # occ.  2.00000000
 
ion      s     py     pz     px    dxy    dyz    dz2    dxz  x2-y2    tot
    1  0.000  0.000  0.000  0.000  0.003  0.258  0.000  0.086  0.010  0.357
    2  0.000  0.000  0.000  0.000  0.005  0.062  0.000  0.021  0.016  0.104
    3  0.000  0.000  0.000  0.000  0.001  0.361  0.000  0.120  0.003  0.486
    4  0.000  0.000  0.000  0.000  0.001  0.025  0.000  0.008  0.004  0.040
    5  0.000  0.000  0.000  0.000  0.000  0.000  0.000  0.000  0.000  0.000
tot    0.000  0.000  0.000  0.000  0.011  0.706  0.000  0.235  0.033  0.986
 
band    23 # energy   -3.89761467 # occ.  2.00000000
 
ion      s     py     pz     px    dxy    dyz    dz2    dxz  x2-y2    tot
    1  0.000  0.000  0.000  0.000  0.003  0.384  0.000  0.128  0.008  0.522
    2  0.000  0.000  0.000  0.000  0.006  0.227  0.000  0.076  0.017  0.325
    3  0.000  0.000  0.000  0.000  0.002  0.095  0.000  0.032  0.006  0.136