unknown system                          
   1.00000000000000     
     3.905268    0.000000    0.000000
     0.000000    3.905268    0.000000
     0.000000    0.000000    3.905268
   Sr   Ti   O 
     1     1     3
Direct
  0.000000  0.000000  0.000000
  0.500000  0.500000  0.500000
  0.500000  0.500000  0.000000
  0.500000  0.000000  0.500000
  0.000000  0.500000  0.500000
 
   48   48   48
 0.19337331098E+03 0.19338835285E+03 0.19294764107E+03 0.19078994014E+03 0.18537600499E+03
 0.17547143737E+03 0.16060035283E+03 0.14124794547E+03 0.11879111745E+03 0.95198591249E+02
 0.72580696240E+02 0.52710411337E+02 0.36664194388E+02 0.24699133410E+02 0.16383840636E+02
 0.10891328166E+02 0.73748518761E+01 0.51881118300E+01 0.38507589649E+01 0.30395229900E+01
 0.25521001987E+01 0.22658235889E+01 0.21059958585E+01 0.20269867228E+01 0.20034004803E+01
 0.20269867228E+01 0.21059958585E+01 0.22658235889E+01 0.25521001987E+01 0.30395229900E+01
 0.38507589649E+01 0.51881118300E+01 0.73748518761E+01 0.10891328166E+02 0.16383840636E+02
 0.24699133410E+02 0.36664194388E+02 0.52710411337E+02 0.72580696240E+02 0.95198591249E+02
 0.11879111745E+03 0.14124794547E+03 0.16060035283E+03 0.17547143737E+03 0.18537600499E+03
 0.19078994014E+03 0.19294764107E+03 0.19338835285E+03 0.19338835285E+03 0.19332005996E+03
 0.19265000672E+03 0.19017183417E+03 0.18441775846E+03 0.17422165652E+03 0.15915816556E+03
 0.13973840114E+03 0.11733991191E+03 0.93910057932E+02 0.71522197215E+02 0.51906020243E+02
 0.36098903802E+02 0.24331458005E+02 0.16161653992E+02 0.10765718584E+02 0.73111933490E+01
 0.51628611384E+01 0.38486828751E+01 0.30513355143E+01 0.25722731019E+01 0.22910195165E+01
 0.21341055343E+01 0.20565933675E+01 0.20334645649E+01 0.20565933675E+01 0.21341055343E+01
 0.22910195165E+01 0.25722731019E+01 0.30513355143E+01 0.38486828751E+01 0.51628611384E+01
 0.73111933490E+01 0.10765718584E+02 0.16161653992E+02 0.24331458005E+02 0.36098903802E+02
 0.51906020243E+02 0.71522197215E+02 0.93910057932E+02 0.11733991191E+03 0.13973840114E+03
 0.15915816556E+03 0.17422165652E+03 0.18441775846E+03 0.19017183417E+03 0.19265000672E+03
 0.19332005996E+03 0.19294764107E+03 0.19265000672E+03 0.19134953251E+03 0.18799302291E+03
 0.18131257854E+03 0.17033357125E+03 0.15477253482E+03 0.13521277625E+03 0.11303159589E+03
 0.90112697062E+02 0.68421146411E+02 0.49561169907E+02 0.34458232125E+02 0.23268535750E+02
 0.15521752950E+02 0.10406020259E+02 0.71317052894E+01 0.50953836665E+01 0.38492487981E+01
 0.30931872931E+01 0.26394452378E+01 0.23737743024E+01 0.22261453438E+01 0.21535250927E+01
 0.21319155409E+01 0.21535250927E+01 0.22261453438E+01 0.23737743024E+01 0.26394452378E+01
 0.30931872931E+01 0.38492487981E+01 0.50953836665E+01 0.71317052894E+01 0.10406020259E+02
 0.15521752950E+02 0.23268535750E+02 0.34458232125E+02 0.49561169907E+02 0.68421146411E+02
 0.90112697062E+02 0.11303159589E+03 0.13521277625E+03 0.15477253482E+03 0.17033357125E+03
 0.18131257854E+03 0.18799302291E+03 0.19134953251E+03 0.19265000672E+03 0.19078994014E+03
 0.19017183417E+03 0.18799302291E+03 0.18342167485E+03 0.17547991234E+03 0.16347216780E+03
 0.14732180392E+03 0.12771478190E+03 0.10602064147E+03 0.84018077647E+02 0.63500046358E+02
 0.45875847110E+02 0.31901437414E+02 0.21624765536E+02 0.14539404358E+02 0.98604415012E+01
 0.68681630322E+01 0.50077872837E+01 0.38695873275E+01 0.31801363767E+01 0.27682262913E+01
 0.25290317249E+01 0.23976420923E+01 0.23337988193E+01 0.23149583603E+01 0.23337988193E+01
 0.23976420923E+01 0.25290317249E+01 0.27682262913E+01 0.31801363767E+01 0.38695873275E+01
 0.50077872837E+01 0.68681630322E+01 0.98604415012E+01 0.14539404358E+02 0.21624765536E+02
 0.31901437414E+02 0.45875847110E+02 0.63500046358E+02 0.84018077647E+02 0.10602064147E+03
 0.12771478190E+03 0.14732180392E+03 0.16347216780E+03 0.17547991234E+03 0.18342167485E+03
 0.18799302291E+03 0.19017183417E+03 0.18537600499E+03 0.18441775846E+03 0.18131257854E+03
 0.17547991234E+03 0.16627257262E+03 0.15331427477E+03 0.13676344617E+03 0.11741580273E+03
 0.96615014521E+02 0.75994513953E+02 0.57123004126E+02 0.41165113739E+02 0.28672633136E+02
 0.19571717670E+02 0.13325390296E+02 0.92000763726E+01 0.65667822749E+01 0.49315060483E+01
 0.39331047636E+01 0.33316103675E+01 0.29762848242E+01 0.27738192770E+01 0.26654897365E+01
 0.26143498663E+01 0.25995627804E+01 0.26143498663E+01 0.26654897365E+01 0.27738192770E+01
 0.29762848242E+01 0.33316103675E+01 0.39331047636E+01 0.49315060483E+01 0.65667822749E+01
 0.92000763726E+01 0.13325390296E+02 0.19571717670E+02 0.28672633136E+02 0.41165113739E+02
 0.57123004126E+02 0.75994513953E+02 0.96615014521E+02 0.11741580273E+03 0.13676344617E+03
 0.15331427477E+03 0.16627257262E+03 0.17547991234E+03 0.18131257854E+03 0.18441775846E+03
 0.17547143737E+03 0.17422165652E+03 0.17033357125E+03 0.16347216780E+03 0.15331427477E+03
 0.13979572615E+03 0.12329917478E+03 0.10471061135E+03 0.85317280294E+02 0.66569249157E+02
 0.49774371910E+02 0.35827643989E+02 0.25069159657E+02 0.17312049380E+02 0.12007742665E+02
 0.85086340971E+01 0.62828976645E+01 0.49060081624E+01 0.40715799492E+01 0.35765007864E+01
 0.32921433314E+01 0.31373923712E+01 0.30599445701E+01 0.30262165485E+01 0.30170582248E+01
 0.30262165485E+01 0.30599445701E+01 0.31373923712E+01 0.32921433314E+01 0.35765007864E+01
 0.40715799492E+01 0.49060081624E+01 0.62828976645E+01 0.85086340971E+01 0.12007742665E+02
 0.17312049380E+02 0.25069159657E+02 0.35827643989E+02 0.49774371910E+02 0.66569249157E+02
 0.85317280294E+02 0.10471061135E+03 0.12329917478E+03 0.13979572615E+03 0.15331427477E+03
 0.16347216780E+03 0.17033357125E+03 0.17422165652E+03 0.16060035283E+03 0.15915816556E+03
 0.15477253482E+03 0.14732180392E+03 0.13676344617E+03 0.12329917478E+03 0.10749065245E+03
 0.90270505372E+02 0.72828945747E+02 0.56400240838E+02 0.42014211407E+02 0.30298444173E+02
 0.21400592804E+02 0.15048964396E+02 0.10716565112E+02 0.78728146506E+01 0.60774341001E+01
 0.49799960751E+01 0.43301697564E+01 0.39613951792E+01 0.37662196182E+01 0.36746640993E+01
 0.36399129079E+01 0.36310147282E+01 0.36300169087E+01 0.36310147282E+01 0.36399129079E+01
 0.36746640993E+01 0.37662196182E+01 0.39613951792E+01 0.43301697564E+01 0.49799960751E+01
 0.60774341001E+01 0.78728146506E+01 0.10716565112E+02 0.15048964396E+02 0.21400592804E+02
 0.30298444173E+02 0.42014211407E+02 0.56400240838E+02 0.72828945747E+02 0.90270505372E+02
 0.10749065245E+03 0.12329917478E+03 0.13676344617E+03 0.14732180392E+03 0.15477253482E+03
 0.15915816556E+03 0.14124794547E+03 0.13973840114E+03 0.13521277625E+03 0.12771478190E+03
 0.11741580273E+03 0.10471061135E+03 0.90270505372E+02 0.75015400016E+02 0.59995288549E+02
 0.46207915741E+02 0.34410325187E+02 0.24990798490E+02 0.17945283746E+02 0.12957684529E+02
 0.95712279524E+01 0.73754062160E+01 0.60149945517E+01 0.52123312720E+01 0.47695996150E+01
 0.45529724163E+01 0.44727915963E+01 0.44674534687E+01 0.44934750568E+01 0.45209384337E+01
 0.45320646693E+01 0.45209384337E+01 0.44934750568E+01 0.44674534687E+01 0.44727915963E+01
 0.45529724163E+01 0.47695996150E+01 0.52123312720E+01 0.60149945517E+01 0.73754062160E+01
 0.95712279524E+01 0.12957684529E+02 0.17945283746E+02 0.24990798490E+02 0.34410325187E+02
 0.46207915741E+02 0.59995288549E+02 0.75015400016E+02 0.90270505372E+02 0.10471061135E+03
 0.11741580273E+03 0.12771478190E+03 0.13521277625E+03 0.13973840114E+03 0.11879111745E+03
 0.11733991191E+03 0.11303159589E+03 0.10602064147E+03 0.96615014521E+02 0.85317280294E+02
 0.72828945747E+02 0.59995288549E+02 0.47691042442E+02 0.36674691680E+02 0.27458347824E+02
 0.20239127566E+02 0.14913999144E+02 0.11172197786E+02 0.86704247922E+01 0.70924625021E+01
 0.61641788846E+01 0.56736303115E+01 0.54678470389E+01 0.54390818020E+01 0.55101529595E+01
 0.56236744601E+01 0.57362601784E+01 0.58166003452E+01 0.58455361847E+01 0.58166003452E+01
 0.57362601784E+01 0.56236744601E+01 0.55101529595E+01 0.54390818020E+01 0.54678470389E+01
 0.56736303115E+01 0.61641788846E+01 0.70924625021E+01 0.86704247922E+01 0.11172197786E+02
 0.14913999144E+02 0.20239127566E+02 0.27458347824E+02 0.36674691680E+02 0.47691042442E+02
 0.59995288549E+02 0.72828945747E+02 0.85317280294E+02 0.96615014521E+02 0.10602064147E+03
 0.11303159589E+03 0.11733991191E+03 0.95198591249E+02 0.93910057932E+02 0.90112697062E+02
 0.84018077647E+02 0.75994513953E+02 0.66569249157E+02 0.56400240838E+02 0.46207915741E+02
 0.36674691680E+02 0.28337952309E+02 0.21510798172E+02 0.16257522567E+02 0.12430751281E+02
 0.97897047467E+01 0.80900813148E+01 0.70941648369E+01 0.65998552166E+01 0.64495516443E+01
 0.65246845956E+01 0.67350670380E+01 0.70092306898E+01 0.72884923067E+01 0.75249464193E+01
 0.76821952750E+01 0.77372410469E+01 0.76821952750E+01 0.75249464193E+01 0.72884923067E+01
 0.70092306898E+01 0.67350670380E+01 0.65246845956E+01 0.64495516443E+01 0.65998552166E+01
 0.70941648369E+01 0.80900813148E+01 0.97897047467E+01 0.12430751281E+02 0.16257522567E+02
 0.21510798172E+02 0.28337952309E+02 0.36674691680E+02 0.46207915741E+02 0.56400240838E+02
 0.66569249157E+02 0.75994513953E+02 0.84018077647E+02 0.90112697062E+02 0.93910057932E+02
 0.72580696240E+02 0.71522197215E+02 0.68421146411E+02 0.63500046358E+02 0.57123004126E+02
 0.49774371910E+02 0.42014211407E+02 0.34410325187E+02 0.27458347824E+02 0.21510798172E+02
 0.16736915517E+02 0.13125692577E+02 0.10553541354E+02 0.88657444269E+01 0.78861834910E+01
 0.74469185755E+01 0.74046195084E+01 0.76426686266E+01 0.80655258562E+01 0.85912789197E+01
 0.91461573957E+01 0.96626016536E+01 0.10080828196E+02 0.10352819767E+02 0.10447141465E+02
 0.10352819767E+02 0.10080828196E+02 0.96626016536E+01 0.91461573957E+01 0.85912789197E+01
 0.80655258562E+01 0.76426686266E+01 0.74046195084E+01 0.74469185755E+01 0.78861834910E+01
 0.88657444269E+01 0.10553541354E+02 0.13125692577E+02 0.16736915517E+02 0.21510798172E+02
 0.27458347824E+02 0.34410325187E+02 0.42014211407E+02 0.49774371910E+02 0.57123004126E+02
 0.63500046358E+02 0.68421146411E+02 0.71522197215E+02 0.52710411337E+02 0.51906020243E+02
 0.49561169907E+02 0.45875847110E+02 0.41165113739E+02 0.35827643989E+02 0.30298444173E+02
 0.24990798490E+02 0.20239127566E+02 0.16257522567E+02 0.13125692577E+02 0.10825185850E+02
 0.92915708014E+01 0.84216556459E+01 0.80995072997E+01 0.82145348503E+01 0.86681816238E+01
 0.93725371560E+01 0.10245099267E+02 0.11203282212E+02 0.12161283474E+02 0.13030985536E+02
 0.13727485040E+02 0.14178402696E+02 0.14334538413E+02 0.14178402696E+02 0.13727485040E+02
 0.13030985536E+02 0.12161283474E+02 0.11203282212E+02 0.10245099267E+02 0.93725371560E+01
 0.86681816238E+01 0.82145348503E+01 0.80995072997E+01 0.84216556459E+01 0.92915708014E+01
 0.10825185850E+02 0.13125692577E+02 0.16257522567E+02 0.20239127566E+02 0.24990798490E+02
 0.30298444173E+02 0.35827643989E+02 0.41165113739E+02 0.45875847110E+02 0.49561169907E+02
 0.51906020243E+02 0.36664194388E+02 0.36098903802E+02 0.34458232125E+02 0.31901437414E+02
 0.28672633136E+02 0.25069159657E+02 0.21400592804E+02 0.17945283746E+02 0.14913999144E+02
 0.12430751281E+02 0.10553541354E+02 0.92915708014E+01 0.86112301869E+01 0.84557352058E+01
 0.87601633060E+01 0.94593253473E+01 0.10489082759E+02 0.11782833269E+02 0.13265103631E+02
 0.14844617142E+02 0.16410111172E+02 0.17832657439E+02 0.18977015603E+02 0.19721247534E+02
 0.19979640437E+02 0.19721247534E+02 0.18977015603E+02 0.17832657439E+02 0.16410111172E+02
 0.14844617142E+02 0.13265103631E+02 0.11782833269E+02 0.10489082759E+02 0.94593253473E+01
 0.87601633060E+01 0.84557352058E+01 0.86112301869E+01 0.92915708014E+01 0.10553541354E+02
 0.12430751281E+02 0.14913999144E+02 0.17945283746E+02 0.21400592804E+02 0.25069159657E+02
 0.28672633136E+02 0.31901437414E+02 0.34458232125E+02 0.36098903802E+02 0.24699133410E+02
 0.24331458005E+02 0.23268535750E+02 0.21624765536E+02 0.19571717670E+02 0.17312049380E+02
 0.15048964396E+02 0.12957684529E+02 0.11172197786E+02 0.97897047467E+01 0.88657444269E+01
 0.84216556459E+01 0.84557352058E+01 0.89529788859E+01 0.98916008151E+01 0.11245826026E+02
 0.12984415051E+02 0.15063884610E+02 0.17416190310E+02 0.19933678145E+02 0.22458198336E+02
 0.24783393939E+02 0.26676521640E+02 0.27918522211E+02 0.28351702885E+02 0.27918522211E+02
 0.26676521640E+02 0.24783393939E+02 0.22458198336E+02 0.19933678145E+02 0.17416190310E+02
 0.15063884610E+02 0.12984415051E+02 0.11245826026E+02 0.98916008151E+01 0.89529788859E+01
 0.84557352058E+01 0.84216556459E+01 0.88657444269E+01 0.97897047467E+01 0.11172197786E+02
 0.12957684529E+02 0.15048964396E+02 0.17312049380E+02 0.19571717670E+02 0.21624765536E+02
 0.23268535750E+02 0.24331458005E+02 0.16383840636E+02 0.16161653992E+02 0.15521752950E+02
 0.14539404358E+02 0.13325390296E+02 0.12007742665E+02 0.10716565112E+02 0.95712279524E+01
 0.86704247922E+01 0.80900813148E+01 0.78861834910E+01 0.80995072997E+01 0.87601633060E+01
 0.98916008151E+01 0.11514241982E+02 0.13647356913E+02 0.16305237684E+02 0.19482653572E+02
 0.23127529799E+02 0.27106524079E+02 0.31178593128E+02 0.34996107988E+02 0.38146703807E+02
 0.40232320446E+02 0.40962963141E+02 0.40232320446E+02 0.38146703807E+02 0.34996107988E+02
 0.31178593128E+02 0.27106524079E+02 0.23127529799E+02 0.19482653572E+02 0.16305237684E+02
 0.13647356913E+02 0.11514241982E+02 0.98916008151E+01 0.87601633060E+01 0.80995072997E+01
 0.78861834910E+01 0.80900813148E+01 0.86704247922E+01 0.95712279524E+01 0.10716565112E+02
 0.12007742665E+02 0.13325390296E+02 0.14539404358E+02 0.15521752950E+02 0.16161653992E+02
 0.10891328166E+02 0.10765718584E+02 0.10406020259E+02 0.98604415012E+01 0.92000763726E+01
 0.85086340971E+01 0.78728146506E+01 0.73754062160E+01 0.70924625021E+01 0.70941648369E+01
 0.74469185755E+01 0.82145348503E+01 0.94593253473E+01 0.11245826026E+02 0.13647356913E+02
 0.16750078873E+02 0.20644680818E+02 0.25395504493E+02 0.30983469998E+02 0.37234524484E+02
 0.43764688137E+02 0.49981369805E+02 0.55164715109E+02 0.58616387242E+02 0.59828796490E+02
 0.58616387242E+02 0.55164715109E+02 0.49981369805E+02 0.43764688137E+02 0.37234524484E+02
 0.30983469998E+02 0.25395504493E+02 0.20644680818E+02 0.16750078873E+02 0.13647356913E+02
 0.11245826026E+02 0.94593253473E+01 0.82145348503E+01 0.74469185755E+01 0.70941648369E+01
 0.70924625021E+01 0.73754062160E+01 0.78728146506E+01 0.85086340971E+01 0.92000763726E+01
 0.98604415012E+01 0.10406020259E+02 0.10765718584E+02 0.73748518761E+01 0.73111933490E+01
 0.71317052894E+01 0.68681630322E+01 0.65667822749E+01 0.62828976645E+01 0.60774341001E+01
 0.60149945517E+01 0.61641788846E+01 0.65998552166E+01 0.74046195084E+01 0.86681816238E+01
 0.10489082759E+02 0.12984415051E+02 0.16305237684E+02 0.20644680818E+02 0.26220272603E+02
 0.33213244122E+02 0.41658777767E+02 0.51310451205E+02 0.61541678608E+02 0.71387147029E+02
 0.79764258962E+02 0.85465006394E+02 0.87493244442E+02 0.85465006394E+02 0.79764258962E+02
 0.71387147029E+02 0.61541678608E+02 0.51310451205E+02 0.41658777767E+02 0.33213244122E+02
 0.26220272603E+02 0.20644680818E+02 0.16305237684E+02 0.12984415051E+02 0.10489082759E+02
 0.86681816238E+01 0.74046195084E+01 0.65998552166E+01 0.61641788846E+01 0.60149945517E+01
 0.60774341001E+01 0.62828976645E+01 0.65667822749E+01 0.68681630322E+01 0.71317052894E+01
 0.73111933490E+01 0.51881118300E+01 0.51628611384E+01 0.50953836665E+01 0.50077872837E+01
 0.49315060483E+01 0.49060081624E+01 0.49799960751E+01 0.52123312720E+01 0.56736303115E+01
 0.64495516443E+01 0.76426686266E+01 0.93725371560E+01 0.11782833269E+02 0.15063884610E+02
 0.19482653572E+02 0.25395504493E+02 0.33213244122E+02 0.43289691118E+02 0.55723574532E+02
 0.70136677253E+02 0.85876945704E+02 0.10175707915E+03 0.11567874228E+03 0.12526978534E+03
 0.12869529002E+03 0.12526978534E+03 0.11567874228E+03 0.10175707915E+03 0.85876945704E+02
 0.70136677253E+02 0.55723574532E+02 0.43289691118E+02 0.33213244122E+02 0.25395504493E+02
 0.19482653572E+02 0.15063884610E+02 0.11782833269E+02 0.93725371560E+01 0.76426686266E+01
 0.64495516443E+01 0.56736303115E+01 0.52123312720E+01 0.49799960751E+01 0.49060081624E+01
 0.49315060483E+01 0.50077872837E+01 0.50953836665E+01 0.51628611384E+01 0.38507589649E+01
 0.38486828751E+01 0.38492487981E+01 0.38695873275E+01 0.39331047636E+01 0.40715799492E+01
 0.43301697564E+01 0.47695996150E+01 0.54678470389E+01 0.65246845956E+01 0.80655258562E+01
 0.10245099267E+02 0.13265103631E+02 0.17416190310E+02 0.23127529799E+02 0.30983469998E+02
 0.41658777767E+02 0.55723574532E+02 0.73348264841E+02 0.94681121378E+02 0.11909398021E+03
 0.14410962865E+03 0.16600048804E+03 0.18097205954E+03 0.18629024059E+03 0.18097205954E+03
 0.16600048804E+03 0.14410962865E+03 0.11909398021E+03 0.94681121378E+02 0.73348264841E+02
 0.55723574532E+02 0.41658777767E+02 0.30983469998E+02 0.23127529799E+02 0.17416190310E+02
 0.13265103631E+02 0.10245099267E+02 0.80655258562E+01 0.65246845956E+01 0.54678470389E+01
 0.47695996150E+01 0.43301697564E+01 0.40715799492E+01 0.39331047636E+01 0.38695873275E+01
 0.38492487981E+01 0.38486828751E+01 0.30395229900E+01 0.30513355143E+01 0.30931872931E+01
 0.31801363767E+01 0.33316103675E+01 0.35765007864E+01 0.39613951792E+01 0.45529724163E+01
 0.54390818020E+01 0.67350670380E+01 0.85912789197E+01 0.11203282212E+02 0.14844617142E+02
 0.19933678145E+02 0.27106524079E+02 0.37234524484E+02 0.51310451205E+02 0.70136677253E+02
 0.94681121378E+02 0.12573248076E+03 0.16154793934E+03 0.19779009517E+03 0.22887371835E+03
 0.24973482136E+03 0.25706198287E+03 0.24973482136E+03 0.22887371835E+03 0.19779009517E+03
 0.16154793934E+03 0.12573248076E+03 0.94681121378E+02 0.70136677253E+02 0.51310451205E+02
 0.37234524484E+02 0.27106524079E+02 0.19933678145E+02 0.14844617142E+02 0.11203282212E+02
 0.85912789197E+01 0.67350670380E+01 0.54390818020E+01 0.45529724163E+01 0.39613951792E+01
 0.35765007864E+01 0.33316103675E+01 0.31801363767E+01 0.30931872931E+01 0.30513355143E+01
 0.25521001987E+01 0.25722731019E+01 0.26394452378E+01 0.27682262913E+01 0.29762848242E+01
 0.32921433314E+01 0.37662196182E+01 0.44727915963E+01 0.55101529595E+01 0.70092306898E+01
 0.91461573957E+01 0.12161283474E+02 0.16410111172E+02 0.22458198336E+02 0.31178593128E+02
 0.43764688137E+02 0.61541678608E+02 0.85876945704E+02 0.11909398021E+03 0.16154793934E+03
 0.20978350506E+03 0.25727639000E+03 0.29675721136E+03 0.32253298497E+03 0.33143885879E+03
 0.32253298497E+03 0.29675721136E+03 0.25727639000E+03 0.20978350506E+03 0.16154793934E+03
 0.11909398021E+03 0.85876945704E+02 0.61541678608E+02 0.43764688137E+02 0.31178593128E+02
 0.22458198336E+02 0.16410111172E+02 0.12161283474E+02 0.91461573957E+01 0.70092306898E+01
 0.55101529595E+01 0.44727915963E+01 0.37662196182E+01 0.32921433314E+01 0.29762848242E+01
 0.27682262913E+01 0.26394452378E+01 0.25722731019E+01 0.22658235889E+01 0.22910195165E+01
 0.23737743024E+01 0.25290317249E+01 0.27738192770E+01 0.31373923712E+01 0.36746640993E+01
 0.44674534687E+01 0.56236744601E+01 0.72884923067E+01 0.96626016536E+01 0.13030985536E+02
 0.17832657439E+02 0.24783393939E+02 0.34996107988E+02 0.49981369805E+02 0.71387147029E+02
 0.10175707915E+03 0.14410962865E+03 0.19779009517E+03 0.25727639000E+03 0.31386428585E+03
 0.35912476306E+03 0.38764704722E+03 0.39728834025E+03 0.38764704722E+03 0.35912476306E+03
 0.31386428585E+03 0.25727639000E+03 0.19779009517E+03 0.14410962865E+03 0.10175707915E+03
 0.71387147029E+02 0.49981369805E+02 0.34996107988E+02 0.24783393939E+02 0.17832657439E+02
 0.13030985536E+02 0.96626016536E+01 0.72884923067E+01 0.56236744601E+01 0.44674534687E+01
 0.36746640993E+01 0.31373923712E+01 0.27738192770E+01 0.25290317249E+01 0.23737743024E+01
 0.22910195165E+01 0.21059958585E+01 0.21341055343E+01 0.22261453438E+01 0.23976420923E+01
 0.26654897365E+01 0.30599445701E+01 0.36399129079E+01 0.44934750568E+01 0.57362601784E+01
 0.75249464193E+01 0.10080828196E+02 0.13727485040E+02 0.18977015603E+02 0.26676521640E+02
 0.38146703807E+02 0.55164715109E+02 0.79764258962E+02 0.11567874228E+03 0.16600048804E+03
 0.22887371835E+03 0.29675721136E+03 0.35912476306E+03 0.40701070268E+03 0.43600229285E+03
 0.44554777163E+03 0.43600229285E+03 0.40701070268E+03 0.35912476306E+03 0.29675721136E+03
 0.22887371835E+03 0.16600048804E+03 0.11567874228E+03 0.79764258962E+02 0.55164715109E+02
 0.38146703807E+02 0.26676521640E+02 0.18977015603E+02 0.13727485040E+02 0.10080828196E+02
 0.75249464193E+01 0.57362601784E+01 0.44934750568E+01 0.36399129079E+01 0.30599445701E+01
 0.26654897365E+01 0.23976420923E+01 0.22261453438E+01 0.21341055343E+01 0.20269867228E+01
 0.20565933675E+01 0.21535250927E+01 0.23337988193E+01 0.26143498663E+01 0.30262165485E+01
 0.36310147282E+01 0.45209384337E+01 0.58166003452E+01 0.76821952750E+01 0.10352819767E+02
 0.14178402696E+02 0.19721247534E+02 0.27918522211E+02 0.40232320446E+02 0.58616387242E+02
 0.85465006394E+02 0.12526978534E+03 0.18097205954E+03 0.24973482136E+03 0.32253298497E+03
 0.38764704722E+03 0.43600229285E+03 0.46426794602E+03 0.47334894496E+03 0.46426794602E+03
 0.43600229285E+03 0.38764704722E+03 0.32253298497E+03 0.24973482136E+03 0.18097205954E+03
 0.12526978534E+03 0.85465006394E+02 0.58616387242E+02 0.40232320446E+02 0.27918522211E+02
 0.19721247534E+02 0.14178402696E+02 0.10352819767E+02 0.76821952750E+01 0.58166003452E+01
 0.45209384337E+01 0.36310147282E+01 0.30262165485E+01 0.26143498663E+01 0.23337988193E+01
 0.21535250927E+01 0.20565933675E+01 0.20034004803E+01 0.20334645649E+01 0.21319155409E+01
 0.23149583603E+01 0.25995627804E+01 0.30170582248E+01 0.36300169087E+01 0.45320646693E+01
 0.58455361847E+01 0.77372410469E+01 0.10447141465E+02 0.14334538413E+02 0.19979640437E+02
 0.28351702885E+02 0.40962963141E+02 0.59828796490E+02 0.87493244442E+02 0.12869529002E+03
 0.18629024059E+03 0.25706198287E+03 0.33143885879E+03 0.39728834025E+03 0.44554777163E+03
 0.47334894496E+03 0.48218631337E+03 0.47334894496E+03 0.44554777163E+03 0.39728834025E+03
 0.33143885879E+03 0.25706198287E+03 0.18629024059E+03 0.12869529002E+03 0.87493244442E+02
 0.59828796490E+02 0.40962963141E+02 0.28351702885E+02 0.19979640437E+02 0.14334538413E+02
 0.10447141465E+02 0.77372410469E+01 0.58455361847E+01 0.45320646693E+01 0.36300169087E+01
 0.30170582248E+01 0.25995627804E+01 0.23149583603E+01 0.21319155409E+01 0.20334645649E+01
 0.20269867228E+01 0.20565933675E+01 0.21535250927E+01 0.23337988193E+01 0.26143498663E+01
 0.30262165485E+01 0.36310147282E+01 0.45209384337E+01 0.58166003452E+01 0.76821952750E+01
 0.10352819767E+02 0.14178402696E+02 0.19721247534E+02 0.27918522211E+02 0.40232320446E+02
 0.58616387242E+02 0.85465006394E+02 0.12526978534E+03 0.18097205954E+03 0.24973482136E+03
 0.32253298497E+03 0.38764704722E+03 0.43600229285E+03 0.46426794602E+03 0.47334894496E+03
 0.46426794602E+03 0.43600229285E+03 0.38764704722E+03 0.32253298497E+03 0.24973482136E+03
 0.18097205954E+03 0.12526978534E+03 0.85465006394E+02 0.58616387242E+02 0.40232320446E+02
 0.27918522211E+02 0.19721247534E+02 0.14178402696E+02 0.10352819767E+02 0.76821952750E+01
 0.58166003452E+01 0.45209384337E+01 0.36310147282E+01 0.30262165485E+01 0.26143498663E+01
 0.23337988193E+01 0.21535250927E+01 0.20565933675E+01 0.21059958585E+01 0.21341055343E+01
 0.22261453438E+01 0.23976420923E+01 0.26654897365E+01 0.30599445701E+01 0.36399129079E+01
 0.44934750568E+01 0.57362601784E+01 0.75249464193E+01 0.10080828196E+02 0.13727485040E+02
 0.18977015603E+02 0.26676521640E+02 0.38146703807E+02 0.55164715109E+02 0.79764258962E+02
 0.11567874228E+03 0.16600048804E+03 0.22887371835E+03 0.29675721136E+03 0.35912476306E+03
 0.40701070268E+03 0.43600229285E+03 0.44554777163E+03 0.43600229285E+03 0.40701070268E+03
 0.35912476306E+03 0.29675721136E+03 0.22887371835E+03 0.16600048804E+03 0.11567874228E+03
 0.79764258962E+02 0.55164715109E+02 0.38146703807E+02 0.26676521640E+02 0.18977015603E+02
 0.13727485040E+02 0.10080828196E+02 0.75249464193E+01 0.57362601784E+01 0.44934750568E+01
 0.36399129079E+01 0.30599445701E+01 0.26654897365E+01 0.23976420923E+01 0.22261453438E+01
 0.21341055343E+01 0.22658235889E+01 0.22910195165E+01 0.23737743024E+01 0.25290317249E+01
 0.27738192770E+01 0.31373923712E+01 0.36746640993E+01 0.44674534687E+01 0.56236744601E+01
 0.72884923067E+01 0.96626016536E+01 0.13030985536E+02 0.17832657439E+02 0.24783393939E+02
 0.34996107988E+02 0.49981369805E+02 0.71387147029E+02 0.10175707915E+03 0.14410962865E+03
 0.19779009517E+03 0.25727639000E+03 0.31386428585E+03 0.35912476306E+03 0.38764704722E+03
 0.39728834025E+03 0.38764704722E+03 0.35912476306E+03 0.31386428585E+03 0.25727639000E+03
 0.19779009517E+03 0.14410962865E+03 0.10175707915E+03 0.71387147029E+02 0.49981369805E+02
 0.34996107988E+02 0.24783393939E+02 0.17832657439E+02 0.13030985536E+02 0.96626016536E+01
 0.72884923067E+01 0.56236744601E+01 0.44674534687E+01 0.36746640993E+01 0.31373923712E+01
 0.27738192770E+01 0.25290317249E+01 0.23737743024E+01 0.22910195165E+01 0.25521001987E+01
 0.25722731019E+01 0.26394452378E+01 0.27682262913E+01 0.29762848242E+01 0.32921433314E+01
 0.37662196182E+01 0.44727915963E+01 0.55101529595E+01 0.70092306898E+01 0.91461573957E+01
 0.12161283474E+02 0.16410111172E+02 0.22458198336E+02 0.31178593128E+02 0.43764688137E+02
 0.61541678608E+02 0.85876945704E+02 0.11909398021E+03 0.16154793934E+03 0.20978350506E+03
 0.25727639000E+03 0.29675721136E+03 0.32253298497E+03 0.33143885879E+03 0.32253298497E+03
 0.29675721136E+03 0.25727639000E+03 0.20978350506E+03 0.16154793934E+03 0.11909398021E+03
 0.85876945704E+02 0.61541678608E+02 0.43764688137E+02 0.31178593128E+02 0.22458198336E+02
 0.16410111172E+02 0.12161283474E+02 0.91461573957E+01 0.70092306898E+01 0.55101529595E+01
 0.44727915963E+01 0.37662196182E+01 0.32921433314E+01 0.29762848242E+01 0.27682262913E+01
 0.26394452378E+01 0.25722731019E+01 0.30395229900E+01 0.30513355143E+01 0.30931872931E+01
 0.31801363767E+01 0.33316103675E+01 0.35765007864E+01 0.39613951792E+01 0.45529724163E+01
 0.54390818020E+01 0.67350670380E+01 0.85912789197E+01 0.11203282212E+02 0.14844617142E+02
 0.19933678145E+02 0.27106524079E+02 0.37234524484E+02 0.51310451205E+02 0.70136677253E+02
 0.94681121378E+02 0.12573248076E+03 0.16154793934E+03 0.19779009517E+03 0.22887371835E+03
 0.24973482136E+03 0.25706198287E+03 0.24973482136E+03 0.22887371835E+03 0.19779009517E+03
 0.16154793934E+03 0.12573248076E+03 0.94681121378E+02 0.70136677253E+02 0.51310451205E+02
 0.37234524484E+02 0.27106524079E+02 0.19933678145E+02 0.14844617142E+02 0.11203282212E+02
 0.85912789197E+01 0.67350670380E+01 0.54390818020E+01 0.45529724163E+01 0.39613951792E+01
 0.35765007864E+01 0.33316103675E+01 0.31801363767E+01 0.30931872931E+01 0.30513355143E+01
 0.38507589649E+01 0.38486828751E+01 0.38492487981E+01 0.38695873275E+01 0.39331047636E+01
 0.40715799492E+01 0.43301697564E+01 0.47695996150E+01 0.54678470389E+01 0.65246845956E+01
 0.80655258562E+01 0.10245099267E+02 0.13265103631E+02 0.17416190310E+02 0.23127529799E+02
 0.30983469998E+02 0.41658777767E+02 0.55723574532E+02 0.73348264841E+02 0.94681121378E+02
 0.11909398021E+03 0.14410962865E+03 0.16600048804E+03 0.18097205954E+03 0.18629024059E+03
 0.18097205954E+03 0.16600048804E+03 0.14410962865E+03 0.11909398021E+03 0.94681121378E+02
 0.73348264841E+02 0.55723574532E+02 0.41658777767E+02 0.30983469998E+02 0.23127529799E+02
 0.17416190310E+02 0.13265103631E+02 0.10245099267E+02 0.80655258562E+01 0.65246845956E+01
 0.54678470389E+01 0.47695996150E+01 0.43301697564E+01 0.40715799492E+01 0.39331047636E+01
 0.38695873275E+01 0.38492487981E+01 0.38486828751E+01 0.51881118300E+01 0.51628611384E+01
 0.50953836665E+01 0.50077872837E+01 0.49315060483E+01 0.49060081624E+01 0.49799960751E+01
 0.52123312720E+01 0.56736303115E+01 0.64495516443E+01 0.76426686266E+01 0.93725371560E+01
 0.11782833269E+02 0.15063884610E+02 0.19482653572E+02 0.25395504493E+02 0.33213244122E+02
 0.43289691118E+02 0.55723574532E+02 0.70136677253E+02 0.85876945704E+02 0.10175707915E+03
 0.11567874228E+03 0.12526978534E+03 0.12869529002E+03 0.12526978534E+03 0.11567874228E+03
 0.10175707915E+03 0.85876945704E+02 0.70136677253E+02 0.55723574532E+02 0.43289691118E+02
 0.33213244122E+02 0.25395504493E+02 0.19482653572E+02 0.15063884610E+02 0.11782833269E+02
 0.93725371560E+01 0.76426686266E+01 0.64495516443E+01 0.56736303115E+01 0.52123312720E+01
 0.49799960751E+01 0.49060081624E+01 0.49315060483E+01 0.50077872837E+01 0.50953836665E+01
 0.51628611384E+01 0.73748518761E+01 0.73111933490E+01 0.71317052894E+01 0.68681630322E+01
 0.65667822749E+01 0.62828976645E+01 0.60774341001E+01 0.60149945517E+01 0.61641788846E+01
 0.65998552166E+01 0.74046195084E+01 0.86681816238E+01 0.10489082759E+02 0.12984415051E+02
 0.16305237684E+02 0.20644680818E+02 0.26220272603E+02 0.33213244122E+02 0.41658777767E+02
 0.51310451205E+02 0.61541678608E+02 0.71387147029E+02 0.79764258962E+02 0.85465006394E+02
 0.87493244442E+02 0.85465006394E+02 0.79764258962E+02 0.71387147029E+02 0.61541678608E+02
 0.51310451205E+02 0.41658777767E+02 0.33213244122E+02 0.26220272603E+02 0.20644680818E+02
 0.16305237684E+02 0.12984415051E+02 0.10489082759E+02 0.86681816238E+01 0.74046195084E+01
 0.65998552166E+01 0.61641788846E+01 0.60149945517E+01 0.60774341001E+01 0.62828976645E+01
 0.65667822749E+01 0.68681630322E+01 0.71317052894E+01 0.73111933490E+01 0.10891328166E+02
 0.10765718584E+02 0.10406020259E+02 0.98604415012E+01 0.92000763726E+01 0.85086340971E+01
 0.78728146506E+01 0.73754062160E+01 0.70924625021E+01 0.70941648369E+01 0.74469185755E+01
 0.82145348503E+01 0.94593253473E+01 0.11245826026E+02 0.13647356913E+02 0.16750078873E+02
 0.20644680818E+02 0.25395504493E+02 0.30983469998E+02 0.37234524484E+02 0.43764688137E+02
 0.49981369805E+02 0.55164715109E+02 0.58616387242E+02 0.59828796490E+02 0.58616387242E+02
 0.55164715109E+02 0.49981369805E+02 0.43764688137E+02 0.37234524484E+02 0.30983469998E+02
 0.25395504493E+02 0.20644680818E+02 0.16750078873E+02 0.13647356913E+02 0.11245826026E+02
 0.94593253473E+01 0.82145348503E+01 0.74469185755E+01 0.70941648369E+01 0.70924625021E+01