   5   5   0   0
  0.1191194E+02  0.3905268E-09  0.3905268E-09  0.3905268E-09  0.5000000E-15
  1.000000000000000E-004
  CAR 
 unknown system                          
     12.77872784    -32.12223208  301      2.63859439      1.00000000
    -32.122  0.0000E+00  0.0000E+00
    -31.973  0.0000E+00  0.0000E+00
    -31.823  0.0000E+00  0.0000E+00
    -31.673  0.0000E+00  0.0000E+00
    -31.524  0.0000E+00  0.0000E+00
    -31.374  0.0000E+00  0.0000E+00
    -31.224  0.0000E+00  0.0000E+00
    -31.075  0.0000E+00  0.0000E+00
    -30.925  0.0000E+00  0.0000E+00
    -30.775  0.0000E+00  0.0000E+00
    -30.626  0.0000E+00  0.0000E+00
    -30.476  0.0000E+00  0.0000E+00
    -30.326  0.0000E+00  0.0000E+00
    -30.177  0.0000E+00  0.0000E+00
    -30.027  0.1554E+02  0.1947E+01
    -29.877  0.0000E+00  0.2000E+01
    -29.728  0.0000E+00  0.2000E+01
    -29.578  0.0000E+00  0.2000E+01
    -29.428  0.0000E+00  0.2000E+01
    -29.279  0.0000E+00  0.2000E+01
    -29.129  0.0000E+00  0.2000E+01
    -28.979  0.0000E+00  0.2000E+01
    -28.829  0.0000E+00  0.2000E+01
    -28.680  0.0000E+00  0.2000E+01
    -28.530  0.0000E+00  0.2000E+01
    -28.380  0.0000E+00  0.2000E+01
    -28.231  0.0000E+00  0.2000E+01
    -28.081  0.0000E+00  0.2000E+01
    -27.931  0.0000E+00  0.2000E+01
    -27.782  0.0000E+00  0.2000E+01
    -27.632  0.0000E+00  0.2000E+01
    -27.482  0.0000E+00  0.2000E+01
    -27.333  0.0000E+00  0.2000E+01
    -27.183  0.0000E+00  0.2000E+01
    -27.033  0.0000E+00  0.2000E+01
    -26.884  0.0000E+00  0.2000E+01
    -26.734  0.0000E+00  0.2000E+01
    -26.584  0.0000E+00  0.2000E+01
    -26.435  0.0000E+00  0.2000E+01
    -26.285  0.0000E+00  0.2000E+01
    -26.135  0.0000E+00  0.2000E+01
    -25.986  0.0000E+00  0.2000E+01
    -25.836  0.0000E+00  0.2000E+01
    -25.686  0.0000E+00  0.2000E+01
    -25.537  0.0000E+00  0.2000E+01
    -25.387  0.0000E+00  0.2000E+01
    -25.237  0.0000E+00  0.2000E+01
    -25.088  0.0000E+00  0.2000E+01
    -24.938  0.0000E+00  0.2000E+01
    -24.788  0.0000E+00  0.2000E+01
    -24.639  0.0000E+00  0.2000E+01
    -24.489  0.0000E+00  0.2000E+01
    -24.339  0.0000E+00  0.2000E+01
    -24.190  0.0000E+00  0.2000E+01
    -24.040  0.0000E+00  0.2000E+01
    -23.890  0.0000E+00  0.2000E+01
    -23.741  0.0000E+00  0.2000E+01
    -23.591  0.0000E+00  0.2000E+01
    -23.441  0.0000E+00  0.2000E+01
    -23.292  0.0000E+00  0.2000E+01
    -23.142  0.0000E+00  0.2000E+01
    -22.992  0.0000E+00  0.2000E+01
    -22.843  0.0000E+00  0.2000E+01
    -22.693  0.0000E+00  0.2000E+01
    -22.543  0.0000E+00  0.2000E+01
    -22.394  0.0000E+00  0.2000E+01
    -22.244  0.0000E+00  0.2000E+01
    -22.094  0.0000E+00  0.2000E+01
    -21.945  0.0000E+00  0.2000E+01
    -21.795  0.0000E+00  0.2000E+01
    -21.645  0.0000E+00  0.2000E+01
    -21.496  0.0000E+00  0.2000E+01
    -21.346  0.0000E+00  0.2000E+01
    -21.196  0.0000E+00  0.2000E+01
    -21.047  0.0000E+00  0.2000E+01
    -20.897  0.0000E+00  0.2000E+01
    -20.747  0.0000E+00  0.2000E+01
    -20.598  0.0000E+00  0.2000E+01
    -20.448  0.0000E+00  0.2000E+01
    -20.298  0.0000E+00  0.2000E+01
    -20.149  0.0000E+00  0.2000E+01
    -19.999  0.0000E+00  0.2000E+01
    -19.849  0.0000E+00  0.2000E+01
    -19.700  0.0000E+00  0.2000E+01
    -19.550  0.0000E+00  0.2000E+01
    -19.400  0.0000E+00  0.2000E+01
    -19.251  0.0000E+00  0.2000E+01
    -19.101  0.0000E+00  0.2000E+01
    -18.951  0.0000E+00  0.2000E+01
    -18.802  0.0000E+00  0.2000E+01
    -18.652  0.0000E+00  0.2000E+01
    -18.502  0.0000E+00  0.2000E+01
    -18.353  0.0000E+00  0.2000E+01
    -18.203  0.0000E+00  0.2000E+01
    -18.053  0.0000E+00  0.2000E+01
    -17.904  0.0000E+00  0.2000E+01
    -17.754  0.0000E+00  0.2000E+01
    -17.604  0.0000E+00  0.2000E+01
    -17.455  0.0000E+00  0.2000E+01
    -17.305  0.0000E+00  0.2000E+01
    -17.155  0.0000E+00  0.2000E+01
    -17.006  0.0000E+00  0.2000E+01
    -16.856  0.0000E+00  0.2000E+01
    -16.706  0.0000E+00  0.2000E+01
    -16.557  0.0000E+00  0.2000E+01
    -16.407  0.0000E+00  0.2000E+01
    -16.257  0.0000E+00  0.2000E+01
    -16.108  0.0000E+00  0.2000E+01
    -15.958  0.0000E+00  0.2000E+01
    -15.808  0.0000E+00  0.2000E+01
    -15.659  0.0000E+00  0.2000E+01
    -15.509  0.0000E+00  0.2000E+01
    -15.359  0.0000E+00  0.2000E+01
    -15.210  0.0000E+00  0.2000E+01
    -15.060  0.0000E+00  0.2000E+01
    -14.910  0.1658E+01  0.2072E+01
    -14.761  0.3355E+01  0.2663E+01
    -14.611  0.2516E+01  0.3105E+01
    -14.461  0.1819E+01  0.3415E+01
    -14.312  0.1581E+01  0.3668E+01
    -14.162  0.7824E+00  0.3830E+01
    -14.012  0.2062E+01  0.3962E+01
    -13.863  0.1730E+02  0.4982E+01
    -13.713  0.7942E+01  0.7633E+01
    -13.563  0.0000E+00  0.8000E+01
    -13.413  0.0000E+00  0.8000E+01
    -13.264  0.0000E+00  0.8000E+01
    -13.114  0.0000E+00  0.8000E+01
    -12.964  0.0000E+00  0.8000E+01
    -12.815  0.0000E+00  0.8000E+01
    -12.665  0.0000E+00  0.8000E+01
    -12.515  0.0000E+00  0.8000E+01
    -12.366  0.0000E+00  0.8000E+01
    -12.216  0.3632E+01  0.8331E+01
    -12.066  0.9481E+01  0.1032E+02
    -11.917  0.9477E+01  0.1169E+02
    -11.767  0.1741E+02  0.1301E+02
    -11.617  0.1461E+01  0.1398E+02
    -11.468  0.0000E+00  0.1400E+02
    -11.318  0.0000E+00  0.1400E+02
    -11.168  0.0000E+00  0.1400E+02
    -11.019  0.0000E+00  0.1400E+02
    -10.869  0.0000E+00  0.1400E+02
    -10.719  0.0000E+00  0.1400E+02
    -10.570  0.0000E+00  0.1400E+02
    -10.420  0.0000E+00  0.1400E+02
    -10.270  0.0000E+00  0.1400E+02
    -10.121  0.0000E+00  0.1400E+02
     -9.971  0.0000E+00  0.1400E+02
     -9.821  0.0000E+00  0.1400E+02
     -9.672  0.0000E+00  0.1400E+02
     -9.522  0.0000E+00  0.1400E+02
     -9.372  0.0000E+00  0.1400E+02
     -9.223  0.0000E+00  0.1400E+02
     -9.073  0.0000E+00  0.1400E+02
     -8.923  0.0000E+00  0.1400E+02
     -8.774  0.0000E+00  0.1400E+02
     -8.624  0.0000E+00  0.1400E+02
     -8.474  0.0000E+00  0.1400E+02
     -8.325  0.0000E+00  0.1400E+02
     -8.175  0.0000E+00  0.1400E+02
     -8.025  0.0000E+00  0.1400E+02
     -7.876  0.0000E+00  0.1400E+02
     -7.726  0.0000E+00  0.1400E+02
     -7.576  0.0000E+00  0.1400E+02
     -7.427  0.0000E+00  0.1400E+02
     -7.277  0.0000E+00  0.1400E+02
     -7.127  0.0000E+00  0.1400E+02
     -6.978  0.0000E+00  0.1400E+02
     -6.828  0.0000E+00  0.1400E+02
     -6.678  0.0000E+00  0.1400E+02
     -6.529  0.0000E+00  0.1400E+02
     -6.379  0.0000E+00  0.1400E+02
     -6.229  0.0000E+00  0.1400E+02
     -6.080  0.0000E+00  0.1400E+02
     -5.930  0.0000E+00  0.1400E+02
     -5.780  0.0000E+00  0.1400E+02
     -5.631  0.0000E+00  0.1400E+02
     -5.481  0.0000E+00  0.1400E+02
     -5.331  0.0000E+00  0.1400E+02
     -5.182  0.0000E+00  0.1400E+02
     -5.032  0.0000E+00  0.1400E+02
     -4.882  0.0000E+00  0.1400E+02
     -4.733  0.0000E+00  0.1400E+02
     -4.583  0.0000E+00  0.1400E+02
     -4.433  0.0000E+00  0.1400E+02
     -4.284  0.0000E+00  0.1400E+02
     -4.134  0.0000E+00  0.1400E+02
     -3.984  0.0000E+00  0.1400E+02
     -3.835  0.0000E+00  0.1400E+02
     -3.685  0.0000E+00  0.1400E+02
     -3.535  0.0000E+00  0.1400E+02
     -3.386  0.0000E+00  0.1400E+02
     -3.236  0.0000E+00  0.1400E+02
     -3.086  0.0000E+00  0.1400E+02
     -2.937  0.0000E+00  0.1400E+02
     -2.787  0.0000E+00  0.1400E+02
     -2.637  0.0000E+00  0.1400E+02
     -2.488  0.0000E+00  0.1400E+02
     -2.338  0.0000E+00  0.1400E+02
     -2.188  0.0000E+00  0.1400E+02
     -2.039  0.0000E+00  0.1400E+02
     -1.889  0.6133E+00  0.1401E+02
     -1.739  0.4893E+01  0.1448E+02
     -1.590  0.3364E+01  0.1530E+02
     -1.440  0.5631E+01  0.1598E+02
     -1.290  0.3508E+01  0.1665E+02
     -1.141  0.3373E+01  0.1716E+02
     -0.991  0.5289E+01  0.1773E+02
     -0.841  0.6124E+01  0.1847E+02
     -0.692  0.5093E+01  0.1923E+02
     -0.542  0.5630E+01  0.2003E+02
     -0.392  0.7287E+01  0.2101E+02
     -0.243  0.9063E+01  0.2236E+02
     -0.093  0.3382E+01  0.2297E+02
      0.057  0.2603E+01  0.2342E+02
      0.206  0.2153E+01  0.2378E+02
      0.356  0.1805E+01  0.2408E+02
      0.506  0.2401E+01  0.2438E+02
      0.655  0.3063E+01  0.2480E+02
      0.805  0.3349E+01  0.2528E+02
      0.955  0.1382E+01  0.2571E+02
      1.104  0.1620E+01  0.2590E+02
      1.254  0.3758E+01  0.2628E+02
      1.404  0.6304E+01  0.2713E+02
      1.553  0.6852E+01  0.2816E+02
      1.703  0.5731E+01  0.2906E+02
      1.853  0.5325E+01  0.2992E+02
      2.002  0.3834E+01  0.3060E+02
      2.152  0.3224E+01  0.3112E+02
      2.302  0.2173E+01  0.3151E+02
      2.452  0.1657E+01  0.3180E+02
      2.601  0.0000E+00  0.3200E+02
      2.751  0.0000E+00  0.3200E+02
      2.901  0.0000E+00  0.3200E+02
      3.050  0.0000E+00  0.3200E+02
      3.200  0.0000E+00  0.3200E+02
      3.350  0.0000E+00  0.3200E+02
      3.499  0.0000E+00  0.3200E+02
      3.649  0.0000E+00  0.3200E+02
      3.799  0.0000E+00  0.3200E+02
      3.948  0.0000E+00  0.3200E+02
      4.098  0.0000E+00  0.3200E+02
      4.248  0.0000E+00  0.3200E+02
      4.397  0.1008E+00  0.3200E+02
      4.547  0.3845E+00  0.3203E+02
      4.697  0.7976E+00  0.3212E+02
      4.846  0.1549E+01  0.3229E+02
      4.996  0.1530E+01  0.3252E+02
      5.146  0.1404E+01  0.3274E+02
      5.295  0.1589E+01  0.3296E+02
      5.445  0.1795E+01  0.3321E+02
      5.595  0.2037E+01  0.3350E+02
      5.744  0.3130E+01  0.3390E+02
      5.894  0.3368E+01  0.3438E+02
      6.044  0.3816E+01  0.3492E+02
      6.193  0.1303E+02  0.3573E+02
      6.343  0.4451E+01  0.3672E+02
      6.493  0.3426E+01  0.3730E+02
      6.642  0.2440E+01  0.3772E+02
      6.792  0.3499E+00  0.3788E+02
      6.942  0.5876E-01  0.3790E+02
      7.091  0.5543E-01  0.3791E+02
      7.241  0.5219E-01  0.3792E+02
      7.391  0.4905E-01  0.3793E+02
      7.540  0.4600E-01  0.3793E+02
      7.690  0.4304E-01  0.3794E+02
      7.840  0.4017E-01  0.3795E+02
      7.989  0.3740E-01  0.3795E+02
      8.139  0.4221E-01  0.3796E+02
      8.289  0.7481E-01  0.3797E+02
      8.438  0.1308E+00  0.3798E+02
      8.588  0.1763E+00  0.3800E+02
      8.738  0.2036E+00  0.3803E+02
      8.887  0.2332E+00  0.3807E+02
      9.037  0.2813E+00  0.3810E+02
      9.187  0.3378E+00  0.3815E+02
      9.336  0.4048E+00  0.3821E+02
      9.486  0.5039E+00  0.3827E+02
      9.636  0.6171E+00  0.3836E+02
      9.785  0.7116E+00  0.3846E+02
      9.935  0.1278E+01  0.3862E+02
     10.085  0.1483E+01  0.3884E+02
     10.234  0.1695E+01  0.3907E+02
     10.384  0.1950E+01  0.3935E+02
     10.534  0.2674E+01  0.3970E+02
     10.683  0.4738E+00  0.3998E+02
     10.833  0.0000E+00  0.4000E+02
     10.983  0.0000E+00  0.4000E+02
     11.132  0.0000E+00  0.4000E+02
     11.282  0.0000E+00  0.4000E+02
     11.432  0.0000E+00  0.4000E+02
     11.581  0.0000E+00  0.4000E+02
     11.731  0.0000E+00  0.4000E+02
     11.881  0.0000E+00  0.4000E+02
     12.030  0.0000E+00  0.4000E+02
     12.180  0.0000E+00  0.4000E+02
     12.330  0.0000E+00  0.4000E+02
     12.479  0.0000E+00  0.4000E+02
     12.629  0.0000E+00  0.4000E+02
     12.779  0.0000E+00  0.4000E+02
