       N       E                     dE             d eps       ncg     rms          rms(c)
DAV:   1     0.310325721465E+03    0.31033E+03   -0.15206E+04   800   0.156E+03
DAV:   2    -0.216841714496E+02   -0.33201E+03   -0.32280E+03  1112   0.362E+02
DAV:   3    -0.492396533524E+02   -0.27555E+02   -0.27409E+02   932   0.125E+02
DAV:   4    -0.502031971515E+02   -0.96354E+00   -0.96237E+00  1364   0.215E+01
DAV:   5    -0.502282768126E+02   -0.25080E-01   -0.25072E-01  1032   0.249E+00    0.183E+01
RMM:   6    -0.403860422887E+02    0.98422E+01   -0.58347E+01   864   0.443E+01    0.623E+00
RMM:   7    -0.397914390838E+02    0.59460E+00   -0.15263E+00   957   0.102E+01    0.321E+00
RMM:   8    -0.397106072752E+02    0.80832E-01   -0.94141E-01   956   0.756E+00    0.861E-01
RMM:   9    -0.396956857837E+02    0.14921E-01   -0.59512E-02  1078   0.195E+00    0.577E-01
RMM:  10    -0.396932501303E+02    0.24357E-02   -0.13966E-01   963   0.217E+00    0.354E-01
RMM:  11    -0.396905134030E+02    0.27367E-02   -0.14803E-02  1031   0.726E-01    0.974E-02
RMM:  12    -0.396916163210E+02   -0.11029E-02   -0.12032E-02  1037   0.592E-01    0.199E-01
RMM:  13    -0.396911098217E+02    0.50650E-03   -0.90147E-03   996   0.520E-01    0.886E-02
RMM:  14    -0.396909647774E+02    0.14504E-03   -0.19693E-03   945   0.255E-01    0.316E-02
RMM:  15    -0.396909968260E+02   -0.32049E-04   -0.59538E-04   883   0.679E-02    0.215E-02
RMM:  16    -0.396909926843E+02    0.41417E-05   -0.11498E-04   852   0.585E-02    0.690E-03
RMM:  17    -0.396909990717E+02   -0.63874E-05   -0.69229E-05   751   0.418E-02
   1 F= -.39690999E+02 E0= -.39690999E+02  d E =0.000000E+00
