   14   14    1    1
  0.4548897E+02  0.5431010E-09  0.5431010E-09  0.2159101E-08  0.5000000E-15
  1.000000000000000E-004
  CAR 
 unknown system                          
     44      6     30
 
  0.0000000E+00  0.0000000E+00  0.0000000E+00  0.4000000E-01
    1      -12.540050   1.000000
    2      -11.169409   1.000000
    3       -9.456678   1.000000
    4       -9.031878   1.000000
    5       -8.972088   1.000000
    6       -8.807903   1.000000
    7       -8.778786   1.000000
    8       -8.778616   1.000000
    9       -7.650841   1.000000
   10       -5.622489   1.000000
   11       -5.517244   1.000000
   12       -5.101716   1.000000
   13       -4.370362   1.000000
   14       -4.370175   1.000000
   15       -4.331584   1.000000
   16       -3.443074   1.000000
   17       -3.443010   1.000000
   18       -3.156123   1.000000
   19       -2.108298   1.000000
   20       -2.108137   1.000000
   21       -1.917514   1.000000
   22       -1.917144   1.000000
   23       -0.001640   0.000000
   24        0.242077   0.000000
   25        0.283264   0.000000
   26        0.774629   0.000000
   27        0.774910   0.000000
   28        0.971037   0.000000
   29        1.165629   0.000000
   30        1.229764   0.000000
 
  0.2000000E+00  0.0000000E+00  0.0000000E+00  0.1600000E+00
    1      -12.374233   1.000000
    2      -11.038539   1.000000
    3      -10.045800   1.000000
    4       -9.477601   1.000000
    5       -9.389604   1.000000
    6       -8.974248   1.000000
    7       -8.356467   1.000000
    8       -7.649841   1.000000
    9       -7.623433   1.000000
   10       -5.708128   1.000000
   11       -5.442157   1.000000
   12       -5.190881   1.000000
   13       -4.616599   1.000000
   14       -4.248559   1.000000
   15       -4.158255   1.000000
   16       -3.836383   1.000000
   17       -3.778610   1.000000
   18       -3.087370   1.000000
   19       -2.724512   1.000000
   20       -2.422165   1.000000
   21       -1.958285   1.000000
   22       -1.515761   1.000000
   23        0.246739   0.000000
   24        0.337169   0.000000
   25        0.441126   0.000000
   26        0.834993   0.000000
   27        1.117819   0.000000
   28        1.472474   0.000000
   29        1.532901   0.000000
   30        1.898768   0.000000
 
  0.4000000E+00  0.0000000E+00  0.0000000E+00  0.1600000E+00
    1      -11.883589   1.000000
    2      -11.090945   1.000000
    3      -10.663886   1.000000
    4      -10.106702   1.000000
    5       -9.224470   1.000000
    6       -9.058599   1.000000
    7       -7.944455   1.000000
    8       -7.706832   1.000000
    9       -6.671470   1.000000
   10       -6.046551   1.000000
   11       -5.250723   1.000000
   12       -5.054268   1.000000
   13       -4.913344   1.000000
   14       -4.419347   1.000000
   15       -4.360689   1.000000
   16       -4.056455   1.000000
   17       -3.762663   1.000000
   18       -3.647749   1.000000
   19       -3.220195   1.000000
   20       -2.736211   1.000000
   21       -1.601397   1.000000
   22       -0.733760   0.526807
   23       -0.715177   0.422482
   24       -0.174141   0.000000
   25        0.955612   0.000000
   26        1.521762   0.000000
   27        1.817351   0.000000
   28        2.075655   0.000000
   29        2.381342   0.000000
   30        2.497444   0.000000
 
  0.2000000E+00  0.2000000E+00  0.0000000E+00  0.1600000E+00
    1      -12.212722   1.000000
    2      -10.923178   1.000000
    3      -10.059306   1.000000
    4      -10.057571   1.000000
    5       -9.347010   1.000000
    6       -9.176059   1.000000
    7       -7.925877   1.000000
    8       -7.684432   1.000000
    9       -7.529087   1.000000
   10       -5.926246   1.000000
   11       -5.558211   1.000000
   12       -4.834971   1.000000
   13       -4.817756   1.000000
   14       -4.562002   1.000000
   15       -3.980296   1.000000
   16       -3.839231   1.000000
   17       -3.811068   1.000000
   18       -3.200083   1.000000
   19       -2.912954   1.000000
   20       -2.020338   1.000000
   21       -1.812082   1.000000
   22       -1.234068   1.000000
   23       -0.613181   0.050711
   24        0.504705   0.000000
   25        0.713641   0.000000
   26        0.899743   0.000000
   27        1.280201   0.000000
   28        1.425659   0.000000
   29        1.970590   0.000000
   30        1.997450   0.000000
 
  0.4000000E+00  0.2000000E+00  0.0000000E+00  0.3200000E+00
    1      -11.737625   1.000000
    2      -10.984590   1.000000
    3      -10.612513   1.000000
    4      -10.242636   1.000000
    5       -9.270943   1.000000
    6       -9.249990   1.000000
    7       -7.889254   1.000000
    8       -7.801734   1.000000
    9       -6.961981   1.000000
   10       -6.417381   1.000000
   11       -5.593788   1.000000
   12       -5.347404   1.000000
   13       -4.502925   1.000000
   14       -4.311538   1.000000
   15       -3.973838   1.000000
   16       -3.800902   1.000000
   17       -3.586254   1.000000
   18       -3.351252   1.000000
   19       -3.121530   1.000000
   20       -2.516958   1.000000
   21       -1.571464   1.000000
   22       -1.185371   1.000000
   23       -0.346143   0.000000
   24        0.501326   0.000000
   25        1.116867   0.000000
   26        1.347381   0.000000
   27        1.634532   0.000000
   28        1.675486   0.000000
   29        2.198205   0.000000
   30        2.250737   0.000000
 
  0.4000000E+00  0.4000000E+00  0.0000000E+00  0.1600000E+00
    1      -11.321877   1.000000
    2      -10.748227   1.000000
    3      -10.714047   1.000000
    4      -10.563871   1.000000
    5       -9.433205   1.000000
    6       -9.406163   1.000000
    7       -7.878564   1.000000
    8       -7.794544   1.000000
    9       -7.280269   1.000000
   10       -6.966928   1.000000
   11       -5.773678   1.000000
   12       -5.727102   1.000000
   13       -4.307969   1.000000
   14       -4.096213   1.000000
   15       -4.057937   1.000000
   16       -3.685131   1.000000
   17       -2.931111   1.000000
   18       -2.732081   1.000000
   19       -2.592767   1.000000
   20       -2.041952   1.000000
   21       -1.583625   1.000000
   22       -1.553411   1.000000
   23        0.527959   0.000000
   24        0.870882   0.000000
   25        1.065623   0.000000
   26        1.067813   0.000000
   27        1.252721   0.000000
   28        1.841992   0.000000
   29        1.880643   0.000000
   30        2.336866   0.000000
