unknown system                          
   1.00000000000000     
     5.431010    0.000000    0.000000
     0.000000    5.431010    0.000000
     0.000000    0.000000   21.591010
   Si   H 
    10     4
Direct
  0.000000  0.000000  0.000000
  0.499999  0.499999  0.000000
  0.250000  0.250000  0.062885
  0.750000  0.750000  0.062885
  0.000000  0.499999  0.125770
  0.499999  0.000000  0.125770
  0.250000  0.750000  0.188655
  0.750000  0.250000  0.188655
  0.000000  0.000000  0.251540
  0.499999  0.499999  0.251540
  0.000000  0.000000  0.316382
  0.499999  0.499999  0.316382
  0.000000  0.000000  0.935158
  0.499999  0.499999  0.935158
 
   24   24   84
 0.47461E-01 0.94792E-01 0.30553     0.59190     0.73266     0.73781     0.64027     0.46599     0.27283     0.12339    
 0.52696E-01 0.27545E-01 0.22035E-01 0.27722E-01 0.52309E-01 0.12456     0.27094     0.46781     0.63924     0.73826    
 0.73249     0.59195     0.30556     0.94786E-01 0.94792E-01 0.18858     0.45241     0.69505     0.78827     0.77377    
 0.66983     0.49253     0.29631     0.14525     0.68519E-01 0.37404E-01 0.27722E-01 0.29907E-01 0.49348E-01 0.11000    
 0.24094     0.42904     0.60259     0.70841     0.70710     0.57537     0.32270     0.13345     0.30553     0.45241    
 0.66921     0.80008     0.83441     0.79334     0.67438     0.49105     0.30429     0.17246     0.10213     0.67963E-01
 0.52309E-01 0.49348E-01 0.64294E-01 0.11404     0.22381     0.39273     0.56602     0.68740     0.71546     0.63984    
 0.47431     0.32270     0.59190     0.69505     0.80008     0.85059     0.84431     0.77701     0.64222     0.46711    
 0.31555     0.22112     0.17288     0.14607     0.12456     0.11000     0.11404     0.14857     0.23008     0.36520    
 0.52355     0.65546     0.71982     0.70752     0.63978     0.57533     0.73266     0.78827     0.83441     0.84431    
 0.80749     0.71624     0.58120     0.44762     0.35754     0.31546     0.30383     0.29498     0.27094     0.24094    
 0.22381     0.23008     0.27004     0.35373     0.47292     0.59532     0.68386     0.71989     0.71558     0.70728    
 0.73781     0.77377     0.79334     0.77701     0.71624     0.61911     0.52056     0.46015     0.44763     0.46719    
 0.49150     0.49373     0.46781     0.42904     0.39273     0.36520     0.35373     0.37278     0.42901     0.51159    
 0.59528     0.65536     0.68710     0.70797     0.64027     0.66983     0.67438     0.64222     0.58120     0.52056    
 0.49519     0.52056     0.58119     0.64215     0.67410     0.66913     0.63924     0.60259     0.56602     0.52355    
 0.47292     0.42901     0.41195     0.42903     0.47294     0.52375     0.56660     0.60360     0.46599     0.49253    
 0.49105     0.46711     0.44762     0.46015     0.52056     0.61912     0.71624     0.77704     0.79347     0.77407    
 0.73826     0.70841     0.68740     0.65546     0.59532     0.51159     0.42903     0.37277     0.35370     0.36501    
 0.39192     0.42745     0.27283     0.29631     0.30429     0.31555     0.35754     0.44763     0.58119     0.71624    
 0.80748     0.84429     0.83436     0.78814     0.73249     0.70710     0.71546     0.71982     0.68386     0.59528    
 0.47294     0.35370     0.27007     0.23021     0.22445     0.24244     0.12339     0.14525     0.17246     0.22112    
 0.31546     0.46719     0.64215     0.77704     0.84429     0.85060     0.80010     0.69509     0.59195     0.57537    
 0.63984     0.70752     0.71989     0.65536     0.52375     0.36501     0.23021     0.14844     0.11375     0.10923    
 0.52696E-01 0.68519E-01 0.10213     0.17288     0.30383     0.49150     0.67410     0.79347     0.83436     0.80010    
 0.66921     0.45241     0.30556     0.32270     0.47431     0.63978     0.71558     0.68710     0.56660     0.39192    
 0.22445     0.11375     0.64523E-01 0.49615E-01 0.27545E-01 0.37404E-01 0.67963E-01 0.14607     0.29498     0.49373    
 0.66913     0.77407     0.78814     0.69509     0.45241     0.18855     0.94786E-01 0.13345     0.32270     0.57533    
 0.70728     0.70797     0.60360     0.42745     0.24244     0.10923     0.49615E-01 0.29755E-01 0.22035E-01 0.27722E-01
 0.52309E-01 0.12456     0.27094     0.46781     0.63924     0.73826     0.73249     0.59195     0.30556     0.94786E-01
 0.47461E-01 0.94792E-01 0.30553     0.59190     0.73266     0.73781     0.64027     0.46599     0.27283     0.12339    
 0.52696E-01 0.27545E-01 0.27722E-01 0.29907E-01 0.49348E-01 0.11000     0.24094     0.42904     0.60259     0.70841    
 0.70710     0.57537     0.32270     0.13345     0.94792E-01 0.18858     0.45241     0.69505     0.78827     0.77377    
 0.66983     0.49253     0.29631     0.14525     0.68519E-01 0.37404E-01 0.52309E-01 0.49348E-01 0.64294E-01 0.11404    
 0.22381     0.39273     0.56602     0.68740     0.71546     0.63984     0.47431     0.32270     0.30553     0.45241    
 0.66921     0.80008     0.83441     0.79334     0.67438     0.49105     0.30429     0.17246     0.10213     0.67963E-01
 0.12456     0.11000     0.11404     0.14857     0.23008     0.36520     0.52355     0.65546     0.71982     0.70752    
 0.63978     0.57533     0.59190     0.69505     0.80008     0.85059     0.84431     0.77701     0.64222     0.46711    
 0.31555     0.22112     0.17288     0.14607     0.27094     0.24094     0.22381     0.23008     0.27004     0.35373    
 0.47292     0.59532     0.68386     0.71989     0.71558     0.70728     0.73266     0.78827     0.83441     0.84431    
 0.80749     0.71624     0.58120     0.44762     0.35754     0.31546     0.30383     0.29498     0.46781     0.42904    
 0.39273     0.36520     0.35373     0.37278     0.42901     0.51159     0.59528     0.65536     0.68710     0.70797    
 0.73781     0.77377     0.79334     0.77701     0.71624     0.61911     0.52056     0.46015     0.44763     0.46719    
 0.49150     0.49373     0.63924     0.60259     0.56602     0.52355     0.47292     0.42901     0.41195     0.42903    
 0.47294     0.52375     0.56660     0.60360     0.64027     0.66983     0.67438     0.64222     0.58120     0.52056    
 0.49519     0.52056     0.58119     0.64215     0.67410     0.66913     0.73826     0.70841     0.68740     0.65546    
 0.59532     0.51159     0.42903     0.37277     0.35370     0.36501     0.39192     0.42745     0.46599     0.49253    
 0.49105     0.46711     0.44762     0.46015     0.52056     0.61912     0.71624     0.77704     0.79347     0.77407    
 0.73249     0.70710     0.71546     0.71982     0.68386     0.59528     0.47294     0.35370     0.27007     0.23021    
 0.22445     0.24244     0.27283     0.29631     0.30429     0.31555     0.35754     0.44763     0.58119     0.71624    
 0.80748     0.84429     0.83436     0.78814     0.59195     0.57537     0.63984     0.70752     0.71989     0.65536    
 0.52375     0.36501     0.23021     0.14844     0.11375     0.10923     0.12339     0.14525     0.17246     0.22112    
 0.31546     0.46719     0.64215     0.77704     0.84429     0.85060     0.80010     0.69509     0.30556     0.32270    
 0.47431     0.63978     0.71558     0.68710     0.56660     0.39192     0.22445     0.11375     0.64523E-01 0.49615E-01
 0.52696E-01 0.68519E-01 0.10213     0.17288     0.30383     0.49150     0.67410     0.79347     0.83436     0.80010    
 0.66921     0.45241     0.94786E-01 0.13345     0.32270     0.57533     0.70728     0.70797     0.60360     0.42745    
 0.24244     0.10923     0.49615E-01 0.29755E-01 0.27545E-01 0.37404E-01 0.67963E-01 0.14607     0.29498     0.49373    
 0.66913     0.77407     0.78814     0.69509     0.45241     0.18855     0.13789     0.25463     0.57772     0.78634    
 0.83914     0.80693     0.70126     0.52239     0.30357     0.13705     0.59543E-01 0.31275E-01 0.24639E-01 0.31391E-01
 0.59337E-01 0.13775     0.30245     0.52349     0.70066     0.80719     0.83904     0.78638     0.57775     0.25462    
 0.25463     0.49283     0.77102     0.87670     0.89159     0.85171     0.75014     0.57427     0.35420     0.18023    
 0.88615E-01 0.47471E-01 0.31391E-01 0.30119E-01 0.46856E-01 0.10420     0.24236     0.45196     0.63513     0.75077    
 0.78171     0.71113     0.50218     0.27509     0.57772     0.77102     0.88838     0.92351     0.91712     0.87210    
 0.77133     0.59642     0.38851     0.22973     0.13843     0.88199E-01 0.59337E-01 0.46856E-01 0.53823E-01 0.93591E-01
 0.19850     0.38139     0.56713     0.69625     0.74556     0.70763     0.59403     0.50219     0.78634     0.87670    
 0.92351     0.93355     0.91656     0.86574     0.75993     0.59278     0.42290     0.30316     0.23003     0.18073    
 0.13775     0.10420     0.93591E-01 0.11588     0.18882     0.33026     0.50191     0.63942     0.71622     0.73004    
 0.70757     0.71109     0.83914     0.89159     0.91712     0.91656     0.89061     0.82769     0.71373     0.57822    
 0.47871     0.42283     0.38825     0.35341     0.30245     0.24236     0.19850     0.18882     0.22248     0.30993    
 0.44079     0.56899     0.66230     0.71628     0.74565     0.78184     0.80693     0.85171     0.87210     0.86574    
 0.82769     0.74917     0.64997     0.58639     0.57823     0.59282     0.59666     0.57491     0.52349     0.45196    
 0.38139     0.33026     0.30993     0.33000     0.39320     0.48242     0.56893     0.63934     0.69602     0.75047    
 0.70126     0.75014     0.77133     0.75993     0.71373     0.64997     0.61833     0.64997     0.71372     0.75990    
 0.77120     0.74978     0.70066     0.63513     0.56713     0.50191     0.44079     0.39320     0.37490     0.39323    
 0.44082     0.50208     0.56753     0.63580     0.52239     0.57427     0.59642     0.59278     0.57822     0.58639    
 0.64997     0.74917     0.82769     0.86575     0.87216     0.85185     0.80719     0.75077     0.69625     0.63942    
 0.56899     0.48242     0.39323     0.32999     0.30989     0.33013     0.38085     0.45095     0.30357     0.35420    
 0.38851     0.42290     0.47871     0.57823     0.71372     0.82769     0.89061     0.91655     0.91710     0.89153    
 0.83904     0.78171     0.74556     0.71622     0.66230     0.56893     0.44082     0.30989     0.22251     0.18890    
 0.19884     0.24325     0.13705     0.18023     0.22973     0.30316     0.42283     0.59282     0.75990     0.86575    
 0.91655     0.93355     0.92352     0.87672     0.78638     0.71113     0.70763     0.73004     0.71628     0.63934    
 0.50208     0.33013     0.18890     0.11583     0.93454E-01 0.10382     0.59543E-01 0.88615E-01 0.13843     0.23003    
 0.38825     0.59666     0.77120     0.87216     0.91710     0.92352     0.88838     0.77101     0.57775     0.50218    
 0.59403     0.70757     0.74565     0.69602     0.56753     0.38085     0.19884     0.93454E-01 0.53904E-01 0.46992E-01
 0.31275E-01 0.47471E-01 0.88199E-01 0.18073     0.35341     0.57491     0.74978     0.85185     0.89153     0.87672    
 0.77101     0.49279     0.25462     0.27509     0.50219     0.71109     0.78184     0.75047     0.63580     0.45095    
 0.24325     0.10382     0.46992E-01 0.30063E-01 0.24639E-01 0.31391E-01 0.59337E-01 0.13775     0.30245     0.52349    
 0.70066     0.80719     0.83904     0.78638     0.57775     0.25462     0.13789     0.25463     0.57772     0.78634    
 0.83914     0.80693     0.70126     0.52239     0.30357     0.13705     0.59543E-01 0.31275E-01 0.31391E-01 0.30119E-01
 0.46856E-01 0.10420     0.24236     0.45196     0.63513     0.75077     0.78171     0.71113     0.50218     0.27509    
 0.25463     0.49283     0.77102     0.87670     0.89159     0.85171     0.75014     0.57427     0.35420     0.18023    
 0.88615E-01 0.47471E-01 0.59337E-01 0.46856E-01 0.53823E-01 0.93591E-01 0.19850     0.38139     0.56713     0.69625    
 0.74556     0.70763     0.59403     0.50219     0.57772     0.77102     0.88838     0.92351     0.91712     0.87210    
 0.77133     0.59642     0.38851     0.22973     0.13843     0.88199E-01 0.13775     0.10420     0.93591E-01 0.11588    
 0.18882     0.33026     0.50191     0.63942     0.71622     0.73004     0.70757     0.71109     0.78634     0.87670    
 0.92351     0.93355     0.91656     0.86574     0.75993     0.59278     0.42290     0.30316     0.23003     0.18073    
 0.30245     0.24236     0.19850     0.18882     0.22248     0.30993     0.44079     0.56899     0.66230     0.71628    
 0.74565     0.78184     0.83914     0.89159     0.91712     0.91656     0.89061     0.82769     0.71373     0.57822    
 0.47871     0.42283     0.38825     0.35341     0.52349     0.45196     0.38139     0.33026     0.30993     0.33000    
 0.39320     0.48242     0.56893     0.63934     0.69602     0.75047     0.80693     0.85171     0.87210     0.86574    
 0.82769     0.74917     0.64997     0.58639     0.57823     0.59282     0.59666     0.57491     0.70066     0.63513    
 0.56713     0.50191     0.44079     0.39320     0.37490     0.39323     0.44082     0.50208     0.56753     0.63580    
 0.70126     0.75014     0.77133     0.75993     0.71373     0.64997     0.61833     0.64997     0.71372     0.75990    
 0.77120     0.74978     0.80719     0.75077     0.69625     0.63942     0.56899     0.48242     0.39323     0.32999    
 0.30989     0.33013     0.38085     0.45095     0.52239     0.57427     0.59642     0.59278     0.57822     0.58639    
 0.64997     0.74917     0.82769     0.86575     0.87216     0.85185     0.83904     0.78171     0.74556     0.71622    
 0.66230     0.56893     0.44082     0.30989     0.22251     0.18890     0.19884     0.24325     0.30357     0.35420    
 0.38851     0.42290     0.47871     0.57823     0.71372     0.82769     0.89061     0.91655     0.91710     0.89153    
 0.78638     0.71113     0.70763     0.73004     0.71628     0.63934     0.50208     0.33013     0.18890     0.11583    
 0.93454E-01 0.10382     0.13705     0.18023     0.22973     0.30316     0.42283     0.59282     0.75990     0.86575    
 0.91655     0.93355     0.92352     0.87672     0.57775     0.50218     0.59403     0.70757     0.74565     0.69602    
 0.56753     0.38085     0.19884     0.93454E-01 0.53904E-01 0.46992E-01 0.59543E-01 0.88615E-01 0.13843     0.23003    
 0.38825     0.59666     0.77120     0.87216     0.91710     0.92352     0.88838     0.77101     0.25462     0.27509    
 0.50219     0.71109     0.78184     0.75047     0.63580     0.45095     0.24325     0.10382     0.46992E-01 0.30063E-01
 0.31275E-01 0.47471E-01 0.88199E-01 0.18073     0.35341     0.57491     0.74978     0.85185     0.89153     0.87672    
 0.77101     0.49279     0.35452     0.48278     0.72119     0.84181     0.86154     0.81659     0.70362     0.51032    
 0.29434     0.14568     0.72737E-01 0.42795E-01 0.35086E-01 0.42879E-01 0.72640E-01 0.14604     0.29383     0.51091    
 0.70328     0.81677     0.86148     0.84185     0.72121     0.48278     0.48278     0.69603     0.86186     0.91451    
 0.91269     0.87031     0.77132     0.59208     0.37736     0.21272     0.11699     0.66536E-01 0.42879E-01 0.37014E-01
 0.49758E-01 0.96554E-01 0.21200     0.41233     0.61312     0.73965     0.78704     0.75259     0.62039     0.46490    
 0.72119     0.86186     0.92890     0.94503     0.93531     0.89843     0.80986     0.64281     0.44579     0.29026    
 0.18555     0.11671     0.72640E-01 0.49758E-01 0.48180E-01 0.73948E-01 0.15280     0.31629     0.51417     0.65486    
 0.71815     0.70869     0.64748     0.62042     0.84181     0.91451     0.94503     0.95032     0.93936     0.90286    
 0.80890     0.64591     0.48798     0.37738     0.29043     0.21297     0.14604     0.96554E-01 0.73948E-01 0.81683E-01
 0.13129     0.24927     0.42344     0.57278     0.65985     0.69547     0.70864     0.75255     0.86154     0.91269    
 0.93531     0.93936     0.92524     0.87394     0.75584     0.60924     0.52348     0.48794     0.44567     0.37698    
 0.29383     0.21200     0.15280     0.13129     0.15151     0.22342     0.35036     0.48825     0.59011     0.65992    
 0.71823     0.78714     0.81659     0.87031     0.89843     0.90286     0.87394     0.78977     0.66452     0.59286    
 0.60925     0.64593     0.64292     0.59238     0.51091     0.41233     0.31629     0.24927     0.22342     0.23969    
 0.29981     0.39279     0.48817     0.57272     0.65467     0.73944     0.70362     0.77132     0.80986     0.80890    
 0.75584     0.66452     0.61449     0.66452     0.75584     0.80889     0.80981     0.77113     0.70328     0.61312    
 0.51417     0.42344     0.35036     0.29981     0.28125     0.29985     0.35037     0.42358     0.51443     0.61357    
 0.51032     0.59208     0.64281     0.64591     0.60924     0.59286     0.66452     0.78977     0.87394     0.90287    
 0.89845     0.87038     0.81677     0.73965     0.65486     0.57278     0.48825     0.39279     0.29985     0.23968    
 0.22340     0.24921     0.31598     0.41179     0.29434     0.37736     0.44579     0.48798     0.52348     0.60925    
 0.75584     0.87394     0.92524     0.93936     0.93530     0.91266     0.86148     0.78704     0.71815     0.65985    
 0.59011     0.48817     0.35037     0.22340     0.15152     0.13133     0.15294     0.21242     0.14568     0.21272    
 0.29026     0.37738     0.48794     0.64593     0.80889     0.90287     0.93936     0.95032     0.94503     0.91452    
 0.84185     0.75259     0.70869     0.69547     0.65992     0.57272     0.42358     0.24921     0.13133     0.81668E-01
 0.73894E-01 0.96404E-01 0.72737E-01 0.11699     0.18555     0.29043     0.44567     0.64292     0.80981     0.89845    
 0.93530     0.94503     0.92890     0.86186     0.72121     0.62039     0.64748     0.70864     0.71823     0.65467    
 0.51443     0.31598     0.15294     0.73894E-01 0.48198E-01 0.49829E-01 0.42795E-01 0.66536E-01 0.11671     0.21297    
 0.37698     0.59238     0.77113     0.87038     0.91266     0.91452     0.86186     0.69600     0.48278     0.46490    
 0.62042     0.75255     0.78714     0.73944     0.61357     0.41179     0.21242     0.96404E-01 0.49829E-01 0.37000E-01
 0.35086E-01 0.42879E-01 0.72640E-01 0.14604     0.29383     0.51091     0.70328     0.81677     0.86148     0.84185    
 0.72121     0.48278     0.35452     0.48278     0.72119     0.84181     0.86154     0.81659     0.70362     0.51032    
 0.29434     0.14568     0.72737E-01 0.42795E-01 0.42879E-01 0.37014E-01 0.49758E-01 0.96554E-01 0.21200     0.41233    
 0.61312     0.73965     0.78704     0.75259     0.62039     0.46490     0.48278     0.69603     0.86186     0.91451    
 0.91269     0.87031     0.77132     0.59208     0.37736     0.21272     0.11699     0.66536E-01 0.72640E-01 0.49758E-01
 0.48180E-01 0.73948E-01 0.15280     0.31629     0.51417     0.65486     0.71815     0.70869     0.64748     0.62042    
 0.72119     0.86186     0.92890     0.94503     0.93531     0.89843     0.80986     0.64281     0.44579     0.29026    
 0.18555     0.11671     0.14604     0.96554E-01 0.73948E-01 0.81683E-01 0.13129     0.24927     0.42344     0.57278    
 0.65985     0.69547     0.70864     0.75255     0.84181     0.91451     0.94503     0.95032     0.93936     0.90286    
 0.80890     0.64591     0.48798     0.37738     0.29043     0.21297     0.29383     0.21200     0.15280     0.13129    
 0.15151     0.22342     0.35036     0.48825     0.59011     0.65992     0.71823     0.78714     0.86154     0.91269    
 0.93531     0.93936     0.92524     0.87394     0.75584     0.60924     0.52348     0.48794     0.44567     0.37698    
 0.51091     0.41233     0.31629     0.24927     0.22342     0.23969     0.29981     0.39279     0.48817     0.57272    
 0.65467     0.73944     0.81659     0.87031     0.89843     0.90286     0.87394     0.78977     0.66452     0.59286    
 0.60925     0.64593     0.64292     0.59238     0.70328     0.61312     0.51417     0.42344     0.35036     0.29981    
 0.28125     0.29985     0.35037     0.42358     0.51443     0.61357     0.70362     0.77132     0.80986     0.80890    
 0.75584     0.66452     0.61449     0.66452     0.75584     0.80889     0.80981     0.77113     0.81677     0.73965    
 0.65486     0.57278     0.48825     0.39279     0.29985     0.23968     0.22340     0.24921     0.31598     0.41179    
 0.51032     0.59208     0.64281     0.64591     0.60924     0.59286     0.66452     0.78977     0.87394     0.90287    
 0.89845     0.87038     0.86148     0.78704     0.71815     0.65985     0.59011     0.48817     0.35037     0.22340    
 0.15152     0.13133     0.15294     0.21242     0.29434     0.37736     0.44579     0.48798     0.52348     0.60925    
 0.75584     0.87394     0.92524     0.93936     0.93530     0.91266     0.84185     0.75259     0.70869     0.69547    
 0.65992     0.57272     0.42358     0.24921     0.13133     0.81668E-01 0.73894E-01 0.96404E-01 0.14568     0.21272    
 0.29026     0.37738     0.48794     0.64593     0.80889     0.90287     0.93936     0.95032     0.94503     0.91452    
 0.72121     0.62039     0.64748     0.70864     0.71823     0.65467     0.51443     0.31598     0.15294     0.73894E-01
 0.48198E-01 0.49829E-01 0.72737E-01 0.11699     0.18555     0.29043     0.44567     0.64292     0.80981     0.89845    
 0.93530     0.94503     0.92890     0.86186     0.48278     0.46490     0.62042     0.75255     0.78714     0.73944    
 0.61357     0.41179     0.21242     0.96404E-01 0.49829E-01 0.37000E-01 0.42795E-01 0.66536E-01 0.11671     0.21297    
 0.37698     0.59238     0.77113     0.87038     0.91266     0.91452     0.86186     0.69600     0.52351     0.60562    
 0.75014     0.82681     0.82881     0.76793     0.63846     0.45717     0.29156     0.17874     0.11236     0.79280E-01
 0.69814E-01 0.79357E-01 0.11231     0.17892     0.29135     0.45743     0.63827     0.76805     0.82875     0.82684    
 0.75015     0.60563     0.60562     0.75062     0.86304     0.90151     0.89407     0.84606     0.74002     0.57625    
 0.41005     0.27935     0.18360     0.11794     0.79357E-01 0.63708E-01 0.70414E-01 0.10569     0.18559     0.33022    
 0.51465     0.66121     0.73118     0.72577     0.65205     0.57231     0.75014     0.86304     0.91997     0.93555    
 0.92778     0.89027     0.79481     0.63891     0.49001     0.37648     0.27571     0.18340     0.11231     0.70414E-01
 0.56712E-01 0.68702E-01 0.11620     0.22420     0.39089     0.54362     0.62874     0.65028     0.63600     0.65209    
 0.82681     0.90151     0.93555     0.94622     0.93934     0.89874     0.78421     0.61207     0.49596     0.44063    
 0.37658     0.27948     0.17892     0.10569     0.68702E-01 0.62707E-01 0.87017E-01 0.15832     0.28971     0.43500    
 0.53784     0.60039     0.65022     0.72574     0.82881     0.89407     0.92778     0.93934     0.92609     0.85937    
 0.69059     0.51321     0.46811     0.49595     0.48996     0.40988     0.29135     0.18559     0.11620     0.87017E-01
 0.92395E-01 0.13474     0.22357     0.34102     0.44737     0.53789     0.62881     0.73127     0.76793     0.84606    
 0.89027     0.89874     0.85937     0.72932     0.52816     0.44366     0.51321     0.61208     0.63896     0.57638    
 0.45743     0.33022     0.22420     0.15832     0.13474     0.14500     0.18698     0.25697     0.34098     0.43496    
 0.54347     0.66105     0.63846     0.74002     0.79481     0.78421     0.69059     0.52816     0.44074     0.52816    
 0.69059     0.78421     0.79478     0.73993     0.63827     0.51465     0.39089     0.28971     0.22357     0.18698    
 0.17468     0.18699     0.22357     0.28978     0.39103     0.51491     0.45717     0.57625     0.63891     0.61207    
 0.51321     0.44366     0.52816     0.72932     0.85937     0.89874     0.89028     0.84611     0.76805     0.66121    
 0.54362     0.43500     0.34102     0.25697     0.18699     0.14500     0.13473     0.15830     0.22408     0.32999    
 0.29156     0.41005     0.49001     0.49596     0.46811     0.51321     0.69059     0.85937     0.92609     0.93934    
 0.92777     0.89405     0.82875     0.73118     0.62874     0.53784     0.44737     0.34098     0.22357     0.13473    
 0.92396E-01 0.87027E-01 0.11624     0.18575     0.17874     0.27935     0.37648     0.44063     0.49595     0.61208    
 0.78421     0.89874     0.93934     0.94622     0.93555     0.90152     0.82684     0.72577     0.65028     0.60039    
 0.53789     0.43496     0.28978     0.15830     0.87027E-01 0.62708E-01 0.68682E-01 0.10563     0.11236     0.18360    
 0.27571     0.37658     0.48996     0.63896     0.79478     0.89028     0.92777     0.93555     0.91997     0.86304    
 0.75015     0.65205     0.63600     0.65022     0.62881     0.54347     0.39103     0.22408     0.11624     0.68682E-01
 0.56706E-01 0.70458E-01 0.79280E-01 0.11794     0.18340     0.27948     0.40988     0.57638     0.73993     0.84611    
 0.89405     0.90152     0.86304     0.75060     0.60563     0.57231     0.65209     0.72574     0.73127     0.66105    
 0.51491     0.32999     0.18575     0.10563     0.70458E-01 0.63720E-01 0.69814E-01 0.79357E-01 0.11231     0.17892    
 0.29135     0.45743     0.63827     0.76805     0.82875     0.82684     0.75015     0.60563     0.52351     0.60562    
 0.75014     0.82681     0.82881     0.76793     0.63846     0.45717     0.29156     0.17874     0.11236     0.79280E-01
 0.79357E-01 0.63708E-01 0.70414E-01 0.10569     0.18559     0.33022     0.51465     0.66121     0.73118     0.72577    
 0.65205     0.57231     0.60562     0.75062     0.86304     0.90151     0.89407     0.84606     0.74002     0.57625    
 0.41005     0.27935     0.18360     0.11794     0.11231     0.70414E-01 0.56712E-01 0.68702E-01 0.11620     0.22420    
 0.39089     0.54362     0.62874     0.65028     0.63600     0.65209     0.75014     0.86304     0.91997     0.93555    
 0.92778     0.89027     0.79481     0.63891     0.49001     0.37648     0.27571     0.18340     0.17892     0.10569    
 0.68702E-01 0.62707E-01 0.87017E-01 0.15832     0.28971     0.43500     0.53784     0.60039     0.65022     0.72574    
 0.82681     0.90151     0.93555     0.94622     0.93934     0.89874     0.78421     0.61207     0.49596     0.44063    
 0.37658     0.27948     0.29135     0.18559     0.11620     0.87017E-01 0.92395E-01 0.13474     0.22357     0.34102    
 0.44737     0.53789     0.62881     0.73127     0.82881     0.89407     0.92778     0.93934     0.92609     0.85937    
 0.69059     0.51321     0.46811     0.49595     0.48996     0.40988     0.45743     0.33022     0.22420     0.15832    
 0.13474     0.14500     0.18698     0.25697     0.34098     0.43496     0.54347     0.66105     0.76793     0.84606    
 0.89027     0.89874     0.85937     0.72932     0.52816     0.44366     0.51321     0.61208     0.63896     0.57638    
 0.63827     0.51465     0.39089     0.28971     0.22357     0.18698     0.17468     0.18699     0.22357     0.28978    
 0.39103     0.51491     0.63846     0.74002     0.79481     0.78421     0.69059     0.52816     0.44074     0.52816    
 0.69059     0.78421     0.79478     0.73993     0.76805     0.66121     0.54362     0.43500     0.34102     0.25697    
 0.18699     0.14500     0.13473     0.15830     0.22408     0.32999     0.45717     0.57625     0.63891     0.61207    
 0.51321     0.44366     0.52816     0.72932     0.85937     0.89874     0.89028     0.84611     0.82875     0.73118    
 0.62874     0.53784     0.44737     0.34098     0.22357     0.13473     0.92396E-01 0.87027E-01 0.11624     0.18575    
 0.29156     0.41005     0.49001     0.49596     0.46811     0.51321     0.69059     0.85937     0.92609     0.93934    
 0.92777     0.89405     0.82684     0.72577     0.65028     0.60039     0.53789     0.43496     0.28978     0.15830    
 0.87027E-01 0.62708E-01 0.68682E-01 0.10563     0.17874     0.27935     0.37648     0.44063     0.49595     0.61208    
 0.78421     0.89874     0.93934     0.94622     0.93555     0.90152     0.75015     0.65205     0.63600     0.65022    
 0.62881     0.54347     0.39103     0.22408     0.11624     0.68682E-01 0.56706E-01 0.70458E-01 0.11236     0.18360    
 0.27571     0.37658     0.48996     0.63896     0.79478     0.89028     0.92777     0.93555     0.91997     0.86304    
 0.60563     0.57231     0.65209     0.72574     0.73127     0.66105     0.51491     0.32999     0.18575     0.10563    
 0.70458E-01 0.63720E-01 0.79280E-01 0.11794     0.18340     0.27948     0.40988     0.57638     0.73993     0.84611    
 0.89405     0.90152     0.86304     0.75060     0.54699     0.59459     0.68469     0.73585     0.72382     0.65348    
 0.54236     0.42804     0.33915     0.27156     0.21695     0.17993     0.16716     0.18000     0.21694     0.27166    
 0.33906     0.42814     0.54226     0.65355     0.72378     0.73588     0.68471     0.59461     0.59459     0.70469    
 0.79927     0.83754     0.82755     0.77158     0.67342     0.56764     0.48613     0.41570     0.33476     0.24846    
 0.18000     0.14242     0.13528     0.15487     0.19964     0.27607     0.38733     0.50637     0.58688     0.60752    
 0.57870     0.55173     0.68469     0.79927     0.86826     0.89391     0.88522     0.83168     0.72568     0.61700    
 0.55837     0.51974     0.44841     0.33461     0.21694     0.13528     0.96360E-01 0.90008E-01 0.11060     0.16334    
 0.25524     0.36630     0.45240     0.49899     0.52630     0.57875     0.73585     0.83754     0.89391     0.91463    
 0.90065     0.82810     0.67467     0.54050     0.51853     0.54279     0.51978     0.41576     0.27166     0.15487    
 0.90008E-01 0.65905E-01 0.69285E-01 0.99573E-01 0.16495     0.25698     0.34398     0.41849     0.49893     0.60749    
 0.72382     0.82755     0.88522     0.90065     0.86859     0.73847     0.49398     0.36041     0.40943     0.51853    
 0.55835     0.48606     0.33906     0.19964     0.11060     0.69285E-01 0.60112E-01 0.74907E-01 0.11649     0.18307    