PROCAR lm decomposed
# of k-points:    6         # of bands:  30         # of ions:  14

 k-point    1 :    0.00000000 0.00000000 0.00000000     weight = 0.04000000

band   1 # energy  -12.54005007 # occ.  2.00000000
 
ion      s     py     pz     px    dxy    dyz    dz2    dxz    dx2    tot
  1  0.019  0.000  0.001  0.000  0.000  0.000  0.000  0.000  0.000  0.020
  2  0.019  0.000  0.001  0.000  0.000  0.000  0.000  0.000  0.000  0.020
  3  0.053  0.000  0.001  0.000  0.000  0.000  0.000  0.000  0.000  0.053
  4  0.053  0.000  0.001  0.000  0.000  0.000  0.000  0.000  0.000  0.053
  5  0.071  0.000  0.000  0.000  0.000  0.000  0.000  0.000  0.000  0.071
  6  0.071  0.000  0.000  0.000  0.000  0.000  0.000  0.000  0.000  0.071
  7  0.053  0.000  0.001  0.000  0.000  0.000  0.000  0.000  0.000  0.053
  8  0.053  0.000  0.001  0.000  0.000  0.000  0.000  0.000  0.000  0.053
  9  0.019  0.000  0.001  0.000  0.000  0.000  0.000  0.000  0.000  0.020
 10  0.019  0.000  0.001  0.000  0.000  0.000  0.000  0.000  0.000  0.020
 11  0.001  0.000  0.000  0.000  0.000  0.000  0.000  0.000  0.000  0.001
 12  0.001  0.000  0.000  0.000  0.000  0.000  0.000  0.000  0.000  0.001
 13  0.001  0.000  0.000  0.000  0.000  0.000  0.000  0.000  0.000  0.001
 14  0.001  0.000  0.000  0.000  0.000  0.000  0.000  0.000  0.000  0.001
tot  0.435  0.000  0.005  0.000  0.000  0.000  0.000  0.000  0.000  0.440
 
band   2 # energy  -11.16940944 # occ.  2.00000000
 
ion      s     py     pz     px    dxy    dyz    dz2    dxz    dx2    tot
  1  0.058  0.000  0.000  0.000  0.000  0.000  0.000  0.000  0.000  0.058
  2  0.058  0.000  0.000  0.000  0.000  0.000  0.000  0.000  0.000  0.058
  3  0.046  0.000  0.002  0.000  0.000  0.000  0.000  0.000  0.000  0.047
  4  0.046  0.000  0.002  0.000  0.000  0.000  0.000  0.000  0.000  0.047
  5  0.000  0.000  0.006  0.000  0.000  0.000  0.000  0.000  0.000  0.006
  6  0.000  0.000  0.006  0.000  0.000  0.000  0.000  0.000  0.000  0.006
  7  0.046  0.000  0.002  0.000  0.000  0.000  0.000  0.000  0.000  0.047
  8  0.046  0.000  0.002  0.000  0.000  0.000  0.000  0.000  0.000  0.047
  9  0.058  0.000  0.000  0.000  0.000  0.000  0.000  0.000  0.000  0.058
 10  0.058  0.000  0.000  0.000  0.000  0.000  0.000  0.000  0.000  0.058
 11  0.008  0.000  0.000  0.000  0.000  0.000  0.000  0.000  0.000  0.009
 12  0.008  0.000  0.000  0.000  0.000  0.000  0.000  0.000  0.000  0.009
 13  0.008  0.000  0.000  0.000  0.000  0.000  0.000  0.000  0.000  0.009
 14  0.008  0.000  0.000  0.000  0.000  0.000  0.000  0.000  0.000  0.009
tot  0.449  0.000  0.021  0.000  0.000  0.000  0.000  0.000  0.000  0.470
 
band   3 # energy   -9.45667827 # occ.  2.00000000
 
ion      s     py     pz     px    dxy    dyz    dz2    dxz    dx2    tot
  1  0.063  0.000  0.004  0.000  0.000  0.000  0.000  0.000  0.000  0.067
  2  0.063  0.000  0.004  0.000  0.000  0.000  0.000  0.000  0.000  0.067
  3  0.000  0.000  0.010  0.000  0.000  0.000  0.000  0.000  0.000  0.010
  4  0.000  0.000  0.010  0.000  0.000  0.000  0.000  0.000  0.000  0.010
  5  0.048  0.000  0.000  0.000  0.000  0.000  0.000  0.000  0.000  0.048
  6  0.048  0.000  0.000  0.000  0.000  0.000  0.000  0.000  0.000  0.048
  7  0.000  0.000  0.010  0.000  0.000  0.000  0.000  0.000  0.000  0.010
  8  0.000  0.000  0.010  0.000  0.000  0.000  0.000  0.000  0.000  0.010
  9  0.063  0.000  0.004  0.000  0.000  0.000  0.000  0.000  0.000  0.067
 10  0.063  0.000  0.004  0.000  0.000  0.000  0.000  0.000  0.000  0.067
 11  0.026  0.000  0.001  0.000  0.000  0.000  0.000  0.000  0.000  0.026
 12  0.026  0.000  0.001  0.000  0.000  0.000  0.000  0.000  0.000  0.026
 13  0.026  0.000  0.001  0.000  0.000  0.000  0.000  0.000  0.000  0.026
 14  0.026  0.000  0.001  0.000  0.000  0.000  0.000  0.000  0.000  0.026
tot  0.452  0.000  0.060  0.000  0.000  0.000  0.000  0.000  0.000  0.512
 
band   4 # energy   -9.03187807 # occ.  2.00000000
 
ion      s     py     pz     px    dxy    dyz    dz2    dxz    dx2    tot
  1  0.095  0.000  0.001  0.000  0.000  0.000  0.000  0.000  0.000  0.097
  2  0.095  0.000  0.001  0.000  0.000  0.000  0.000  0.000  0.000  0.097
  3  0.000  0.005  0.000  0.005  0.000  0.000  0.000  0.000  0.000  0.009
  4  0.000  0.005  0.000  0.005  0.000  0.000  0.000  0.000  0.000  0.009
  5  0.000  0.000  0.000  0.000  0.000  0.000  0.000  0.000  0.000  0.000
  6  0.000  0.000  0.000  0.000  0.000  0.000  0.000  0.000  0.000  0.000
  7  0.000  0.005  0.000  0.005  0.000  0.000  0.000  0.000  0.000  0.009
  8  0.000  0.005  0.000  0.005  0.000  0.000  0.000  0.000  0.000  0.009
  9  0.097  0.000  0.002  0.000  0.000  0.000  0.000  0.000  0.000  0.099
 10  0.097  0.000  0.002  0.000  0.000  0.000  0.000  0.000  0.000  0.099
 11  0.032  0.000  0.001  0.000  0.000  0.000  0.000  0.000  0.000  0.033
 12  0.032  0.000  0.001  0.000  0.000  0.000  0.000  0.000  0.000  0.033
 13  0.032  0.000  0.001  0.000  0.000  0.000  0.000  0.000  0.000  0.033
 14  0.032  0.000  0.001  0.000  0.000  0.000  0.000  0.000  0.000  0.033
tot  0.513  0.018  0.011  0.018  0.000  0.000  0.000  0.000  0.000  0.560
 
band   5 # energy   -8.97208785 # occ.  2.00000000
 
ion      s     py     pz     px    dxy    dyz    dz2    dxz    dx2    tot
  1  0.099  0.000  0.002  0.000  0.000  0.000  0.000  0.000  0.000  0.101
  2  0.099  0.000  0.002  0.000  0.000  0.000  0.000  0.000  0.000  0.101
  3  0.000  0.004  0.000  0.004  0.000  0.000  0.000  0.000  0.000  0.008
  4  0.000  0.004  0.000  0.004  0.000  0.000  0.000  0.000  0.000  0.008
  5  0.000  0.000  0.000  0.000  0.000  0.000  0.000  0.000  0.000  0.000
  6  0.000  0.000  0.000  0.000  0.000  0.000  0.000  0.000  0.000  0.000
  7  0.000  0.004  0.000  0.004  0.000  0.000  0.000  0.000  0.000  0.008
  8  0.000  0.004  0.000  0.004  0.000  0.000  0.000  0.000  0.000  0.008
  9  0.097  0.000  0.002  0.000  0.000  0.000  0.000  0.000  0.000  0.099
 10  0.097  0.000  0.002  0.000  0.000  0.000  0.000  0.000  0.000  0.099
 11  0.034  0.000  0.001  0.000  0.000  0.000  0.000  0.000  0.000  0.035
 12  0.034  0.000  0.001  0.000  0.000  0.000  0.000  0.000  0.000  0.035
 13  0.034  0.000  0.001  0.000  0.000  0.000  0.000  0.000  0.000  0.036
 14  0.034  0.000  0.001  0.000  0.000  0.000  0.000  0.000  0.000  0.036
tot  0.527  0.015  0.013  0.015  0.000  0.000  0.000  0.000  0.000  0.571
 
band   6 # energy   -8.80790252 # occ.  2.00000000
 
ion      s     py     pz     px    dxy    dyz    dz2    dxz    dx2    tot
  1  0.000  0.000  0.000  0.000  0.000  0.000  0.000  0.000  0.000  0.000
  2  0.000  0.000  0.000  0.000  0.000  0.000  0.000  0.000  0.000  0.000
  3  0.000  0.011  0.000  0.011  0.000  0.000  0.000  0.000  0.000  0.022
  4  0.000  0.011  0.000  0.011  0.000  0.000  0.000  0.000  0.000  0.022
  5  0.202  0.000  0.000  0.000  0.000  0.000  0.000  0.000  0.000  0.202
  6  0.202  0.000  0.000  0.000  0.000  0.000  0.000  0.000  0.000  0.202
  7  0.000  0.011  0.000  0.011  0.000  0.000  0.000  0.000  0.000  0.022
  8  0.000  0.011  0.000  0.011  0.000  0.000  0.000  0.000  0.000  0.022
  9  0.000  0.000  0.000  0.000  0.000  0.000  0.000  0.000  0.000  0.000
 10  0.000  0.000  0.000  0.000  0.000  0.000  0.000  0.000  0.000  0.000
 11  0.000  0.000  0.000  0.000  0.000  0.000  0.000  0.000  0.000  0.000
 12  0.000  0.000  0.000  0.000  0.000  0.000  0.000  0.000  0.000  0.000
 13  0.000  0.000  0.000  0.000  0.000  0.000  0.000  0.000  0.000  0.000
 14  0.000  0.000  0.000  0.000  0.000  0.000  0.000  0.000  0.000  0.000
tot  0.404  0.044  0.000  0.044  0.000  0.000  0.000  0.000  0.000  0.492
 
band   7 # energy   -8.77878644 # occ.  2.00000000
 
ion      s     py     pz     px    dxy    dyz    dz2    dxz    dx2    tot
  1  0.000  0.000  0.000  0.000  0.000  0.000  0.000  0.000  0.000  0.000
  2  0.000  0.000  0.000  0.000  0.000  0.000  0.000  0.000  0.000  0.000
  3  0.000  0.000  0.000  0.000  0.000  0.000  0.000  0.000  0.000  0.000
  4  0.000  0.000  0.000  0.000  0.000  0.000  0.000  0.000  0.000  0.000
  5  0.000  0.012  0.000  0.012  0.000  0.000  0.000  0.000  0.000  0.024
  6  0.000  0.012  0.000  0.012  0.000  0.000  0.000  0.000  0.000  0.024
  7  0.202  0.000  0.000  0.000  0.000  0.000  0.000  0.000  0.000  0.202
  8  0.202  0.000  0.000  0.000  0.000  0.000  0.000  0.000  0.000  0.202
  9  0.000  0.010  0.000  0.010  0.000  0.000  0.000  0.000  0.000  0.020
 10  0.000  0.010  0.000  0.010  0.000  0.000  0.000  0.000  0.000  0.020
 11  0.000  0.000  0.000  0.000  0.000  0.000  0.000  0.000  0.000  0.000
 12  0.000  0.000  0.000  0.000  0.000  0.000  0.000  0.000  0.000  0.000
 13  0.000  0.000  0.000  0.000  0.000  0.000  0.000  0.000  0.000  0.000
 14  0.000  0.000  0.000  0.000  0.000  0.000  0.000  0.000  0.000  0.000
tot  0.403  0.044  0.000  0.044  0.000  0.000  0.000  0.000  0.000  0.492
 
band   8 # energy   -8.77861610 # occ.  2.00000000
 
ion      s     py     pz     px    dxy    dyz    dz2    dxz    dx2    tot
  1  0.000  0.010  0.000  0.010  0.000  0.000  0.000  0.000  0.000  0.020
  2  0.000  0.010  0.000  0.010  0.000  0.000  0.000  0.000  0.000  0.020
  3  0.202  0.000  0.000  0.000  0.000  0.000  0.000  0.000  0.000  0.202
  4  0.202  0.000  0.000  0.000  0.000  0.000  0.000  0.000  0.000  0.202
  5  0.000  0.012  0.000  0.012  0.000  0.000  0.000  0.000  0.000  0.024
  6  0.000  0.012  0.000  0.012  0.000  0.000  0.000  0.000  0.000  0.024
  7  0.000  0.000  0.000  0.000  0.000  0.000  0.000  0.000  0.000  0.000
  8  0.000  0.000  0.000  0.000  0.000  0.000  0.000  0.000  0.000  0.000
  9  0.000  0.000  0.000  0.000  0.000  0.000  0.000  0.000  0.000  0.000
 10  0.000  0.000  0.000  0.000  0.000  0.000  0.000  0.000  0.000  0.000
 11  0.000  0.000  0.000  0.000  0.000  0.000  0.000  0.000  0.000  0.000
 12  0.000  0.000  0.000  0.000  0.000  0.000  0.000  0.000  0.000  0.000
 13  0.000  0.000  0.000  0.000  0.000  0.000  0.000  0.000  0.000  0.000
 14  0.000  0.000  0.000  0.000  0.000  0.000  0.000  0.000  0.000  0.000
tot  0.403  0.044  0.000  0.044  0.000  0.000  0.000  0.000  0.000  0.492
 
band   9 # energy   -7.65084142 # occ.  2.00000000
 
ion      s     py     pz     px    dxy    dyz    dz2    dxz    dx2    tot
  1  0.020  0.000  0.024  0.000  0.000  0.000  0.000  0.000  0.000  0.044
  2  0.020  0.000  0.024  0.000  0.000  0.000  0.000  0.000  0.000  0.044
  3  0.036  0.000  0.001  0.000  0.000  0.000  0.000  0.000  0.000  0.037
  4  0.036  0.000  0.001  0.000  0.000  0.000  0.000  0.000  0.000  0.037
  5  0.000  0.000  0.013  0.000  0.000  0.000  0.000  0.000  0.000  0.013
  6  0.000  0.000  0.013  0.000  0.000  0.000  0.000  0.000  0.000  0.013
  7  0.036  0.000  0.001  0.000  0.000  0.000  0.000  0.000  0.000  0.037
  8  0.036  0.000  0.001  0.000  0.000  0.000  0.000  0.000  0.000  0.037
  9  0.020  0.000  0.024  0.000  0.000  0.000  0.000  0.000  0.000  0.044
 10  0.020  0.000  0.024  0.000  0.000  0.000  0.000  0.000  0.000  0.044
 11  0.044  0.000  0.001  0.000  0.000  0.000  0.000  0.000  0.000  0.045
 12  0.044  0.000  0.001  0.000  0.000  0.000  0.000  0.000  0.000  0.045
 13  0.044  0.000  0.001  0.000  0.000  0.000  0.000  0.000  0.000  0.045
 14  0.044  0.000  0.001  0.000  0.000  0.000  0.000  0.000  0.000  0.045
tot  0.402  0.000  0.131  0.000  0.000  0.000  0.000  0.000  0.000  0.533
 
band  10 # energy   -5.62248950 # occ.  2.00000000
 
ion      s     py     pz     px    dxy    dyz    dz2    dxz    dx2    tot
  1  0.001  0.000  0.038  0.000  0.000  0.000  0.000  0.000  0.000  0.038
  2  0.001  0.000  0.037  0.000  0.000  0.000  0.000  0.000  0.000  0.038
  3  0.012  0.000  0.014  0.000  0.000  0.000  0.000  0.000  0.000  0.026
  4  0.012  0.000  0.014  0.000  0.000  0.000  0.000  0.000  0.000  0.026
  5  0.042  0.000  0.000  0.000  0.000  0.000  0.000  0.000  0.000  0.042
  6  0.042  0.000  0.000  0.000  0.000  0.000  0.000  0.000  0.000  0.042
  7  0.012  0.000  0.014  0.000  0.000  0.000  0.000  0.000  0.000  0.026
  8  0.012  0.000  0.014  0.000  0.000  0.000  0.000  0.000  0.000  0.026
  9  0.001  0.000  0.038  0.000  0.000  0.000  0.000  0.000  0.000  0.038
 10  0.001  0.000  0.037  0.000  0.000  0.000  0.000  0.000  0.000  0.038
 11  0.043  0.000  0.001  0.000  0.000  0.000  0.000  0.000  0.000  0.044
 12  0.043  0.000  0.001  0.000  0.000  0.000  0.000  0.000  0.000  0.044
 13  0.043  0.000  0.001  0.000  0.000  0.000  0.000  0.000  0.000  0.044
 14  0.043  0.000  0.001  0.000  0.000  0.000  0.000  0.000  0.000  0.044
tot  0.306  0.000  0.208  0.000  0.000  0.000  0.000  0.000  0.000  0.514
 
band  11 # energy   -5.51724440 # occ.  2.00000000
 
ion      s     py     pz     px    dxy    dyz    dz2    dxz    dx2    tot
  1  0.001  0.000  0.045  0.000  0.000  0.000  0.000  0.000  0.000  0.047
  2  0.001  0.000  0.046  0.000  0.000  0.000  0.000  0.000  0.000  0.047
  3  0.000  0.013  0.000  0.013  0.000  0.000  0.000  0.000  0.000  0.025
  4  0.000  0.013  0.000  0.013  0.000  0.000  0.000  0.000  0.000  0.025
  5  0.000  0.000  0.000  0.000  0.000  0.000  0.000  0.000  0.000  0.000
  6  0.000  0.000  0.000  0.000  0.000  0.000  0.000  0.000  0.000  0.000
  7  0.000  0.013  0.000  0.013  0.000  0.000  0.000  0.000  0.000  0.025
  8  0.000  0.013  0.000  0.013  0.000  0.000  0.000  0.000  0.000  0.025
  9  0.001  0.000  0.046  0.000  0.000  0.000  0.000  0.000  0.000  0.047
 10  0.001  0.000  0.046  0.000  0.000  0.000  0.000  0.000  0.000  0.047
 11  0.040  0.000  0.001  0.000  0.000  0.000  0.000  0.000  0.000  0.041
 12  0.040  0.000  0.001  0.000  0.000  0.000  0.000  0.000  0.000  0.041
 13  0.040  0.000  0.001  0.000  0.000  0.000  0.000  0.000  0.000  0.041
 14  0.040  0.000  0.001  0.000  0.000  0.000  0.000  0.000  0.000  0.041
tot  0.166  0.050  0.185  0.050  0.000  0.000  0.000  0.000  0.000  0.451
 
band  12 # energy   -5.10171627 # occ.  2.00000000
 
ion      s     py     pz     px    dxy    dyz    dz2    dxz    dx2    tot
  1  0.004  0.000  0.051  0.000  0.000  0.000  0.000  0.000  0.000  0.056
  2  0.004  0.000  0.051  0.000  0.000  0.000  0.000  0.000  0.000  0.056
  3  0.000  0.012  0.000  0.012  0.000  0.000  0.000  0.000  0.000  0.024
  4  0.000  0.012  0.000  0.012  0.000  0.000  0.000  0.000  0.000  0.024
  5  0.000  0.000  0.000  0.000  0.000  0.000  0.000  0.000  0.000  0.000
  6  0.000  0.000  0.000  0.000  0.000  0.000  0.000  0.000  0.000  0.000
  7  0.000  0.012  0.000  0.012  0.000  0.000  0.000  0.000  0.000  0.024
  8  0.000  0.012  0.000  0.012  0.000  0.000  0.000  0.000  0.000  0.024
  9  0.004  0.000  0.051  0.000  0.000  0.000  0.000  0.000  0.000  0.056
 10  0.004  0.000  0.051  0.000  0.000  0.000  0.000  0.000  0.000  0.056
 11  0.043  0.000  0.001  0.000  0.000  0.000  0.000  0.000  0.000  0.043
 12  0.043  0.000  0.001  0.000  0.000  0.000  0.000  0.000  0.000  0.043
 13  0.043  0.000  0.001  0.000  0.000  0.000  0.000  0.000  0.000  0.043
 14  0.043  0.000  0.001  0.000  0.000  0.000  0.000  0.000  0.000  0.043
tot  0.189  0.048  0.207  0.048  0.000  0.000  0.000  0.000  0.000  0.491
 
band  13 # energy   -4.37036189 # occ.  2.00000000
 
ion      s     py     pz     px    dxy    dyz    dz2    dxz    dx2    tot
  1  0.000  0.002  0.000  0.002  0.000  0.000  0.000  0.000  0.000  0.003
  2  0.000  0.002  0.000  0.002  0.000  0.000  0.000  0.000  0.000  0.003
  3  0.000  0.000  0.000  0.000  0.000  0.000  0.000  0.000  0.000  0.000
  4  0.000  0.000  0.000  0.000  0.000  0.000  0.000  0.000  0.000  0.000
  5  0.000  0.024  0.000  0.024  0.000  0.000  0.000  0.000  0.000  0.047
  6  0.000  0.024  0.000  0.024  0.000  0.000  0.000  0.000  0.000  0.047
  7  0.001  0.000  0.081  0.000  0.000  0.000  0.000  0.000  0.000  0.082
  8  0.001  0.000  0.081  0.000  0.000  0.000  0.000  0.000  0.000  0.082
  9  0.000  0.023  0.000  0.023  0.000  0.000  0.000  0.000  0.000  0.046
 10  0.000  0.023  0.000  0.023  0.000  0.000  0.000  0.000  0.000  0.046
 11  0.000  0.000  0.000  0.000  0.000  0.000  0.000  0.000  0.000  0.000
 12  0.000  0.000  0.000  0.000  0.000  0.000  0.000  0.000  0.000  0.000
 13  0.000  0.000  0.000  0.000  0.000  0.000  0.000  0.000  0.000  0.000
 14  0.000  0.000  0.000  0.000  0.000  0.000  0.000  0.000  0.000  0.000
tot  0.002  0.097  0.163  0.097  0.000  0.000  0.000  0.000  0.000  0.359
 
band  14 # energy   -4.37017477 # occ.  2.00000000
 
ion      s     py     pz     px    dxy    dyz    dz2    dxz    dx2    tot
  1  0.000  0.023  0.000  0.023  0.000  0.000  0.000  0.000  0.000  0.046
  2  0.000  0.023  0.000  0.023  0.000  0.000  0.000  0.000  0.000  0.046
  3  0.001  0.000  0.081  0.000  0.000  0.000  0.000  0.000  0.000  0.082
  4  0.001  0.000  0.081  0.000  0.000  0.000  0.000  0.000  0.000  0.082
  5  0.000  0.024  0.000  0.024  0.000  0.000  0.000  0.000  0.000  0.047
  6  0.000  0.024  0.000  0.024  0.000  0.000  0.000  0.000  0.000  0.047
  7  0.000  0.000  0.000  0.000  0.000  0.000  0.000  0.000  0.000  0.000
  8  0.000  0.000  0.000  0.000  0.000  0.000  0.000  0.000  0.000  0.000
  9  0.000  0.002  0.000  0.002  0.000  0.000  0.000  0.000  0.000  0.003
 10  0.000  0.002  0.000  0.002  0.000  0.000  0.000  0.000  0.000  0.003
 11  0.000  0.000  0.000  0.000  0.000  0.000  0.000  0.000  0.000  0.000
 12  0.000  0.000  0.000  0.000  0.000  0.000  0.000  0.000  0.000  0.000
 13  0.000  0.000  0.000  0.000  0.000  0.000  0.000  0.000  0.000  0.000
 14  0.000  0.000  0.000  0.000  0.000  0.000  0.000  0.000  0.000  0.000
tot  0.002  0.097  0.163  0.097  0.000  0.000  0.000  0.000  0.000  0.359
 
band  15 # energy   -4.33158392 # occ.  2.00000000
 
ion      s     py     pz     px    dxy    dyz    dz2    dxz    dx2    tot
  1  0.000  0.000  0.000  0.000  0.000  0.000  0.000  0.000  0.000  0.000
  2  0.000  0.000  0.000  0.000  0.000  0.000  0.000  0.000  0.000  0.000
  3  0.000  0.024  0.000  0.024  0.000  0.000  0.000  0.000  0.000  0.049
  4  0.000  0.024  0.000  0.024  0.000  0.000  0.000  0.000  0.000  0.049
  5  0.000  0.000  0.085  0.000  0.000  0.000  0.000  0.000  0.000  0.085
  6  0.000  0.000  0.085  0.000  0.000  0.000  0.000  0.000  0.000  0.085
  7  0.000  0.024  0.000  0.024  0.000  0.000  0.000  0.000  0.000  0.049
  8  0.000  0.024  0.000  0.024  0.000  0.000  0.000  0.000  0.000  0.049
  9  0.000  0.000  0.000  0.000  0.000  0.000  0.000  0.000  0.000  0.000
 10  0.000  0.000  0.000  0.000  0.000  0.000  0.000  0.000  0.000  0.000
 11  0.000  0.000  0.000  0.000  0.000  0.000  0.000  0.000  0.000  0.000
 12  0.000  0.000  0.000  0.000  0.000  0.000  0.000  0.000  0.000  0.000
 13  0.000  0.000  0.000  0.000  0.000  0.000  0.000  0.000  0.000  0.000
 14  0.000  0.000  0.000  0.000  0.000  0.000  0.000  0.000  0.000  0.000
tot  0.000  0.098  0.171  0.098  0.000  0.000  0.000  0.000  0.000  0.366
 
band  16 # energy   -3.44307408 # occ.  2.00000000
 
ion      s     py     pz     px    dxy    dyz    dz2    dxz    dx2    tot
  1  0.000  0.003  0.000  0.003  0.000  0.000  0.000  0.000  0.000  0.006
  2  0.000  0.003  0.000  0.003  0.000  0.000  0.000  0.000  0.000  0.006
  3  0.000  0.026  0.000  0.026  0.000  0.000  0.000  0.000  0.000  0.052
  4  0.000  0.026  0.000  0.026  0.000  0.000  0.000  0.000  0.000  0.052
  5  0.000  0.035  0.000  0.035  0.000  0.000  0.000  0.000  0.000  0.070
  6  0.000  0.035  0.000  0.035  0.000  0.000  0.000  0.000  0.000  0.070
  7  0.000  0.025  0.000  0.025  0.000  0.000  0.000  0.000  0.000  0.050
  8  0.000  0.025  0.000  0.025  0.000  0.000  0.000  0.000  0.000  0.050
  9  0.000  0.013  0.000  0.013  0.000  0.000  0.000  0.000  0.000  0.026
 10  0.000  0.013  0.000  0.013  0.000  0.000  0.000  0.000  0.000  0.026
 11  0.000  0.000  0.000  0.000  0.000  0.000  0.000  0.000  0.000  0.000
 12  0.000  0.000  0.000  0.000  0.000  0.000  0.000  0.000  0.000  0.000
 13  0.000  0.000  0.000  0.000  0.000  0.000  0.000  0.000  0.000  0.000
 14  0.000  0.000  0.000  0.000  0.000  0.000  0.000  0.000  0.000  0.000
tot  0.000  0.202  0.000  0.202  0.000  0.000  0.000  0.000  0.000  0.404
 
band  17 # energy   -3.44300953 # occ.  2.00000000
 
ion      s     py     pz     px    dxy    dyz    dz2    dxz    dx2    tot
  1  0.000  0.013  0.000  0.013  0.000  0.000  0.000  0.000  0.000  0.025
  2  0.000  0.013  0.000  0.013  0.000  0.000  0.000  0.000  0.000  0.025
  3  0.000  0.025  0.000  0.025  0.000  0.000  0.000  0.000  0.000  0.050
  4  0.000  0.025  0.000  0.025  0.000  0.000  0.000  0.000  0.000  0.050
  5  0.000  0.035  0.000  0.035  0.000  0.000  0.000  0.000  0.000  0.070
  6  0.000  0.035  0.000  0.035  0.000  0.000  0.000  0.000  0.000  0.070
  7  0.000  0.026  0.000  0.026  0.000  0.000  0.000  0.000  0.000  0.052
  8  0.000  0.026  0.000  0.026  0.000  0.000  0.000  0.000  0.000  0.052
  9  0.000  0.003  0.000  0.003  0.000  0.000  0.000  0.000  0.000  0.006
 10  0.000  0.003  0.000  0.003  0.000  0.000  0.000  0.000  0.000  0.006
 11  0.000  0.000  0.000  0.000  0.000  0.000  0.000  0.000  0.000  0.000
 12  0.000  0.000  0.000  0.000  0.000  0.000  0.000  0.000  0.000  0.000
 13  0.000  0.000  0.000  0.000  0.000  0.000  0.000  0.000  0.000  0.000
 14  0.000  0.000  0.000  0.000  0.000  0.000  0.000  0.000  0.000  0.000
tot  0.000  0.202  0.000  0.202  0.000  0.000  0.000  0.000  0.000  0.404
 
band  18 # energy   -3.15612287 # occ.  2.00000000
 
ion      s     py     pz     px    dxy    dyz    dz2    dxz    dx2    tot
  1  0.015  0.000  0.021  0.000  0.000  0.000  0.000  0.000  0.000  0.036
  2  0.015  0.000  0.021  0.000  0.000  0.000  0.000  0.000  0.000  0.036
  3  0.013  0.000  0.029  0.000  0.000  0.000  0.000  0.000  0.000  0.042
  4  0.013  0.000  0.029  0.000  0.000  0.000  0.000  0.000  0.000  0.042
  5  0.000  0.000  0.035  0.000  0.000  0.000  0.000  0.000  0.000  0.035
  6  0.000  0.000  0.035  0.000  0.000  0.000  0.000  0.000  0.000  0.035
  7  0.013  0.000  0.029  0.000  0.000  0.000  0.000  0.000  0.000  0.042
  8  0.013  0.000  0.029  0.000  0.000  0.000  0.000  0.000  0.000  0.042
  9  0.015  0.000  0.021  0.000  0.000  0.000  0.000  0.000  0.000  0.036
 10  0.015  0.000  0.021  0.000  0.000  0.000  0.000  0.000  0.000  0.036
 11  0.023  0.000  0.000  0.000  0.000  0.000  0.000  0.000  0.000  0.023
 12  0.023  0.000  0.000  0.000  0.000  0.000  0.000  0.000  0.000  0.023
 13  0.023  0.000  0.000  0.000  0.000  0.000  0.000  0.000  0.000  0.023
 14  0.023  0.000  0.000  0.000  0.000  0.000  0.000  0.000  0.000  0.023
tot  0.205  0.000  0.274  0.000  0.000  0.000  0.000  0.000  0.000  0.479
 
band  19 # energy   -2.10829843 # occ.  2.00000000
 
ion      s     py     pz     px    dxy    dyz    dz2    dxz    dx2    tot
  1  0.000  0.006  0.000  0.006  0.000  0.000  0.000  0.000  0.000  0.013
  2  0.000  0.006  0.000  0.006  0.000  0.000  0.000  0.000  0.000  0.013
  3  0.000  0.026  0.000  0.026  0.000  0.000  0.000  0.000  0.000  0.051
  4  0.000  0.026  0.000  0.026  0.000  0.000  0.000  0.000  0.000  0.051
  5  0.000  0.008  0.000  0.008  0.000  0.000  0.000  0.000  0.000  0.016
  6  0.000  0.008  0.000  0.008  0.000  0.000  0.000  0.000  0.000  0.016
  7  0.000  0.028  0.000  0.028  0.000  0.000  0.000  0.000  0.000  0.057
  8  0.000  0.028  0.000  0.028  0.000  0.000  0.000  0.000  0.000  0.057
  9  0.000  0.036  0.000  0.036  0.000  0.000  0.000  0.000  0.000  0.072
 10  0.000  0.036  0.000  0.036  0.000  0.000  0.000  0.000  0.000  0.072
 11  0.000  0.000  0.000  0.000  0.000  0.000  0.000  0.000  0.000  0.000
 12  0.000  0.000  0.000  0.000  0.000  0.000  0.000  0.000  0.000  0.000
 13  0.000  0.000  0.000  0.000  0.000  0.000  0.000  0.000  0.000  0.000
 14  0.000  0.000  0.000  0.000  0.000  0.000  0.000  0.000  0.000  0.000
tot  0.000  0.209  0.000  0.209  0.000  0.000  0.000  0.000  0.000  0.418
 
band  20 # energy   -2.10813653 # occ.  2.00000000
 
ion      s     py     pz     px    dxy    dyz    dz2    dxz    dx2    tot
  1  0.000  0.036  0.000  0.036  0.000  0.000  0.000  0.000  0.000  0.072
  2  0.000  0.036  0.000  0.036  0.000  0.000  0.000  0.000  0.000  0.072
  3  0.000  0.028  0.000  0.028  0.000  0.000  0.000  0.000  0.000  0.057
  4  0.000  0.028  0.000  0.028  0.000  0.000  0.000  0.000  0.000  0.057
  5  0.000  0.008  0.000  0.008  0.000  0.000  0.000  0.000  0.000  0.016
  6  0.000  0.008  0.000  0.008  0.000  0.000  0.000  0.000  0.000  0.016
  7  0.000  0.026  0.000  0.026  0.000  0.000  0.000  0.000  0.000  0.051
  8  0.000  0.026  0.000  0.026  0.000  0.000  0.000  0.000  0.000  0.051
  9  0.000  0.006  0.000  0.006  0.000  0.000  0.000  0.000  0.000  0.013
 10  0.000  0.006  0.000  0.006  0.000  0.000  0.000  0.000  0.000  0.013
 11  0.000  0.000  0.000  0.000  0.000  0.000  0.000  0.000  0.000  0.000
 12  0.000  0.000  0.000  0.000  0.000  0.000  0.000  0.000  0.000  0.000
 13  0.000  0.000  0.000  0.000  0.000  0.000  0.000  0.000  0.000  0.000
 14  0.000  0.000  0.000  0.000  0.000  0.000  0.000  0.000  0.000  0.000
tot  0.000  0.209  0.000  0.209  0.000  0.000  0.000  0.000  0.000  0.418
 
band  21 # energy   -1.91751421 # occ.  2.00000000
 
ion      s     py     pz     px    dxy    dyz    dz2    dxz    dx2    tot
  1  0.000  0.003  0.000  0.003  0.000  0.000  0.000  0.000  0.000  0.006
  2  0.000  0.003  0.000  0.003  0.000  0.000  0.000  0.000  0.000  0.006
  3  0.003  0.000  0.009  0.000  0.000  0.000  0.000  0.000  0.000  0.013
  4  0.003  0.000  0.009  0.000  0.000  0.000  0.000  0.000  0.000  0.013
  5  0.000  0.000  0.000  0.000  0.000  0.000  0.000  0.000  0.000  0.000
  6  0.000  0.000  0.000  0.000  0.000  0.000  0.000  0.000  0.000  0.000
  7  0.000  0.000  0.000  0.000  0.000  0.000  0.000  0.000  0.000  0.000
  8  0.000  0.000  0.000  0.000  0.000  0.000  0.000  0.000  0.000  0.000
  9  0.000  0.053  0.000  0.053  0.000  0.000  0.000  0.000  0.000  0.106
 10  0.000  0.053  0.000  0.053  0.000  0.000  0.000  0.000  0.000  0.106
 11  0.000  0.000  0.000  0.000  0.000  0.000  0.000  0.000  0.000  0.001
 12  0.000  0.000  0.000  0.000  0.000  0.000  0.000  0.000  0.000  0.001
 13  0.000  0.000  0.000  0.000  0.000  0.000  0.000  0.000  0.000  0.000
 14  0.000  0.000  0.000  0.000  0.000  0.000  0.000  0.000  0.000  0.000
tot  0.007  0.113  0.019  0.113  0.000  0.000  0.000  0.000  0.000  0.253
 
band  22 # energy   -1.91714430 # occ.  2.00000000
 
ion      s     py     pz     px    dxy    dyz    dz2    dxz    dx2    tot
  1  0.000  0.053  0.000  0.053  0.000  0.000  0.000  0.000  0.000  0.106
  2  0.000  0.053  0.000  0.053  0.000  0.000  0.000  0.000  0.000  0.106
  3  0.000  0.000  0.000  0.000  0.000  0.000  0.000  0.000  0.000  0.000
  4  0.000  0.000  0.000  0.000  0.000  0.000  0.000  0.000  0.000  0.000
  5  0.000  0.000  0.000  0.000  0.000  0.000  0.000  0.000  0.000  0.000
  6  0.000  0.000  0.000  0.000  0.000  0.000  0.000  0.000  0.000  0.000
  7  0.003  0.000  0.009  0.000  0.000  0.000  0.000  0.000  0.000  0.013
  8  0.003  0.000  0.009  0.000  0.000  0.000  0.000  0.000  0.000  0.013
  9  0.000  0.003  0.000  0.003  0.000  0.000  0.000  0.000  0.000  0.006
 10  0.000  0.003  0.000  0.003  0.000  0.000  0.000  0.000  0.000  0.006
 11  0.000  0.000  0.000  0.000  0.000  0.000  0.000  0.000  0.000  0.000
 12  0.000  0.000  0.000  0.000  0.000  0.000  0.000  0.000  0.000  0.000
 13  0.000  0.000  0.000  0.000  0.000  0.000  0.000  0.000  0.000  0.001
 14  0.000  0.000  0.000  0.000  0.000  0.000  0.000  0.000  0.000  0.001
tot  0.007  0.113  0.019  0.113  0.000  0.000  0.000  0.000  0.000  0.253
 
band  23 # energy   -0.00163991 # occ.  0.00000000
 
ion      s     py     pz     px    dxy    dyz    dz2    dxz    dx2    tot
  1  0.005  0.000  0.005  0.000  0.000  0.000  0.000  0.000  0.000  0.010
  2  0.005  0.000  0.005  0.000  0.000  0.000  0.000  0.000  0.000  0.010
  3  0.000  0.000  0.019  0.000  0.000  0.000  0.000  0.000  0.000  0.019
  4  0.000  0.000  0.019  0.000  0.000  0.000  0.000  0.000  0.000  0.019
  5  0.037  0.000  0.000  0.000  0.000  0.000  0.000  0.000  0.000  0.037
  6  0.037  0.000  0.000  0.000  0.000  0.000  0.000  0.000  0.000  0.037
  7  0.000  0.000  0.019  0.000  0.000  0.000  0.000  0.000  0.000  0.019
  8  0.000  0.000  0.019  0.000  0.000  0.000  0.000  0.000  0.000  0.019
  9  0.005  0.000  0.005  0.000  0.000  0.000  0.000  0.000  0.000  0.010
 10  0.005  0.000  0.005  0.000  0.000  0.000  0.000  0.000  0.000  0.010
 11  0.002  0.000  0.000  0.000  0.000  0.000  0.000  0.000  0.000  0.002
 12  0.002  0.000  0.000  0.000  0.000  0.000  0.000  0.000  0.000  0.002
 13  0.002  0.000  0.000  0.000  0.000  0.000  0.000  0.000  0.000  0.002
 14  0.002  0.000  0.000  0.000  0.000  0.000  0.000  0.000  0.000  0.002
tot  0.103  0.000  0.095  0.000  0.000  0.000  0.000  0.000  0.000  0.197
 
band  24 # energy    0.24207708 # occ.  0.00000000
 
ion      s     py     pz     px    dxy    dyz    dz2    dxz    dx2    tot
  1  0.028  0.000  0.006  0.000  0.000  0.000  0.000  0.000  0.000  0.034
  2  0.028  0.000  0.006  0.000  0.000  0.000  0.000  0.000  0.000  0.034
  3  0.000  0.004  0.000  0.004  0.000  0.000  0.000  0.000  0.000  0.009
  4  0.000  0.004  0.000  0.004  0.000  0.000  0.000  0.000  0.000  0.009
  5  0.000  0.000  0.000  0.000  0.000  0.000  0.000  0.000  0.000  0.000
  6  0.000  0.000  0.000  0.000  0.000  0.000  0.000  0.000  0.000  0.000
  7  0.000  0.004  0.000  0.004  0.000  0.000  0.000  0.000  0.000  0.009
  8  0.000  0.004  0.000  0.004  0.000  0.000  0.000  0.000  0.000  0.009
  9  0.028  0.000  0.006  0.000  0.000  0.000  0.000  0.000  0.000  0.034
 10  0.028  0.000  0.006  0.000  0.000  0.000  0.000  0.000  0.000  0.034
 11  0.016  0.000  0.000  0.000  0.000  0.000  0.000  0.000  0.000  0.016
 12  0.016  0.000  0.000  0.000  0.000  0.000  0.000  0.000  0.000  0.016
 13  0.016  0.000  0.000  0.000  0.000  0.000  0.000  0.000  0.000  0.016
 14  0.016  0.000  0.000  0.000  0.000  0.000  0.000  0.000  0.000  0.016
tot  0.174  0.018  0.024  0.018  0.000  0.000  0.000  0.000  0.000  0.233
 
band  25 # energy    0.28326443 # occ.  0.00000000
 