Starting job 28277651 ("jobname") on c15-30 at Fri Oct 4 10:19:27 CEST 2019
 running on    4 total cores
 distrk:  each k-point on    4 cores,    1 groups
 distr:  one band on    2 cores,    2 groups
 using from now: INCAR     
 vasp.5.4.1 05Feb16 (build Mar 02 2016 14:09:44) complex                        
  
 POSCAR found type information on POSCAR  Si H 
 POSCAR found :  2 types and      14 ions
 LDA part: xc-table for Pade appr. of Perdew
 POSCAR, INCAR and KPOINTS ok, starting setup
 WARNING: small aliasing (wrap around) errors must be expected
 FFT: planning ...
 WAVECAR not read
 entering main loop
       N       E                     dE             d eps       ncg     rms          rms(c)
DAV:   1     0.144141303583E+03    0.14414E+03   -0.97524E+03   360   0.591E+02
DAV:   2    -0.487669618059E+02   -0.19291E+03   -0.18865E+03   476   0.151E+02
DAV:   3    -0.644019013229E+02   -0.15635E+02   -0.15445E+02   420   0.463E+01
DAV:   4    -0.649325945286E+02   -0.53069E+00   -0.52888E+00   576   0.101E+01
DAV:   5    -0.649440241110E+02   -0.11430E-01   -0.11426E-01   512   0.128E+00    0.921E+00
RMM:   6    -0.633811625096E+02    0.15629E+01   -0.10660E+00   371   0.335E+00    0.521E+00
RMM:   7    -0.626422726824E+02    0.73889E+00   -0.22234E+00   379   0.492E+00    0.651E-01
RMM:   8    -0.626203647338E+02    0.21908E-01   -0.14047E-01   421   0.125E+00    0.226E-01
RMM:   9    -0.626167249128E+02    0.36398E-02   -0.24925E-02   459   0.523E-01    0.147E-01
RMM:  10    -0.626170180074E+02   -0.29309E-03   -0.64327E-03   404   0.295E-01    0.687E-02
RMM:  11    -0.626170725358E+02   -0.54528E-04   -0.12228E-03   441   0.105E-01    0.430E-02
RMM:  12    -0.626191447072E+02   -0.20722E-02   -0.28487E-03   401   0.133E-01    0.319E-02
RMM:  13    -0.626191029886E+02    0.41719E-04   -0.10267E-04   439   0.414E-02    0.183E-02
RMM:  14    -0.626197058775E+02   -0.60289E-03   -0.48057E-04   403   0.555E-02    0.158E-02
RMM:  15    -0.626196770798E+02    0.28798E-04   -0.39972E-05   412   0.188E-02    0.758E-03
RMM:  16    -0.626197358535E+02   -0.58774E-04   -0.63644E-05   413   0.215E-02    0.393E-03
RMM:  17    -0.626198187776E+02   -0.82924E-04   -0.43277E-06   341   0.668E-03    0.289E-03
RMM:  18    -0.626200075652E+02   -0.18879E-03   -0.25318E-05   346   0.129E-02    0.250E-03
RMM:  19    -0.626200184795E+02   -0.10914E-04   -0.15496E-06   285   0.335E-03    0.155E-03
RMM:  20    -0.626200456774E+02   -0.27198E-04   -0.27701E-06   285   0.475E-03    0.701E-04
RMM:  21    -0.626200472120E+02   -0.15346E-05   -0.22778E-07   222   0.178E-03    0.509E-04
RMM:  22    -0.626200482709E+02   -0.10590E-05   -0.11214E-07   190   0.142E-03    0.723E-05
RMM:  23    -0.626200483560E+02   -0.85060E-07   -0.32875E-08   123   0.104E-03
   1 F= -.62620048E+02 E0= -.62609937E+02  d E =-.202228E-01

Currently Loaded Modulefiles:
  1) Anaconda3/5.1.0       3) vesta/3.3.8           5) intel/2016.1
  2) gnuplot/5.0.4         4) imagemagick/6.7.9-0   6) vasp/5.4.1.Feb16

Job script resource usage:
       JobID  MaxVMSize     MaxRSS 
------------ ---------- ---------- 
28277651.ba+    216884K      2298K 

Job step resource usage:
       JobID    JobName  AllocCPUS  MaxVMSize     MaxRSS    Elapsed ExitCode 
------------ ---------- ---------- ---------- ---------- ---------- -------- 
28277651        jobname          4                         00:00:16      0:0 
28277651.0    pmi_proxy          1    279832K       517K   00:00:14      0:0 

Job 28277651 ("jobname") completed on c15-30 at Fri Oct 4 10:19:43 CEST 2019
