unknown system                          
           1
     5.431010    0.000000    0.000000
     0.000000    5.431010    0.000000
     0.000000    0.000000   21.591010
   Si   H 
  10   4
Direct configuration=     1
   0.00000000  0.00000000  0.00000000
   0.49999908  0.49999908  0.00000000
   0.24999954  0.24999954  0.06288497
   0.75000046  0.75000046  0.06288497
   0.00000000  0.49999908  0.12576994
   0.49999908  0.00000000  0.12576994
   0.24999954  0.75000046  0.18865537
   0.75000046  0.24999954  0.18865537
   0.00000000  0.00000000  0.25154034
   0.49999908  0.49999908  0.25154034
   0.00000000  0.00000000  0.31638214
   0.49999908  0.49999908  0.31638214
   0.00000000  0.00000000  0.93515773
   0.49999908  0.49999908  0.93515773
