  20  20   0   0
  0.1957362E+02  0.3905268E-09  0.3905268E-09  0.2566844E-08  0.5000000E-15
  1.000000000000000E-004
  CAR 
 unknown system                          
      9.67197621    -35.85215119  301      0.60508750      1.00000000
    -35.852  0.0000E+00  0.0000E+00
    -35.700  0.0000E+00  0.0000E+00
    -35.549  0.0000E+00  0.0000E+00
    -35.397  0.0000E+00  0.0000E+00
    -35.245  0.0000E+00  0.0000E+00
    -35.093  0.0000E+00  0.0000E+00
    -34.942  0.0000E+00  0.0000E+00
    -34.790  0.0000E+00  0.0000E+00
    -34.638  0.0000E+00  0.0000E+00
    -34.486  0.0000E+00  0.0000E+00
    -34.335  0.0000E+00  0.0000E+00
    -34.183  0.0000E+00  0.0000E+00
    -34.031  0.0000E+00  0.0000E+00
    -33.879  0.0000E+00  0.0000E+00
    -33.728  0.0000E+00  0.2000E+01
    -33.576  0.0000E+00  0.2000E+01
    -33.424  0.0000E+00  0.2000E+01
    -33.272  0.0000E+00  0.2000E+01
    -33.121  0.0000E+00  0.2000E+01
    -32.969  0.0000E+00  0.2000E+01
    -32.817  0.0000E+00  0.2000E+01
    -32.665  0.0000E+00  0.6000E+01
    -32.514  0.0000E+00  0.8000E+01
    -32.362  0.0000E+00  0.8000E+01
    -32.210  0.0000E+00  0.8000E+01
    -32.058  0.0000E+00  0.8000E+01
    -31.907  0.0000E+00  0.8000E+01
    -31.755  0.0000E+00  0.8000E+01
    -31.603  0.0000E+00  0.8000E+01
    -31.451  0.0000E+00  0.8000E+01
    -31.300  0.0000E+00  0.8000E+01
    -31.148  0.0000E+00  0.8000E+01
    -30.996  0.0000E+00  0.8000E+01
    -30.844  0.0000E+00  0.8000E+01
    -30.693  0.0000E+00  0.8000E+01
    -30.541  0.0000E+00  0.8000E+01
    -30.389  0.0000E+00  0.8000E+01
    -30.238  0.0000E+00  0.8000E+01
    -30.086  0.0000E+00  0.8000E+01
    -29.934  0.0000E+00  0.8000E+01
    -29.782  0.0000E+00  0.8000E+01
    -29.631  0.0000E+00  0.8000E+01
    -29.479  0.0000E+00  0.8000E+01
    -29.327  0.0000E+00  0.8000E+01
    -29.175  0.0000E+00  0.8000E+01
    -29.024  0.0000E+00  0.8000E+01
    -28.872  0.0000E+00  0.8000E+01
    -28.720  0.0000E+00  0.8000E+01
    -28.568  0.0000E+00  0.8000E+01
    -28.417  0.0000E+00  0.8000E+01
    -28.265  0.0000E+00  0.8000E+01
    -28.113  0.0000E+00  0.8000E+01
    -27.961  0.0000E+00  0.8000E+01
    -27.810  0.0000E+00  0.8000E+01
    -27.658  0.0000E+00  0.8000E+01
    -27.506  0.0000E+00  0.8000E+01
    -27.354  0.0000E+00  0.8000E+01
    -27.203  0.0000E+00  0.8000E+01
    -27.051  0.0000E+00  0.8000E+01
    -26.899  0.0000E+00  0.8000E+01
    -26.747  0.0000E+00  0.8000E+01
    -26.596  0.0000E+00  0.8000E+01
    -26.444  0.0000E+00  0.8000E+01
    -26.292  0.0000E+00  0.8000E+01
    -26.140  0.0000E+00  0.8000E+01
    -25.989  0.0000E+00  0.8000E+01
    -25.837  0.0000E+00  0.8000E+01
    -25.685  0.0000E+00  0.8000E+01
    -25.533  0.0000E+00  0.8000E+01
    -25.382  0.0000E+00  0.8000E+01
    -25.230  0.0000E+00  0.8000E+01
    -25.078  0.0000E+00  0.8000E+01
    -24.926  0.0000E+00  0.8000E+01
    -24.775  0.0000E+00  0.8000E+01
    -24.623  0.0000E+00  0.8000E+01
    -24.471  0.0000E+00  0.8000E+01
    -24.319  0.0000E+00  0.8000E+01
    -24.168  0.0000E+00  0.8000E+01
    -24.016  0.0000E+00  0.8000E+01
    -23.864  0.0000E+00  0.8000E+01
    -23.712  0.0000E+00  0.8000E+01
    -23.561  0.0000E+00  0.8000E+01
    -23.409  0.0000E+00  0.8000E+01
    -23.257  0.0000E+00  0.8000E+01
    -23.105  0.0000E+00  0.8000E+01
    -22.954  0.0000E+00  0.8000E+01
    -22.802  0.0000E+00  0.8000E+01
    -22.650  0.0000E+00  0.8000E+01
    -22.498  0.0000E+00  0.8000E+01
    -22.347  0.0000E+00  0.8000E+01
    -22.195  0.0000E+00  0.8000E+01
    -22.043  0.0000E+00  0.8000E+01
    -21.891  0.0000E+00  0.8000E+01
    -21.740  0.0000E+00  0.8000E+01
    -21.588  0.0000E+00  0.8000E+01
    -21.436  0.0000E+00  0.8000E+01
    -21.284  0.0000E+00  0.8000E+01
    -21.133  0.0000E+00  0.8000E+01
    -20.981  0.0000E+00  0.8000E+01
    -20.829  0.0000E+00  0.8000E+01
    -20.677  0.0000E+00  0.8000E+01
    -20.526  0.0000E+00  0.8000E+01
    -20.374  0.0000E+00  0.8000E+01
    -20.222  0.0000E+00  0.8000E+01
    -20.070  0.0000E+00  0.8000E+01
    -19.919  0.0000E+00  0.8000E+01
    -19.767  0.0000E+00  0.8000E+01
    -19.615  0.0000E+00  0.8000E+01
    -19.463  0.0000E+00  0.8000E+01
    -19.312  0.0000E+00  0.8000E+01
    -19.160  0.0000E+00  0.8000E+01
    -19.008  0.0000E+00  0.8000E+01
    -18.856  0.0000E+00  0.8000E+01
    -18.705  0.0000E+00  0.8000E+01
    -18.553  0.0000E+00  0.8000E+01
    -18.401  0.0000E+00  0.8000E+01
    -18.249  0.0000E+00  0.8000E+01
    -18.098  0.0000E+00  0.8000E+01
    -17.946  0.0000E+00  0.8000E+01
    -17.794  0.0000E+00  0.8000E+01
    -17.643  0.5290E+01  0.8146E+01
    -17.491  0.1046E+02  0.9633E+01
    -17.339  0.8077E+01  0.1132E+02
    -17.187  0.7739E+01  0.1241E+02
    -17.036  0.1824E+02  0.1348E+02
    -16.884  0.7660E+01  0.1483E+02
    -16.732  0.3510E+01  0.1557E+02
    -16.580  0.4441E+02  0.1929E+02
    -16.429  0.4682E+02  0.2513E+02
    -16.277  0.6259E+01  0.2677E+02
    -16.125  0.9084E+01  0.2884E+02
    -15.973  0.2636E+01  0.2986E+02
    -15.822  0.9538E+01  0.3241E+02
    -15.670  0.1456E+02  0.3437E+02
    -15.518  0.1372E+00  0.3601E+02
    -15.366  0.9757E+00  0.3610E+02
    -15.215  0.2029E+01  0.3631E+02
    -15.063  0.4316E+01  0.3670E+02
    -14.911  0.1579E+02  0.3801E+02
    -14.759  0.2459E+02  0.4158E+02
    -14.608  0.2787E+02  0.4741E+02
    -14.456  0.3022E+02  0.5192E+02
    -14.304  0.9483E+01  0.5581E+02
    -14.152  0.0000E+00  0.5600E+02
    -14.001  0.0000E+00  0.5600E+02
    -13.849  0.0000E+00  0.5600E+02
    -13.697  0.0000E+00  0.5600E+02
    -13.545  0.0000E+00  0.5600E+02
    -13.394  0.0000E+00  0.5600E+02
    -13.242  0.0000E+00  0.5600E+02
    -13.090  0.0000E+00  0.5600E+02
    -12.938  0.0000E+00  0.5600E+02
    -12.787  0.0000E+00  0.5600E+02
    -12.635  0.0000E+00  0.5600E+02
    -12.483  0.0000E+00  0.5600E+02
    -12.331  0.0000E+00  0.5600E+02
    -12.180  0.0000E+00  0.5600E+02
    -12.028  0.0000E+00  0.5600E+02
    -11.876  0.0000E+00  0.5600E+02
    -11.724  0.0000E+00  0.5600E+02
    -11.573  0.0000E+00  0.5600E+02
    -11.421  0.0000E+00  0.5600E+02
    -11.269  0.0000E+00  0.5600E+02
    -11.117  0.0000E+00  0.5600E+02
    -10.966  0.0000E+00  0.5600E+02
    -10.814  0.0000E+00  0.5600E+02
    -10.662  0.0000E+00  0.5600E+02
    -10.510  0.0000E+00  0.5600E+02
    -10.359  0.0000E+00  0.5600E+02
    -10.207  0.0000E+00  0.5600E+02
    -10.055  0.0000E+00  0.5600E+02
     -9.903  0.0000E+00  0.5600E+02
     -9.752  0.0000E+00  0.5600E+02
     -9.600  0.0000E+00  0.5600E+02
     -9.448  0.0000E+00  0.5600E+02
     -9.296  0.0000E+00  0.5600E+02
     -9.145  0.0000E+00  0.5600E+02
     -8.993  0.0000E+00  0.5600E+02
     -8.841  0.0000E+00  0.5600E+02
     -8.689  0.0000E+00  0.5600E+02
     -8.538  0.0000E+00  0.5600E+02
     -8.386  0.0000E+00  0.5600E+02
     -8.234  0.0000E+00  0.5600E+02
     -8.082  0.0000E+00  0.5600E+02
     -7.931  0.0000E+00  0.5600E+02
     -7.779  0.0000E+00  0.5600E+02
     -7.627  0.0000E+00  0.5600E+02
     -7.475  0.0000E+00  0.5600E+02
     -7.324  0.0000E+00  0.5600E+02
     -7.172  0.0000E+00  0.5600E+02
     -7.020  0.0000E+00  0.5600E+02
     -6.868  0.0000E+00  0.5600E+02
     -6.717  0.0000E+00  0.5600E+02
     -6.565  0.0000E+00  0.5600E+02
     -6.413  0.0000E+00  0.5600E+02
     -6.261  0.0000E+00  0.5600E+02
     -6.110  0.0000E+00  0.5600E+02
     -5.958  0.0000E+00  0.5600E+02
     -5.806  0.0000E+00  0.5600E+02
     -5.654  0.0000E+00  0.5600E+02
     -5.503  0.0000E+00  0.5600E+02
     -5.351  0.0000E+00  0.5600E+02
     -5.199  0.0000E+00  0.5600E+02
     -5.047  0.0000E+00  0.5600E+02
     -4.896  0.0000E+00  0.5600E+02
     -4.744  0.0000E+00  0.5600E+02
     -4.592  0.1665E+01  0.5606E+02
     -4.441  0.9925E+01  0.5726E+02
     -4.289  0.1561E+02  0.5961E+02
     -4.137  0.1633E+02  0.6210E+02
     -3.985  0.1379E+02  0.6448E+02
     -3.834  0.1303E+02  0.6673E+02
     -3.682  0.1465E+02  0.6906E+02
     -3.530  0.1555E+02  0.7155E+02
     -3.378  0.1930E+02  0.7459E+02
     -3.227  0.2205E+02  0.7770E+02
     -3.075  0.2717E+02  0.8160E+02
     -2.923  0.1972E+02  0.8519E+02
     -2.771  0.1169E+02  0.8759E+02
     -2.620  0.1368E+02  0.8976E+02
     -2.468  0.1223E+02  0.9173E+02
     -2.316  0.1288E+02  0.9362E+02
     -2.164  0.1124E+02  0.9559E+02
     -2.013  0.1036E+02  0.9726E+02
     -1.861  0.1046E+02  0.9882E+02
     -1.709  0.1141E+02  0.1004E+03
     -1.557  0.1754E+02  0.1025E+03
     -1.406  0.2664E+02  0.1049E+03
     -1.254  0.2312E+02  0.1082E+03
     -1.102  0.2435E+02  0.1111E+03
     -0.950  0.2167E+02  0.1150E+03
     -0.799  0.1007E+02  0.1177E+03
     -0.647  0.2390E+02  0.1204E+03
     -0.495  0.1655E+02  0.1233E+03
     -0.343  0.1322E+02  0.1253E+03
     -0.192  0.6724E+01  0.1269E+03
     -0.040  0.1285E+01  0.1274E+03
      0.112  0.1153E+01  0.1276E+03
      0.264  0.9481E+00  0.1278E+03
      0.415  0.7008E+00  0.1279E+03
      0.567  0.0000E+00  0.1280E+03
      0.719  0.0000E+00  0.1280E+03
      0.871  0.0000E+00  0.1280E+03
      1.022  0.0000E+00  0.1280E+03
      1.174  0.0000E+00  0.1280E+03
      1.326  0.0000E+00  0.1280E+03
      1.478  0.0000E+00  0.1280E+03
      1.629  0.1785E+00  0.1280E+03
      1.781  0.1892E+01  0.1281E+03
      1.933  0.3627E+01  0.1286E+03
      2.085  0.4633E+01  0.1292E+03
      2.236  0.4046E+01  0.1299E+03
      2.388  0.7782E+01  0.1307E+03
      2.540  0.7404E+01  0.1319E+03
      2.692  0.6458E+01  0.1329E+03
      2.843  0.9730E+01  0.1339E+03
      2.995  0.1045E+02  0.1355E+03
      3.147  0.1052E+02  0.1370E+03
      3.299  0.1217E+02  0.1388E+03
      3.450  0.2081E+02  0.1413E+03
      3.602  0.1465E+02  0.1441E+03
      3.754  0.1089E+02  0.1463E+03
      3.906  0.6001E+01  0.1478E+03
      4.057  0.1550E+01  0.1485E+03
      4.209  0.9334E+00  0.1487E+03
      4.361  0.9199E+00  0.1489E+03
      4.513  0.9064E+00  0.1490E+03
      4.664  0.8929E+00  0.1492E+03
      4.816  0.8794E+00  0.1493E+03
      4.968  0.8659E+00  0.1494E+03
      5.120  0.8524E+00  0.1496E+03
      5.271  0.8481E+00  0.1497E+03
      5.423  0.8440E+00  0.1498E+03
      5.575  0.8489E+00  0.1499E+03
      5.727  0.8709E+00  0.1501E+03
      5.878  0.8231E+00  0.1502E+03
      6.030  0.9255E+00  0.1503E+03
      6.182  0.7892E+00  0.1504E+03
      6.334  0.9996E+00  0.1506E+03
      6.485  0.8475E+00  0.1508E+03
      6.637  0.8119E+00  0.1509E+03
      6.789  0.8018E+00  0.1510E+03
      6.941  0.8009E+00  0.1511E+03
      7.092  0.8674E+00  0.1512E+03
      7.244  0.1298E+01  0.1514E+03
      7.396  0.1114E+01  0.1517E+03
      7.548  0.1314E+01  0.1519E+03
      7.699  0.0000E+00  0.1520E+03
      7.851  0.0000E+00  0.1520E+03
      8.003  0.0000E+00  0.1520E+03
      8.155  0.0000E+00  0.1520E+03
      8.306  0.0000E+00  0.1520E+03
      8.458  0.0000E+00  0.1520E+03
      8.610  0.0000E+00  0.1520E+03
      8.761  0.0000E+00  0.1520E+03
      8.913  0.0000E+00  0.1520E+03
      9.065  0.0000E+00  0.1520E+03
      9.217  0.0000E+00  0.1520E+03
      9.368  0.0000E+00  0.1520E+03
      9.520  0.0000E+00  0.1520E+03
      9.672  0.0000E+00  0.1520E+03
