 vasp.5.4.4.18Apr17-6-g9f103f2a35 (build Jun 30 2017 11:15:00) complex          
  
 executed on    STALLO_VASP_5.4.4 date 2019.11.06  13:16:03
 running on    4 total cores
 distrk:  each k-point on    4 cores,    1 groups
 distr:  one band on NCORES_PER_BAND=   2 cores,    2 groups


--------------------------------------------------------------------------------------------------------


 INCAR:
 POTCAR:   PAW_PBE O 08Apr2002                    
 POTCAR:   PAW_PBE Sr_sv 07Sep2000                
 POTCAR:   PAW_PBE Ti 08Apr2002                   
 POTCAR:   PAW_PBE O 08Apr2002                    
   VRHFIN =O: s2p4                                                              
   LEXCH  = PE                                                                  
   EATOM  =   432.3788 eV,   31.7789 Ry                                         
                                                                                
   TITEL  = PAW_PBE O 08Apr2002                                                 
   LULTRA =        F    use ultrasoft PP ?                                      
   IUNSCR =        0    unscreen: 0-lin 1-nonlin 2-no                           
   RPACOR =     .000    partial core radius                                     
   POMASS =   16.000; ZVAL   =    6.000    mass and valenz                      
   RCORE  =    1.520    outmost cutoff radius                                   
   RWIGS  =    1.550; RWIGS  =     .820    wigner-seitz radius (au A)           
   ENMAX  =  400.000; ENMIN  =  300.000 eV                                      
   ICORE  =        2    local potential                                         
   LCOR   =        T    correct aug charges                                     
   LPAW   =        T    paw PP                                                  
   EAUG   =  605.392                                                            
   DEXC   =     .000                                                            
   RMAX   =    2.264    core radius for proj-oper                               
   RAUG   =    1.300    factor for augmentation sphere                          
   RDEP   =    1.550    radius for radial grids                                 
   QCUT   =   -5.520; QGAM   =   11.041    optimization parameters              
                                                                                
   Description                                                                  
     l     E      TYP  RCUT    TYP  RCUT                                        
     0   .000     23  1.200                                                     
     0  -.700     23  1.200                                                     
     1   .000     23  1.520                                                     
     1   .600     23  1.520                                                     
     2   .000      7  1.500                                                     
  local pseudopotential read in
  atomic valenz-charges read in
  non local Contribution for L=           0  read in
    real space projection operators read in
  non local Contribution for L=           0  read in
    real space projection operators read in
  non local Contribution for L=           1  read in
    real space projection operators read in
  non local Contribution for L=           1  read in
    real space projection operators read in
    PAW grid and wavefunctions read in
 
   number of l-projection  operators is LMAX  =           4
   number of lm-projection operators is LMMAX =           8
 
 POTCAR:   PAW_PBE Sr_sv 07Sep2000                
   VRHFIN =Sr: 4s4p5s                                                           
   LEXCH  = PE                                                                  
   EATOM  =   842.4562 eV,   61.9188 Ry                                         
                                                                                
   TITEL  = PAW_PBE Sr_sv 07Sep2000                                             
   LULTRA =        F    use ultrasoft PP ?                                      
   IUNSCR =        1    unscreen: 0-lin 1-nonlin 2-no                           
   RPACOR =    2.200    partial core radius                                     
   POMASS =   87.620; ZVAL   =   10.000    mass and valenz                      
   RCORE  =    2.500    outmost cutoff radius                                   
   RWIGS  =    4.040; RWIGS  =    2.138    wigner-seitz radius (au A)           
   ENMAX  =  229.282; ENMIN  =  171.961 eV                                      
   RCLOC  =    2.201    cutoff for local pot                                    
   LCOR   =        T    correct aug charges                                     
   LPAW   =        T    paw PP                                                  
   EAUG   =  366.804                                                            
   DEXC   =     .000                                                            
   RMAX   =    3.045    core radius for proj-oper                               
   RAUG   =    1.300    factor for augmentation sphere                          
   RDEP   =    2.562    radius for radial grids                                 
   QCUT   =   -4.105; QGAM   =    8.210    optimization parameters              
                                                                                
   Description                                                                  
     l     E      TYP  RCUT    TYP  RCUT                                        
     0   .000     23  2.480                                                     
     0   .000     23  2.480                                                     
     1   .000     23  2.500                                                     
     1   .000     23  2.500                                                     
     2   .000     23  2.500                                                     
     2   .000     23  2.500                                                     
  local pseudopotential read in
  partial core-charges read in
  atomic valenz-charges read in
  non local Contribution for L=           0  read in
    real space projection operators read in
  non local Contribution for L=           0  read in
    real space projection operators read in
  non local Contribution for L=           1  read in
    real space projection operators read in
  non local Contribution for L=           1  read in
    real space projection operators read in
  non local Contribution for L=           2  read in
    real space projection operators read in
  non local Contribution for L=           2  read in
    real space projection operators read in
    PAW grid and wavefunctions read in
 
   number of l-projection  operators is LMAX  =           6
   number of lm-projection operators is LMMAX =          18
 
 POTCAR:   PAW_PBE Ti 08Apr2002                   
   VRHFIN =Ti: d3 s1                                                            
   LEXCH  = PE                                                                  
   EATOM  =    94.7929 eV,    6.9671 Ry                                         
                                                                                
   TITEL  = PAW_PBE Ti 08Apr2002                                                
   LULTRA =        F    use ultrasoft PP ?                                      
   IUNSCR =        1    unscreen: 0-lin 1-nonlin 2-no                           
   RPACOR =    2.200    partial core radius                                     
   POMASS =   47.880; ZVAL   =    4.000    mass and valenz                      
   RCORE  =    2.800    outmost cutoff radius                                   
   RWIGS  =    2.500; RWIGS  =    1.323    wigner-seitz radius (au A)           
   ENMAX  =  178.330; ENMIN  =  133.747 eV                                      
   RCLOC  =    2.215    cutoff for local pot                                    
   LCOR   =        T    correct aug charges                                     
   LPAW   =        T    paw PP                                                  
   EAUG   =  328.883                                                            
   DEXC   =    -.043                                                            
   RMAX   =    3.453    core radius for proj-oper                               
   RAUG   =    1.300    factor for augmentation sphere                          
   RDEP   =    2.885    radius for radial grids                                 
   QCUT   =   -3.620; QGAM   =    7.241    optimization parameters              
                                                                                
   Description                                                                  
     l     E      TYP  RCUT    TYP  RCUT                                        
     2   .000     23  2.800                                                     
     2   .000     23  2.800                                                     
     0   .000     23  2.800                                                     
     0  1.500     23  2.800                                                     
     1  -.400     23  2.800                                                     
     3   .000      7   .000                                                     
  local pseudopotential read in
  partial core-charges read in
  atomic valenz-charges read in
  non local Contribution for L=           2  read in
    real space projection operators read in
  non local Contribution for L=           2  read in
    real space projection operators read in
  non local Contribution for L=           0  read in
    real space projection operators read in
  non local Contribution for L=           0  read in
    real space projection operators read in
  non local Contribution for L=           1  read in
    real space projection operators read in
    PAW grid and wavefunctions read in
 
   number of l-projection  operators is LMAX  =           5
   number of lm-projection operators is LMMAX =          15
 

 ----------------------------------------------------------------------------- 
|                                                                             |
|  ADVICE TO THIS USER RUNNING 'VASP/VAMP'   (HEAR YOUR MASTER'S VOICE ...):  |
|                                                                             |
|      You have a (more or less) 'large supercell' and for larger cells       |
|      it might be more efficient to use real space projection operators      |
|      So try LREAL= Auto  in the INCAR   file.                               |
|      Mind: If you want to do a very accurate calculations keep the          |
|      reciprocal projection scheme          (i.e. LREAL=.FALSE.)             |
|                                                                             |
 ----------------------------------------------------------------------------- 

 PAW_PBE O 08Apr2002                    :
 energy of atom  1       EATOM= -432.3788
 kinetic energy error for atom=    0.0389 (will be added to EATOM!!)
 PAW_PBE Sr_sv 07Sep2000                :
 energy of atom  2       EATOM= -842.4562
 kinetic energy error for atom=    0.0019 (will be added to EATOM!!)
 PAW_PBE Ti 08Apr2002                   :
 energy of atom  3       EATOM=  -94.7929
 kinetic energy error for atom=    0.0002 (will be added to EATOM!!)
 
 
 POSCAR:  O Sr Ti                                
  positions in direct lattice
  No initial velocities read in
 exchange correlation table for  LEXCH =        8
   RHO(1)=    0.500       N(1)  =     2000
   RHO(2)=  100.500       N(2)  =     4000
 


--------------------------------------------------------------------------------------------------------


 ion  position               nearest neighbor table
   1  0.500  0.500  0.234-  17 1.95  13 2.76  13 2.76  13 2.76  13 2.76
   2  0.500  0.000  0.310-  17 1.95  17 1.95  13 2.76  14 2.76  13 2.76  14 2.76
   3  0.000  0.500  0.310-  17 1.95  17 1.95  13 2.76  13 2.76  14 2.76  14 2.76
   4  0.500  0.500  0.386-  17 1.95  18 1.95  14 2.76  14 2.76  14 2.76  14 2.76
   5  0.500  0.000  0.462-  18 1.95  18 1.95  15 2.76  15 2.76  14 2.76  14 2.76
   6  0.000  0.500  0.462-  18 1.95  18 1.95  15 2.76  15 2.76  14 2.76  14 2.76
   7  0.500  0.500  0.538-  18 1.95  19 1.95  15 2.76  15 2.76  15 2.76  15 2.76
   8  0.500  0.000  0.614-  19 1.95  19 1.95  16 2.76  16 2.76  15 2.76  15 2.76
   9  0.000  0.500  0.614-  19 1.95  19 1.95  16 2.76  16 2.76  15 2.76  15 2.76
  10  0.500  0.500  0.690-  19 1.95  20 1.95  16 2.76  16 2.76  16 2.76  16 2.76
  11  0.500  0.000  0.766-  20 1.95  20 1.95  16 2.76  16 2.76
  12  0.000  0.500  0.766-  20 1.95  20 1.95  16 2.76  16 2.76
  13  0.000  0.000  0.234-   2 2.76   3 2.76   3 2.76   2 2.76   1 2.76   1 2.76   1 2.76   1 2.76
                            17 3.38  17 3.38  17 3.38  17 3.38  14 3.91
  14  0.000  0.000  0.386-   2 2.76   3 2.76   3 2.76   2 2.76   4 2.76   4 2.76   4 2.76   4 2.76
                             5 2.76   6 2.76   5 2.76   6 2.76  17 3.38  17 3.38  17 3.38  17 3.38
  15  0.000  0.000  0.538-   5 2.76   6 2.76   6 2.76   5 2.76   7 2.76   7 2.76   7 2.76   7 2.76
                             8 2.76   9 2.76   8 2.76   9 2.76  18 3.38  18 3.38  18 3.38  18 3.38
  16  0.000  0.000  0.690-   8 2.76   9 2.76  11 2.76  12 2.76   9 2.76  12 2.76   8 2.76  11 2.76
                            10 2.76  10 2.76  10 2.76  10 2.76  20 3.38  19 3.38  19 3.38  19 3.38
  17  0.500  0.500  0.310-   1 1.95   4 1.95   3 1.95   2 1.95   2 1.95   3 1.95  13 3.38  13 3.38
                            14 3.38  14 3.38  13 3.38  14 3.38  13 3.38  14 3.38
  18  0.500  0.500  0.462-   7 1.95   6 1.95   5 1.95   5 1.95   6 1.95   4 1.95  15 3.38  15 3.38
                            15 3.38  15 3.38  14 3.38  14 3.38  14 3.38  14 3.38
  19  0.500  0.500  0.614-  10 1.95   9 1.95   8 1.95   8 1.95   9 1.95   7 1.95  16 3.38  16 3.38
                            16 3.38  16 3.38  15 3.38  15 3.38  15 3.38  15 3.38
  20  0.500  0.500  0.766-  10 1.95  11 1.95  12 1.95  11 1.95  12 1.95  16 3.38  16 3.38  16 3.38
                            16 3.38
 
  LATTYP: Found a simple tetragonal cell.
 ALAT       =     3.9052680000
 C/A-ratio  =     6.5727724704
  
  Lattice vectors:
  
 A1 = (   3.9052680000,   0.0000000000,   0.0000000000)
 A2 = (   0.0000000000,   3.9052680000,   0.0000000000)
 A3 = (   0.0000000000,   0.0000000000,  25.6684380000)


Analysis of symmetry for initial positions (statically):
=====================================================================
 Subroutine PRICEL returns:
 Original cell was already a primitive cell.
 

 Routine SETGRP: Setting up the symmetry group for a 
 simple tetragonal supercell.


 Subroutine GETGRP returns: Found  8 space group operations
 (whereof  8 operations were pure point group operations)
 out of a pool of 16 trial point group operations.


The static configuration has the point symmetry C_4v.


Analysis of symmetry for dynamics (positions and initial velocities):
=====================================================================
 Subroutine PRICEL returns:
 Original cell was already a primitive cell.
 

 Routine SETGRP: Setting up the symmetry group for a 
 simple tetragonal supercell.


 Subroutine GETGRP returns: Found  8 space group operations
 (whereof  8 operations were pure point group operations)
 out of a pool of 16 trial point group operations.


The dynamic configuration has the point symmetry C_4v.


 Subroutine INISYM returns: Found  8 space group operations
 (whereof  8 operations are pure point group operations),
 and found     1 'primitive' translations

 
 
 KPOINTS: k-density: 4.0                          

Automatic generation of k-mesh.
Space group operators:
 irot       det(A)        alpha          n_x          n_y          n_z        tau_x        tau_y        tau_z
    1     1.000000     0.000000     1.000000     0.000000     0.000000     0.000000     0.000000     0.000000
    2     1.000000    90.000000     0.000000     0.000000    -1.000000     0.000000     0.000000     0.000000
    3     1.000000   180.000000     0.000000     0.000000     1.000000     0.000000     0.000000     0.000000
    4     1.000000    90.000000     0.000000     0.000000     1.000000     0.000000     0.000000     0.000000
    5    -1.000000   180.000000     0.000000     1.000000     0.000000     0.000000     0.000000     0.000000
    6    -1.000000   180.000000     0.707107     0.707107     0.000000     0.000000     0.000000     0.000000
    7    -1.000000   180.000000     1.000000     0.000000     0.000000     0.000000     0.000000     0.000000
    8    -1.000000   180.000000     0.707107    -0.707107     0.000000     0.000000     0.000000     0.000000
 
 Subroutine IBZKPT returns following result:
 ===========================================
 
 Found     10 irreducible k-points:
 
 Following reciprocal coordinates:
            Coordinates               Weight
  0.000000  0.000000  0.000000      1.000000
  0.142857  0.000000  0.000000      4.000000
  0.285714  0.000000  0.000000      4.000000
  0.428571  0.000000  0.000000      4.000000
  0.142857  0.142857  0.000000      4.000000
  0.285714  0.142857  0.000000      8.000000
  0.428571  0.142857  0.000000      8.000000
  0.285714  0.285714  0.000000      4.000000
  0.428571  0.285714  0.000000      8.000000
  0.428571  0.428571  0.000000      4.000000
 
 Following cartesian coordinates:
            Coordinates               Weight
  0.000000  0.000000  0.000000      1.000000
  0.036581  0.000000  0.000000      4.000000
  0.073161  0.000000  0.000000      4.000000
  0.109742  0.000000  0.000000      4.000000
  0.036581  0.036581  0.000000      4.000000
  0.073161  0.036581  0.000000      8.000000
  0.109742  0.036581  0.000000      8.000000
  0.073161  0.073161  0.000000      4.000000
  0.109742  0.073161  0.000000      8.000000
  0.109742  0.109742  0.000000      4.000000
 
 TETIRR: Found     65 inequivalent tetrahedra from      294


--------------------------------------------------------------------------------------------------------




 Dimension of arrays:
   k-points           NKPTS =     10   k-points in BZ     NKDIM =     10   number of bands    NBANDS=     76
   number of dos      NEDOS =    301   number of ions     NIONS =     20
   non local maximal  LDIM  =      6   non local SUM 2l+1 LMDIM =     18
   total plane-waves  NPLWV =  56000
   max r-space proj   IRMAX =      1   max aug-charges    IRDMAX=  10078
   dimension x,y,z NGX =    20 NGY =   20 NGZ =  140
   dimension x,y,z NGXF=    40 NGYF=   40 NGZF=  280
   support grid    NGXF=    40 NGYF=   40 NGZF=  280
   ions per type =              12   4   4
   NGX,Y,Z   is equivalent  to a cutoff of   8.51,  8.51,  9.07 a.u.
   NGXF,Y,Z  is equivalent  to a cutoff of  17.03, 17.03, 18.13 a.u.

 SYSTEM =  unknown system                          
 POSCAR =   O Sr Ti                                

 Startparameter for this run:
   NWRITE =      2    write-flag & timer
   PREC   = normal    normal or accurate (medium, high low for compatibility)
   ISTART =      0    job   : 0-new  1-cont  2-samecut
   ICHARG =      2    charge: 1-file 2-atom 10-const
   ISPIN  =      1    spin polarized calculation?
   LNONCOLLINEAR =      F non collinear calculations
   LSORBIT =      F    spin-orbit coupling
   INIWAV =      1    electr: 0-lowe 1-rand  2-diag
   LASPH  =      F    aspherical Exc in radial PAW
   METAGGA=      F    non-selfconsistent MetaGGA calc.

 Electronic Relaxation 1
   ENCUT  =  450.0 eV  33.07 Ry    5.75 a.u.   6.75  6.75 44.40*2*pi/ulx,y,z
   ENINI  =  450.0     initial cutoff
   ENAUG  =  605.4 eV  augmentation charge cutoff
   NELM   =     60;   NELMIN=  4; NELMDL= -5     # of ELM steps 
   EDIFF  = 0.1E-04   stopping-criterion for ELM
   LREAL  =      F    real-space projection
   NLSPLINE    = F    spline interpolate recip. space projectors
   LCOMPAT=      F    compatible to vasp.4.4
   GGA_COMPAT  = T    GGA compatible to vasp.4.4-vasp.4.6
   LMAXPAW     = -100 max onsite density
   LMAXMIX     =    2 max onsite mixed and CHGCAR
   VOSKOWN=      0    Vosko Wilk Nusair interpolation
   ROPT   =    0.00000   0.00000   0.00000
 Ionic relaxation
   EDIFFG = 0.1E-03   stopping-criterion for IOM
   NSW    =      0    number of steps for IOM
   NBLOCK =      1;   KBLOCK =      1    inner block; outer block 
   IBRION =     -1    ionic relax: 0-MD 1-quasi-New 2-CG
   NFREE  =      0    steps in history (QN), initial steepest desc. (CG)
   ISIF   =      2    stress and relaxation
   IWAVPR =     10    prediction:  0-non 1-charg 2-wave 3-comb
   ISYM   =      2    0-nonsym 1-usesym 2-fastsym
   LCORR  =      T    Harris-Foulkes like correction to forces

   POTIM  = 0.5000    time-step for ionic-motion
   TEIN   =    0.0    initial temperature
   TEBEG  =    0.0;   TEEND  =   0.0 temperature during run
   SMASS  =  -3.00    Nose mass-parameter (am)
   estimated Nose-frequenzy (Omega)   =  0.10E-29 period in steps =****** mass=  -0.349E-27a.u.
   SCALEE = 1.0000    scale energy and forces
   NPACO  =    256;   APACO  = 16.0  distance and # of slots for P.C.
   PSTRESS=    0.0 pullay stress

  Mass of Ions in am
   POMASS =  16.00 87.62 47.88
  Ionic Valenz
   ZVAL   =   6.00 10.00  4.00
  Atomic Wigner-Seitz radii
   RWIGS  =  -1.00 -1.00 -1.00
  virtual crystal weights 
   VCA    =   1.00  1.00  1.00
   NELECT =     128.0000    total number of electrons
   NUPDOWN=      -1.0000    fix difference up-down

 DOS related values:
   EMIN   =  10.00;   EMAX   =-10.00  energy-range for DOS
   EFERMI =   0.00
   ISMEAR =    -5;   SIGMA  =   0.20  broadening in eV -4-tet -1-fermi 0-gaus

 Electronic relaxation 2 (details)
   IALGO  =     68    algorithm
   LDIAG  =      T    sub-space diagonalisation (order eigenvalues)
   LSUBROT=      F    optimize rotation matrix (better conditioning)
   TURBO    =      0    0=normal 1=particle mesh
   IRESTART =      0    0=no restart 2=restart with 2 vectors
   NREBOOT  =      0    no. of reboots
   NMIN     =      0    reboot dimension
   EREF     =   0.00    reference energy to select bands
   IMIX   =      4    mixing-type and parameters
     AMIX     =   0.40;   BMIX     =  1.00
     AMIX_MAG =   1.60;   BMIX_MAG =  1.00
     AMIN     =   0.10
     WC   =   100.;   INIMIX=   1;  MIXPRE=   1;  MAXMIX= -45

 Intra band minimization:
   WEIMIN = 0.0000     energy-eigenvalue tresh-hold
   EBREAK =  0.33E-07  absolut break condition
   DEPER  =   0.30     relativ break condition  

   TIME   =   0.40     timestep for ELM

  volume/ion in A,a.u.               =      19.57       132.09
  Fermi-wavevector in a.u.,A,eV,Ry     =   1.127832  2.131294 17.306682  1.272005
  Thomas-Fermi vector in A             =   2.264520
 
 Write flags
   LWAVE        =      F    write WAVECAR
   LDOWNSAMPLE  =      F    k-point downsampling of WAVECAR
   LCHARG       =      T    write CHGCAR
   LVTOT        =      F    write LOCPOT, total local potential
   LVHAR        =      F    write LOCPOT, Hartree potential only
   LELF         =      F    write electronic localiz. function (ELF)
   LORBIT       =      0    0 simple, 1 ext, 2 COOP (PROOUT), +10 PAW based schemes


 Dipole corrections
   LMONO  =      F    monopole corrections only (constant potential shift)
   LDIPOL =      F    correct potential (dipole corrections)
   IDIPOL =      0    1-x, 2-y, 3-z, 4-all directions 
   EPSILON=  1.0000000 bulk dielectric constant

 Exchange correlation treatment:
   GGA     =    --    GGA type
   LEXCH   =     8    internal setting for exchange type
   VOSKOWN=      0    Vosko Wilk Nusair interpolation
   LHFCALC =     F    Hartree Fock is set to
   LHFONE  =     F    Hartree Fock one center treatment
   AEXX    =    0.0000 exact exchange contribution

 Linear response parameters
   LEPSILON=     F    determine dielectric tensor
   LRPA    =     F    only Hartree local field effects (RPA)
   LNABLA  =     F    use nabla operator in PAW spheres
   LVEL    =     F    velocity operator in full k-point grid
   LINTERFAST=   F  fast interpolation
   KINTER  =     0    interpolate to denser k-point grid
   CSHIFT  =0.1000    complex shift for real part using Kramers Kronig
   OMEGAMAX=  -1.0    maximum frequency
   DEG_THRESHOLD= 0.2000000E-02 threshold for treating states as degnerate
   RTIME   =   -0.100 relaxation time in fs
  (WPLASMAI=    0.000 imaginary part of plasma frequency in eV, 0.658/RTIME)
   DFIELD  = 0.0000000 0.0000000 0.0000000 field for delta impulse in time
 
 Orbital magnetization related:
   ORBITALMAG=     F  switch on orbital magnetization
   LCHIMAG   =     F  perturbation theory with respect to B field
   DQ        =  0.001000  dq finite difference perturbation B field
   LLRAUG    =     F  two centre corrections for induced B field



--------------------------------------------------------------------------------------------------------


 Static calculation
 charge density and potential will be updated during run
 non-spin polarized calculation
 RMM-DIIS sequential band-by-band and
  variant of blocked Davidson during initial phase
 perform sub-space diagonalisation
    before iterative eigenvector-optimisation
 modified Broyden-mixing scheme, WC =      100.0
 initial mixing is a Kerker type mixing with AMIX =  0.4000 and BMIX =      1.0000
 Hartree-type preconditioning will be used
 using additional bands           12
 reciprocal scheme for non local part
 use partial core corrections
 calculate Harris-corrections to forces 
   (improved forces if not selfconsistent)
 use gradient corrections 
 use of overlap-Matrix (Vanderbilt PP)
 Fermi weights with tetrahedron method with Bloechl corrections


--------------------------------------------------------------------------------------------------------


  energy-cutoff  :      450.00
  volume of cell :      391.47
      direct lattice vectors                 reciprocal lattice vectors
     3.905268000  0.000000000  0.000000000     0.256064373  0.000000000  0.000000000
     0.000000000  3.905268000  0.000000000     0.000000000  0.256064373  0.000000000
     0.000000000  0.000000000 25.668438000     0.000000000  0.000000000  0.038958350

  length of vectors
     3.905268000  3.905268000 25.668438000     0.256064373  0.256064373  0.038958350


 
 k-points in units of 2pi/SCALE and weight: k-density: 4.0                          
   0.00000000  0.00000000  0.00000000       0.020
   0.03658062  0.00000000  0.00000000       0.082
   0.07316125  0.00000000  0.00000000       0.082
   0.10974187  0.00000000  0.00000000       0.082
   0.03658062  0.03658062  0.00000000       0.082
   0.07316125  0.03658062  0.00000000       0.163
   0.10974187  0.03658062  0.00000000       0.163
   0.07316125  0.07316125  0.00000000       0.082
   0.10974187  0.07316125  0.00000000       0.163
   0.10974187  0.10974187  0.00000000       0.082
 
 k-points in reciprocal lattice and weights: k-density: 4.0                          
   0.00000000  0.00000000  0.00000000       0.020
   0.14285714  0.00000000  0.00000000       0.082
   0.28571429  0.00000000  0.00000000       0.082
   0.42857143  0.00000000  0.00000000       0.082
   0.14285714  0.14285714  0.00000000       0.082
   0.28571429  0.14285714  0.00000000       0.163
   0.42857143  0.14285714  0.00000000       0.163
   0.28571429  0.28571429  0.00000000       0.082
   0.42857143  0.28571429  0.00000000       0.163
   0.42857143  0.42857143  0.00000000       0.082
 
 position of ions in fractional coordinates (direct lattice) 
   0.50000000  0.50000000  0.23375010
   0.50000000  0.00000000  0.30982150
   0.00000000  0.50000000  0.30982150
   0.50000000  0.50000000  0.38589290
   0.50000000  0.00000000  0.46196430
   0.00000000  0.50000000  0.46196430
   0.50000000  0.50000000  0.53803570
   0.50000000  0.00000000  0.61410710
   0.00000000  0.50000000  0.61410710
   0.50000000  0.50000000  0.69017850
   0.50000000  0.00000000  0.76624990
   0.00000000  0.50000000  0.76624990
   0.00000000  0.00000000  0.23375010
   0.00000000  0.00000000  0.38589290
   0.00000000  0.00000000  0.53803570
   0.00000000  0.00000000  0.69017850
   0.50000000  0.50000000  0.30982150
   0.50000000  0.50000000  0.46196430
   0.50000000  0.50000000  0.61410710
   0.50000000  0.50000000  0.76624990
 
 position of ions in cartesian coordinates  (Angst):
   1.95263400  1.95263400  6.00000000
   1.95263400  0.00000000  7.95263400
   0.00000000  1.95263400  7.95263400
   1.95263400  1.95263400  9.90526800
   1.95263400  0.00000000 11.85790200
   0.00000000  1.95263400 11.85790200
   1.95263400  1.95263400 13.81053600
   1.95263400  0.00000000 15.76317000
   0.00000000  1.95263400 15.76317000
   1.95263400  1.95263400 17.71580400
   1.95263400  0.00000000 19.66843800
   0.00000000  1.95263400 19.66843800
   0.00000000  0.00000000  6.00000000
   0.00000000  0.00000000  9.90526800
   0.00000000  0.00000000 13.81053600
   0.00000000  0.00000000 17.71580400
   1.95263400  1.95263400  7.95263400
   1.95263400  1.95263400 11.85790200
   1.95263400  1.95263400 15.76317000
   1.95263400  1.95263400 19.66843800
 


--------------------------------------------------------------------------------------------------------


 k-point  1 :   0.0000 0.0000 0.0000  plane waves:    8529
 k-point  2 :   0.1429 0.0000 0.0000  plane waves:    8491
 k-point  3 :   0.2857 0.0000 0.0000  plane waves:    8474
 k-point  4 :   0.4286 0.0000 0.0000  plane waves:    8472
 k-point  5 :   0.1429 0.1429 0.0000  plane waves:    8499
 k-point  6 :   0.2857 0.1429 0.0000  plane waves:    8489
 k-point  7 :   0.4286 0.1429 0.0000  plane waves:    8472
 k-point  8 :   0.2857 0.2857 0.0000  plane waves:    8474
 k-point  9 :   0.4286 0.2857 0.0000  plane waves:    8492
 k-point 10 :   0.4286 0.4286 0.0000  plane waves:    8524

 maximum and minimum number of plane-waves per node :      4284     4220

 maximum number of plane-waves:      8529
 maximum index in each direction: 
   IXMAX=    6   IYMAX=    6   IZMAX=   44
   IXMIN=   -7   IYMIN=   -7   IZMIN=  -44


 parallel 3D FFT for wavefunctions:
    minimum data exchange during FFTs selected (reduces bandwidth)
 parallel 3D FFT for charge:
    minimum data exchange during FFTs selected (reduces bandwidth)


 total amount of memory used by VASP MPI-rank0    89504. kBytes
=======================================================================

   base      :      30000. kBytes
   nonl-proj :      19775. kBytes
   fftplans  :       4639. kBytes
   grid      :       8329. kBytes
   one-center:        155. kBytes
   wavefun   :      26606. kBytes
 
     INWAV:  cpu time    0.0010: real time    0.0003
 Broyden mixing: mesh for mixing (old mesh)
   NGX = 13   NGY = 13   NGZ = 89
  (NGX  = 40   NGY  = 40   NGZ  =280)
  gives a total of  15041 points

 initial charge density was supplied:
 charge density of overlapping atoms calculated
 number of electron     128.0000000 magnetization 
 keeping initial charge density in first step


--------------------------------------------------------------------------------------------------------


 Maximum index for augmentation-charges         2434 (set IRDMAX)


--------------------------------------------------------------------------------------------------------


 First call to EWALD:  gamma=   0.242
 Maximum number of real-space cells 5x 5x 1
 Maximum number of reciprocal cells 2x 2x 8

    FEWALD:  cpu time    0.0030: real time    0.0020


--------------------------------------- Iteration      1(   1)  ---------------------------------------


    POTLOK:  cpu time    0.0690: real time    0.1134
    SETDIJ:  cpu time    0.0110: real time    0.0109
     EDDAV:  cpu time    4.3083: real time    4.3121
 BZINTS: Fermi energy: 15.037629;128.000000 electrons
         Band energy:  80.908363;  BLOECHL correction: -0.081275
       DOS:  cpu time    0.0070: real time    0.0073
    --------------------------------------------
      LOOP:  cpu time    4.3953: real time    4.4437

 eigenvalue-minimisations  :  1528
 total energy-change (2. order) : 0.1540055E+04  (-0.5336181E+04)
 number of electron     128.0000000 magnetization 
 augmentation part      128.0000000 magnetization 

 Free energy of the ion-electron system (eV)
  ---------------------------------------------------
  alpha Z        PSCENC =       451.31605171
  Ewald energy   TEWEN  =     24913.70541863
  -Hartree energ DENC   =    -33364.93616084
  -exchange      EXHF   =         0.00000000
  -V(xc)+E(xc)   XCENC  =       326.68104516
  PAW double counting   =      5334.45189010    -5139.13784255
  entropy T*S    EENTRO =         0.00000000
  eigenvalues    EBANDS =        80.90836277
  atomic energy  EATOM  =      8937.06598424
  Solvation  Ediel_sol  =         0.00000000
  ---------------------------------------------------
  free energy    TOTEN  =      1540.05474922 eV

  energy without entropy =     1540.05474922  energy(sigma->0) =     1540.05474922


--------------------------------------------------------------------------------------------------------




--------------------------------------- Iteration      1(   2)  ---------------------------------------


     EDDAV:  cpu time    4.9602: real time    4.9619
 BZINTS: Fermi energy:  4.766946;128.000000 electrons
         Band energy:***********;  BLOECHL correction: -0.069038
       DOS:  cpu time    0.0060: real time    0.0069
    --------------------------------------------
      LOOP:  cpu time    4.9662: real time    4.9688

 eigenvalue-minimisations  :  1804
 total energy-change (2. order) :-0.1381094E+04  (-0.1328438E+04)
 number of electron     128.0000000 magnetization 
 augmentation part      128.0000000 magnetization 

 Free energy of the ion-electron system (eV)
  ---------------------------------------------------
  alpha Z        PSCENC =       451.31605171
  Ewald energy   TEWEN  =     24913.70541863
  -Hartree energ DENC   =    -33364.93616084
  -exchange      EXHF   =         0.00000000
  -V(xc)+E(xc)   XCENC  =       326.68104516
  PAW double counting   =      5334.45189010    -5139.13784255
  entropy T*S    EENTRO =         0.00000000
  eigenvalues    EBANDS =     -1300.18547187
  atomic energy  EATOM  =      8937.06598424
  Solvation  Ediel_sol  =         0.00000000
  ---------------------------------------------------
  free energy    TOTEN  =       158.96091458 eV

  energy without entropy =      158.96091458  energy(sigma->0) =      158.96091458


--------------------------------------------------------------------------------------------------------




--------------------------------------- Iteration      1(   3)  ---------------------------------------


     EDDAV:  cpu time    5.4442: real time    5.4430
 BZINTS: Fermi energy: -2.363144;128.000000 electrons
         Band energy:***********;  BLOECHL correction:  0.000000
       DOS:  cpu time    0.0020: real time    0.0012
    --------------------------------------------
      LOOP:  cpu time    5.4462: real time    5.4442

 eigenvalue-minimisations  :  2028
 total energy-change (2. order) :-0.3360127E+03  (-0.3279931E+03)
 number of electron     128.0000000 magnetization 
 augmentation part      128.0000000 magnetization 

 Free energy of the ion-electron system (eV)
  ---------------------------------------------------
  alpha Z        PSCENC =       451.31605171
  Ewald energy   TEWEN  =     24913.70541863
  -Hartree energ DENC   =    -33364.93616084
  -exchange      EXHF   =         0.00000000
  -V(xc)+E(xc)   XCENC  =       326.68104516
  PAW double counting   =      5334.45189010    -5139.13784255
  entropy T*S    EENTRO =         0.00000000
  eigenvalues    EBANDS =     -1636.19814218
  atomic energy  EATOM  =      8937.06598424
  Solvation  Ediel_sol  =         0.00000000
  ---------------------------------------------------
  free energy    TOTEN  =      -177.05175573 eV

  energy without entropy =     -177.05175573  energy(sigma->0) =     -177.05175573


--------------------------------------------------------------------------------------------------------




--------------------------------------- Iteration      1(   4)  ---------------------------------------


     EDDAV:  cpu time    5.3732: real time    5.3727
 BZINTS: Fermi energy: -4.188365;128.000000 electrons
         Band energy:***********;  BLOECHL correction:  0.000000
       DOS:  cpu time    0.0010: real time    0.0014
    --------------------------------------------
      LOOP:  cpu time    5.3742: real time    5.3741

 eigenvalue-minimisations  :  1976
 total energy-change (2. order) :-0.2325928E+02  (-0.2316125E+02)
 number of electron     128.0000000 magnetization 
 augmentation part      128.0000000 magnetization 

 Free energy of the ion-electron system (eV)
  ---------------------------------------------------
  alpha Z        PSCENC =       451.31605171
  Ewald energy   TEWEN  =     24913.70541863
  -Hartree energ DENC   =    -33364.93616084
  -exchange      EXHF   =         0.00000000
  -V(xc)+E(xc)   XCENC  =       326.68104516
  PAW double counting   =      5334.45189010    -5139.13784255
  entropy T*S    EENTRO =         0.00000000
  eigenvalues    EBANDS =     -1659.45741862
  atomic energy  EATOM  =      8937.06598424
  Solvation  Ediel_sol  =         0.00000000
  ---------------------------------------------------
  free energy    TOTEN  =      -200.31103216 eV

  energy without entropy =     -200.31103216  energy(sigma->0) =     -200.31103216


--------------------------------------------------------------------------------------------------------




--------------------------------------- Iteration      1(   5)  ---------------------------------------


     EDDAV:  cpu time    6.8240: real time    6.8254
 BZINTS: Fermi energy: -4.224123;128.000000 electrons
         Band energy:***********;  BLOECHL correction:  0.000000
       DOS:  cpu time    0.0010: real time    0.0012
    CHARGE:  cpu time    0.1410: real time    0.1410
    MIXING:  cpu time    0.0030: real time    0.0022
    --------------------------------------------
      LOOP:  cpu time    6.9689: real time    6.9698

 eigenvalue-minimisations  :  2664
 total energy-change (2. order) :-0.1421690E+01  (-0.1420863E+01)
 number of electron     128.0000551 magnetization 
 augmentation part       13.6479356 magnetization 

 Broyden mixing:
  rms(total) = 0.36994E+01    rms(broyden)= 0.36982E+01
  rms(prec ) = 0.39490E+01
  weight for this iteration     100.00

 Free energy of the ion-electron system (eV)
  ---------------------------------------------------
  alpha Z        PSCENC =       451.31605171
  Ewald energy   TEWEN  =     24913.70541863
  -Hartree energ DENC   =    -33364.93616084
  -exchange      EXHF   =         0.00000000
  -V(xc)+E(xc)   XCENC  =       326.68104516
  PAW double counting   =      5334.45189010    -5139.13784255
  entropy T*S    EENTRO =         0.00000000
  eigenvalues    EBANDS =     -1660.87910908
  atomic energy  EATOM  =      8937.06598424
  Solvation  Ediel_sol  =         0.00000000
  ---------------------------------------------------
  free energy    TOTEN  =      -201.73272263 eV

  energy without entropy =     -201.73272263  energy(sigma->0) =     -201.73272263


--------------------------------------------------------------------------------------------------------




--------------------------------------- Iteration      1(   6)  ---------------------------------------


    POTLOK:  cpu time    0.0730: real time    0.0765
    SETDIJ:  cpu time    0.0110: real time    0.0105
    EDDIAG:  cpu time    0.4639: real time    0.4640
  RMM-DIIS:  cpu time    3.2545: real time    3.2537
    ORTHCH:  cpu time    0.1020: real time    0.1024
 BZINTS: Fermi energy: -0.050878;128.000000 electrons
         Band energy:***********;  BLOECHL correction: -0.043434
       DOS:  cpu time    0.0070: real time    0.0067
    CHARGE:  cpu time    0.1440: real time    0.1448
    MIXING:  cpu time    0.0030: real time    0.0021
    --------------------------------------------
      LOOP:  cpu time    4.0584: real time    4.0607

 eigenvalue-minimisations  :  1665
 total energy-change (2. order) : 0.4043183E+02  (-0.2832525E+02)
 number of electron     128.0000380 magnetization 
 augmentation part       14.2545544 magnetization 

 Broyden mixing:
  rms(total) = 0.13618E+01    rms(broyden)= 0.13591E+01
  rms(prec ) = 0.14296E+01
  weight for this iteration     100.00

 eigenvalues of (default mixing * dielectric matrix)
  average eigenvalue GAMMA=   0.7734
  0.7734

 Free energy of the ion-electron system (eV)
  ---------------------------------------------------
  alpha Z        PSCENC =       451.31605171
  Ewald energy   TEWEN  =     24913.70541863
  -Hartree energ DENC   =    -33646.73157510
  -exchange      EXHF   =         0.00000000
  -V(xc)+E(xc)   XCENC  =       346.42518979
  PAW double counting   =      5957.04909963    -5774.68425499
  entropy T*S    EENTRO =         0.00000000
  eigenvalues    EBANDS =     -1345.44680775
  atomic energy  EATOM  =      8937.06598424
  Solvation  Ediel_sol  =         0.00000000
  ---------------------------------------------------
  free energy    TOTEN  =      -161.30089385 eV

  energy without entropy =     -161.30089385  energy(sigma->0) =     -161.30089385


--------------------------------------------------------------------------------------------------------




--------------------------------------- Iteration      1(   7)  ---------------------------------------


    POTLOK:  cpu time    0.0700: real time    0.0724
    SETDIJ:  cpu time    0.0110: real time    0.0104
    EDDIAG:  cpu time    0.4629: real time    0.4637
  RMM-DIIS:  cpu time    3.5775: real time    3.5755
    ORTHCH:  cpu time    0.1010: real time    0.1018
 BZINTS: Fermi energy: -0.990589;128.000000 electrons
         Band energy:***********;  BLOECHL correction:  0.000000
       DOS:  cpu time    0.0020: real time    0.0013
    CHARGE:  cpu time    0.1410: real time    0.1410
    MIXING:  cpu time    0.0030: real time    0.0025
    --------------------------------------------
      LOOP:  cpu time    4.3683: real time    4.3686

 eigenvalue-minimisations  :  1817
 total energy-change (2. order) : 0.3549875E+01  (-0.1251985E+01)
 number of electron     128.0000407 magnetization 
 augmentation part       13.5754291 magnetization 

 Broyden mixing:
  rms(total) = 0.71055E+00    rms(broyden)= 0.71036E+00
  rms(prec ) = 0.73988E+00
  weight for this iteration     100.00

 eigenvalues of (default mixing * dielectric matrix)
  average eigenvalue GAMMA=   1.0502
  0.9084  1.1921

 Free energy of the ion-electron system (eV)
  ---------------------------------------------------
  alpha Z        PSCENC =       451.31605171
  Ewald energy   TEWEN  =     24913.70541863
  -Hartree energ DENC   =    -33656.35961850
  -exchange      EXHF   =         0.00000000
  -V(xc)+E(xc)   XCENC  =       342.80444782
  PAW double counting   =      5984.72467879    -5807.33280310
  entropy T*S    EENTRO =         0.00000000
  eigenvalues    EBANDS =     -1323.67517876
  atomic energy  EATOM  =      8937.06598424
  Solvation  Ediel_sol  =         0.00000000
  ---------------------------------------------------
  free energy    TOTEN  =      -157.75101917 eV

  energy without entropy =     -157.75101917  energy(sigma->0) =     -157.75101917


--------------------------------------------------------------------------------------------------------




--------------------------------------- Iteration      1(   8)  ---------------------------------------


    POTLOK:  cpu time    0.0710: real time    0.0746
    SETDIJ:  cpu time    0.0100: real time    0.0104
    EDDIAG:  cpu time    0.4639: real time    0.4636
  RMM-DIIS:  cpu time    4.0984: real time    4.0973
    ORTHCH:  cpu time    0.1020: real time    0.1019
 BZINTS: Fermi energy: -0.532757;128.000000 electrons
         Band energy:***********;  BLOECHL correction:  0.000000
       DOS:  cpu time    0.0010: real time    0.0014
    CHARGE:  cpu time    0.1410: real time    0.1405
    MIXING:  cpu time    0.0030: real time    0.0024
    --------------------------------------------
      LOOP:  cpu time    4.8903: real time    4.8922

 eigenvalue-minimisations  :  2075
 total energy-change (2. order) : 0.7226678E+00  (-0.3129460E+00)
 number of electron     128.0000405 magnetization 
 augmentation part       13.7571946 magnetization 

 Broyden mixing:
  rms(total) = 0.32181E+00    rms(broyden)= 0.32174E+00
  rms(prec ) = 0.34208E+00
  weight for this iteration     100.00

 eigenvalues of (default mixing * dielectric matrix)
  average eigenvalue GAMMA=   1.2775
  2.2144  0.9120  0.7063

 Free energy of the ion-electron system (eV)
  ---------------------------------------------------
  alpha Z        PSCENC =       451.31605171
  Ewald energy   TEWEN  =     24913.70541863
  -Hartree energ DENC   =    -33673.52718537
  -exchange      EXHF   =         0.00000000
  -V(xc)+E(xc)   XCENC  =       342.47768227
  PAW double counting   =      6081.95463299    -5908.76303420
  entropy T*S    EENTRO =         0.00000000
  eigenvalues    EBANDS =     -1301.25790164
  atomic energy  EATOM  =      8937.06598424
  Solvation  Ediel_sol  =         0.00000000
  ---------------------------------------------------
  free energy    TOTEN  =      -157.02835136 eV

  energy without entropy =     -157.02835136  energy(sigma->0) =     -157.02835136


--------------------------------------------------------------------------------------------------------




--------------------------------------- Iteration      1(   9)  ---------------------------------------


    POTLOK:  cpu time    0.0710: real time    0.0745
    SETDIJ:  cpu time    0.0110: real time    0.0104
    EDDIAG:  cpu time    0.4439: real time    0.4439
  RMM-DIIS:  cpu time    4.0794: real time    4.0782
    ORTHCH:  cpu time    0.1020: real time    0.1025
 BZINTS: Fermi energy: -0.146212;128.000000 electrons
         Band energy:***********;  BLOECHL correction:  0.000000
       DOS:  cpu time    0.0010: real time    0.0014
    CHARGE:  cpu time    0.1410: real time    0.1406
    MIXING:  cpu time    0.0030: real time    0.0025
    --------------------------------------------
      LOOP:  cpu time    4.8523: real time    4.8540

 eigenvalue-minimisations  :  2075
 total energy-change (2. order) : 0.2130943E+00  (-0.1291154E+00)
 number of electron     128.0000409 magnetization 
 augmentation part       13.7813661 magnetization 

 Broyden mixing:
  rms(total) = 0.97837E-01    rms(broyden)= 0.97653E-01
  rms(prec ) = 0.11618E+00
  weight for this iteration     100.00

 eigenvalues of (default mixing * dielectric matrix)
  average eigenvalue GAMMA=   1.1859
  2.2420  0.8860  0.8860  0.7296

 Free energy of the ion-electron system (eV)
  ---------------------------------------------------
  alpha Z        PSCENC =       451.31605171
  Ewald energy   TEWEN  =     24913.70541863
  -Hartree energ DENC   =    -33700.13382450
  -exchange      EXHF   =         0.00000000
  -V(xc)+E(xc)   XCENC  =       342.14236849
  PAW double counting   =      6183.87779513    -6014.46436329
  entropy T*S    EENTRO =         0.00000000
  eigenvalues    EBANDS =     -1270.32468750
  atomic energy  EATOM  =      8937.06598424
  Solvation  Ediel_sol  =         0.00000000
  ---------------------------------------------------
  free energy    TOTEN  =      -156.81525709 eV

  energy without entropy =     -156.81525709  energy(sigma->0) =     -156.81525709


--------------------------------------------------------------------------------------------------------




--------------------------------------- Iteration      1(  10)  ---------------------------------------


    POTLOK:  cpu time    0.0700: real time    0.0725
    SETDIJ:  cpu time    0.0100: real time    0.0102
    EDDIAG:  cpu time    0.4429: real time    0.4427
  RMM-DIIS:  cpu time    4.7183: real time    4.7165
    ORTHCH:  cpu time    0.0970: real time    0.0979
 BZINTS: Fermi energy:  0.012494;128.000000 electrons
         Band energy:***********;  BLOECHL correction:  0.000000
       DOS:  cpu time    0.0020: real time    0.0014
    CHARGE:  cpu time    0.1410: real time    0.1410
    MIXING:  cpu time    0.0020: real time    0.0026
    --------------------------------------------
      LOOP:  cpu time    5.4832: real time    5.4849

 eigenvalue-minimisations  :  2407
 total energy-change (2. order) : 0.3901084E-01  (-0.2352290E-01)
 number of electron     128.0000408 magnetization 
 augmentation part       13.7275790 magnetization 

 Broyden mixing:
  rms(total) = 0.61052E-01    rms(broyden)= 0.61037E-01
  rms(prec ) = 0.76403E-01
  weight for this iteration     100.00

 eigenvalues of (default mixing * dielectric matrix)
  average eigenvalue GAMMA=   1.2083
  2.0853  1.5174  1.0219  0.7484  0.6686

 Free energy of the ion-electron system (eV)
  ---------------------------------------------------
  alpha Z        PSCENC =       451.31605171
  Ewald energy   TEWEN  =     24913.70541863
  -Hartree energ DENC   =    -33717.97974762
  -exchange      EXHF   =         0.00000000
  -V(xc)+E(xc)   XCENC  =       342.50040182
  PAW double counting   =      6204.71092440    -6035.69437093
  entropy T*S    EENTRO =         0.00000000
  eigenvalues    EBANDS =     -1252.40090850
  atomic energy  EATOM  =      8937.06598424
  Solvation  Ediel_sol  =         0.00000000
  ---------------------------------------------------
  free energy    TOTEN  =      -156.77624625 eV

  energy without entropy =     -156.77624625  energy(sigma->0) =     -156.77624625


--------------------------------------------------------------------------------------------------------




--------------------------------------- Iteration      1(  11)  ---------------------------------------


    POTLOK:  cpu time    0.0720: real time    0.0725
    SETDIJ:  cpu time    0.0100: real time    0.0104
    EDDIAG:  cpu time    0.4649: real time    0.4642
  RMM-DIIS:  cpu time    4.4913: real time    4.4896
    ORTHCH:  cpu time    0.1020: real time    0.1018
 BZINTS: Fermi energy:  0.143389;128.000000 electrons
         Band energy:***********;  BLOECHL correction:  0.000000
       DOS:  cpu time    0.0000: real time    0.0014
    CHARGE:  cpu time    0.1410: real time    0.1407
    MIXING:  cpu time    0.0030: real time    0.0028
    --------------------------------------------
      LOOP:  cpu time    5.2842: real time    5.2834

 eigenvalue-minimisations  :  2274
 total energy-change (2. order) : 0.2136306E-01  (-0.1581385E-01)
 number of electron     128.0000407 magnetization 
 augmentation part       13.6633597 magnetization 

 Broyden mixing:
  rms(total) = 0.40081E-01    rms(broyden)= 0.40043E-01
  rms(prec ) = 0.51962E-01
  weight for this iteration     100.00

 eigenvalues of (default mixing * dielectric matrix)
  average eigenvalue GAMMA=   1.3132
  2.3296  2.3296  0.9119  0.9119  0.7596  0.6364

 Free energy of the ion-electron system (eV)
  ---------------------------------------------------
  alpha Z        PSCENC =       451.31605171
  Ewald energy   TEWEN  =     24913.70541863
  -Hartree energ DENC   =    -33738.01056414
  -exchange      EXHF   =         0.00000000
  -V(xc)+E(xc)   XCENC  =       342.88386686
  PAW double counting   =      6219.38199128    -6050.31427023
  entropy T*S    EENTRO =         0.00000000
  eigenvalues    EBANDS =     -1232.78336154
  atomic energy  EATOM  =      8937.06598424
  Solvation  Ediel_sol  =         0.00000000
  ---------------------------------------------------
  free energy    TOTEN  =      -156.75488319 eV

  energy without entropy =     -156.75488319  energy(sigma->0) =     -156.75488319


--------------------------------------------------------------------------------------------------------




--------------------------------------- Iteration      1(  12)  ---------------------------------------


    POTLOK:  cpu time    0.0720: real time    0.0750
    SETDIJ:  cpu time    0.0100: real time    0.0105
    EDDIAG:  cpu time    0.4649: real time    0.4642
  RMM-DIIS:  cpu time    4.6833: real time    4.6820
    ORTHCH:  cpu time    0.1030: real time    0.1027
 BZINTS: Fermi energy:  0.295986;128.000000 electrons
         Band energy:***********;  BLOECHL correction:  0.000000
       DOS:  cpu time    0.0000: real time    0.0013
    CHARGE:  cpu time    0.1410: real time    0.1407
    MIXING:  cpu time    0.0030: real time    0.0029
    --------------------------------------------
      LOOP:  cpu time    5.4772: real time    5.4792

 eigenvalue-minimisations  :  2381
 total energy-change (2. order) : 0.1260793E-01  (-0.5200347E-02)
 number of electron     128.0000407 magnetization 
 augmentation part       13.6283607 magnetization 

 Broyden mixing:
  rms(total) = 0.30965E-01    rms(broyden)= 0.30953E-01
  rms(prec ) = 0.39054E-01
  weight for this iteration     100.00

 eigenvalues of (default mixing * dielectric matrix)
  average eigenvalue GAMMA=   1.2547
  2.3693  2.2049  1.0080  1.0080  0.8434  0.7177  0.6315

 Free energy of the ion-electron system (eV)
  ---------------------------------------------------
  alpha Z        PSCENC =       451.31605171
  Ewald energy   TEWEN  =     24913.70541863
  -Hartree energ DENC   =    -33752.14404228
  -exchange      EXHF   =         0.00000000
  -V(xc)+E(xc)   XCENC  =       342.97445480
  PAW double counting   =      6223.82045802    -6054.51438719
  entropy T*S    EENTRO =         0.00000000
  eigenvalues    EBANDS =     -1218.96621319
  atomic energy  EATOM  =      8937.06598424
  Solvation  Ediel_sol  =         0.00000000
  ---------------------------------------------------
  free energy    TOTEN  =      -156.74227526 eV

  energy without entropy =     -156.74227526  energy(sigma->0) =     -156.74227526


--------------------------------------------------------------------------------------------------------




--------------------------------------- Iteration      1(  13)  ---------------------------------------


    POTLOK:  cpu time    0.0730: real time    0.0769
    SETDIJ:  cpu time    0.0100: real time    0.0104
    EDDIAG:  cpu time    0.4639: real time    0.4635
  RMM-DIIS:  cpu time    4.8343: real time    4.8330
    ORTHCH:  cpu time    0.1030: real time    0.1027
 BZINTS: Fermi energy:  0.351254;128.000000 electrons
         Band energy:***********;  BLOECHL correction:  0.000000
       DOS:  cpu time    0.0010: real time    0.0013
    CHARGE:  cpu time    0.1410: real time    0.1412
    MIXING:  cpu time    0.0030: real time    0.0030
    --------------------------------------------
      LOOP:  cpu time    5.6291: real time    5.6319

 eigenvalue-minimisations  :  2456
 total energy-change (2. order) : 0.5525532E-02  (-0.2196594E-02)
 number of electron     128.0000407 magnetization 
 augmentation part       13.6436288 magnetization 

 Broyden mixing:
  rms(total) = 0.16442E-01    rms(broyden)= 0.16437E-01
  rms(prec ) = 0.24682E-01
  weight for this iteration     100.00

 eigenvalues of (default mixing * dielectric matrix)
  average eigenvalue GAMMA=   1.4239
  2.8573  2.8573  1.5389  0.9697  0.9165  0.9165  0.6860  0.6492

 Free energy of the ion-electron system (eV)
  ---------------------------------------------------
  alpha Z        PSCENC =       451.31605171
  Ewald energy   TEWEN  =     24913.70541863
  -Hartree energ DENC   =    -33756.81291904
  -exchange      EXHF   =         0.00000000
  -V(xc)+E(xc)   XCENC  =       342.94639587
  PAW double counting   =      6223.71199240    -6054.33608001
  entropy T*S    EENTRO =         0.00000000
  eigenvalues    EBANDS =     -1214.33359354
  atomic energy  EATOM  =      8937.06598424
  Solvation  Ediel_sol  =         0.00000000
  ---------------------------------------------------
  free energy    TOTEN  =      -156.73674973 eV

  energy without entropy =     -156.73674973  energy(sigma->0) =     -156.73674973


--------------------------------------------------------------------------------------------------------




--------------------------------------- Iteration      1(  14)  ---------------------------------------


    POTLOK:  cpu time    0.0730: real time    0.0763
    SETDIJ:  cpu time    0.0110: real time    0.0105
    EDDIAG:  cpu time    0.4629: real time    0.4630
  RMM-DIIS:  cpu time    4.3823: real time    4.3813
    ORTHCH:  cpu time    0.1030: real time    0.1033
 BZINTS: Fermi energy:  0.465759;128.000000 electrons
         Band energy:***********;  BLOECHL correction:  0.000000
       DOS:  cpu time    0.0000: real time    0.0013
    CHARGE:  cpu time    0.1410: real time    0.1405
    MIXING:  cpu time    0.0040: real time    0.0033
    --------------------------------------------
      LOOP:  cpu time    5.1772: real time    5.1795

 eigenvalue-minimisations  :  2227
 total energy-change (2. order) : 0.4352707E-02  (-0.2216368E-02)
 number of electron     128.0000407 magnetization 
 augmentation part       13.6486546 magnetization 

 Broyden mixing:
  rms(total) = 0.16825E-01    rms(broyden)= 0.16810E-01
  rms(prec ) = 0.20284E-01
  weight for this iteration     100.00

 eigenvalues of (default mixing * dielectric matrix)
  average eigenvalue GAMMA=   1.4292
  3.5069  2.5511  1.4714  1.1403  1.1403  0.8791  0.8791  0.6646  0.6302

 Free energy of the ion-electron system (eV)
  ---------------------------------------------------
  alpha Z        PSCENC =       451.31605171
  Ewald energy   TEWEN  =     24913.70541863
  -Hartree energ DENC   =    -33768.29659613
  -exchange      EXHF   =         0.00000000
  -V(xc)+E(xc)   XCENC  =       342.87428725
  PAW double counting   =      6216.73530205    -6046.94796183
  entropy T*S    EENTRO =         0.00000000
  eigenvalues    EBANDS =     -1203.18488294
  atomic energy  EATOM  =      8937.06598424
  Solvation  Ediel_sol  =         0.00000000
  ---------------------------------------------------
  free energy    TOTEN  =      -156.73239702 eV

  energy without entropy =     -156.73239702  energy(sigma->0) =     -156.73239702


--------------------------------------------------------------------------------------------------------




--------------------------------------- Iteration      1(  15)  ---------------------------------------


    POTLOK:  cpu time    0.0720: real time    0.0746
    SETDIJ:  cpu time    0.0100: real time    0.0104
    EDDIAG:  cpu time    0.4659: real time    0.4680
  RMM-DIIS:  cpu time    4.7273: real time    4.7262
    ORTHCH:  cpu time    0.1020: real time    0.1016
 BZINTS: Fermi energy:  0.507367;128.000000 electrons
         Band energy:***********;  BLOECHL correction:  0.000000
       DOS:  cpu time    0.0000: real time    0.0013
    CHARGE:  cpu time    0.1420: real time    0.1405
    MIXING:  cpu time    0.0030: real time    0.0035
    --------------------------------------------
      LOOP:  cpu time    5.5222: real time    5.5261

 eigenvalue-minimisations  :  2399
 total energy-change (2. order) : 0.6878233E-03  (-0.8160093E-03)
 number of electron     128.0000407 magnetization 
 augmentation part       13.6453556 magnetization 

 Broyden mixing:
  rms(total) = 0.61622E-02    rms(broyden)= 0.61519E-02
  rms(prec ) = 0.99075E-02
  weight for this iteration     100.00

 eigenvalues of (default mixing * dielectric matrix)
  average eigenvalue GAMMA=   1.5021
  4.1153  2.3740  1.7580  1.7580  0.9859  0.9859  0.8874  0.8874  0.6391  0.6297

 Free energy of the ion-electron system (eV)
  ---------------------------------------------------
  alpha Z        PSCENC =       451.31605171
  Ewald energy   TEWEN  =     24913.70541863
  -Hartree energ DENC   =    -33774.25051119
  -exchange      EXHF   =         0.00000000
  -V(xc)+E(xc)   XCENC  =       342.95600139
  PAW double counting   =      6218.71931029    -6048.96594506
  entropy T*S    EENTRO =         0.00000000
  eigenvalues    EBANDS =     -1197.27801920
  atomic energy  EATOM  =      8937.06598424
  Solvation  Ediel_sol  =         0.00000000
  ---------------------------------------------------
  free energy    TOTEN  =      -156.73170920 eV

  energy without entropy =     -156.73170920  energy(sigma->0) =     -156.73170920


--------------------------------------------------------------------------------------------------------




--------------------------------------- Iteration      1(  16)  ---------------------------------------


    POTLOK:  cpu time    0.0720: real time    0.0734
    SETDIJ:  cpu time    0.0100: real time    0.0105
    EDDIAG:  cpu time    0.4449: real time    0.4449
  RMM-DIIS:  cpu time    4.6173: real time    4.6153
    ORTHCH:  cpu time    0.1030: real time    0.1036
 BZINTS: Fermi energy:  0.561335;128.000000 electrons
         Band energy:***********;  BLOECHL correction:  0.000000
       DOS:  cpu time    0.0010: real time    0.0012
    CHARGE:  cpu time    0.1410: real time    0.1405
    MIXING:  cpu time    0.0040: real time    0.0036
    --------------------------------------------
      LOOP:  cpu time    5.3932: real time    5.3931

 eigenvalue-minimisations  :  2364
 total energy-change (2. order) :-0.1265734E-02  (-0.4850646E-03)
 number of electron     128.0000407 magnetization 
 augmentation part       13.6347715 magnetization 

 Broyden mixing:
  rms(total) = 0.76198E-02    rms(broyden)= 0.76149E-02
  rms(prec ) = 0.89332E-02
  weight for this iteration     100.00

 eigenvalues of (default mixing * dielectric matrix)
  average eigenvalue GAMMA=   1.6416
  5.5280  2.7145  2.4734  1.2583  1.1292  1.1292  0.8726  0.8363  0.8363  0.6399
  0.6399

 Free energy of the ion-electron system (eV)
  ---------------------------------------------------
  alpha Z        PSCENC =       451.31605171
  Ewald energy   TEWEN  =     24913.70541863
  -Hartree energ DENC   =    -33781.17243634
  -exchange      EXHF   =         0.00000000
  -V(xc)+E(xc)   XCENC  =       342.97264446
  PAW double counting   =      6218.80575133    -6049.12192553
  entropy T*S    EENTRO =         0.00000000
  eigenvalues    EBANDS =     -1190.30446343
  atomic energy  EATOM  =      8937.06598424
  Solvation  Ediel_sol  =         0.00000000
  ---------------------------------------------------
  free energy    TOTEN  =      -156.73297493 eV

  energy without entropy =     -156.73297493  energy(sigma->0) =     -156.73297493


--------------------------------------------------------------------------------------------------------




--------------------------------------- Iteration      1(  17)  ---------------------------------------


    POTLOK:  cpu time    0.0700: real time    0.0711
    SETDIJ:  cpu time    0.0100: real time    0.0105
    EDDIAG:  cpu time    0.4639: real time    0.4688
  RMM-DIIS:  cpu time    4.3873: real time    4.3867
    ORTHCH:  cpu time    0.1090: real time    0.1092
 BZINTS: Fermi energy:  0.588477;128.000000 electrons
         Band energy:***********;  BLOECHL correction:  0.000000
       DOS:  cpu time    0.0010: real time    0.0013
    CHARGE:  cpu time    0.1410: real time    0.1404
    MIXING:  cpu time    0.0040: real time    0.0039
    --------------------------------------------
      LOOP:  cpu time    5.1862: real time    5.1920

 eigenvalue-minimisations  :  2230
 total energy-change (2. order) :-0.3452530E-03  (-0.1671697E-03)
 number of electron     128.0000407 magnetization 
 augmentation part       13.6357747 magnetization 

 Broyden mixing:
  rms(total) = 0.25340E-02    rms(broyden)= 0.25306E-02
  rms(prec ) = 0.35262E-02
  weight for this iteration     100.00

 eigenvalues of (default mixing * dielectric matrix)
  average eigenvalue GAMMA=   1.6828
  6.1282  2.9903  1.8546  1.8546  1.2356  1.2356  0.9970  0.8985  0.8985  0.8232
  0.6385  0.6385

 Free energy of the ion-electron system (eV)
  ---------------------------------------------------
  alpha Z        PSCENC =       451.31605171
  Ewald energy   TEWEN  =     24913.70541863
  -Hartree energ DENC   =    -33783.29850473
  -exchange      EXHF   =         0.00000000
  -V(xc)+E(xc)   XCENC  =       342.94273633
  PAW double counting   =      6217.19575364    -6047.48089816
  entropy T*S    EENTRO =         0.00000000
  eigenvalues    EBANDS =     -1188.17986184
  atomic energy  EATOM  =      8937.06598424
  Solvation  Ediel_sol  =         0.00000000
  ---------------------------------------------------
  free energy    TOTEN  =      -156.73332019 eV

  energy without entropy =     -156.73332019  energy(sigma->0) =     -156.73332019


--------------------------------------------------------------------------------------------------------




--------------------------------------- Iteration      1(  18)  ---------------------------------------


    POTLOK:  cpu time    0.0710: real time    0.0733
    SETDIJ:  cpu time    0.0100: real time    0.0105
    EDDIAG:  cpu time    0.4639: real time    0.4633
  RMM-DIIS:  cpu time    4.4583: real time    4.4572
    ORTHCH:  cpu time    0.1090: real time    0.1100
 BZINTS: Fermi energy:  0.601393;128.000000 electrons
         Band energy:***********;  BLOECHL correction:  0.000000
       DOS:  cpu time    0.0010: real time    0.0013
    CHARGE:  cpu time    0.1410: real time    0.1405
    MIXING:  cpu time    0.0040: real time    0.0041
    --------------------------------------------
      LOOP:  cpu time    5.2582: real time    5.2602

 eigenvalue-minimisations  :  2277
 total energy-change (2. order) :-0.1341979E-02  (-0.8710281E-04)
 number of electron     128.0000407 magnetization 
 augmentation part       13.6364131 magnetization 

 Broyden mixing:
  rms(total) = 0.22409E-02    rms(broyden)= 0.22381E-02
  rms(prec ) = 0.26475E-02
  weight for this iteration     100.00

 eigenvalues of (default mixing * dielectric matrix)
  average eigenvalue GAMMA=   1.7476
  6.9081  3.1693  2.1844  2.1844  1.2190  1.2190  1.2251  0.8646  0.8646  0.6395
  0.6395  0.8007  0.8007

 Free energy of the ion-electron system (eV)
  ---------------------------------------------------
  alpha Z        PSCENC =       451.31605171
  Ewald energy   TEWEN  =     24913.70541863
  -Hartree energ DENC   =    -33783.73454123
  -exchange      EXHF   =         0.00000000
  -V(xc)+E(xc)   XCENC  =       342.93284291
  PAW double counting   =      6216.65283772    -6046.88582777
  entropy T*S    EENTRO =         0.00000000
  eigenvalues    EBANDS =     -1187.78742837
  atomic energy  EATOM  =      8937.06598424
  Solvation  Ediel_sol  =         0.00000000
  ---------------------------------------------------
  free energy    TOTEN  =      -156.73466217 eV

  energy without entropy =     -156.73466217  energy(sigma->0) =     -156.73466217


--------------------------------------------------------------------------------------------------------




--------------------------------------- Iteration      1(  19)  ---------------------------------------


    POTLOK:  cpu time    0.0690: real time    0.0725
    SETDIJ:  cpu time    0.0110: real time    0.0104
    EDDIAG:  cpu time    0.4419: real time    0.4425
  RMM-DIIS:  cpu time    3.8604: real time    3.8593
    ORTHCH:  cpu time    0.1090: real time    0.1095
 BZINTS: Fermi energy:  0.610461;128.000000 electrons
         Band energy:***********;  BLOECHL correction:  0.000000
       DOS:  cpu time    0.0010: real time    0.0012
    CHARGE:  cpu time    0.1410: real time    0.1406
    MIXING:  cpu time    0.0050: real time    0.0041
    --------------------------------------------
      LOOP:  cpu time    4.6383: real time    4.6401

 eigenvalue-minimisations  :  1971
 total energy-change (2. order) :-0.1027829E-02  (-0.4249311E-04)
 number of electron     128.0000407 magnetization 
 augmentation part       13.6360504 magnetization 

 Broyden mixing:
  rms(total) = 0.99628E-03    rms(broyden)= 0.99541E-03
  rms(prec ) = 0.12288E-02
  weight for this iteration     100.00

 eigenvalues of (default mixing * dielectric matrix)
  average eigenvalue GAMMA=   1.7862
  7.3741  3.6586  2.2702  2.2702  1.4267  1.2244  1.2244  0.9406  0.9406  0.8657
  0.8657  0.6353  0.6353  0.6748

 Free energy of the ion-electron system (eV)
  ---------------------------------------------------
  alpha Z        PSCENC =       451.31605171
  Ewald energy   TEWEN  =     24913.70541863
  -Hartree energ DENC   =    -33784.08528718
  -exchange      EXHF   =         0.00000000
  -V(xc)+E(xc)   XCENC  =       342.93908047
  PAW double counting   =      6217.25086896    -6047.48770768
  entropy T*S    EENTRO =         0.00000000
  eigenvalues    EBANDS =     -1187.44009914
  atomic energy  EATOM  =      8937.06598424
  Solvation  Ediel_sol  =         0.00000000
  ---------------------------------------------------
  free energy    TOTEN  =      -156.73569000 eV

  energy without entropy =     -156.73569000  energy(sigma->0) =     -156.73569000


--------------------------------------------------------------------------------------------------------




--------------------------------------- Iteration      1(  20)  ---------------------------------------


    POTLOK:  cpu time    0.0720: real time    0.0768
    SETDIJ:  cpu time    0.0110: real time    0.0105
    EDDIAG:  cpu time    0.4619: real time    0.4615
  RMM-DIIS:  cpu time    3.5205: real time    3.5198
    ORTHCH:  cpu time    0.1050: real time    0.1059
 BZINTS: Fermi energy:  0.617554;128.000000 electrons
         Band energy:***********;  BLOECHL correction:  0.000000
       DOS:  cpu time    0.0020: real time    0.0012
    CHARGE:  cpu time    0.1380: real time    0.1382
    MIXING:  cpu time    0.0040: real time    0.0040
    --------------------------------------------
      LOOP:  cpu time    4.3143: real time    4.3179

 eigenvalue-minimisations  :  1763
 total energy-change (2. order) :-0.4267095E-03  (-0.1865806E-04)
 number of electron     128.0000407 magnetization 
 augmentation part       13.6350479 magnetization 

 Broyden mixing:
  rms(total) = 0.67408E-03    rms(broyden)= 0.67372E-03
  rms(prec ) = 0.77964E-03
  weight for this iteration     100.00

 eigenvalues of (default mixing * dielectric matrix)
  average eigenvalue GAMMA=   1.8976
  8.0695  4.4084  2.3884  2.3884  2.2841  1.2009  1.2009  1.2497  0.8818  0.8818
  0.8205  0.8205  0.6402  0.6402  0.5889

 Free energy of the ion-electron system (eV)
  ---------------------------------------------------
  alpha Z        PSCENC =       451.31605171
  Ewald energy   TEWEN  =     24913.70541863
  -Hartree energ DENC   =    -33784.12445954
  -exchange      EXHF   =         0.00000000
  -V(xc)+E(xc)   XCENC  =       342.94040759
  PAW double counting   =      6217.55874079    -6047.80163434
  entropy T*S    EENTRO =         0.00000000
  eigenvalues    EBANDS =     -1187.39662578
  atomic energy  EATOM  =      8937.06598424
  Solvation  Ediel_sol  =         0.00000000
  ---------------------------------------------------
  free energy    TOTEN  =      -156.73611670 eV

  energy without entropy =     -156.73611670  energy(sigma->0) =     -156.73611670


--------------------------------------------------------------------------------------------------------




--------------------------------------- Iteration      1(  21)  ---------------------------------------


    POTLOK:  cpu time    0.0650: real time    0.0667
    SETDIJ:  cpu time    0.0110: real time    0.0104
    EDDIAG:  cpu time    0.4319: real time    0.4314
  RMM-DIIS:  cpu time    3.0785: real time    3.0775
    ORTHCH:  cpu time    0.0970: real time    0.0974
 BZINTS: Fermi energy:  0.623796;128.000000 electrons
         Band energy:***********;  BLOECHL correction:  0.000000
       DOS:  cpu time    0.0010: real time    0.0012
    CHARGE:  cpu time    0.1390: real time    0.1385
    MIXING:  cpu time    0.0040: real time    0.0043
    --------------------------------------------
      LOOP:  cpu time    3.8274: real time    3.8273

 eigenvalue-minimisations  :  1641
 total energy-change (2. order) :-0.2575671E-03  (-0.1105227E-04)
 number of electron     128.0000407 magnetization 
 augmentation part       13.6340767 magnetization 

 Broyden mixing:
  rms(total) = 0.43963E-03    rms(broyden)= 0.43942E-03
  rms(prec ) = 0.49488E-03
  weight for this iteration     100.00

 eigenvalues of (default mixing * dielectric matrix)
  average eigenvalue GAMMA=   1.9109
  8.4534  4.6340  2.9755  2.2760  2.2760  1.1806  1.1806  1.2838  1.0557  0.8987
  0.8987  0.8048  0.8048  0.6402  0.6402  0.5720

 Free energy of the ion-electron system (eV)
  ---------------------------------------------------
  alpha Z        PSCENC =       451.31605171
  Ewald energy   TEWEN  =     24913.70541863
  -Hartree energ DENC   =    -33784.04440300
  -exchange      EXHF   =         0.00000000
  -V(xc)+E(xc)   XCENC  =       342.94021854
  PAW double counting   =      6217.61704981    -6047.85209826
  entropy T*S    EENTRO =         0.00000000
  eigenvalues    EBANDS =     -1187.48459593
  atomic energy  EATOM  =      8937.06598424
  Solvation  Ediel_sol  =         0.00000000
  ---------------------------------------------------
  free energy    TOTEN  =      -156.73637427 eV

  energy without entropy =     -156.73637427  energy(sigma->0) =     -156.73637427


--------------------------------------------------------------------------------------------------------




--------------------------------------- Iteration      1(  22)  ---------------------------------------


    POTLOK:  cpu time    0.0690: real time    0.0710
    SETDIJ:  cpu time    0.0100: real time    0.0104
    EDDIAG:  cpu time    0.4449: real time    0.4437
  RMM-DIIS:  cpu time    2.4516: real time    2.4515
    ORTHCH:  cpu time    0.0930: real time    0.0931
 BZINTS: Fermi energy:  0.592957;128.000000 electrons
         Band energy:***********;  BLOECHL correction:  0.000000
       DOS:  cpu time    0.0010: real time    0.0014
    CHARGE:  cpu time    0.1360: real time    0.1361
    MIXING:  cpu time    0.0050: real time    0.0040
    --------------------------------------------
      LOOP:  cpu time    3.2105: real time    3.2111

 eigenvalue-minimisations  :  1394
 total energy-change (2. order) :-0.4591867E-04  (-0.4431662E-05)
 number of electron     128.0000407 magnetization 
 augmentation part       13.6344680 magnetization 

 Broyden mixing:
  rms(total) = 0.58422E-03    rms(broyden)= 0.58410E-03
  rms(prec ) = 0.62939E-03
  weight for this iteration     100.00

 eigenvalues of (default mixing * dielectric matrix)
  average eigenvalue GAMMA=   1.8983
  8.3740  5.1330  2.8266  2.8266  1.9558  1.6071  1.2328  1.2328  0.9878  0.9878
  0.8931  0.8931  0.8033  0.6372  0.6372  0.6900  0.5528

 Free energy of the ion-electron system (eV)
  ---------------------------------------------------
  alpha Z        PSCENC =       451.31605171
  Ewald energy   TEWEN  =     24913.70541863
  -Hartree energ DENC   =    -33784.05638914
  -exchange      EXHF   =         0.00000000
  -V(xc)+E(xc)   XCENC  =       342.94195934
  PAW double counting   =      6217.65977863    -6047.88883780
  entropy T*S    EENTRO =         0.00000000
  eigenvalues    EBANDS =     -1187.48038580
  atomic energy  EATOM  =      8937.06598424
  Solvation  Ediel_sol  =         0.00000000
  ---------------------------------------------------
  free energy    TOTEN  =      -156.73642019 eV

  energy without entropy =     -156.73642019  energy(sigma->0) =     -156.73642019


--------------------------------------------------------------------------------------------------------




--------------------------------------- Iteration      1(  23)  ---------------------------------------


    POTLOK:  cpu time    0.0600: real time    0.0608
    SETDIJ:  cpu time    0.0100: real time    0.0097
    EDDIAG:  cpu time    0.3969: real time    0.3969
  RMM-DIIS:  cpu time    2.0397: real time    2.0393
    ORTHCH:  cpu time    0.0870: real time    0.0870
 BZINTS: Fermi energy:  0.599215;128.000000 electrons
         Band energy:***********;  BLOECHL correction:  0.000000
       DOS:  cpu time    0.0010: real time    0.0013
    CHARGE:  cpu time    0.1290: real time    0.1284
    MIXING:  cpu time    0.0040: real time    0.0042
    --------------------------------------------
      LOOP:  cpu time    2.7276: real time    2.7275

 eigenvalue-minimisations  :  1219
 total energy-change (2. order) :-0.1489577E-04  (-0.2162280E-05)
 number of electron     128.0000407 magnetization 
 augmentation part       13.6339585 magnetization 

 Broyden mixing:
  rms(total) = 0.19427E-03    rms(broyden)= 0.19413E-03
  rms(prec ) = 0.22000E-03
  weight for this iteration     100.00

 eigenvalues of (default mixing * dielectric matrix)
  average eigenvalue GAMMA=   1.8576
  8.3301  5.3524  3.1659  2.5945  2.1634  1.2418  1.2418  1.3531  1.3146  0.9141
  0.9141  0.8168  0.8168  0.7025  0.7025  0.6366  0.6366  0.5393

 Free energy of the ion-electron system (eV)
  ---------------------------------------------------
  alpha Z        PSCENC =       451.31605171
  Ewald energy   TEWEN  =     24913.70541863
  -Hartree energ DENC   =    -33783.98024162
  -exchange      EXHF   =         0.00000000
  -V(xc)+E(xc)   XCENC  =       342.93947568
  PAW double counting   =      6217.54639132    -6047.77032369
  entropy T*S    EENTRO =         0.00000000
  eigenvalues    EBANDS =     -1187.55919135
  atomic energy  EATOM  =      8937.06598424
  Solvation  Ediel_sol  =         0.00000000
  ---------------------------------------------------
  free energy    TOTEN  =      -156.73643509 eV

  energy without entropy =     -156.73643509  energy(sigma->0) =     -156.73643509


--------------------------------------------------------------------------------------------------------




--------------------------------------- Iteration      1(  24)  ---------------------------------------


    POTLOK:  cpu time    0.0610: real time    0.0652
    SETDIJ:  cpu time    0.0100: real time    0.0100
    EDDIAG:  cpu time    0.3959: real time    0.3962
  RMM-DIIS:  cpu time    1.9177: real time    1.9162
    ORTHCH:  cpu time    0.0870: real time    0.0871
 BZINTS: Fermi energy:  0.605088;128.000000 electrons
         Band energy:***********;  BLOECHL correction:  0.000000
       DOS:  cpu time    0.0010: real time    0.0013
    --------------------------------------------
      LOOP:  cpu time    2.4726: real time    2.4760

 eigenvalue-minimisations  :  1129
 total energy-change (2. order) :-0.7979525E-05  (-0.1228066E-05)
 number of electron     128.0000407 magnetization 
 augmentation part       13.6339585 magnetization 

 Free energy of the ion-electron system (eV)
  ---------------------------------------------------
  alpha Z        PSCENC =       451.31605171
  Ewald energy   TEWEN  =     24913.70541863
  -Hartree energ DENC   =    -33783.95748116
  -exchange      EXHF   =         0.00000000
  -V(xc)+E(xc)   XCENC  =       342.93927613
  PAW double counting   =      6217.54781475    -6047.77031639
  entropy T*S    EENTRO =         0.00000000
  eigenvalues    EBANDS =     -1187.58319098
  atomic energy  EATOM  =      8937.06598424
  Solvation  Ediel_sol  =         0.00000000
  ---------------------------------------------------
  free energy    TOTEN  =      -156.73644307 eV

  energy without entropy =     -156.73644307  energy(sigma->0) =     -156.73644307


--------------------------------------------------------------------------------------------------------




 average (electrostatic) potential at core
  the test charge radii are     0.7215  1.1929  1.2598
  (the norm of the test charge is              1.0000)
       1 -73.1741       2 -73.6980       3 -73.6980       4 -73.6588       5 -73.7436
       6 -73.7436       7 -73.8225       8 -73.8454       9 -73.8454      10 -74.0791
      11 -73.4575      12 -73.4575      13 -39.8941      14 -38.7716      15 -38.8610
      16 -38.7285      17 -29.2829      18 -29.4651      19 -29.6157      20 -29.6610
 
 
 
[...]
     43      -3.0630      2.00000
     44      -2.9772      2.00000
     45      -2.6451      2.00000
     46      -2.6048      2.00000
     47      -2.4700      2.00000
     48      -2.3445      2.00000
     49      -2.2077      2.00000
     50      -1.9096      2.00000
     51      -1.7140      2.00000
     52      -1.7013      2.00000
     53      -1.4036      2.00000
     54      -1.3397      2.00000
     55      -1.2745      2.00000
     56      -1.2532      2.00000
     57      -1.2200      2.00000
     58      -1.1093      2.00000
     59      -1.0788      2.00000
     60      -0.9729      2.00000
     61      -0.7376      2.00000
     62      -0.5746      2.00000
     63      -0.4236      2.00000
     64      -0.2337      2.00000
     65       2.1612      0.00000
     66       2.6044      0.00000
     67       3.0773      0.00000
     68       3.4261      0.00000
     69       3.4392      0.00000
     70       3.5134      0.00000
     71       3.5619      0.00000
     72       3.5915      0.00000
     73       3.6526      0.00000
     74       3.7370      0.00000
     75       3.8260      0.00000
     76       7.5875      0.00000

 k-point     8 :       0.2857    0.2857    0.0000
  band No.  band energies     occupation 
      1     -33.7612      2.00000
      2     -32.7718      2.00000
      3     -32.6817      2.00000
      4     -32.6363      2.00000
      5     -17.3925      2.00000
      6     -17.2190      2.00000
      7     -17.0722      2.00000
      8     -16.8432      2.00000
      9     -16.6575      2.00000
     10     -16.5755      2.00000
     11     -16.5272      2.00000
     12     -16.4386      2.00000
     13     -16.4293      2.00000
     14     -16.2530      2.00000
     15     -16.1555      2.00000
     16     -15.9150      2.00000
     17     -15.7583      2.00000
     18     -15.6586      2.00000
     19     -15.0109      2.00000
     20     -14.8925      2.00000
     21     -14.8006      2.00000
     22     -14.7250      2.00000
     23     -14.6783      2.00000
     24     -14.5939      2.00000
     25     -14.5897      2.00000
     26     -14.4879      2.00000
     27     -14.4432      2.00000
     28     -14.4350      2.00000
     29      -4.3317      2.00000
     30      -4.1783      2.00000
     31      -4.0477      2.00000
     32      -4.0330      2.00000
     33      -3.7622      2.00000
     34      -3.6871      2.00000
     35      -3.5837      2.00000
     36      -3.5609      2.00000
     37      -3.5360      2.00000
     38      -3.4760      2.00000
     39      -3.4692      2.00000
     40      -3.4415      2.00000
     41      -3.3095      2.00000
     42      -3.2664      2.00000
     43      -3.2055      2.00000
     44      -3.1497      2.00000
     45      -3.1267      2.00000
     46      -3.0936      2.00000
     47      -2.7886      2.00000
     48      -2.7615      2.00000
     49      -2.5784      2.00000
     50      -2.2684      2.00000
     51      -2.0993      2.00000
     52      -1.5923      2.00000
     53      -1.4707      2.00000
     54      -1.2344      2.00000
     55      -0.9906      2.00000
     56      -0.9491      2.00000
     57      -0.8359      2.00000
     58      -0.8179      2.00000
     59      -0.7152      2.00000
     60      -0.7044      2.00000
     61      -0.5832      2.00000
     62      -0.5553      2.00000
     63      -0.3972      2.00000
     64       0.0469      2.00000
     65       2.7180      0.00000
     66       2.9736      0.00000
     67       3.0620      0.00000
     68       3.1758      0.00000
     69       3.2627      0.00000
     70       3.3471      0.00000
     71       3.4018      0.00000
     72       3.4162      0.00000
     73       3.5173      0.00000
     74       3.6472      0.00000
     75       3.6894      0.00000
     76       3.7211      0.00000

 k-point     9 :       0.4286    0.2857    0.0000
  band No.  band energies     occupation 
      1     -33.7554      2.00000
      2     -32.7650      2.00000
      3     -32.6749      2.00000
      4     -32.6294      2.00000
      5     -17.3231      2.00000
      6     -17.1182      2.00000
      7     -16.9031      2.00000
      8     -16.6755      2.00000
      9     -16.6371      2.00000
     10     -16.6192      2.00000
     11     -16.4917      2.00000
     12     -16.4799      2.00000
     13     -16.3858      2.00000
     14     -16.0975      2.00000
     15     -16.0277      2.00000
     16     -15.9102      2.00000
     17     -15.8755      2.00000
     18     -15.6177      2.00000
     19     -15.0836      2.00000
     20     -14.9274      2.00000
     21     -14.8710      2.00000
     22     -14.7532      2.00000
     23     -14.6786      2.00000
     24     -14.6223      2.00000
     25     -14.5730      2.00000
     26     -14.5428      2.00000
     27     -14.4916      2.00000
     28     -14.4229      2.00000
     29      -4.4965      2.00000
     30      -4.3953      2.00000
     31      -4.2918      2.00000
     32      -4.1794      2.00000
     33      -4.1066      2.00000
     34      -4.0684      2.00000
     35      -4.0036      2.00000
     36      -3.9060      2.00000
     37      -3.7589      2.00000
     38      -3.7278      2.00000
     39      -3.6438      2.00000
     40      -3.6043      2.00000
     41      -3.5471      2.00000
     42      -3.4779      2.00000
     43      -3.4355      2.00000
     44      -3.2839      2.00000
     45      -3.1687      2.00000
     46      -3.1209      2.00000
     47      -3.0594      2.00000
     48      -2.9720      2.00000
     49      -2.6732      2.00000
     50      -2.5466      2.00000
     51      -2.1424      2.00000
     52      -1.5540      2.00000
     53      -1.4329      2.00000
     54      -1.3220      2.00000
     55      -1.0047      2.00000
     56      -0.9472      2.00000
     57      -0.7459      2.00000
     58      -0.6688      2.00000
     59      -0.6040      2.00000
     60      -0.5734      2.00000
     61      -0.5527      2.00000
     62      -0.4548      2.00000
     63      -0.2143      2.00000
     64       0.2103      2.00000
     65       2.8479      0.00000
     66       3.1610      0.00000
     67       3.4290      0.00000
     68       3.4655      0.00000
     69       3.5955      0.00000
     70       3.6334      0.00000
     71       3.7545      0.00000
     72       3.7704      0.00000
     73       3.7881      0.00000
     74       3.8768      0.00000
     75       3.9617      0.00000
     76       4.0228      0.00000

 k-point    10 :       0.4286    0.4286    0.0000
  band No.  band energies     occupation 
      1     -33.7497      2.00000
      2     -32.7584      2.00000
      3     -32.6684      2.00000
      4     -32.6228      2.00000
      5     -17.0451      2.00000
      6     -16.8472      2.00000
      7     -16.7203      2.00000
      8     -16.6841      2.00000
      9     -16.6273      2.00000
     10     -16.5852      2.00000
     11     -16.4481      2.00000
     12     -16.4190      2.00000
     13     -16.3822      2.00000
     14     -16.0088      2.00000
     15     -15.9207      2.00000
     16     -15.8896      2.00000
     17     -15.8136      2.00000
     18     -15.6520      2.00000
     19     -15.3827      2.00000
     20     -14.9783      2.00000
     21     -14.9272      2.00000
     22     -14.9193      2.00000
     23     -14.7732      2.00000
     24     -14.7021      2.00000
     25     -14.6273      2.00000
     26     -14.5732      2.00000
     27     -14.4890      2.00000
     28     -14.4682      2.00000
     29      -4.6046      2.00000
     30      -4.5266      2.00000
     31      -4.4658      2.00000
     32      -4.3951      2.00000
     33      -4.2734      2.00000
     34      -4.2386      2.00000
     35      -4.1695      2.00000
     36      -4.1592      2.00000
     37      -4.0751      2.00000
     38      -4.0308      2.00000
     39      -3.9159      2.00000
     40      -3.8523      2.00000
     41      -3.7913      2.00000
     42      -3.7325      2.00000
     43      -3.5261      2.00000
     44      -3.4727      2.00000
     45      -3.4567      2.00000
     46      -3.3926      2.00000
     47      -3.1480      2.00000
     48      -3.1150      2.00000
     49      -2.7571      2.00000
     50      -2.6613      2.00000
     51      -2.4045      2.00000
     52      -1.4246      2.00000
     53      -1.3525      2.00000
     54      -1.3437      2.00000
     55      -0.9465      2.00000
     56      -0.9014      2.00000
     57      -0.5464      2.00000
     58      -0.5034      2.00000
     59      -0.2920      2.00000
     60      -0.2531      2.00000
     61      -0.2276      2.00000
     62      -0.1809      2.00000
     63      -0.1532      2.00000
     64       0.5538      2.00000
     65       3.4198      0.00000
     66       3.4828      0.00000
     67       3.6719      0.00000
     68       3.7114      0.00000
     69       3.8801      0.00000
     70       3.9613      0.00000
     71       4.0234      0.00000
     72       4.0360      0.00000
     73       4.0823      0.00000
     74       7.2587      0.00000
     75       7.3413      0.00000
     76       7.6027      0.00000


--------------------------------------------------------------------------------------------------------


 soft charge-density along one line, spin component           1
         0         1         2         3         4         5         6         7         8         9
 total charge-density along one line
 
 pseudopotential strength for first ion, spin component:           1
 12.658  -0.343   0.000  -0.022   0.000  -0.000   0.001  -0.000
 -0.343   0.083  -0.000   0.002  -0.000   0.000  -0.000   0.000
  0.000  -0.000  -8.951   0.000   0.000  -0.091  -0.000  -0.000
 -0.022   0.002   0.000  -8.972  -0.000  -0.000  -0.088   0.000
  0.000  -0.000   0.000  -0.000  -8.951  -0.000   0.000  -0.091
 -0.000   0.000  -0.091  -0.000  -0.000   0.247   0.000   0.000
  0.001  -0.000  -0.000  -0.088   0.000   0.000   0.246  -0.000
 -0.000   0.000  -0.000   0.000  -0.091   0.000  -0.000   0.247
 total augmentation occupancy for first ion, spin component:           1
  1.868   0.139  -0.000  -0.006   0.000   0.000   0.012  -0.000
  0.139   0.014  -0.000   0.026   0.000   0.000   0.005   0.000
 -0.000  -0.000   1.521   0.000   0.000   0.126   0.000   0.000
 -0.006   0.026   0.000   1.520   0.000   0.000   0.136   0.000
  0.000   0.000   0.000   0.000   1.521   0.000   0.000   0.126
  0.000   0.000   0.126   0.000   0.000   0.012   0.000   0.000
  0.012   0.005   0.000   0.136   0.000   0.000   0.013   0.000
  0.000   0.000   0.000   0.000   0.126   0.000   0.000   0.012


------------------------ aborting loop because EDIFF is reached ----------------------------------------


    CHARGE:  cpu time    0.1300: real time    0.1304
    FORLOC:  cpu time    0.0140: real time    0.0143
    FORNL :  cpu time    1.5828: real time    1.5822
    STRESS:  cpu time    3.2265: real time    3.2251
    FORCOR:  cpu time    0.0670: real time    0.0671
    FORHAR:  cpu time    0.0230: real time    0.0231
    MIXING:  cpu time    0.0050: real time    0.0044
    OFIELD:  cpu time    0.0000: real time    0.0000

  FORCE on cell =-STRESS in cart. coord.  units (eV):
  Direction    XX          YY          ZZ          XY          YZ          ZX
  --------------------------------------------------------------------------------------
  Alpha Z   451.31605   451.31605   451.31605
  Ewald   30025.31756 30025.31756-35136.94585     0.00000     0.00000     0.00000
  Hartree 32581.86160 32581.86160-31379.76583    -0.00000    -0.00000    -0.00000
  E(xc)    -579.82796  -579.82796  -579.32397     0.00000     0.00000     0.00000
  Local  -64349.73643-64349.73643 64782.17157     0.00000     0.00000    -0.00000
  n-local  -489.05872  -465.95982  -479.79496    -1.76741    -0.00010     0.00005
  augment   115.91977   115.91977   114.89592     0.00000     0.00000    -0.00000
  Kinetic  2211.45028  2257.19401  2230.13472    -9.56555    -0.00002    -0.00004
  Fock        0.00000     0.00000     0.00000     0.00000     0.00000     0.00000
  -------------------------------------------------------------------------------------
  Total       1.66345     1.66345     2.68765     0.00000     0.00000    -0.00000
  in kB       6.80801     6.80801    10.99975     0.00000     0.00000    -0.00000
  external pressure =        8.21 kB  Pullay stress =        0.00 kB


 VOLUME and BASIS-vectors are now :
 -----------------------------------------------------------------------------
  energy-cutoff  :      450.00
  volume of cell :      391.47
      direct lattice vectors                 reciprocal lattice vectors
     3.905268000  0.000000000  0.000000000     0.256064373  0.000000000  0.000000000
     0.000000000  3.905268000  0.000000000     0.000000000  0.256064373  0.000000000
     0.000000000  0.000000000 25.668438000     0.000000000  0.000000000  0.038958350

  length of vectors
     3.905268000  3.905268000 25.668438000     0.256064373  0.256064373  0.038958350


 FORCES acting on ions
    electron-ion (+dipol)            ewald-force                    non-local-force                 convergence-correction
 -----------------------------------------------------------------------------------------------
   0.766E-13 -.204E-12 0.157E+04   -.276E-14 0.267E-14 -.158E+04   0.000E+00 0.424E-21 0.791E+01   0.170E-13 0.104E-13 0.134E-02
   0.534E-13 0.173E-13 0.112E+04   -.723E-14 -.374E-14 -.111E+04   0.529E-22 -.212E-21 -.246E+00   0.386E-14 -.253E-14 0.736E-03
   0.595E-14 0.291E-13 0.112E+04   0.548E-14 -.847E-14 -.111E+04   0.000E+00 0.000E+00 -.246E+00   -.258E-14 0.119E-13 0.736E-03
   0.758E-13 0.116E-12 0.669E+03   -.956E-14 -.300E-14 -.669E+03   0.000E+00 0.127E-20 0.675E+00   -.160E-13 0.243E-13 0.473E-03
   0.647E-13 0.682E-13 0.223E+03   -.458E-14 -.321E-14 -.223E+03   0.000E+00 0.000E+00 0.210E+00   0.644E-14 -.163E-14 -.183E-05
   0.738E-14 -.124E-12 0.223E+03   0.843E-14 -.119E-13 -.223E+03   -.794E-22 0.106E-21 0.210E+00   -.334E-14 0.228E-13 -.183E-05
   0.626E-13 0.206E-12 -.223E+03   0.148E-14 0.548E-14 0.223E+03   0.000E+00 0.212E-21 0.548E+00   -.133E-13 0.153E-13 -.620E-03
   0.581E-13 0.673E-13 -.669E+03   -.364E-14 -.423E-14 0.669E+03   0.000E+00 -.212E-21 0.399E-01   0.197E-13 -.127E-13 -.747E-03
   0.119E-13 0.892E-13 -.669E+03   0.918E-14 -.129E-13 0.669E+03   0.000E+00 0.000E+00 0.399E-01   0.586E-14 0.153E-13 -.747E-03
   0.537E-13 0.411E-12 -.112E+04   -.275E-14 -.659E-17 0.111E+04   -.424E-21 0.000E+00 0.272E+01   -.173E-14 0.226E-13 0.268E-03
   0.648E-13 0.116E-12 -.154E+04   -.662E-14 -.619E-14 0.154E+04   0.000E+00 -.424E-21 -.220E+01   -.491E-14 -.560E-14 0.143E-02
   -.653E-14 0.116E-12 -.154E+04   0.656E-14 -.517E-14 0.154E+04   0.000E+00 0.000E+00 -.220E+01   -.138E-13 0.244E-13 0.143E-02
   0.535E-14 -.228E-12 0.255E+04   0.718E-14 0.728E-15 -.255E+04   0.424E-21 0.000E+00 -.499E+01   0.306E-14 0.140E-14 0.309E-02
   0.553E-14 0.101E-12 0.111E+04   0.107E-13 0.217E-14 -.111E+04   0.635E-21 0.000E+00 0.177E-01   -.256E-13 0.282E-14 0.834E-03
   0.630E-14 -.968E-13 -.372E+03   0.231E-14 0.116E-13 0.372E+03   0.000E+00 -.424E-21 0.105E+00   -.248E-13 -.201E-14 -.782E-03
   0.316E-14 -.189E-13 -.186E+04   0.115E-13 0.210E-14 0.186E+04   0.847E-21 0.000E+00 -.810E+00   -.108E-13 -.112E-14 0.149E-03
   -.180E-13 0.409E-14 0.743E+03   -.881E-14 0.112E-13 -.744E+03   0.000E+00 0.529E-22 -.382E+00   0.154E-14 -.786E-15 0.627E-03
   -.104E-13 0.136E-14 0.148E+03   -.903E-14 0.795E-14 -.149E+03   0.424E-21 0.000E+00 -.861E-01   -.152E-14 0.404E-14 0.106E-04
   -.653E-14 -.919E-13 -.446E+03   -.935E-14 0.112E-13 0.446E+03   -.106E-21 0.000E+00 -.129E-01   -.223E-14 0.527E-14 -.481E-03
   -.171E-13 0.224E-12 -.105E+04   -.597E-14 0.907E-14 0.104E+04   0.000E+00 0.000E+00 0.144E+01   0.212E-14 0.766E-14 0.102E-02
 -----------------------------------------------------------------------------------------------
   0.497E-12 0.804E-12 -.276E+01   -.747E-14 0.527E-14 0.909E-12   0.177E-20 0.794E-21 0.275E+01   -.609E-13 0.142E-12 0.876E-02
 
 
 POSITION                                       TOTAL-FORCE (eV/Angst)
 -----------------------------------------------------------------------------------
      1.95263      1.95263      6.00000         0.000000      0.000000     -1.071132
      1.95263      0.00000      7.95263        -0.000000      0.000000     -0.003843
      0.00000      1.95263      7.95263        -0.000000      0.000000     -0.003843
      1.95263      1.95263      9.90527        -0.000000      0.000000      0.380180
      1.95263      0.00000     11.85790         0.000000      0.000000      0.068385
      0.00000      1.95263     11.85790        -0.000000      0.000000      0.068385
      1.95263      1.95263     13.81054        -0.000000     -0.000000      0.304866
      1.95263      0.00000     15.76317        -0.000000      0.000000      0.020217
      0.00000      1.95263     15.76317        -0.000000      0.000000      0.020217
      1.95263      1.95263     17.71580        -0.000000      0.000000      1.063644
      1.95263      0.00000     19.66844        -0.000000     -0.000000      0.454541
      0.00000      1.95263     19.66844        -0.000000     -0.000000      0.454541
      0.00000      0.00000      6.00000         0.000000      0.000000      1.190635
      0.00000      0.00000      9.90527        -0.000000     -0.000000     -0.006430
      0.00000      0.00000     13.81054        -0.000000     -0.000000     -0.058395
      0.00000      0.00000     17.71580        -0.000000      0.000000      0.662616
      1.95263      1.95263      7.95263        -0.000000      0.000000     -1.026229
      1.95263      1.95263     11.85790        -0.000000      0.000000     -0.310149
      1.95263      1.95263     15.76317        -0.000000     -0.000000     -0.368289
      1.95263      1.95263     19.66844        -0.000000     -0.000000     -1.839916
 -----------------------------------------------------------------------------------
    total drift:                                0.000000      0.000000      0.000633


--------------------------------------------------------------------------------------------------------



  FREE ENERGIE OF THE ION-ELECTRON SYSTEM (eV)
  ---------------------------------------------------
  free  energy   TOTEN  =      -156.73644307 eV

  energy  without entropy=     -156.73644307  energy(sigma->0) =     -156.73644307
 


--------------------------------------------------------------------------------------------------------


    POTLOK:  cpu time    0.0690: real time    0.0692


--------------------------------------------------------------------------------------------------------


     LOOP+:  cpu time  120.5067: real time  121.7707
    4ORBIT:  cpu time    0.0000: real time    0.0000
 BZINTS: Fermi energy:  0.605088;128.000000 electrons
         Band energy:***********;  BLOECHL correction:  0.000000

 total amount of memory used by VASP MPI-rank0    89504. kBytes
=======================================================================

   base      :      30000. kBytes
   nonl-proj :      19775. kBytes
   fftplans  :       4639. kBytes
   grid      :       8329. kBytes
   one-center:        155. kBytes
   wavefun   :      26606. kBytes
 
  
  
 General timing and accounting informations for this job:
 ========================================================
  
                  Total CPU time used (sec):      122.435
                            User time (sec):      120.648
                          System time (sec):        1.788
                         Elapsed time (sec):      124.560
  
                   Maximum memory used (kb):      100208.
                   Average memory used (kb):           0.
  
                          Minor page faults:        29165
                          Major page faults:          149
                 Voluntary context switches:         3168
