Starting job 28513935 ("jobname") on c12-35 at Wed Nov 6 13:16:02 CET 2019
 running on    4 total cores
 distrk:  each k-point on    4 cores,    1 groups
 distr:  one band on    2 cores,    2 groups
 using from now: INCAR     
 vasp.5.4.4.18Apr17-6-g9f103f2a35 (build Jun 30 2017 11:15:00) complex          
  
 POSCAR found type information on POSCAR  O  Sr Ti
 POSCAR found :  3 types and      20 ions
 scaLAPACK will be used

 ----------------------------------------------------------------------------- 
|                                                                             |
|  ADVICE TO THIS USER RUNNING 'VASP/VAMP'   (HEAR YOUR MASTER'S VOICE ...):  |
|                                                                             |
|      You have a (more or less) 'large supercell' and for larger cells       |
|      it might be more efficient to use real space projection operators      |
|      So try LREAL= Auto  in the INCAR   file.                               |
|      Mind: If you want to do a very accurate calculations keep the          |
|      reciprocal projection scheme          (i.e. LREAL=.FALSE.)             |
|                                                                             |
 ----------------------------------------------------------------------------- 

 LDA part: xc-table for Pade appr. of Perdew
 POSCAR, INCAR and KPOINTS ok, starting setup
 FFT: planning ...
 WAVECAR not read
 entering main loop
       N       E                     dE             d eps       ncg     rms          rms(c)
DAV:   1     0.154005474922E+04    0.15401E+04   -0.53362E+04  1528   0.140E+03
DAV:   2     0.158960914584E+03   -0.13811E+04   -0.13284E+04  1804   0.380E+02
DAV:   3    -0.177051755728E+03   -0.33601E+03   -0.32799E+03  2028   0.187E+02
DAV:   4    -0.200311032163E+03   -0.23259E+02   -0.23161E+02  1976   0.569E+01
DAV:   5    -0.201732722628E+03   -0.14217E+01   -0.14209E+01  2664   0.124E+01    0.370E+01
RMM:   6    -0.161300893848E+03    0.40432E+02   -0.28325E+02  1665   0.502E+01    0.136E+01
RMM:   7    -0.157751019172E+03    0.35499E+01   -0.12520E+01  1817   0.135E+01    0.711E+00
RMM:   8    -0.157028351362E+03    0.72267E+00   -0.31295E+00  2075   0.600E+00    0.322E+00
RMM:   9    -0.156815257089E+03    0.21309E+00   -0.12912E+00  2075   0.403E+00    0.978E-01
RMM:  10    -0.156776246252E+03    0.39011E-01   -0.23523E-01  2407   0.135E+00    0.611E-01
RMM:  11    -0.156754883195E+03    0.21363E-01   -0.15814E-01  2274   0.102E+00    0.401E-01
RMM:  12    -0.156742275262E+03    0.12608E-01   -0.52003E-02  2381   0.565E-01    0.310E-01
RMM:  13    -0.156736749730E+03    0.55255E-02   -0.21966E-02  2456   0.404E-01    0.164E-01
RMM:  14    -0.156732397023E+03    0.43527E-02   -0.22164E-02  2227   0.390E-01    0.168E-01
RMM:  15    -0.156731709200E+03    0.68782E-03   -0.81601E-03  2399   0.226E-01    0.616E-02
RMM:  16    -0.156732974934E+03   -0.12657E-02   -0.48506E-03  2364   0.156E-01    0.762E-02
RMM:  17    -0.156733320187E+03   -0.34525E-03   -0.16717E-03  2230   0.100E-01    0.253E-02
RMM:  18    -0.156734662166E+03   -0.13420E-02   -0.87103E-04  2277   0.671E-02    0.224E-02
RMM:  19    -0.156735689995E+03   -0.10278E-02   -0.42493E-04  1971   0.421E-02    0.996E-03
RMM:  20    -0.156736116705E+03   -0.42671E-03   -0.18658E-04  1763   0.263E-02    0.674E-03
RMM:  21    -0.156736374272E+03   -0.25757E-03   -0.11052E-04  1641   0.207E-02    0.440E-03
RMM:  22    -0.156736420191E+03   -0.45919E-04   -0.44317E-05  1394   0.160E-02    0.584E-03
RMM:  23    -0.156736435086E+03   -0.14896E-04   -0.21623E-05  1219   0.135E-02    0.194E-03
RMM:  24    -0.156736443066E+03   -0.79795E-05   -0.12281E-05  1129   0.110E-02
   1 F= -.15673644E+03 E0= -.15673644E+03  d E =0.000000E+00

Currently Loaded Modulefiles:
  1) intel/2017.4         2) perf-reports/7.0.6

Job script resource usage:
       JobID  MaxVMSize     MaxRSS 
------------ ---------- ---------- 
28513935.ba+    499236K      5950K 

Job step resource usage:
       JobID    JobName  AllocCPUS  MaxVMSize     MaxRSS    Elapsed ExitCode 
------------ ---------- ---------- ---------- ---------- ---------- -------- 
28513935        jobname          4                         00:02:08      0:0 
28513935.0    pmi_proxy          1   1538596K    335863K   00:02:05      0:0 

Job 28513935 ("jobname") completed on c12-35 at Wed Nov 6 13:18:08 CET 2019
