unknown system                          
   1.00000000000000     
     4.913700    0.000000    0.000000
    -2.456850    4.255389    0.000000
     0.000000    0.000000    5.405130
   Si   O 
     3     6
Direct
  0.469800  0.020000  0.666670
  0.000000  0.469800  0.333330
  0.530200  0.530200  0.000000
  0.414500  0.266200  0.785600
  0.733800  0.148300  0.452270
  0.851700  0.585500  0.118930
  0.148300  0.733800  0.547730
  0.266200  0.414500  0.214400
  0.585500  0.851700  0.881070
 
   48   48   56
 0.14708619564E+01 0.13862465633E+01 0.13766607888E+01 0.14191332358E+01 0.14960626126E+01
 0.15973632225E+01 0.17182064066E+01 0.18562368570E+01 0.20095109662E+01 0.21745052564E+01
 0.23448709579E+01 0.25123913100E+01 0.26702700673E+01 0.28176507659E+01 0.29635536757E+01
 0.31273388505E+01 0.33341459142E+01 0.36101508807E+01 0.39876395570E+01 0.45234507233E+01
 0.53184551629E+01 0.65177980153E+01 0.82838984823E+01 0.10756558363E+02 0.14024193671E+02
 0.18115777067E+02 0.22995682278E+02 0.28528996891E+02 0.34405934564E+02 0.40068511590E+02
 0.44728351476E+02 0.47541444752E+02 0.47900314450E+02 0.45690736126E+02 0.41349143673E+02
 0.35679375585E+02 0.29547135006E+02 0.23632104669E+02 0.18341233359E+02 0.13857879262E+02
 0.10232107904E+02 0.74397652157E+01 0.54003523825E+01 0.39833063193E+01 0.30293740889E+01
 0.23877569903E+01 0.19487733241E+01 0.16522542140E+01 0.14050990647E+01 0.13137670497E+01
 0.13062674109E+01 0.13624997958E+01 0.14641351345E+01 0.15996931853E+01 0.17637117972E+01
 0.19528407859E+01 0.21634119239E+01 0.23905787174E+01 0.26268332893E+01 0.28605279289E+01
 0.30772613604E+01 0.32648691247E+01 0.34196162843E+01 0.35504212393E+01 0.36786560341E+01
 0.38331037223E+01 0.40446887881E+01 0.43497313663E+01 0.48047999137E+01 0.55016165453E+01
 0.65633975489E+01 0.81170609396E+01 0.10257028217E+02 0.13021092883E+02 0.16381052025E+02
 0.20231995477E+02 0.24367303159E+02 0.28450430454E+02 0.32017644715E+02 0.34545594442E+02
 0.35585640353E+02 0.34916720229E+02 0.32635947408E+02 0.29127655068E+02 0.24924275022E+02
 0.20540960477E+02 0.16370049388E+02 0.12661050500E+02 0.95485796692E+01 0.70798285066E+01
 0.52272121830E+01 0.39018552235E+01 0.29812384162E+01 0.23447673723E+01 0.19010074288E+01
 0.15961955022E+01 0.14117342833E+01 0.13234386586E+01 0.13222856609E+01 0.13922723962E+01
 0.15164455370E+01 0.16826541085E+01 0.18850295216E+01 0.21208951586E+01 0.23873219845E+01
 0.26794052457E+01 0.29886648537E+01 0.33008820143E+01 0.35958021030E+01 0.38509115750E+01
 0.40483901849E+01 0.41824165943E+01 0.42637734987E+01 0.43188836455E+01 0.43830243919E+01
 0.44934487610E+01 0.46908522187E+01 0.50300941345E+01 0.55891226524E+01 0.64631236480E+01
 0.77426001388E+01 0.94860447458E+01 0.11697715640E+02 0.14312865164E+02 0.17188624916E+02
 0.20101924091E+02 0.22760664936E+02 0.24836407291E+02 0.26023455664E+02 0.26116159036E+02
 0.25075827139E+02 0.23049538414E+02 0.20324227984E+02 0.17240432214E+02 0.14113178945E+02
 0.11190107920E+02 0.86407889118E+01 0.65558247965E+01 0.49483070905E+01 0.37663237916E+01
 0.29211888273E+01 0.23210438167E+01 0.18946050528E+01 0.15985349140E+01 0.14689186356E+01
 0.13960795251E+01 0.14095630208E+01 0.14968460498E+01 0.16440921311E+01 0.18400218867E+01
 0.20785455001E+01 0.23584623642E+01 0.26801800323E+01 0.30413313626E+01 0.34333898081E+01
 0.38397981159E+01 0.42354193696E+01 0.45884208589E+01 0.48663316782E+01 0.50456577808E+01
 0.51210562046E+01 0.51092976855E+01 0.50458480536E+01 0.49760013196E+01 0.49461287698E+01
 0.50014276942E+01 0.51918523901E+01 0.55791961289E+01 0.62338561172E+01 0.72166477984E+01
 0.85539342823E+01 0.10219512569E+02 0.12128908419E+02 0.14141883443E+02 0.16069733417E+02
 0.17692451157E+02 0.18792669304E+02 0.19202477214E+02 0.18846135941E+02 0.17759932515E+02
 0.16081368508E+02 0.14014047807E+02 0.11782906297E+02 0.95942183120E+01 0.76084723402E+01
 0.59266962824E+01 0.45874999631E+01 0.35740512747E+01 0.28319171344E+01 0.22946554076E+01
 0.19072466146E+01 0.16368593793E+01 0.15601435119E+01 0.15143356583E+01 0.15520087909E+01
 0.16632145666E+01 0.18367949918E+01 0.20633950173E+01 0.23381805603E+01 0.26621040561E+01
 0.30397082019E+01 0.34735531878E+01 0.39582388170E+01 0.44766336435E+01 0.49986523604E+01
 0.54827582750E+01 0.58817107922E+01 0.61530343969E+01 0.62711999860E+01 0.62365401848E+01
 0.60771662895E+01 0.58428233969E+01 0.55928514964E+01 0.53842263246E+01 0.52666741246E+01
 0.52861047557E+01 0.54889684349E+01 0.59187105331E+01 0.66037953100E+01 0.75445329920E+01
 0.87042787207E+01 0.10004854628E+02 0.11326654642E+02 0.12518953603E+02 0.13424267207E+02
 0.13910561022E+02 0.13898574358E+02 0.13376060552E+02 0.12398698886E+02 0.11079197651E+02
 0.95648545832E+01 0.80076639892E+01 0.65371176231E+01 0.52443265464E+01 0.41774283761E+01
 0.33437453615E+01 0.27179801141E+01 0.22582025052E+01 0.19253748895E+01 0.16957902212E+01
 0.16757659070E+01 0.16672044836E+01 0.17379454073E+01 0.18805655905E+01 0.20857009172E+01
 0.23458730277E+01 0.26586151617E+01 0.30277233997E+01 0.34620249555E+01 0.39706492036E+01
 0.45550945129E+01 0.52012305391E+01 0.58752711396E+01 0.65254861325E+01 0.70890411718E+01
 0.75030438887E+01 0.77185843398E+01 0.77142659987E+01 0.75037940679E+01 0.71340233457E+01
 0.66743875499E+01 0.62018741470E+01 0.57864795600E+01 0.54819005729E+01 0.53246348620E+01
 0.53397694682E+01 0.55460068385E+01 0.59525646829E+01 0.65483269482E+01 0.72915250566E+01
 0.81080938601E+01 0.89001146061E+01 0.95606083276E+01 0.99909557556E+01 0.10118410839E+02
 0.99101513977E+01 0.93794634610E+01 0.85820455395E+01 0.76042152821E+01 0.65464254144E+01
 0.55052114110E+01 0.45570839800E+01 0.37486582851E+01 0.30958221172E+01 0.25909480824E+01
 0.22141951080E+01 0.19445729156E+01 0.17673623471E+01 0.18105676408E+01 0.18489279286E+01
 0.19613447683E+01 0.21427941620E+01 0.23861012440E+01 0.26852663819E+01 0.30393051517E+01
 0.34546949709E+01 0.39453569391E+01 0.45284132904E+01 0.52147608283E+01 0.59973918696E+01
 0.68432592324E+01 0.76926327372E+01 0.84660227032E+01 0.90771499770E+01 0.94501860357E+01
 0.95375196413E+01 0.93322122552E+01 0.88708640584E+01 0.82266659887E+01 0.74946441124E+01
 0.67717908709E+01 0.61375488861E+01 0.56429823401E+01 0.53131060410E+01 0.51568089687E+01
 0.51735541335E+01 0.53522042123E+01 0.56667125904E+01 0.60745610742E+01 0.65184295513E+01
 0.69299040051E+01 0.72373286456E+01 0.73793231867E+01 0.73187723100E+01 0.70491328803E+01
 0.65915972582E+01 0.59890064867E+01 0.53001504850E+01 0.45912439874E+01 0.39222727395E+01
 0.33341362978E+01 0.28451799928E+01 0.24577064306E+01 0.21668895701E+01 0.19660383452E+01
 0.18487805401E+01 0.19612436690E+01 0.20552276604E+01 0.22187597799E+01 0.24481965873E+01
 0.27387541191E+01 0.30854897007E+01 0.34871628438E+01 0.39515236783E+01 0.44975938347E+01
 0.51513315204E+01 0.59348437812E+01 0.68524980596E+01 0.78785172586E+01 0.89508332519E+01
 0.99750550801E+01 0.10839282509E+02 0.11436109581E+02 0.11685516561E+02 0.11552745195E+02
 0.11057024861E+02 0.10268761536E+02 0.92952873630E+01 0.82588307752E+01 0.72729398502E+01
 0.64234121130E+01 0.57579894605E+01 0.52871961780E+01 0.49955895944E+01 0.48574387078E+01
 0.48473188469E+01 0.49398251016E+01 0.51021735126E+01 0.52896985181E+01 0.54506182771E+01
 0.55372857388E+01 0.55162944297E+01 0.53727999655E+01 0.51099256877E+01 0.47461380725E+01
 0.43118768144E+01 0.38449902528E+01 0.33846031628E+01 0.29643694550E+01 0.26073777072E+01
 0.23250307660E+01 0.21202088281E+01 0.19921383202E+01 0.19395727187E+01 0.21248232289E+01
 0.22812538713E+01 0.25060821339E+01 0.27962098775E+01 0.31476180977E+01 0.35552631875E+01
 0.40165111837E+01 0.45381671180E+01 0.51416333698E+01 0.58605533101E+01 0.67299896566E+01
 0.77701308670E+01 0.89690498702E+01 0.10270321438E+02 0.11571795648E+02 0.12738679153E+02
 0.13628239000E+02 0.14119347576E+02 0.14139300901E+02 0.13680868788E+02 0.12804277441E+02
 0.11623698540E+02 0.10283733854E+02 0.89328744694E+01 0.76979751531E+01 0.66631183719E+01
 0.58597926242E+01 0.52748190295E+01 0.48722432542E+01 0.46145661599E+01 0.44708458099E+01
 0.44127615832E+01 0.44089876141E+01 0.44247309445E+01 0.44254447983E+01 0.43817708675E+01
 0.42746842859E+01 0.40990759489E+01 0.38626045669E+01 0.35802185127E+01 0.32698261810E+01
 0.29525828274E+01 0.26537607652E+01 0.23985483701E+01 0.22046876696E+01 0.20795329868E+01
 0.20241832204E+01 0.20389965291E+01 0.22971104800E+01 0.25210962724E+01 0.28170656923E+01
 0.31830729055E+01 0.36140956745E+01 0.41030334016E+01 0.46444005727E+01 0.52412073038E+01
 0.59125313685E+01 0.66958261816E+01 0.76386079192E+01 0.87798304363E+01 0.10127381218E+02
 0.11639945668E+02 0.13219431027E+02 0.14717632675E+02 0.15958524912E+02 0.16773243381E+02
 0.17038682697E+02 0.16707107985E+02 0.15817020509E+02 0.14483084916E+02 0.12870120389E+02
 0.11159626040E+02 0.95172204555E+01 0.80673996915E+01 0.68795829840E+01 0.59673119560E+01
 0.53003231188E+01 0.48257346019E+01 0.44901722888E+01 0.42531685906E+01 0.40872963761E+01
 0.39697782654E+01 0.38756239986E+01 0.37785801183E+01 0.36575798825E+01 0.35018861085E+01
 0.33111751546E+01 0.30924603131E+01 0.28576125803E+01 0.26226072834E+01 0.24066752169E+01
 0.22295719784E+01 0.21075661796E+01 0.20506269864E+01 0.20627248194E+01 0.21446924558E+01
 0.24716074410E+01 0.27665415667E+01 0.31419603526E+01 0.35985630512E+01 0.41309376829E+01
 0.47286309402E+01 0.53805277210E+01 0.60822204635E+01 0.68456695517E+01 0.77060535351E+01
 0.87178608467E+01 0.99371990953E+01 0.11396077560E+02 0.13078174496E+02 0.14903178795E+02
 0.16724413741E+02 0.18344228858E+02 0.19548695228E+02 0.20155015531E+02 0.20057051263E+02
 0.19252942477E+02 0.17844905434E+02 0.16011921265E+02 0.13966911880E+02 0.11915017839E+02
 0.10024169816E+02 0.84081297787E+01 0.71177396856E+01 0.61420281672E+01 0.54250952880E+01
 0.48960889423E+01 0.44963788718E+01 0.41886607307E+01 0.39490567540E+01 0.37563857193E+01
 0.35888204924E+01 0.34262209308E+01 0.32527707795E+01 0.30593607221E+01 0.28468243078E+01
 0.26271725886E+01 0.24194619299E+01 0.22428681900E+01 0.21128803741E+01 0.20417108576E+01
 0.20387189153E+01 0.21089768228E+01 0.22532714606E+01 0.26402574566E+01 0.30056501011E+01
 0.34655548903E+01 0.40243551817E+01 0.46785908333E+01 0.54151484873E+01 0.62151260788E+01
 0.70631645233E+01 0.79594571347E+01 0.89293609992E+01 0.10024384337E+02 0.11310077815E+02
 0.12841682148E+02 0.14634567350E+02 0.16639237782E+02 0.18728946952E+02 0.20705122993E+02
 0.22324146005E+02 0.23345361995E+02 0.23590666332E+02 0.22994777176E+02 0.21623948350E+02
 0.19655089587E+02 0.17327632939E+02 0.14890563112E+02 0.12560870101E+02 0.10497248690E+02
 0.87870109329E+01 0.74462230364E+01 0.64344309186E+01 0.56806014517E+01 0.51104886138E+01
 0.46649496762E+01 0.43048916574E+01 0.40060680812E+01 0.37506189891E+01 0.35212960581E+01
 0.33009534111E+01 0.30763440532E+01 0.28429838091E+01 0.26076853528E+01 0.23871416335E+01
 0.22032531877E+01 0.20772758328E+01 0.20249860860E+01 0.20544820494E+01 0.21673209294E+01
 0.23623691438E+01 0.27962528700E+01 0.32239536827E+01 0.37669840706E+01 0.44337784114E+01
 0.52243739994E+01 0.61252617281E+01 0.71109739503E+01 0.81538278174E+01 0.92376378104E+01
 0.10369794780E+02 0.11587333680E+02 0.12952480658E+02 0.14534136817E+02 0.16377872049E+02
 0.18474151148E+02 0.20735238366E+02 0.22987215733E+02 0.24982677387E+02 0.26440590992E+02
 0.27111691921E+02 0.26849477966E+02 0.25655323685E+02 0.23676747526E+02 0.21163254190E+02
 0.18402902635E+02 0.15663677286E+02 0.13153558762E+02 0.11002499876E+02 0.92624131258E+01
 0.79186732989E+01 0.69088730713E+01 0.61474846441E+01 0.55524682603E+01 0.50640430570E+01
 0.46473923943E+01 0.42826978567E+01 0.39549196110E+01 0.36510383523E+01 0.33614930703E+01
 0.30804994572E+01 0.28067618337E+01 0.25478608572E+01 0.23241553395E+01 0.21642767143E+01
 0.20928596038E+01 0.21212441048E+01 0.22491662620E+01 0.24736903532E+01 0.29381744239E+01
 0.34090709966E+01 0.40234044773E+01 0.47939608248E+01 0.57245407545E+01 0.68036677219E+01
 0.80034874260E+01 0.92862877455E+01 0.10617294222E+02 0.11979295733E+02 0.13383869874E+02
 0.14874191205E+02 0.16515279707E+02 0.18370888155E+02 0.20471636312E+02 0.22782709114E+02
 0.25180040517E+02 0.27444722459E+02 0.29286920533E+02 0.30405246666E+02 0.30569512761E+02
 0.29694026553E+02 0.27865773927E+02 0.25315000731E+02 0.22347618407E+02 0.19273560149E+02
 0.16354878897E+02 0.13777549522E+02 0.11640606650E+02 0.99587035270E+01 0.86787741808E+01
 0.77091384445E+01 0.69521496904E+01 0.63281456836E+01 0.57839301839E+01 0.52889101597E+01
 0.48273974446E+01 0.43927218683E+01 0.39831289402E+01 0.35983337042E+01 0.32386595574E+01
 0.29088507128E+01 0.26233711895E+01 0.24062313364E+01 0.22828985215E+01 0.22705190996E+01
 0.23749967206E+01 0.25966132062E+01 0.30739987396E+01 0.35566243217E+01 0.42166796318E+01
 0.50719370153E+01 0.61304837424E+01 0.73847305889E+01 0.88086919304E+01 0.10360034984E+02
 0.11988747285E+02 0.13651122844E+02 0.15324290309E+02 0.17016177603E+02 0.18766854897E+02
 0.20637604857E+02 0.22686124949E+02 0.24931495427E+02 0.27317774619E+02 0.29688213525E+02
 0.31785058288E+02 0.33289860504E+02 0.33905442679E+02 0.33452205938E+02 0.31931299533E+02
 0.29521503033E+02 0.26518570928E+02 0.23256444330E+02 0.20043506910E+02 0.17121024385E+02
 0.14638191981E+02 0.12644551516E+02 0.11104637028E+02 0.99300726716E+01 0.90142798957E+01
 0.82581004308E+01 0.75846064248E+01 0.69452415958E+01 0.63179283668E+01 0.56992569016E+01
 0.50963800317E+01 0.45224166756E+01 0.39935540257E+01 0.35254468608E+01 0.31311388361E+01
 0.28231942872E+01 0.26168116896E+01 0.25283367333E+01 0.25702249742E+01 0.27496806675E+01
 0.32220742584E+01 0.36746020720E+01 0.43404963826E+01 0.52440565810E+01 0.63993000653E+01
 0.78040727159E+01 0.94371580405E+01 0.11258061782E+02 0.13210097798E+02 0.15228070059E+02
 0.17251222640E+02 0.19239675092E+02 0.21188518467E+02 0.23131275512E+02 0.25127155844E+02
 0.27232702585E+02 0.29462716368E+02 0.31748254593E+02 0.33902438883E+02 0.35634496951E+02
 0.36628649677E+02 0.36632614998E+02 0.35543628618E+02 0.33449665401E+02 0.30608746797E+02
 0.27368418116E+02 0.24063989962E+02 0.20969525561E+02 0.18270198928E+02 0.16052442352E+02
 0.14310936889E+02 0.12971698860E+02 0.11924395871E+02 0.11053323902E+02 0.10259764888E+02
 0.94739926226E+01 0.86585452103E+01 0.78057247679E+01 0.69321432515E+01 0.60712146033E+01
 0.52630989882E+01 0.45437293887E+01 0.39377962923E+01 0.34590818638E+01 0.31155031314E+01
 0.29131940190E+01 0.28578875877E+01 0.29566997316E+01 0.34071139034E+01 0.37836802880E+01
 0.44050974596E+01 0.53049065174E+01 0.65057037108E+01 0.80126900715E+01 0.98117883164E+01
 0.11869839281E+02 0.14133256621E+02 0.16526375879E+02 0.18956867734E+02 0.21333613190E+02
 0.23591827757E+02 0.25712165325E+02 0.27723625930E+02 0.29688740750E+02 0.31671698974E+02
 0.33661086169E+02 0.35551769482E+02 0.37175644953E+02 0.38297799455E+02 0.38664962644E+02
 0.38095389605E+02 0.36557464344E+02 0.34190677131E+02 0.31267593450E+02 0.28133042187E+02
 0.25120120384E+02 0.22435275392E+02 0.20184218723E+02 0.18385441315E+02 0.16981891720E+02
 0.15867599086E+02 0.14921618293E+02 0.14033332659E+02 0.13114139049E+02 0.12104551792E+02
 0.10983189920E+02 0.97711336762E+01 0.85227477542E+01 0.73062163450E+01 0.61861591508E+01
 0.52149392901E+01 0.44287679653E+01 0.38443465956E+01 0.34592484955E+01 0.32608561787E+01
 0.32409992493E+01 0.36555746880E+01 0.39126348487E+01 0.44367084041E+01 0.52712818466E+01
 0.64506075264E+01 0.79901381001E+01 0.98855547340E+01 0.12114638204E+02 0.14634363788E+02
 0.17371970481E+02 0.20219321010E+02 0.23043378563E+02 0.25715229767E+02 0.28144310226E+02
 0.30299852861E+02 0.32211937497E+02 0.33917527854E+02 0.35385715485E+02 0.36628296998E+02
 0.37666289836E+02 0.38454371863E+02 0.38855003687E+02 0.38692026468E+02 0.37845755524E+02
 0.36318462252E+02 0.34234030771E+02 0.31797646341E+02 0.29262200880E+02 0.26908356097E+02
 0.24916882991E+02 0.23304604214E+02 0.22020671360E+02 0.20971030273E+02 0.20042461907E+02
 0.19122131821E+02 0.18108436567E+02 0.16921493219E+02 0.15520311391E+02 0.13918545217E+02
 0.12183709538E+02 0.10416988525E+02 0.87267132752E+01 0.72088965242E+01 0.59360115843E+01
 0.49488525618E+01 0.42524572359E+01 0.38233244188E+01 0.36297788330E+01 0.40002946230E+01
 0.40930135556E+01 0.44710481730E+01 0.51790551675E+01 0.62629471016E+01 0.77516476572E+01
 0.96534612941E+01 0.11959247044E+02 0.14640897659E+02 0.17639768037E+02 0.20851074371E+02
 0.24120403192E+02 0.27266071264E+02 0.30122111063E+02 0.32578231642E+02 0.34592563989E+02
 0.36071163758E+02 0.36911713040E+02 0.37190977460E+02 0.37128296572E+02 0.36959162390E+02
 0.36808187968E+02 0.36649787445E+02 0.36370823603E+02 0.35865945975E+02 0.35087763790E+02
 0.34040576738E+02 0.32766853412E+02 0.31364997880E+02 0.30017180087E+02 0.28906353439E+02
 0.28012913482E+02 0.27255511609E+02 0.26531855586E+02 0.25725687706E+02 0.24720046021E+02
 0.23414168970E+02 0.21745252481E+02 0.19713103118E+02 0.17394300531E+02 0.14929998811E+02
 0.12488464282E+02 0.10224049912E+02 0.82539311044E+01 0.66530435817E+01 0.54533502053E+01
 0.46428464354E+01 0.41756179964E+01 0.44983121057E+01 0.43618452585E+01 0.45463175893E+01
 0.50745088189E+01 0.59936480671E+01 0.73458765504E+01 0.91547823101E+01 0.11426086741E+02
 0.14148423548E+02 0.17283382829E+02 0.20745053367E+02 0.24382719490E+02 0.27987600466E+02
 0.31332167399E+02 0.34222905160E+02 0.36516741912E+02 0.37936670179E+02 0.38229462314E+02
 0.37428019736E+02 0.35878856231E+02 0.34119183049E+02 0.32659472758E+02 0.31805278870E+02
 0.31618894395E+02 0.31997519645E+02 0.32760973441E+02 0.33683509617E+02 0.34507003644E+02
 0.35005965405E+02 0.35101327629E+02 0.34933348099E+02 0.34761702696E+02 0.34615549898E+02
 0.34405028398E+02 0.33999559817E+02 0.33241583128E+02 0.31979461858E+02 0.30109113466E+02
 0.27615925870E+02 0.24599894178E+02 0.21262445760E+02 0.17852730385E+02 0.14602709879E+02
 0.11688639983E+02 0.92281588314E+01 0.72890504311E+01 0.58872825345E+01 0.49828761726E+01
 0.52501546383E+01 0.47759597413E+01 0.47041463223E+01 0.50053438158E+01 0.57035919124E+01
 0.68442580587E+01 0.84656440117E+01 0.10589591759E+02 0.13221795391E+02 0.16345565480E+02
 0.19902220702E+02 0.23765574117E+02 0.27730778639E+02 0.31537713641E+02 0.34924724053E+02
 0.37650087893E+02 0.39253816028E+02 0.39262452843E+02 0.37539174048E+02 0.34416015826E+02
 0.30647143753E+02 0.27162251211E+02 0.24748973606E+02 0.23852367363E+02 0.24562238928E+02
 0.26692873039E+02 0.29836322249E+02 0.33397599783E+02 0.36712354960E+02 0.39273192934E+02
 0.40940755060E+02 0.41976696541E+02 0.42808052420E+02 0.43519226615E+02 0.43966618655E+02
 0.43910317914E+02 0.43073167756E+02 0.41235331842E+02 0.38328790815E+02 0.34487026406E+02
 0.30018521854E+02 0.25314077100E+02 0.20738714232E+02 0.16563767250E+02 0.12958769439E+02
 0.10017340775E+02 0.77762994185E+01 0.62139068410E+01 0.64006415114E+01 0.54268821931E+01
 0.49998333954E+01 0.50178775424E+01 0.54513719087E+01 0.63258835254E+01 0.76839823436E+01
 0.95612343893E+01 0.11980650343E+02 0.14947245150E+02 0.18430818768E+02 0.22339894694E+02
 0.26499439270E+02 0.30652509981E+02 0.34499273545E+02 0.37729584507E+02 0.39751867085E+02
 0.39849140607E+02 0.37619302692E+02 0.33214997729E+02 0.27431057798E+02 0.21522456856E+02
 0.16804330721E+02 0.14266809422E+02 0.14402916394E+02 0.17223979505E+02 0.22301428150E+02
 0.28787576369E+02 0.35546782317E+02 0.41494188163E+02 0.46006824897E+02 0.49129357815E+02
 0.51422989845E+02 0.53492127996E+02 0.55357330336E+02 0.56677860029E+02 0.56959691755E+02
 0.55725669778E+02 0.52716739513E+02 0.48030817960E+02 0.42117403299E+02 0.35624973395E+02
 0.29189291323E+02 0.23276699748E+02 0.18143346587E+02 0.13889381525E+02 0.10535969880E+02
 0.80627199571E+01 0.81128048396E+01 0.64377568051E+01 0.55112845066E+01 0.51626223419E+01
 0.52880110077E+01 0.58626756156E+01 0.69094123713E+01 0.84669993415E+01 0.10574994690E+02
 0.13260343858E+02 0.16517952663E+02 0.20290620169E+02 0.24448022577E+02 0.28768638120E+02
 0.32950104840E+02 0.36650558476E+02 0.39241725591E+02 0.39800520145E+02 0.37625451817E+02
 0.32560270847E+02 0.25232536122E+02 0.17020578854E+02 0.96676205768E+01 0.47480496472E+01
 0.33053584711E+01 0.57580622621E+01 0.11896688145E+02 0.20839972118E+02 0.31097233713E+02
 0.40958274516E+02 0.49131661000E+02 0.55229561684E+02 0.59755934962E+02 0.63630510624E+02
 0.67449091618E+02 0.70913333896E+02 0.73269059090E+02 0.73627646304E+02 0.71308935146E+02
 0.66161162625E+02 0.58684627922E+02 0.49867886601E+02 0.40822708734E+02 0.32427825687E+02
 0.25160980790E+02 0.19154022280E+02 0.14364241091E+02 0.10712457962E+02 0.10528426483E+02
 0.79363112849E+01 0.63337446623E+01 0.55015490853E+01 0.52602074194E+01 0.55097405126E+01
 0.62234270585E+01 0.74235037394E+01 0.91580084526E+01 0.11473110735E+02 0.14385301970E+02
 0.17867275549E+02 0.21836401576E+02 0.26126044841E+02 0.30464412143E+02 0.34506942959E+02
 0.37693819121E+02 0.38994744527E+02 0.37439258313E+02 0.32508123553E+02 0.24490987117E+02
 0.14638690440E+02 0.48960796633E+01 -.26852320406E+01 -.64797818624E+01 -.55253662622E+01
 0.40522909660E+00 0.10678659635E+02 0.23724090663E+02 0.37349398728E+02 0.49528454786E+02
 0.59222390923E+02 0.66658020172E+02 0.72896430853E+02 0.79025222292E+02 0.85239208660E+02
 0.90623940438E+02 0.93814521438E+02 0.93494295113E+02 0.88938817108E+02 0.80398713459E+02
 0.69082842528E+02 0.56709075898E+02 0.44868356395E+02 0.34561141730E+02 0.26118545304E+02
 0.19441801931E+02 0.14308071837E+02 0.13738691249E+02 0.10018996686E+02 0.75586278109E+01
 0.61054026116E+01 0.54148418338E+01 0.53043792221E+01 0.56784273194E+01 0.65187293895E+01
 0.78600698567E+01 0.97566335806E+01 0.12245966501E+02 0.15329332673E+02 0.18964871553E+02
 0.23043467360E+02 0.27350650049E+02 0.31568890765E+02 0.35256974285E+02 0.37439823835E+02
 0.36958146096E+02 0.32958554154E+02 0.25303161072E+02 0.14882487503E+02 0.35473846537E+01
 -.64011637568E+01 -.12849308729E+02 -.14270181781E+02 -.98832016252E+01 0.16594111047E+00
 0.14579428150E+02 0.31017580198E+02 0.46852345746E+02 0.60265788675E+02 0.70947191930E+02
 0.79898008793E+02 0.88538077395E+02 0.97683486384E+02 0.10667321464E+03 0.11377023116E+03
 0.11695680351E+03 0.11465727915E+03 0.10643576214E+03 0.93317246377E+02 0.77475302786E+02
 0.61398247734E+02 0.47003279102E+02 0.35188676673E+02 0.25972270712E+02 0.18958555354E+02
 0.17774930658E+02 0.12726440744E+02 0.92465095331E+01 0.70360063776E+01 0.57958017324E+01
 0.52721459850E+01 0.53001959205E+01 0.58016561597E+01 0.67673599238E+01 0.82390759230E+01
 0.10273975136E+02 0.12902908713E+02 0.16113433540E+02 0.19844871089E+02 0.23957896715E+02
 0.28200028261E+02 0.32218398584E+02 0.35270786620E+02 0.36141890775E+02 0.33736480117E+02
 0.27491289754E+02 0.17779873967E+02 0.60673713373E+01 -.54043985545E+01 -.14247989029E+02
 -.18466647104E+02 -.16716008414E+02 -.85142338144E+01 0.54215564164E+01 0.23018771493E+02
 0.41378543297E+02 0.57970131887E+02 0.71744816475E+02 0.83359798208E+02 0.94396917856E+02
 0.10616944214E+03 0.11865709984E+03 0.13009709142E+03 0.13792219598E+03 0.13966339636E+03
 0.13379155109E+03 0.12061928956E+03 0.10230120360E+03 0.82024293697E+02 0.62858470483E+02
 0.46731578977E+02 0.34167741870E+02 0.24744108812E+02 0.22602587603E+02 0.16033103451E+02
 0.11404476203E+02 0.83215321155E+01 0.64323937930E+01 0.54322813350E+01 0.50981401157E+01
 0.52832831894E+01 0.59121086562E+01 0.69916261951E+01 0.85867590661E+01 0.10753072573E+02
 0.13499744959E+02 0.16805266977E+02 0.20610003053E+02 0.24752856019E+02 0.28941334969E+02
 0.32708172253E+02 0.35005300567E+02 0.34621485340E+02 0.30650479148E+02 0.22909699330E+02
 0.12265714686E+02 0.56597553765E+00 -.98518057834E+01 -.16727602537E+02 -.18231752668E+02
 -.13222445937E+02 -.16565924704E+01 0.15023504208E+02 0.34096667049E+02 0.52616731329E+02
 0.68766642021E+02 0.82569300154E+02 0.95473194508E+02 0.10915743721E+03 0.12429096740E+03
 0.13958824349E+03 0.15231624035E+03 0.15942803223E+03 0.15804449846E+03 0.14708732043E+03
 0.12827778322E+03 0.10514268124E+03 0.81535275135E+02 0.60677634212E+02 0.44084018459E+02
 0.31674150643E+02 0.28086577252E+02 0.19835663695E+02 0.13970422015E+02 0.99381339698E+01
 0.73263948204E+01 0.57948601733E+01 0.50722393466E+01 0.49482899524E+01 0.52810047259E+01
 0.60280025746E+01 0.72363516031E+01 0.89701541975E+01 0.11259677443E+02 0.14120318893E+02
 0.17561559045E+02 0.21517472025E+02 0.25778368572E+02 0.30023757847E+02 0.33605166580E+02
 0.35362702519E+02 0.34185764334E+02 0.29421267449E+02 0.21263215468E+02 0.10891765641E+02
 0.22478264262E+00 -.85278834246E+01 -.13241753348E+02 -.12201683191E+02 -.45687807824E+01
 0.90866136356E+01 0.26670743467E+02 0.45282297801E+02 0.62531327039E+02 0.77641419670E+02
 0.91579495062E+02 0.10613478068E+03 0.12255567881E+03 0.14034625556E+03 0.15704358445E+03
 0.16951919575E+03 0.17403047990E+03 0.16781220052E+03 0.15110964677E+03 0.12733205539E+03
 0.10096018952E+03 0.76024442514E+02 0.55312303616E+02 0.39558532988E+02 0.33916529815E+02
 0.23927826535E+02 0.16803137912E+02 0.11803701375E+02 0.84431491789E+01 0.63499489762E+01
 0.52119577425E+01 0.47711287940E+01 0.48377669905E+01 0.53171635763E+01 0.62110050484E+01
 0.75702415742E+01 0.94470746765E+01 0.11894122906E+02 0.14970653474E+02 0.18691554048E+02
 0.22951755600E+02 0.27518901894E+02 0.32058046289E+02 0.35746124928E+02 0.37434963417E+02
 0.36172406281E+02 0.31559046400E+02 0.23996574078E+02 0.14690464964E+02 0.54369590818E+01
 -.16687212903E+01 -.45717744414E+01 -.17438635803E+01 0.72087664606E+01 0.21156758503E+02
 0.37731403989E+02 0.54365802685E+02 0.69561370517E+02 0.83545427870E+02 0.97841880518E+02
 0.11403304056E+03 0.13243150400E+03 0.15122750410E+03 0.16752109913E+03 0.17760859013E+03
 0.17758708505E+03 0.16580912306E+03 0.14431828081E+03 0.11774462140E+03 0.90632994501E+02
 0.66708291473E+02 0.47831432435E+02 0.39534538615E+02 0.27972778213E+02 0.19680108337E+02
 0.13779759811E+02 0.97065288770E+01 0.70571507535E+01 0.54919609409E+01 0.47267938100E+01
 0.45448325274E+01 0.48052557993E+01 0.54530639485E+01 0.65110128139E+01 0.80461374023E+01
 0.10141833394E+02 0.12890234079E+02 0.16368713824E+02 0.20578091706E+02 0.25390916935E+02
 0.30566409958E+02 0.35709119265E+02 0.39898854555E+02 0.42075580298E+02 0.41430550013E+02
 0.37671417426E+02 0.31191928871E+02 0.23090151286E+02 0.15052748217E+02 0.91156531943E+01
 0.72394972983E+01 0.10685021781E+02 0.19417298547E+02 0.31978820157E+02 0.46121273007E+02
 0.59962029572E+02 0.72954756999E+02 0.86005336623E+02 0.10064569528E+03 0.11778478624E+03
 0.13653296878E+03 0.15435510877E+03 0.16807418287E+03 0.17373596784E+03 0.16833553114E+03
 0.15200113465E+03 0.12821815421E+03 0.10164773050E+03 0.76432000388E+02 0.55463387420E+02
 0.44153810062E+02 0.31506969971E+02 0.22309251592E+02 0.15678442130E+02 0.10998446334E+02
 0.78437527539E+01 0.58705693885E+01 0.47904344419E+01 0.43714733666E+01 0.44382957593E+01
 0.48900240925E+01 0.57190147217E+01 0.69916605149E+01 0.88077638046E+01 0.11283554970E+02
 0.14545146783E+02 0.18680904861E+02 0.23665146125E+02 0.29330315907E+02 0.35411676481E+02
 0.41453177471E+02 0.46513155769E+02 0.49579471987E+02 0.49873219526E+02 0.47079584981E+02
 0.41512650903E+02 0.34186477288E+02 0.26758528370E+02 0.21251129787E+02 0.19488517996E+02
 0.22405519979E+02 0.29621869451E+02 0.39644835586E+02 0.50691573655E+02 0.61674606619E+02
 0.72732732043E+02 0.84959884853E+02 0.99484139056E+02 0.11623674378E+03 0.13348492869E+03
 0.14838516539E+03 0.15767323707E+03 0.15808640195E+03 0.14823488268E+03 0.12978476170E+03
 0.10648774510E+03 0.82442499375E+02 0.61115327448E+02 0.46933674509E+02 0.34008364483E+02
 0.24362356986E+02 0.17279840712E+02 0.12168837724E+02 0.86128909776E+01 0.62913261608E+01
 0.49297451495E+01 0.42895970743E+01 0.41756779394E+01 0.44623450045E+01 0.51180485435E+01
 0.61951539659E+01 0.77965353329E+01 0.10058460282E+02 0.13144133886E+02 0.17202620015E+02
 0.22293120648E+02 0.28336822349E+02 0.35131111882E+02 0.42379453021E+02 0.49544240528E+02
 0.55621753113E+02 0.59554616985E+02 0.60517304941E+02 0.58150478986E+02 0.52761807981E+02
 0.45431494539E+02 0.37899583186E+02 0.32142486586E+02 0.29729564259E+02 0.31258723610E+02
 0.36205063669E+02 0.43317465139E+02 0.51380500374E+02 0.59913187472E+02 0.69368431473E+02
 0.80673336959E+02 0.94201789282E+02 0.10906935037E+03 0.12323233750E+03 0.13387364102E+03
 0.13818718010E+03 0.13421800823E+03 0.12205016376E+03 0.10392046006E+03 0.83279921078E+02
 0.63560439894E+02 0.47271074460E+02 0.35030620331E+02 0.25534538488E+02 0.18366498488E+02
 0.13060177009E+02 0.92580791808E+01 0.66864250464E+01 0.51002960042E+01 0.42678850591E+01
 0.39900132560E+01 0.41324811360E+01 0.46478678392E+01 0.55723965621E+01 0.70073569635E+01
 0.91043812232E+01 0.12050840632E+02 0.16033177567E+02 0.21178341823E+02 0.27504735063E+02
 0.34902427271E+02 0.43122956405E+02 0.51751227194E+02 0.60077556652E+02 0.66948090646E+02
 0.71187902314E+02 0.71939026194E+02 0.68940610619E+02 0.62720643598E+02 0.54590805201E+02
 0.46367956959E+02 0.39865272682E+02 0.36338262389E+02 0.36136374237E+02 0.38747040271E+02
 0.43237317652E+02 0.48869271785E+02 0.55525544207E+02 0.63660190095E+02 0.73640620568E+02
 0.85145313866E+02 0.97003888815E+02 0.10722573068E+03 0.11343062150E+03 0.11362039300E+03
 0.10702959659E+03 0.94601403336E+02 0.78708091232E+02 0.62187821346E+02 0.45055729992E+02
 0.34355124763E+02 0.25621322432E+02 0.18770661578E+02 0.13540135208E+02 0.96805734401E+01
 0.69842845150E+01 0.52502143981E+01 0.42712566261E+01 0.38583316689E+01 0.38764352713E+01
 0.42688920226E+01 0.50624111009E+01 0.63585859132E+01 0.83192456977E+01 0.11145523385E+02
 0.15046754797E+02 0.20202759270E+02 0.26727996535E+02 0.34634120507E+02 0.43773342529E+02
 0.53758077130E+02 0.63891496440E+02 0.73135822673E+02 0.80103944855E+02 0.83535205105E+02
 0.82737155545E+02 0.77836235767E+02 0.69808827677E+02 0.60258771173E+02 0.50998910170E+02
 0.43574050116E+02 0.38893259272E+02 0.37108370159E+02 0.37787768958E+02 0.40305698269E+02