  20  20   0   0
  0.2336395E+02  0.5522883E-09  0.3905268E-09  0.2166505E-08  0.5000000E-15
  1.000000000000000E-004
  CAR 
 unknown system                          
      6.63504184    -38.69795995  301     -0.77878946      1.00000000
    -38.698  0.0000E+00  0.0000E+00
    -38.547  0.0000E+00  0.0000E+00
    -38.396  0.0000E+00  0.0000E+00
    -38.245  0.0000E+00  0.0000E+00
    -38.094  0.0000E+00  0.0000E+00
    -37.942  0.0000E+00  0.0000E+00
    -37.791  0.0000E+00  0.0000E+00
    -37.640  0.0000E+00  0.0000E+00
    -37.489  0.0000E+00  0.0000E+00
    -37.338  0.0000E+00  0.0000E+00
    -37.187  0.0000E+00  0.0000E+00
    -37.036  0.0000E+00  0.0000E+00
    -36.885  0.0000E+00  0.0000E+00
    -36.734  0.0000E+00  0.0000E+00
    -36.582  0.0000E+00  0.2000E+01
    -36.431  0.0000E+00  0.2000E+01
    -36.280  0.0000E+00  0.2000E+01
    -36.129  0.0000E+00  0.2000E+01
    -35.978  0.0000E+00  0.2000E+01
    -35.827  0.0000E+00  0.2000E+01
    -35.676  0.0000E+00  0.2000E+01
    -35.525  0.0000E+00  0.2000E+01
    -35.374  0.0000E+00  0.2000E+01
    -35.222  0.0000E+00  0.4000E+01
    -35.071  0.0000E+00  0.4000E+01
    -34.920  0.0000E+00  0.4000E+01
    -34.769  0.0000E+00  0.4000E+01
    -34.618  0.0000E+00  0.4000E+01
    -34.467  0.0000E+00  0.4000E+01
    -34.316  0.9857E+02  0.4030E+01
    -34.165  0.0000E+00  0.6000E+01
    -34.014  0.0000E+00  0.6000E+01
    -33.862  0.0000E+00  0.6000E+01
    -33.711  0.0000E+00  0.6000E+01
    -33.560  0.0000E+00  0.6000E+01
    -33.409  0.7462E+02  0.6554E+01
    -33.258  0.0000E+00  0.8000E+01
    -33.107  0.0000E+00  0.8000E+01
    -32.956  0.0000E+00  0.8000E+01
    -32.805  0.0000E+00  0.8000E+01
    -32.654  0.0000E+00  0.8000E+01
    -32.502  0.0000E+00  0.8000E+01
    -32.351  0.0000E+00  0.8000E+01
    -32.200  0.0000E+00  0.8000E+01
    -32.049  0.0000E+00  0.8000E+01
    -31.898  0.0000E+00  0.8000E+01
    -31.747  0.0000E+00  0.8000E+01
    -31.596  0.0000E+00  0.8000E+01
    -31.445  0.0000E+00  0.8000E+01
    -31.294  0.0000E+00  0.8000E+01
    -31.142  0.0000E+00  0.8000E+01
    -30.991  0.0000E+00  0.8000E+01
    -30.840  0.0000E+00  0.8000E+01
    -30.689  0.0000E+00  0.8000E+01
    -30.538  0.0000E+00  0.8000E+01
    -30.387  0.0000E+00  0.8000E+01
    -30.236  0.0000E+00  0.8000E+01
    -30.085  0.0000E+00  0.8000E+01
    -29.934  0.0000E+00  0.8000E+01
    -29.782  0.0000E+00  0.8000E+01
    -29.631  0.0000E+00  0.8000E+01
    -29.480  0.0000E+00  0.8000E+01
    -29.329  0.0000E+00  0.8000E+01
    -29.178  0.0000E+00  0.8000E+01
    -29.027  0.0000E+00  0.8000E+01
    -28.876  0.0000E+00  0.8000E+01
    -28.725  0.0000E+00  0.8000E+01
    -28.574  0.0000E+00  0.8000E+01
    -28.422  0.0000E+00  0.8000E+01
    -28.271  0.0000E+00  0.8000E+01
    -28.120  0.0000E+00  0.8000E+01
    -27.969  0.0000E+00  0.8000E+01
    -27.818  0.0000E+00  0.8000E+01
    -27.667  0.0000E+00  0.8000E+01
    -27.516  0.0000E+00  0.8000E+01
    -27.365  0.0000E+00  0.8000E+01
    -27.214  0.0000E+00  0.8000E+01
    -27.062  0.0000E+00  0.8000E+01
    -26.911  0.0000E+00  0.8000E+01
    -26.760  0.0000E+00  0.8000E+01
    -26.609  0.0000E+00  0.8000E+01
    -26.458  0.0000E+00  0.8000E+01
    -26.307  0.0000E+00  0.8000E+01
    -26.156  0.0000E+00  0.8000E+01
    -26.005  0.0000E+00  0.8000E+01
    -25.854  0.0000E+00  0.8000E+01
    -25.702  0.0000E+00  0.8000E+01
    -25.551  0.0000E+00  0.8000E+01
    -25.400  0.0000E+00  0.8000E+01
    -25.249  0.0000E+00  0.8000E+01
    -25.098  0.0000E+00  0.8000E+01
    -24.947  0.0000E+00  0.8000E+01
    -24.796  0.0000E+00  0.8000E+01
    -24.645  0.0000E+00  0.8000E+01
    -24.494  0.0000E+00  0.8000E+01
    -24.343  0.0000E+00  0.8000E+01
    -24.191  0.0000E+00  0.8000E+01
    -24.040  0.0000E+00  0.8000E+01
    -23.889  0.0000E+00  0.8000E+01
    -23.738  0.0000E+00  0.8000E+01
    -23.587  0.0000E+00  0.8000E+01
    -23.436  0.0000E+00  0.8000E+01
    -23.285  0.0000E+00  0.8000E+01
    -23.134  0.0000E+00  0.8000E+01
    -22.983  0.0000E+00  0.8000E+01
    -22.831  0.0000E+00  0.8000E+01
    -22.680  0.0000E+00  0.8000E+01
    -22.529  0.0000E+00  0.8000E+01
    -22.378  0.0000E+00  0.8000E+01
    -22.227  0.0000E+00  0.8000E+01
    -22.076  0.0000E+00  0.8000E+01
    -21.925  0.0000E+00  0.8000E+01
    -21.774  0.0000E+00  0.8000E+01
    -21.623  0.0000E+00  0.8000E+01
    -21.471  0.0000E+00  0.8000E+01
    -21.320  0.0000E+00  0.8000E+01
    -21.169  0.0000E+00  0.8000E+01
    -21.018  0.0000E+00  0.8000E+01
    -20.867  0.0000E+00  0.8000E+01
    -20.716  0.0000E+00  0.8000E+01
    -20.565  0.3470E+01  0.8330E+01
    -20.414  0.1085E+02  0.9102E+01
    -20.263  0.5570E+01  0.1008E+02
    -20.111  0.4966E+01  0.1091E+02
    -19.960  0.2670E+01  0.1157E+02
    -19.809  0.5744E+01  0.1208E+02
    -19.658  0.5744E+01  0.1375E+02
    -19.507  0.0000E+00  0.1400E+02
    -19.356  0.8575E+01  0.1410E+02
    -19.205  0.1401E+02  0.1593E+02
    -19.054  0.4328E+01  0.1772E+02
    -18.903  0.0000E+00  0.1800E+02
    -18.751  0.3369E+02  0.1844E+02
    -18.600  0.1367E+02  0.2115E+02
    -18.449  0.1908E+02  0.2375E+02
    -18.298  0.1129E+02  0.2686E+02
    -18.147  0.1437E+02  0.2877E+02
    -17.996  0.0000E+00  0.3000E+02
    -17.845  0.2045E+01  0.3006E+02
    -17.694  0.4198E+01  0.3162E+02
    -17.543  0.0000E+00  0.3200E+02
    -17.391  0.2048E+01  0.3209E+02
    -17.240  0.8568E+01  0.3476E+02
    -17.089  0.4233E+02  0.3827E+02
    -16.938  0.0000E+00  0.4000E+02
    -16.787  0.0000E+00  0.4000E+02
    -16.636  0.0000E+00  0.4000E+02
    -16.485  0.9925E+01  0.4155E+02
    -16.334  0.2535E+02  0.4284E+02
    -16.183  0.1694E+02  0.4606E+02
    -16.031  0.9828E+01  0.4858E+02
    -15.880  0.0000E+00  0.5000E+02
    -15.729  0.0000E+00  0.5000E+02
    -15.578  0.0000E+00  0.5000E+02
    -15.427  0.1818E+02  0.5065E+02
    -15.276  0.3816E+01  0.5258E+02
    -15.125  0.1621E+02  0.5457E+02
    -14.974  0.0000E+00  0.5600E+02
    -14.823  0.0000E+00  0.5600E+02
    -14.671  0.0000E+00  0.5600E+02
    -14.520  0.0000E+00  0.5600E+02
    -14.369  0.0000E+00  0.5600E+02
    -14.218  0.0000E+00  0.5600E+02
    -14.067  0.0000E+00  0.5600E+02
    -13.916  0.0000E+00  0.5600E+02
    -13.765  0.0000E+00  0.5600E+02
    -13.614  0.0000E+00  0.5600E+02
    -13.463  0.0000E+00  0.5600E+02
    -13.311  0.0000E+00  0.5600E+02
    -13.160  0.0000E+00  0.5600E+02
    -13.009  0.0000E+00  0.5600E+02
    -12.858  0.0000E+00  0.5600E+02
    -12.707  0.0000E+00  0.5600E+02
    -12.556  0.0000E+00  0.5600E+02
    -12.405  0.0000E+00  0.5600E+02
    -12.254  0.0000E+00  0.5600E+02
    -12.103  0.0000E+00  0.5600E+02
    -11.951  0.0000E+00  0.5600E+02
    -11.800  0.0000E+00  0.5600E+02
    -11.649  0.0000E+00  0.5600E+02
    -11.498  0.0000E+00  0.5600E+02
    -11.347  0.0000E+00  0.5600E+02
    -11.196  0.0000E+00  0.5600E+02
    -11.045  0.0000E+00  0.5600E+02
    -10.894  0.0000E+00  0.5600E+02
    -10.743  0.0000E+00  0.5600E+02
    -10.591  0.0000E+00  0.5600E+02
    -10.440  0.0000E+00  0.5600E+02
    -10.289  0.0000E+00  0.5600E+02
    -10.138  0.0000E+00  0.5600E+02
     -9.987  0.0000E+00  0.5600E+02
     -9.836  0.0000E+00  0.5600E+02
     -9.685  0.0000E+00  0.5600E+02
     -9.534  0.0000E+00  0.5600E+02
     -9.383  0.0000E+00  0.5600E+02
     -9.232  0.0000E+00  0.5600E+02
     -9.080  0.0000E+00  0.5600E+02
     -8.929  0.0000E+00  0.5600E+02
     -8.778  0.0000E+00  0.5600E+02
     -8.627  0.0000E+00  0.5600E+02
     -8.476  0.0000E+00  0.5600E+02
     -8.325  0.0000E+00  0.5600E+02
     -8.174  0.0000E+00  0.5600E+02
     -8.023  0.0000E+00  0.5600E+02
     -7.872  0.0000E+00  0.5600E+02
     -7.720  0.0000E+00  0.5600E+02
     -7.569  0.1104E+01  0.5630E+02
     -7.418  0.1103E+01  0.5646E+02
     -7.267  0.1108E+01  0.5663E+02
     -7.116  0.3468E+01  0.5691E+02
     -6.965  0.1169E+02  0.5811E+02
     -6.814  0.6823E+01  0.5951E+02
     -6.663  0.2869E+02  0.6212E+02
     -6.512  0.5468E+01  0.6409E+02
     -6.360  0.6172E+01  0.6486E+02
     -6.209  0.6998E+01  0.6587E+02
     -6.058  0.8975E+01  0.6706E+02
     -5.907  0.1272E+02  0.6867E+02
     -5.756  0.1106E+02  0.7071E+02
     -5.605  0.1327E+02  0.7249E+02
     -5.454  0.1279E+02  0.7461E+02
     -5.303  0.1153E+02  0.7677E+02
     -5.152  0.1458E+02  0.7886E+02
     -5.000  0.1912E+02  0.8107E+02
     -4.849  0.1277E+02  0.8328E+02
     -4.698  0.1227E+02  0.8559E+02
     -4.547  0.8523E+01  0.8744E+02
     -4.396  0.1019E+02  0.8878E+02
     -4.245  0.2849E+02  0.9111E+02
     -4.094  0.1434E+02  0.9361E+02
     -3.943  0.9302E+01  0.9550E+02
     -3.792  0.1453E+02  0.9722E+02
     -3.640  0.1010E+02  0.9954E+02
     -3.489  0.1329E+02  0.1015E+03
     -3.338  0.8341E+01  0.1031E+03
     -3.187  0.5006E+01  0.1039E+03
     -3.036  0.1152E+02  0.1052E+03
     -2.885  0.2894E+02  0.1075E+03
     -2.734  0.1735E+02  0.1102E+03
     -2.583  0.5792E+01  0.1114E+03
     -2.432  0.4013E+01  0.1121E+03
     -2.280  0.1387E+02  0.1133E+03
     -2.129  0.1435E+02  0.1143E+03
     -1.978  0.1055E+02  0.1165E+03
     -1.827  0.2651E+01  0.1178E+03
     -1.676  0.9767E+01  0.1182E+03
     -1.525  0.6420E+01  0.1195E+03
     -1.374  0.3066E+01  0.1201E+03
     -1.223  0.1396E+02  0.1216E+03
     -1.072  0.1268E+02  0.1232E+03
     -0.920  0.1646E+02  0.1254E+03
     -0.769  0.3119E+02  0.1282E+03
     -0.618  0.9641E+01  0.1307E+03
     -0.467  0.9346E+01  0.1322E+03
     -0.316  0.6391E+01  0.1334E+03
     -0.165  0.4510E+01  0.1342E+03
     -0.014  0.2813E+01  0.1347E+03
      0.137  0.3583E+01  0.1355E+03
      0.288  0.3552E+01  0.1361E+03
      0.440  0.7416E+01  0.1372E+03
      0.591  0.5806E+01  0.1381E+03
      0.742  0.8388E+01  0.1394E+03
      0.893  0.6393E+01  0.1408E+03
      1.044  0.6092E+01  0.1417E+03
      1.195  0.3912E+01  0.1424E+03
      1.346  0.1070E+02  0.1433E+03
      1.497  0.3858E+01  0.1446E+03
      1.648  0.3096E+01  0.1451E+03
      1.800  0.3374E+01  0.1456E+03
      1.951  0.3293E+01  0.1464E+03
      2.102  0.3790E+01  0.1470E+03
      2.253  0.8070E+01  0.1476E+03
      2.404  0.1199E+01  0.1481E+03
      2.555  0.1165E+01  0.1483E+03
      2.706  0.4509E+01  0.1486E+03
      2.857  0.2955E+01  0.1492E+03
      3.008  0.3485E+01  0.1497E+03
      3.160  0.8639E+01  0.1503E+03
      3.311  0.2013E+01  0.1512E+03
      3.462  0.3986E+01  0.1515E+03
      3.613  0.3643E+00  0.1516E+03
      3.764  0.3470E+00  0.1516E+03
      3.915  0.3297E+00  0.1517E+03
      4.066  0.3124E+00  0.1517E+03
      4.217  0.1190E+01  0.1519E+03
      4.368  0.3056E+00  0.1520E+03
      4.520  0.7597E-01  0.1520E+03
      4.671  0.0000E+00  0.1520E+03
      4.822  0.0000E+00  0.1520E+03
      4.973  0.0000E+00  0.1520E+03
      5.124  0.0000E+00  0.1520E+03
      5.275  0.0000E+00  0.1520E+03
      5.426  0.0000E+00  0.1520E+03
      5.577  0.0000E+00  0.1520E+03
      5.728  0.0000E+00  0.1520E+03
      5.879  0.0000E+00  0.1520E+03
      6.031  0.0000E+00  0.1520E+03
      6.182  0.0000E+00  0.1520E+03
      6.333  0.0000E+00  0.1520E+03
      6.484  0.0000E+00  0.1520E+03
      6.635  0.0000E+00  0.1520E+03
