   20   20    1    1
  0.2336395E+02  0.5522883E-09  0.3905268E-09  0.2166505E-08  0.5000000E-15
  1.000000000000000E-004
  CAR 
 unknown system                          
    128     20     76
 
  0.0000000E+00  0.0000000E+00  0.0000000E+00  0.1851852E-01
    1      -36.637369   1.000000
    2      -35.282612   1.000000
    3      -34.316290   1.000000
    4      -33.413316   1.000000
    5      -20.524187   1.000000
    6      -20.051605   1.000000
    7      -19.876425   1.000000
    8      -19.372797   1.000000
    9      -19.059119   1.000000
   10      -18.693272   1.000000
   11      -18.639665   1.000000
   12      -18.562023   1.000000
   13      -18.555401   1.000000
   14      -18.364483   1.000000
   15      -18.098946   1.000000
   16      -17.822846   1.000000
   17      -17.326053   1.000000
   18      -17.325822   1.000000
   19      -17.148290   1.000000
   20      -17.068269   1.000000
   21      -16.490337   1.000000
   22      -16.353382   1.000000
   23      -16.271856   1.000000
   24      -16.158845   1.000000
   25      -16.103343   1.000000
   26      -15.426692   1.000000
   27      -15.159894   1.000000
   28      -15.108272   1.000000
   29       -7.131363   1.000000
   30       -6.819037   1.000000
   31       -6.655060   1.000000
   32       -6.026023   1.000000
   33       -5.899387   1.000000
   34       -5.547952   1.000000
   35       -5.465831   1.000000
   36       -5.303290   1.000000
   37       -5.150606   1.000000
   38       -5.074284   1.000000
   39       -5.010561   1.000000
   40       -4.855602   1.000000
   41       -4.774693   1.000000
   42       -4.580362   1.000000
   43       -4.257107   1.000000
   44       -4.125987   1.000000
   45       -4.092040   1.000000
   46       -4.017803   1.000000
   47       -3.806239   1.000000
   48       -3.783087   1.000000
   49       -3.556648   1.000000
   50       -3.251790   1.000000
   51       -3.020512   1.000000
   52       -2.932226   1.000000
   53       -2.878788   1.000000
   54       -2.717872   1.000000
   55       -2.670809   1.000000
   56       -2.405172   1.000000
   57       -2.306068   1.000000
   58       -1.961343   1.000000
   59       -1.924969   1.000000
   60       -1.362287   1.000000
   61       -1.337752   1.000000
   62       -1.088791   1.000000
   63       -1.074163   1.000000
   64       -1.057900   1.000000
   65       -0.884418   1.047838
   66       -0.783909   0.104635
   67       -0.772772   0.000000
   68       -0.446265   0.000000
   69        0.049403   0.000000
   70        0.277925   0.000000
   71        0.373245   0.000000
   72        0.636093   0.000000
   73        1.306752   0.000000
   74        1.627626   0.000000
   75        2.656534   0.000000
   76        4.134794   0.000000
 
  0.1666667E+00  0.0000000E+00  0.0000000E+00  0.3703704E-01
    1      -36.637152   1.000000
    2      -35.282371   1.000000
    3      -34.316053   1.000000
    4      -33.413122   1.000000
    5      -20.566506   1.000000
    6      -20.184338   1.000000
    7      -19.762975   1.000000
    8      -19.367536   1.000000
    9      -19.116363   1.000000
   10      -18.730744   1.000000
   11      -18.639907   1.000000
   12      -18.524751   1.000000
   13      -18.447005   1.000000
   14      -18.370456   1.000000
   15      -18.153471   1.000000
   16      -17.797003   1.000000
   17      -17.326508   1.000000
   18      -17.313242   1.000000
   19      -17.118729   1.000000
   20      -17.073690   1.000000
   21      -16.471272   1.000000
   22      -16.353871   1.000000
   23      -16.271779   1.000000
   24      -16.153697   1.000000
   25      -16.045494   1.000000
   26      -15.427350   1.000000
   27      -15.164880   1.000000
   28      -15.096862   1.000000
   29       -7.005930   1.000000
   30       -6.794251   1.000000
   31       -6.677343   1.000000
   32       -6.006353   1.000000
   33       -5.791640   1.000000
   34       -5.606462   1.000000
   35       -5.535353   1.000000
   36       -5.321499   1.000000
   37       -5.173993   1.000000
   38       -5.144126   1.000000
   39       -4.956393   1.000000
   40       -4.779905   1.000000
   41       -4.722614   1.000000
   42       -4.634280   1.000000
   43       -4.350675   1.000000
   44       -4.273262   1.000000
   45       -4.088742   1.000000
   46       -4.060062   1.000000
   47       -3.930118   1.000000
   48       -3.753856   1.000000
   49       -3.521402   1.000000
   50       -3.343484   1.000000
   51       -3.111165   1.000000
   52       -3.026097   1.000000
   53       -2.892618   1.000000
   54       -2.785559   1.000000
   55       -2.649165   1.000000
   56       -2.503237   1.000000
   57       -2.311595   1.000000
   58       -2.137926   1.000000
   59       -1.905672   1.000000
   60       -1.382791   1.000000
   61       -1.370364   1.000000
   62       -1.100934   1.000000
   63       -1.086090   1.000000
   64       -0.988902   1.000000
   65       -0.887153   1.024155
   66       -0.755138   0.067524
   67       -0.686152   0.000000
   68       -0.592210   0.000000
   69        0.065596   0.000000
   70        0.308007   0.000000
   71        0.353966   0.000000
   72        0.760282   0.000000
   73        1.280514   0.000000
   74        1.312611   0.000000
   75        2.589431   0.000000
   76        4.204973   0.000000
 
  0.3333333E+00  0.0000000E+00  0.0000000E+00  0.3703704E-01
    1      -36.636720   1.000000
    2      -35.281890   1.000000
    3      -34.315581   1.000000
    4      -33.412736   1.000000
    5      -20.656318   1.000000
    6      -20.302771   1.000000
    7      -19.697999   1.000000
    8      -19.334148   1.000000
    9      -19.213665   1.000000
   10      -18.749596   1.000000
   11      -18.640399   1.000000
   12      -18.437603   1.000000
   13      -18.381578   1.000000
   14      -18.328185   1.000000
   15      -18.225708   1.000000
   16      -17.772339   1.000000
   17      -17.327424   1.000000
   18      -17.295443   1.000000
   19      -17.081131   1.000000
   20      -17.056006   1.000000
   21      -16.415906   1.000000
   22      -16.354854   1.000000
   23      -16.291941   1.000000
   24      -16.089594   1.000000
   25      -15.989114   1.000000
   26      -15.428671   1.000000
   27      -15.167600   1.000000
   28      -15.070573   1.000000
   29       -6.857405   1.000000
   30       -6.721004   1.000000
   31       -6.526454   1.000000
   32       -5.957249   1.000000
   33       -5.775751   1.000000
   34       -5.654221   1.000000
   35       -5.589814   1.000000
   36       -5.489411   1.000000
   37       -5.245062   1.000000
   38       -5.014909   1.000000
   39       -4.937024   1.000000
   40       -4.846507   1.000000
   41       -4.659138   1.000000
   42       -4.641487   1.000000
   43       -4.581832   1.000000
   44       -4.484260   1.000000
   45       -4.116257   1.000000
   46       -4.090665   1.000000
   47       -3.949295   1.000000
   48       -3.669339   1.000000
   49       -3.616174   1.000000
   50       -3.602014   1.000000
   51       -3.382473   1.000000
   52       -3.082065   1.000000
   53       -3.051289   1.000000
   54       -2.901936   1.000000
   55       -2.638406   1.000000
   56       -2.542961   1.000000
   57       -2.403722   1.000000
   58       -2.326249   1.000000
   59       -1.797080   1.000000
   60       -1.492119   1.000000
   61       -1.434183   1.000000
   62       -1.082046   1.000000
   63       -1.072294   1.000000
   64       -0.929375   1.000000
   65       -0.908857   1.000000
   66       -0.853112   0.859046
   67       -0.739994   0.000000
   68       -0.480061   0.000000
   69        0.047439   0.000000
   70        0.310051   0.000000
   71        0.372565   0.000000
   72        0.921503   0.000000
   73        1.287404   0.000000
   74        1.322400   0.000000
   75        1.773414   0.000000
   76        2.636612   0.000000
 
  0.5000000E+00  0.0000000E+00  0.0000000E+00  0.1851852E-01
    1      -36.636503   1.000000
    2      -35.281650   1.000000
    3      -34.315345   1.000000
    4      -33.412542   1.000000
    5      -20.701152   1.000000
    6      -20.341723   1.000000
    7      -19.688153   1.000000
    8      -19.312937   1.000000
    9      -19.258891   1.000000
   10      -18.751434   1.000000
   11      -18.640642   1.000000
   12      -18.396720   1.000000
   13      -18.382813   1.000000
   14      -18.293012   1.000000
   15      -18.246623   1.000000
   16      -17.764770   1.000000
   17      -17.327878   1.000000
   18      -17.289818   1.000000
   19      -17.076094   1.000000
   20      -17.031695   1.000000
   21      -16.373223   1.000000
   22      -16.355343   1.000000
   23      -16.308464   1.000000
   24      -16.054904   1.000000
   25      -15.975863   1.000000
   26      -15.429328   1.000000
   27      -15.166543   1.000000
   28      -15.054199   1.000000
   29       -6.844428   1.000000
   30       -6.735005   1.000000
   31       -6.032768   1.000000
   32       -6.009930   1.000000
   33       -5.921537   1.000000
   34       -5.716613   1.000000
   35       -5.657165   1.000000
   36       -5.553408   1.000000
   37       -5.389783   1.000000
   38       -5.168719   1.000000
   39       -4.737878   1.000000
   40       -4.715381   1.000000
   41       -4.711068   1.000000
   42       -4.649541   1.000000
   43       -4.515036   1.000000
   44       -4.408660   1.000000
   45       -4.365850   1.000000
   46       -4.126832   1.000000
   47       -4.049937   1.000000
   48       -3.813318   1.000000
   49       -3.774752   1.000000
   50       -3.351083   1.000000
   51       -3.304341   1.000000
   52       -3.264935   1.000000
   53       -3.098422   1.000000
   54       -3.070847   1.000000
   55       -2.853411   1.000000
   56       -2.494436   1.000000
   57       -2.350464   1.000000
   58       -2.338610   1.000000
   59       -1.645078   1.000000
   60       -1.551998   1.000000
   61       -1.463632   1.000000
   62       -1.251940   1.000000
   63       -1.070174   1.000000
   64       -1.020574   1.000000
   65       -0.845783   1.000000
   66       -0.802328   0.580564
   67       -0.758621   0.000000
   68       -0.382134   0.000000
   69        0.013281   0.000000
   70        0.298732   0.000000
   71        0.388932   0.000000
   72        0.969320   0.000000
   73        1.313589   0.000000
   74        1.823659   0.000000
   75        2.608097   0.000000
   76        2.733989   0.000000
 
  0.0000000E+00  0.1111111E+00  0.0000000E+00  0.3703704E-01
    1      -36.635238   1.000000
    2      -35.280182   1.000000
    3      -34.313868   1.000000
    4      -33.410935   1.000000
    5      -20.490361   1.000000
    6      -20.025984   1.000000
    7      -19.847465   1.000000
    8      -19.345997   1.000000
    9      -19.072139   1.000000
   10      -18.666029   1.000000
   11      -18.649331   1.000000
   12      -18.573718   1.000000
   13      -18.536860   1.000000
   14      -18.339497   1.000000
   15      -18.107915   1.000000
   16      -17.797541   1.000000
   17      -17.314180   1.000000
   18      -17.288069   1.000000
   19      -17.178466   1.000000
   20      -17.079417   1.000000
   21      -16.521850   1.000000
   22      -16.326882   1.000000
   23      -16.258646   1.000000
   24      -16.182026   1.000000
   25      -16.114729   1.000000
   26      -15.393489   1.000000
   27      -15.179510   1.000000
   28      -15.148352   1.000000
   29       -7.092297   1.000000
   30       -6.778010   1.000000
   31       -6.651557   1.000000
   32       -6.245935   1.000000
   33       -5.865773   1.000000
   34       -5.740695   1.000000
   35       -5.550240   1.000000
   36       -5.340827   1.000000
   37       -5.251393   1.000000
   38       -5.197711   1.000000
   39       -4.992385   1.000000
   40       -4.975584   1.000000
   41       -4.853411   1.000000
   42       -4.603580   1.000000
   43       -4.412869   1.000000
   44       -4.317569   1.000000
   45       -4.061524   1.000000
   46       -4.047370   1.000000
   47       -3.913081   1.000000
   48       -3.723702   1.000000
   49       -3.723471   1.000000
   50       -3.359923   1.000000
   51       -3.038686   1.000000
   52       -3.003347   1.000000
   53       -2.920926   1.000000
   54       -2.841222   1.000000
   55       -2.691480   1.000000
   56       -2.481994   1.000000
   57       -2.375823   1.000000
   58       -1.989917   1.000000
   59       -1.965205   1.000000
   60       -1.447707   1.000000
   61       -1.304989   1.000000
   62       -1.113569   1.000000
   63       -1.014148   1.000000
   64       -1.004871   1.000000
   65       -0.770394   0.487200
   66       -0.750104  -0.006984
   67       -0.586256   0.000000
   68       -0.450407   0.000000
   69        0.083536   0.000000
   70        0.396673   0.000000
   71        0.484051   0.000000
   72        0.655572   0.000000
   73        1.345993   0.000000
   74        1.425628   0.000000
   75        2.734321   0.000000
   76        4.175730   0.000000
 
  0.1666667E+00  0.1111111E+00  0.0000000E+00  0.7407407E-01
    1      -36.635035   1.000000
    2      -35.279958   1.000000
    3      -34.313648   1.000000
    4      -33.410757   1.000000
    5      -20.523829   1.000000
    6      -20.157335   1.000000
    7      -19.744828   1.000000
    8      -19.344581   1.000000
    9      -19.113868   1.000000
   10      -18.727305   1.000000
   11      -18.633875   1.000000
   12      -18.536377   1.000000
   13      -18.434009   1.000000
   14      -18.348007   1.000000
   15      -18.153834   1.000000
   16      -17.782617   1.000000
   17      -17.308539   1.000000
   18      -17.285913   1.000000
   19      -17.141805   1.000000
   20      -17.088045   1.000000
   21      -16.501960   1.000000
   22      -16.330455   1.000000
   23      -16.254313   1.000000
   24      -16.180731   1.000000
   25      -16.052634   1.000000
   26      -15.391309   1.000000
   27      -15.188279   1.000000
   28      -15.126213   1.000000
   29       -6.981843   1.000000
   30       -6.758508   1.000000
   31       -6.674411   1.000000
   32       -6.227728   1.000000
   33       -5.829645   1.000000
   34       -5.783181   1.000000
   35       -5.598898   1.000000
   36       -5.354709   1.000000
   37       -5.272041   1.000000
   38       -5.172777   1.000000
   39       -5.028934   1.000000
   40       -4.930339   1.000000
   41       -4.797859   1.000000
   42       -4.642917   1.000000
   43       -4.515123   1.000000
   44       -4.303833   1.000000
   45       -4.290055   1.000000
   46       -4.017209   1.000000
   47       -3.884421   1.000000
   48       -3.806624   1.000000
   49       -3.690810   1.000000
   50       -3.446171   1.000000
   51       -3.089571   1.000000
   52       -2.990118   1.000000
   53       -2.953216   1.000000
   54       -2.918721   1.000000
   55       -2.823271   1.000000
   56       -2.511865   1.000000
   57       -2.367403   1.000000
   58       -2.150496   1.000000
   59       -1.928923   1.000000
   60       -1.534273   1.000000
   61       -1.295105   1.000000
   62       -1.118463   1.000000
   63       -1.021370   1.000000
   64       -0.959513   1.000000
   65       -0.798156   0.841688
   66       -0.636048  -0.037474
   67       -0.590264   0.000000
   68       -0.549164   0.000000
   69        0.111186   0.000000
   70        0.422994   0.000000
   71        0.469725   0.000000
   72        0.774626   0.000000
   73        1.372735   0.000000
   74        1.397917   0.000000
   75        2.724359   0.000000
   76        4.373034   0.000000
 
  0.3333333E+00  0.1111111E+00  0.0000000E+00  0.7407407E-01
    1      -36.634631   1.000000
    2      -35.279512   1.000000
    3      -34.313210   1.000000
    4      -33.410403   1.000000
    5      -20.602176   1.000000
    6      -20.272821   1.000000
    7      -19.692307   1.000000
    8      -19.324794   1.000000
    9      -19.189991   1.000000
   10      -18.758063   1.000000
   11      -18.628653   1.000000
   12      -18.438696   1.000000
   13      -18.371607   1.000000
   14      -18.326320   1.000000
   15      -18.218000   1.000000
   16      -17.771709   1.000000
   17      -17.293541   1.000000
   18      -17.285386   1.000000
   19      -17.102033   1.000000
   20      -17.070431   1.000000
   21      -16.447145   1.000000
   22      -16.333936   1.000000
   23      -16.271426   1.000000
   24      -16.116298   1.000000
   25      -15.995265   1.000000
   26      -15.381072   1.000000
   27      -15.188157   1.000000
   28      -15.091174   1.000000
   29       -6.860864   1.000000
   30       -6.724691   1.000000
   31       -6.523211   1.000000
   32       -6.210011   1.000000
   33       -5.965077   1.000000
   34       -5.760829   1.000000
   35       -5.584072   1.000000
   36       -5.397906   1.000000
   37       -5.384746   1.000000
   38       -5.099474   1.000000
   39       -5.025113   1.000000
   40       -4.925790   1.000000
   41       -4.865565   1.000000
   42       -4.677755   1.000000
   43       -4.622309   1.000000
   44       -4.526272   1.000000
   45       -4.308677   1.000000
   46       -4.068439   1.000000
   47       -3.862338   1.000000
   48       -3.804829   1.000000
   49       -3.671755   1.000000
   50       -3.586942   1.000000
   51       -3.479837   1.000000
   52       -3.077242   1.000000
   53       -3.063344   1.000000
   54       -2.983148   1.000000
   55       -2.744303   1.000000
   56       -2.719292   1.000000
   57       -2.461548   1.000000
   58       -2.214811   1.000000
   59       -1.833477   1.000000
   60       -1.659837   1.000000
   61       -1.279591   1.000000
   62       -1.185494   1.000000
   63       -1.009873   1.000000
   64       -0.968966   1.000000
   65       -0.876836   1.010814
   66       -0.715945   0.012723
   67       -0.516958   0.000000
   68       -0.434974   0.000000
   69        0.113778   0.000000
   70        0.438306   0.000000
   71        0.485951   0.000000
   72        0.936648   0.000000
   73        1.370178   0.000000
   74        1.515616   0.000000
   75        2.686577   0.000000
   76        2.761768   0.000000
 
  0.5000000E+00  0.1111111E+00  0.0000000E+00  0.3703704E-01
    1      -36.634429   1.000000
    2      -35.279289   1.000000
    3      -34.312992   1.000000
    4      -33.410226   1.000000
    5      -20.643952   1.000000
    6      -20.308456   1.000000
    7      -19.686216   1.000000
    8      -19.316889   1.000000
    9      -19.223229   1.000000
   10      -18.762184   1.000000
   11      -18.625575   1.000000
   12      -18.380918   1.000000
   13      -18.378508   1.000000
   14      -18.310795   1.000000
   15      -18.235828   1.000000
   16      -17.769463   1.000000
   17      -17.290526   1.000000
   18      -17.282442   1.000000
   19      -17.096750   1.000000
   20      -17.046052   1.000000
   21      -16.406793   1.000000
   22      -16.341035   1.000000
   23      -16.277867   1.000000
   24      -16.082508   1.000000
   25      -15.983032   1.000000
   26      -15.374086   1.000000
   27      -15.184043   1.000000
   28      -15.072643   1.000000
   29       -6.857911   1.000000
   30       -6.738317   1.000000
   31       -6.269546   1.000000
   32       -6.210517   1.000000
   33       -5.921901   1.000000
   34       -5.822236   1.000000
   35       -5.589494   1.000000
   36       -5.542078   1.000000
   37       -5.405915   1.000000
   38       -5.360048   1.000000
   39       -4.980270   1.000000
   40       -4.902386   1.000000
   41       -4.762228   1.000000
   42       -4.693866   1.000000
   43       -4.560809   1.000000
   44       -4.425008   1.000000
   45       -4.298409   1.000000
   46       -4.289437   1.000000
   47       -4.054639   1.000000
   48       -3.803411   1.000000
   49       -3.787962   1.000000
   50       -3.480697   1.000000
   51       -3.345328   1.000000
   52       -3.305406   1.000000
   53       -3.094426   1.000000
   54       -3.002124   1.000000
   55       -2.969164   1.000000
   56       -2.734882   1.000000
   57       -2.490600   1.000000
   58       -2.136570   1.000000
   59       -1.805931   1.000000
   60       -1.562604   1.000000
   61       -1.358722   1.000000
   62       -1.252584   1.000000
   63       -1.167392   1.000000
   64       -0.953761   1.000000
   65       -0.886693   1.000000
   66       -0.665290  -0.051654
   67       -0.501825   0.000000
   68       -0.336937   0.000000
   69        0.351637   0.000000
   70        0.497865   0.000000
   71        0.924681   0.000000
   72        1.368359   0.000000
   73        1.406361   0.000000
   74        1.859850   0.000000
   75        2.669860   0.000000
   76        2.768132   0.000000
 
  0.0000000E+00  0.2222222E+00  0.0000000E+00  0.3703704E-01
    1      -36.629834   1.000000
    2      -35.274017   1.000000
    3      -34.307723   1.000000
    4      -33.404896   1.000000
    5      -20.428842   1.000000
    6      -19.948862   1.000000
    7      -19.768361   1.000000
    8      -19.279369   1.000000
    9      -19.097850   1.000000
   10      -18.640063   1.000000
   11      -18.634337   1.000000
   12      -18.583687   1.000000
   13      -18.498575   1.000000
   14      -18.273182   1.000000
   15      -18.122424   1.000000
   16      -17.728317   1.000000
   17      -17.274888   1.000000
   18      -17.261329   1.000000
   19      -17.208440   1.000000
   20      -17.096891   1.000000
   21      -16.582149   1.000000
   22      -16.305309   1.000000
   23      -16.265655   1.000000
   24      -16.156983   1.000000
   25      -16.137501   1.000000
   26      -15.350433   1.000000
   27      -15.257907   1.000000
   28      -15.203191   1.000000
   29       -7.028289   1.000000
   30       -6.672254   1.000000
   31       -6.641736   1.000000
   32       -6.628921   1.000000
   33       -6.117149   1.000000
   34       -6.053739   1.000000
   35       -5.859465   1.000000
   36       -5.597948   1.000000
   37       -5.560909   1.000000
   38       -5.293862   1.000000
   39       -5.161729   1.000000
   40       -5.134628   1.000000
   41       -4.930523   1.000000
   42       -4.799001   1.000000
   43       -4.682304   1.000000
   44       -4.470478   1.000000
   45       -4.381168   1.000000
   46       -4.187112   1.000000
   47       -4.095271   1.000000
   48       -3.832056   1.000000
   49       -3.806792   1.000000
   50       -3.529926   1.000000
   51       -3.379626   1.000000
   52       -3.308188   1.000000
   53       -2.960175   1.000000
   54       -2.828710   1.000000
   55       -2.752805   1.000000
   56       -2.603239   1.000000
   57       -2.271089   1.000000
   58       -2.101067   1.000000
   59       -2.027349   1.000000
   60       -1.506330   1.000000
   61       -1.282876   1.000000
   62       -1.049308   1.000000
   63       -0.881348   1.001602
   64       -0.858054   1.068813
   65       -0.760668   0.006118
   66       -0.466625   0.000000
   67       -0.454690   0.000000
   68       -0.131461   0.000000
   69        0.215302   0.000000
   70        0.694272   0.000000
   71        0.733485   0.000000
   72        0.785201   0.000000
   73        1.680134   0.000000
   74        2.974741   0.000000
   75        2.991501   0.000000
   76        4.574451   0.000000
 
  0.1666667E+00  0.2222222E+00  0.0000000E+00  0.7407407E-01
    1      -36.629668   1.000000
    2      -35.273838   1.000000
    3      -34.307548   1.000000
    4      -33.404760   1.000000
    5      -20.433064   1.000000
    6      -20.081372   1.000000
    7      -19.699443   1.000000
    8      -19.288795   1.000000
    9      -19.108794   1.000000
   10      -18.681922   1.000000
   11      -18.632090   1.000000
   12      -18.558115   1.000000
   13      -18.416689   1.000000
   14      -18.285449   1.000000
   15      -18.149598   1.000000
   16      -17.738461   1.000000
   17      -17.288691   1.000000
   18      -17.211073   1.000000
   19      -17.186577   1.000000
   20      -17.117171   1.000000
   21      -16.563085   1.000000
   22      -16.297611   1.000000
   23      -16.230549   1.000000
   24      -16.211638   1.000000
   25      -16.052922   1.000000
   26      -15.350216   1.000000
   27      -15.252881   1.000000
   28      -15.168889   1.000000
   29       -6.947041   1.000000
   30       -6.716594   1.000000
   31       -6.688677   1.000000
   32       -6.572792   1.000000
   33       -6.212463   1.000000
   34       -6.028169   1.000000
   35       -5.831381   1.000000
   36       -5.630544   1.000000
   37       -5.589493   1.000000
   38       -5.283013   1.000000
   39       -5.221767   1.000000
   40       -5.081976   1.000000
   41       -4.904932   1.000000
   42       -4.820027   1.000000
   43       -4.723508   1.000000
   44       -4.577347   1.000000
   45       -4.361102   1.000000
   46       -4.275226   1.000000
   47       -4.017391   1.000000
   48       -3.945560   1.000000
   49       -3.762844   1.000000
   50       -3.581951   1.000000
   51       -3.442824   1.000000
   52       -3.271472   1.000000
   53       -3.042636   1.000000
   54       -2.932516   1.000000
   55       -2.889651   1.000000
   56       -2.501864   1.000000
   57       -2.318264   1.000000
   58       -2.097875   1.000000
   59       -2.071188   1.000000
   60       -1.607354   1.000000
   61       -1.270767   1.000000
   62       -1.029770   1.000000
   63       -0.897945   1.000838
   64       -0.865611   1.072800
   65       -0.682092  -0.078542
   66       -0.597232   0.000000
   67       -0.400703   0.000000
   68       -0.104265   0.000000
   69        0.253857   0.000000
   70        0.745316   0.000000
   71        0.769001   0.000000
   72        0.815314   0.000000
   73        1.653473   0.000000
   74        1.677508   0.000000
   75        2.951438   0.000000
   76        2.964645   0.000000
 
  0.3333333E+00  0.2222222E+00  0.0000000E+00  0.7407407E-01
    1      -36.629338   1.000000
    2      -35.273483   1.000000
    3      -34.307201   1.000000
    4      -33.404488   1.000000
    5      -20.462410   1.000000
    6      -20.202640   1.000000
    7      -19.691442   1.000000
    8      -19.307643   1.000000
    9      -19.121936   1.000000
   10      -18.746188   1.000000
   11      -18.610791   1.000000
   12      -18.449417   1.000000
   13      -18.369109   1.000000
   14      -18.302470   1.000000
   15      -18.177723   1.000000
   16      -17.771971   1.000000
   17      -17.272176   1.000000
   18      -17.207598   1.000000
   19      -17.146999   1.000000
   20      -17.094938   1.000000
   21      -16.513516   1.000000
   22      -16.298025   1.000000
   23      -16.229108   1.000000
   24      -16.151598   1.000000
   25      -15.999914   1.000000
   26      -15.342988   1.000000
   27      -15.204589   1.000000
   28      -15.126938   1.000000
   29       -6.882188   1.000000
   30       -6.787701   1.000000
   31       -6.677601   1.000000
   32       -6.526470   1.000000
   33       -6.236138   1.000000
   34       -6.036432   1.000000
   35       -5.816856   1.000000
   36       -5.726890   1.000000
   37       -5.613343   1.000000
   38       -5.290625   1.000000
   39       -5.254436   1.000000
   40       -5.040272   1.000000
   41       -4.922829   1.000000
   42       -4.876032   1.000000
   43       -4.854352   1.000000
   44       -4.756403   1.000000
   45       -4.333451   1.000000
   46       -4.241601   1.000000
   47       -3.998187   1.000000
   48       -3.960580   1.000000
   49       -3.775236   1.000000
   50       -3.704272   1.000000
   51       -3.536636   1.000000
   52       -3.405296   1.000000
   53       -3.294583   1.000000
   54       -2.974110   1.000000
   55       -2.887156   1.000000
   56       -2.744552   1.000000
   57       -2.257402   1.000000
   58       -2.123915   1.000000
   59       -1.989986   1.000000
   60       -1.717584   1.000000
   61       -1.252488   1.000000
   62       -1.070043   1.000000
   63       -0.951213   1.000000
   64       -0.903161   1.077569
   65       -0.816640   0.864059
   66       -0.502516   0.000000
   67       -0.318009   0.000000
   68       -0.054088   0.000000
   69        0.300614   0.000000
   70        0.760380   0.000000
   71        0.786939   0.000000
   72        0.971000   0.000000
   73        1.651982   0.000000
   74        2.896976   0.000000
   75        2.953934   0.000000
   76        3.134315   0.000000
 
  0.5000000E+00  0.2222222E+00  0.0000000E+00  0.3703704E-01
    1      -36.629173   1.000000
    2      -35.273305   1.000000
    3      -34.307027   1.000000
    4      -33.404352   1.000000
    5      -20.489281   1.000000
    6      -20.231784   1.000000
    7      -19.703479   1.000000
    8      -19.322856   1.000000
    9      -19.125198   1.000000
   10      -18.766174   1.000000
   11      -18.600336   1.000000
   12      -18.389804   1.000000
   13      -18.370714   1.000000
   14      -18.310286   1.000000
   15      -18.180468   1.000000
   16      -17.791920   1.000000
   17      -17.280321   1.000000
   18      -17.194762   1.000000
   19      -17.138321   1.000000
   20      -17.066328   1.000000
   21      -16.476737   1.000000
   22      -16.327725   1.000000
   23      -16.204820   1.000000
   24      -16.117539   1.000000
   25      -15.990753   1.000000
   26      -15.340382   1.000000
   27      -15.161745   1.000000
   28      -15.116787   1.000000
   29       -6.916363   1.000000
   30       -6.820735   1.000000
   31       -6.651459   1.000000
   32       -6.533542   1.000000
   33       -6.162466   1.000000
   34       -5.873120   1.000000
   35       -5.855326   1.000000
   36       -5.741756   1.000000
   37       -5.662425   1.000000
   38       -5.523737   1.000000
   39       -5.226744   1.000000
   40       -5.193627   1.000000
   41       -4.964516   1.000000
   42       -4.912907   1.000000
   43       -4.773937   1.000000
   44       -4.601925   1.000000