Automatically generated mesh
      20
Reciprocal lattice
    0.00000000000000    0.00000000000000    0.00000000000000             1
    0.16666666666667    0.00000000000000    0.00000000000000             2
    0.33333333333333    0.00000000000000    0.00000000000000             2
    0.50000000000000    0.00000000000000    0.00000000000000             1
    0.00000000000000    0.11111111111111    0.00000000000000             2
    0.16666666666667    0.11111111111111    0.00000000000000             4
    0.33333333333333    0.11111111111111    0.00000000000000             4
    0.50000000000000    0.11111111111111    0.00000000000000             2
    0.00000000000000    0.22222222222222    0.00000000000000             2
    0.16666666666667    0.22222222222222    0.00000000000000             4
    0.33333333333333    0.22222222222222    0.00000000000000             4
    0.50000000000000    0.22222222222222    0.00000000000000             2
    0.00000000000000    0.33333333333333    0.00000000000000             2
    0.16666666666667    0.33333333333333    0.00000000000000             4
    0.33333333333333    0.33333333333333    0.00000000000000             4
    0.50000000000000    0.33333333333333    0.00000000000000             2
    0.00000000000000    0.44444444444444    0.00000000000000             2
    0.16666666666667    0.44444444444444    0.00000000000000             4
    0.33333333333333    0.44444444444444    0.00000000000000             4
    0.50000000000000    0.44444444444444    0.00000000000000             2
Tetrahedra
       153    0.00308641975309
         2         1         1         2         6
         2         1         1         5         6
         2         1         5         5         6
         2         1         2         2         6
         2         1         2         6         6
         2         1         5         6         6
         2         2         2         3         7
         2         2         2         6         7
         2         2         6         6         7
         2         2         3         3         7
         2         2         3         7         7
         2         2         6         7         7
         2         3         3         4         8
         2         3         3         7         8
         2         3         7         7         8
         2         3         4         4         8
         2         3         4         8         8
         2         3         7         8         8
         2         3         4         4         7
         2         4         4         7         8
         2         4         7         8         8
         2         3         3         4         7
         2         3         4         7         7
         2         4         7         7         8
         2         2         3         3         6
         2         3         3         6         7
         2         3         6         7         7
         2         2         2         3         6
         2         2         3         6         6
         2         3         6         6         7
         2         1         2         2         5
         2         2         2         5         6
         2         2         5         6         6
         2         1         1         2         5
         2         1         2         5         5
         2         2         5         5         6
         2         5         5         6        10
         2         5         5         9        10
         2         5         9         9        10
         2         5         6         6        10
         2         5         6        10        10
         2         5         9        10        10
         2         6         6         7        11
         2         6         6        10        11
         2         6        10        10        11
         2         6         7         7        11
         2         6         7        11        11
         2         6        10        11        11
         2         7         7         8        12
         2         7         7        11        12
         2         7        11        11        12
         2         7         8         8        12
         2         7         8        12        12
         2         7        11        12        12
         2         7         8         8        11
         2         8         8        11        12
         2         8        11        12        12
         2         7         7         8        11
         2         7         8        11        11
         2         8        11        11        12
         2         6         7         7        10
         2         7         7        10        11
         2         7        10        11        11
         2         6         6         7        10
         2         6         7        10        10
         2         7        10        10        11
         2         5         6         6         9
         2         6         6         9        10
         2         6         9        10        10
         2         5         5         6         9
         2         5         6         9         9
         2         6         9         9        10
         2         9         9        10        14
         2         9         9        13        14
         2         9        13        13        14
         2         9        10        10        14
         2         9        10        14        14
         2         9        13        14        14
         2        10        10        11        15
         2        10        10        14        15
         2        10        14        14        15
         2        10        11        11        15
         2        10        11        15        15
         2        10        14        15        15
         2        11        11        12        16
         2        11        11        15        16
         2        11        15        15        16
         2        11        12        12        16
         2        11        12        16        16
         2        11        15        16        16
         2        11        12        12        15
         2        12        12        15        16
         2        12        15        16        16
         2        11        11        12        15
         2        11        12        15        15
         2        12        15        15        16
         2        10        11        11        14
         2        11        11        14        15
         2        11        14        15        15
         2        10        10        11        14
         2        10        11        14        14
         2        11        14        14        15
         2         9        10        10        13
         2        10        10        13        14
         2        10        13        14        14
         2         9         9        10        13
         2         9        10        13        13
         2        10        13        13        14
         2        13        13        14        18
         2        13        13        17        18
         2        13        17        17        18
         2        13        14        14        18
         2        13        14        18        18
         2        13        17        18        18
         2        14        14        15        19
         2        14        14        18        19
         2        14        18        18        19
         2        14        15        15        19
         2        14        15        19        19
         2        14        18        19        19
         2        15        15        16        20
         2        15        15        19        20
         2        15        19        19        20
         2        15        16        16        20
         2        15        16        20        20
         2        15        19        20        20
         2        15        16        16        19
         2        16        16        19        20
         2        16        19        20        20
         2        15        15        16        19
         2        15        16        19        19
         2        16        19        19        20
         2        14        15        15        18
         2        15        15        18        19
         2        15        18        19        19
         2        14        14        15        18
         2        14        15        18        18
         2        15        18        18        19
         2        13        14        14        17
         2        14        14        17        18
         2        14        17        18        18
         2        13        13        14        17
         2        13        14        17        17
         2        14        17        17        18
         4        17        17        18        18
         4        17        17        17        18
         4        17        18        18        18
         4        18        18        19        19
         4        18        18        18        19
         4        18        19        19        19
         4        19        19        20        20
         4        19        19        19        20
         4        19        20        20        20
