 vasp.5.4.4.18Apr17-6-g9f103f2a35 (build Jun 30 2017 11:15:00) complex          
  
 executed on    STALLO_VASP_5.4.4 date 2019.11.06  18:34:35
 running on    4 total cores
 distrk:  each k-point on    4 cores,    1 groups
 distr:  one band on NCORES_PER_BAND=   2 cores,    2 groups


--------------------------------------------------------------------------------------------------------


 INCAR:
 POTCAR:   PAW_PBE O 08Apr2002                    
 POTCAR:   PAW_PBE Sr_sv 07Sep2000                
 POTCAR:   PAW_PBE Ti 08Apr2002                   
 POTCAR:   PAW_PBE O 08Apr2002                    
   VRHFIN =O: s2p4                                                              
   LEXCH  = PE                                                                  
   EATOM  =   432.3788 eV,   31.7789 Ry                                         
                                                                                
   TITEL  = PAW_PBE O 08Apr2002                                                 
   LULTRA =        F    use ultrasoft PP ?                                      
   IUNSCR =        0    unscreen: 0-lin 1-nonlin 2-no                           
   RPACOR =     .000    partial core radius                                     
   POMASS =   16.000; ZVAL   =    6.000    mass and valenz                      
   RCORE  =    1.520    outmost cutoff radius                                   
   RWIGS  =    1.550; RWIGS  =     .820    wigner-seitz radius (au A)           
   ENMAX  =  400.000; ENMIN  =  300.000 eV                                      
   ICORE  =        2    local potential                                         
   LCOR   =        T    correct aug charges                                     
   LPAW   =        T    paw PP                                                  
   EAUG   =  605.392                                                            
   DEXC   =     .000                                                            
   RMAX   =    2.264    core radius for proj-oper                               
   RAUG   =    1.300    factor for augmentation sphere                          
   RDEP   =    1.550    radius for radial grids                                 
   QCUT   =   -5.520; QGAM   =   11.041    optimization parameters              
                                                                                
   Description                                                                  
     l     E      TYP  RCUT    TYP  RCUT                                        
     0   .000     23  1.200                                                     
     0  -.700     23  1.200                                                     
     1   .000     23  1.520                                                     
     1   .600     23  1.520                                                     
     2   .000      7  1.500                                                     
  local pseudopotential read in
  atomic valenz-charges read in
  non local Contribution for L=           0  read in
    real space projection operators read in
  non local Contribution for L=           0  read in
    real space projection operators read in
  non local Contribution for L=           1  read in
    real space projection operators read in
  non local Contribution for L=           1  read in
    real space projection operators read in
    PAW grid and wavefunctions read in
 
   number of l-projection  operators is LMAX  =           4
   number of lm-projection operators is LMMAX =           8
 
 POTCAR:   PAW_PBE Sr_sv 07Sep2000                
   VRHFIN =Sr: 4s4p5s                                                           
   LEXCH  = PE                                                                  
   EATOM  =   842.4562 eV,   61.9188 Ry                                         
                                                                                
   TITEL  = PAW_PBE Sr_sv 07Sep2000                                             
   LULTRA =        F    use ultrasoft PP ?                                      
   IUNSCR =        1    unscreen: 0-lin 1-nonlin 2-no                           
   RPACOR =    2.200    partial core radius                                     
   POMASS =   87.620; ZVAL   =   10.000    mass and valenz                      
   RCORE  =    2.500    outmost cutoff radius                                   
   RWIGS  =    4.040; RWIGS  =    2.138    wigner-seitz radius (au A)           
   ENMAX  =  229.282; ENMIN  =  171.961 eV                                      
   RCLOC  =    2.201    cutoff for local pot                                    
   LCOR   =        T    correct aug charges                                     
   LPAW   =        T    paw PP                                                  
   EAUG   =  366.804                                                            
   DEXC   =     .000                                                            
   RMAX   =    3.045    core radius for proj-oper                               
   RAUG   =    1.300    factor for augmentation sphere                          
   RDEP   =    2.562    radius for radial grids                                 
   QCUT   =   -4.105; QGAM   =    8.210    optimization parameters              
                                                                                
   Description                                                                  
     l     E      TYP  RCUT    TYP  RCUT                                        
     0   .000     23  2.480                                                     
     0   .000     23  2.480                                                     
     1   .000     23  2.500                                                     
     1   .000     23  2.500                                                     
     2   .000     23  2.500                                                     
     2   .000     23  2.500                                                     
  local pseudopotential read in
  partial core-charges read in
  atomic valenz-charges read in
  non local Contribution for L=           0  read in
    real space projection operators read in
  non local Contribution for L=           0  read in
    real space projection operators read in
  non local Contribution for L=           1  read in
    real space projection operators read in
  non local Contribution for L=           1  read in
    real space projection operators read in
  non local Contribution for L=           2  read in
    real space projection operators read in
  non local Contribution for L=           2  read in
    real space projection operators read in
    PAW grid and wavefunctions read in
 
   number of l-projection  operators is LMAX  =           6
   number of lm-projection operators is LMMAX =          18
 
 POTCAR:   PAW_PBE Ti 08Apr2002                   
   VRHFIN =Ti: d3 s1                                                            
   LEXCH  = PE                                                                  
   EATOM  =    94.7929 eV,    6.9671 Ry                                         
                                                                                
   TITEL  = PAW_PBE Ti 08Apr2002                                                
   LULTRA =        F    use ultrasoft PP ?                                      
   IUNSCR =        1    unscreen: 0-lin 1-nonlin 2-no                           
   RPACOR =    2.200    partial core radius                                     
   POMASS =   47.880; ZVAL   =    4.000    mass and valenz                      
   RCORE  =    2.800    outmost cutoff radius                                   
   RWIGS  =    2.500; RWIGS  =    1.323    wigner-seitz radius (au A)           
   ENMAX  =  178.330; ENMIN  =  133.747 eV                                      
   RCLOC  =    2.215    cutoff for local pot                                    
   LCOR   =        T    correct aug charges                                     
   LPAW   =        T    paw PP                                                  
   EAUG   =  328.883                                                            
   DEXC   =    -.043                                                            
   RMAX   =    3.453    core radius for proj-oper                               
   RAUG   =    1.300    factor for augmentation sphere                          
   RDEP   =    2.885    radius for radial grids                                 
   QCUT   =   -3.620; QGAM   =    7.241    optimization parameters              
                                                                                
   Description                                                                  
     l     E      TYP  RCUT    TYP  RCUT                                        
     2   .000     23  2.800                                                     
     2   .000     23  2.800                                                     
     0   .000     23  2.800                                                     
     0  1.500     23  2.800                                                     
     1  -.400     23  2.800                                                     
     3   .000      7   .000                                                     
  local pseudopotential read in
  partial core-charges read in
  atomic valenz-charges read in
  non local Contribution for L=           2  read in
    real space projection operators read in
  non local Contribution for L=           2  read in
    real space projection operators read in
  non local Contribution for L=           0  read in
    real space projection operators read in
  non local Contribution for L=           0  read in
    real space projection operators read in
  non local Contribution for L=           1  read in
    real space projection operators read in
    PAW grid and wavefunctions read in
 
   number of l-projection  operators is LMAX  =           5
   number of lm-projection operators is LMMAX =          15
 

 ----------------------------------------------------------------------------- 
|                                                                             |
|  ADVICE TO THIS USER RUNNING 'VASP/VAMP'   (HEAR YOUR MASTER'S VOICE ...):  |
|                                                                             |
|      You have a (more or less) 'large supercell' and for larger cells       |
|      it might be more efficient to use real space projection operators      |
|      So try LREAL= Auto  in the INCAR   file.                               |
|      Mind: If you want to do a very accurate calculations keep the          |
|      reciprocal projection scheme          (i.e. LREAL=.FALSE.)             |
|                                                                             |
 ----------------------------------------------------------------------------- 

 PAW_PBE O 08Apr2002                    :
 energy of atom  1       EATOM= -432.3788
 kinetic energy error for atom=    0.0224 (will be added to EATOM!!)
 PAW_PBE Sr_sv 07Sep2000                :
 energy of atom  2       EATOM= -842.4562
 kinetic energy error for atom=    0.0012 (will be added to EATOM!!)
 PAW_PBE Ti 08Apr2002                   :
 energy of atom  3       EATOM=  -94.7929
 kinetic energy error for atom=    0.0002 (will be added to EATOM!!)
 
 
 POSCAR:  O Sr Ti                                
  positions in direct lattice
  No initial velocities read in
 exchange correlation table for  LEXCH =        8
   RHO(1)=    0.500       N(1)  =     2000
   RHO(2)=  100.500       N(2)  =     4000
 


--------------------------------------------------------------------------------------------------------


 ion  position               nearest neighbor table
   1  0.500  0.000  0.277-  17 1.95  17 1.95  14 2.76  13 2.76  13 2.76
   2  0.250  0.500  0.341-  17 1.95  18 1.95  13 2.76  14 2.76  13 2.76  14 2.76
   3  0.750  0.500  0.341-  17 1.95  18 1.95  13 2.76  14 2.76  13 2.76  14 2.76
   4  0.000  0.000  0.404-  18 1.95  18 1.95  13 2.76  14 2.76  14 2.76  15 2.76
   5  0.750  0.500  0.468-  18 1.95  19 1.95  14 2.76  14 2.76  15 2.76  15 2.76
   6  0.250  0.500  0.468-  18 1.95  19 1.95  14 2.76  14 2.76  15 2.76  15 2.76
   7  0.500  0.000  0.532-  19 1.95  19 1.95  16 2.76  15 2.76  15 2.76  14 2.76
   8  0.250  0.500  0.596-  19 1.95  20 1.95  15 2.76  16 2.76  15 2.76  16 2.76
   9  0.750  0.500  0.596-  19 1.95  20 1.95  15 2.76  16 2.76  15 2.76  16 2.76
  10  0.000  0.000  0.659-  20 1.95  20 1.95  15 2.76  16 2.76  16 2.76
  11  0.750  0.500  0.723-  20 1.95  16 2.76  16 2.76
  12  0.250  0.500  0.723-  20 1.95  16 2.76  16 2.76
  13  0.000  0.000  0.277-   4 2.76   3 2.76   2 2.76   2 2.76   3 2.76   1 2.76   1 2.76  18 3.38
                            18 3.38  17 3.38  17 3.38  17 3.38  17 3.38  14 3.91  14 3.91
  14  0.500  0.000  0.404-   1 2.76   2 2.76   3 2.76   5 2.76   6 2.76   2 2.76   3 2.76   5 2.76
                             6 2.76   4 2.76   4 2.76   7 2.76  17 3.38  17 3.38  18 3.38  18 3.38
  15  0.000  0.000  0.532-  10 2.76   9 2.76   8 2.76   8 2.76   9 2.76   7 2.76   7 2.76   6 2.76
                             5 2.76   6 2.76   5 2.76   4 2.76  20 3.38  20 3.38  19 3.38  19 3.38
  16  0.500  0.000  0.659-   7 2.76   8 2.76   9 2.76  11 2.76  12 2.76   8 2.76   9 2.76  11 2.76
                            12 2.76  10 2.76  10 2.76  19 3.38  19 3.38  20 3.38  20 3.38  20 3.38
  17  0.500  0.500  0.277-   2 1.95   3 1.95   1 1.95   1 1.95  14 3.38  14 3.38  13 3.38  13 3.38
                            13 3.38  13 3.38
  18  0.000  0.500  0.404-   2 1.95   3 1.95   5 1.95   6 1.95   4 1.95   4 1.95  13 3.38  13 3.38
                            14 3.38  14 3.38  14 3.38  14 3.38  15 3.38  15 3.38
  19  0.500  0.500  0.532-   8 1.95   9 1.95   7 1.95   7 1.95   5 1.95   6 1.95  16 3.38  16 3.38
                            15 3.38  15 3.38  15 3.38  15 3.38  14 3.38  14 3.38
  20  0.000  0.500  0.659-   8 1.95   9 1.95  11 1.95  12 1.95  10 1.95  10 1.95  15 3.38  15 3.38
                            16 3.38  16 3.38  16 3.38  16 3.38
 
  LATTYP: Found a simple orthorhombic cell.
 ALAT       =     3.9052680000
 B/A-ratio  =     1.4142135624
 C/A-ratio  =     5.5476462046
  
  Lattice vectors:
  
 A1 = (   0.0000000000,  -3.9052680000,   0.0000000000)
 A2 = (  -5.5228829703,   0.0000000000,   0.0000000000)
 A3 = (   0.0000000000,   0.0000000000, -21.6650451980)


Analysis of symmetry for initial positions (statically):
=====================================================================
 Subroutine PRICEL returns:
 Original cell was already a primitive cell.
 

 Routine SETGRP: Setting up the symmetry group for a 
 simple orthorhombic supercell.


 Subroutine GETGRP returns: Found  4 space group operations
 (whereof  4 operations were pure point group operations)
 out of a pool of  8 trial point group operations.


The static configuration has the point symmetry C_2v.


Analysis of symmetry for dynamics (positions and initial velocities):
=====================================================================
 Subroutine PRICEL returns:
 Original cell was already a primitive cell.
 

 Routine SETGRP: Setting up the symmetry group for a 
 simple orthorhombic supercell.


 Subroutine GETGRP returns: Found  4 space group operations
 (whereof  4 operations were pure point group operations)
 out of a pool of  8 trial point group operations.


The dynamic configuration has the point symmetry C_2v.


 Subroutine INISYM returns: Found  4 space group operations
 (whereof  4 operations are pure point group operations),
 and found     1 'primitive' translations

 
 
 KPOINTS: k-density: 5.0                          

Automatic generation of k-mesh.
Space group operators:
 irot       det(A)        alpha          n_x          n_y          n_z        tau_x        tau_y        tau_z
    1     1.000000     0.000000     1.000000     0.000000     0.000000     0.000000     0.000000     0.000000
    2     1.000000   179.999999     0.000000     0.000000     1.000000     0.000000     0.000000     0.000000
    3    -1.000000   180.000000     1.000000     0.000000     0.000000     0.000000     0.000000     0.000000
    4    -1.000000   180.000000     0.000000     1.000000     0.000000     0.000000     0.000000     0.000000
 
 Subroutine IBZKPT returns following result:
 ===========================================
 
 Found     20 irreducible k-points:
 
 Following reciprocal coordinates:
            Coordinates               Weight
  0.000000  0.000000  0.000000      1.000000
  0.166667  0.000000  0.000000      2.000000
  0.333333  0.000000  0.000000      2.000000
  0.500000  0.000000  0.000000      1.000000
  0.000000  0.111111  0.000000      2.000000
  0.166667  0.111111  0.000000      4.000000
  0.333333  0.111111  0.000000      4.000000
  0.500000  0.111111  0.000000      2.000000
  0.000000  0.222222  0.000000      2.000000
  0.166667  0.222222  0.000000      4.000000
  0.333333  0.222222  0.000000      4.000000
  0.500000  0.222222  0.000000      2.000000
  0.000000  0.333333  0.000000      2.000000
  0.166667  0.333333  0.000000      4.000000
  0.333333  0.333333  0.000000      4.000000
  0.500000  0.333333  0.000000      2.000000
  0.000000  0.444444  0.000000      2.000000
  0.166667  0.444444  0.000000      4.000000
  0.333333  0.444444  0.000000      4.000000
  0.500000  0.444444  0.000000      2.000000
 
 Following cartesian coordinates:
            Coordinates               Weight
  0.000000  0.000000  0.000000      1.000000
  0.030177  0.000000  0.000000      2.000000
  0.060355  0.000000  0.000000      2.000000
  0.090532  0.000000  0.000000      1.000000
  0.000000  0.028452  0.000000      2.000000
  0.030177  0.028452  0.000000      4.000000
  0.060355  0.028452  0.000000      4.000000
  0.090532  0.028452  0.000000      2.000000
  0.000000  0.056903  0.000000      2.000000
  0.030177  0.056903  0.000000      4.000000
  0.060355  0.056903  0.000000      4.000000
  0.090532  0.056903  0.000000      2.000000
  0.000000  0.085355  0.000000      2.000000
  0.030177  0.085355  0.000000      4.000000
  0.060355  0.085355  0.000000      4.000000
  0.090532  0.085355  0.000000      2.000000
  0.000000  0.113806  0.000000      2.000000
  0.030177  0.113806  0.000000      4.000000
  0.060355  0.113806  0.000000      4.000000
  0.090532  0.113806  0.000000      2.000000
 
 TETIRR: Found    153 inequivalent tetrahedra from      324


--------------------------------------------------------------------------------------------------------




 Dimension of arrays:
   k-points           NKPTS =     20   k-points in BZ     NKDIM =     20   number of bands    NBANDS=     76
   number of dos      NEDOS =    301   number of ions     NIONS =     20
   non local maximal  LDIM  =      6   non local SUM 2l+1 LMDIM =     18
   total plane-waves  NPLWV =  86400
   max r-space proj   IRMAX =      1   max aug-charges    IRDMAX=  12968
   dimension x,y,z NGX =    30 NGY =   24 NGZ =  120
   dimension x,y,z NGXF=    60 NGYF=   48 NGZF=  240
   support grid    NGXF=    60 NGYF=   48 NGZF=  240
   ions per type =              12   4   4
   NGX,Y,Z   is equivalent  to a cutoff of   9.03, 10.22,  9.21 a.u.
   NGXF,Y,Z  is equivalent  to a cutoff of  18.06, 20.43, 18.42 a.u.

 SYSTEM =  unknown system                          
 POSCAR =   O Sr Ti                                

 Startparameter for this run:
   NWRITE =      2    write-flag & timer
   PREC   = normal    normal or accurate (medium, high low for compatibility)
   ISTART =      0    job   : 0-new  1-cont  2-samecut
   ICHARG =      2    charge: 1-file 2-atom 10-const
   ISPIN  =      1    spin polarized calculation?
   LNONCOLLINEAR =      F non collinear calculations
   LSORBIT =      F    spin-orbit coupling
   INIWAV =      1    electr: 0-lowe 1-rand  2-diag
   LASPH  =      F    aspherical Exc in radial PAW
   METAGGA=      F    non-selfconsistent MetaGGA calc.

 Electronic Relaxation 1
   ENCUT  =  500.0 eV  36.75 Ry    6.06 a.u.  10.07  7.12 39.50*2*pi/ulx,y,z
   ENINI  =  500.0     initial cutoff
   ENAUG  =  605.4 eV  augmentation charge cutoff
   NELM   =     60;   NELMIN=  4; NELMDL= -5     # of ELM steps 
   EDIFF  = 0.1E-04   stopping-criterion for ELM
   LREAL  =      F    real-space projection
   NLSPLINE    = F    spline interpolate recip. space projectors
   LCOMPAT=      F    compatible to vasp.4.4
   GGA_COMPAT  = T    GGA compatible to vasp.4.4-vasp.4.6
   LMAXPAW     = -100 max onsite density
   LMAXMIX     =    2 max onsite mixed and CHGCAR
   VOSKOWN=      0    Vosko Wilk Nusair interpolation
   ROPT   =    0.00000   0.00000   0.00000
 Ionic relaxation
   EDIFFG = 0.1E-03   stopping-criterion for IOM
   NSW    =      0    number of steps for IOM
   NBLOCK =      1;   KBLOCK =      1    inner block; outer block 
   IBRION =     -1    ionic relax: 0-MD 1-quasi-New 2-CG
   NFREE  =      0    steps in history (QN), initial steepest desc. (CG)
   ISIF   =      2    stress and relaxation
   IWAVPR =     10    prediction:  0-non 1-charg 2-wave 3-comb
   ISYM   =      2    0-nonsym 1-usesym 2-fastsym
   LCORR  =      T    Harris-Foulkes like correction to forces

   POTIM  = 0.5000    time-step for ionic-motion
   TEIN   =    0.0    initial temperature
   TEBEG  =    0.0;   TEEND  =   0.0 temperature during run
   SMASS  =  -3.00    Nose mass-parameter (am)
   estimated Nose-frequenzy (Omega)   =  0.10E-29 period in steps =****** mass=  -0.697E-27a.u.
   SCALEE = 1.0000    scale energy and forces
   NPACO  =    256;   APACO  = 16.0  distance and # of slots for P.C.
   PSTRESS=    0.0 pullay stress

  Mass of Ions in am
   POMASS =  16.00 87.62 47.88
  Ionic Valenz
   ZVAL   =   6.00 10.00  4.00
  Atomic Wigner-Seitz radii
   RWIGS  =  -1.00 -1.00 -1.00
  virtual crystal weights 
   VCA    =   1.00  1.00  1.00
   NELECT =     128.0000    total number of electrons
   NUPDOWN=      -1.0000    fix difference up-down

 DOS related values:
   EMIN   =  10.00;   EMAX   =-10.00  energy-range for DOS
   EFERMI =   0.00
   ISMEAR =    -5;   SIGMA  =   0.20  broadening in eV -4-tet -1-fermi 0-gaus

 Electronic relaxation 2 (details)
   IALGO  =     68    algorithm
   LDIAG  =      T    sub-space diagonalisation (order eigenvalues)
   LSUBROT=      F    optimize rotation matrix (better conditioning)
   TURBO    =      0    0=normal 1=particle mesh
   IRESTART =      0    0=no restart 2=restart with 2 vectors
   NREBOOT  =      0    no. of reboots
   NMIN     =      0    reboot dimension
   EREF     =   0.00    reference energy to select bands
   IMIX   =      4    mixing-type and parameters
     AMIX     =   0.40;   BMIX     =  1.00
     AMIX_MAG =   1.60;   BMIX_MAG =  1.00
     AMIN     =   0.10
     WC   =   100.;   INIMIX=   1;  MIXPRE=   1;  MAXMIX= -45

 Intra band minimization:
   WEIMIN = 0.0000     energy-eigenvalue tresh-hold
   EBREAK =  0.33E-07  absolut break condition
   DEPER  =   0.30     relativ break condition  

   TIME   =   0.40     timestep for ELM

  volume/ion in A,a.u.               =      23.36       157.67
  Fermi-wavevector in a.u.,A,eV,Ry     =   1.063211  2.009177 15.380261  1.130417
  Thomas-Fermi vector in A             =   2.198688
 
 Write flags
   LWAVE        =      F    write WAVECAR
   LDOWNSAMPLE  =      F    k-point downsampling of WAVECAR
   LCHARG       =      T    write CHGCAR
   LVTOT        =      F    write LOCPOT, total local potential
   LVHAR        =      F    write LOCPOT, Hartree potential only
   LELF         =      F    write electronic localiz. function (ELF)
   LORBIT       =      0    0 simple, 1 ext, 2 COOP (PROOUT), +10 PAW based schemes


 Dipole corrections
   LMONO  =      F    monopole corrections only (constant potential shift)
   LDIPOL =      F    correct potential (dipole corrections)
   IDIPOL =      0    1-x, 2-y, 3-z, 4-all directions 
   EPSILON=  1.0000000 bulk dielectric constant

 Exchange correlation treatment:
   GGA     =    --    GGA type
   LEXCH   =     8    internal setting for exchange type
   VOSKOWN=      0    Vosko Wilk Nusair interpolation
   LHFCALC =     F    Hartree Fock is set to
   LHFONE  =     F    Hartree Fock one center treatment
   AEXX    =    0.0000 exact exchange contribution

 Linear response parameters
   LEPSILON=     F    determine dielectric tensor
   LRPA    =     F    only Hartree local field effects (RPA)
   LNABLA  =     F    use nabla operator in PAW spheres
   LVEL    =     F    velocity operator in full k-point grid
   LINTERFAST=   F  fast interpolation
   KINTER  =     0    interpolate to denser k-point grid
   CSHIFT  =0.1000    complex shift for real part using Kramers Kronig
   OMEGAMAX=  -1.0    maximum frequency
   DEG_THRESHOLD= 0.2000000E-02 threshold for treating states as degnerate
   RTIME   =   -0.100 relaxation time in fs
  (WPLASMAI=    0.000 imaginary part of plasma frequency in eV, 0.658/RTIME)
   DFIELD  = 0.0000000 0.0000000 0.0000000 field for delta impulse in time
 
 Orbital magnetization related:
   ORBITALMAG=     F  switch on orbital magnetization
   LCHIMAG   =     F  perturbation theory with respect to B field
   DQ        =  0.001000  dq finite difference perturbation B field
   LLRAUG    =     F  two centre corrections for induced B field



--------------------------------------------------------------------------------------------------------


 Static calculation
 charge density and potential will be updated during run
 non-spin polarized calculation
 RMM-DIIS sequential band-by-band and
  variant of blocked Davidson during initial phase
 perform sub-space diagonalisation
    before iterative eigenvector-optimisation
 modified Broyden-mixing scheme, WC =      100.0
 initial mixing is a Kerker type mixing with AMIX =  0.4000 and BMIX =      1.0000
 Hartree-type preconditioning will be used
 using additional bands           12
 reciprocal scheme for non local part
 use partial core corrections
 calculate Harris-corrections to forces 
   (improved forces if not selfconsistent)
 use gradient corrections 
 use of overlap-Matrix (Vanderbilt PP)
 Fermi weights with tetrahedron method with Bloechl corrections


--------------------------------------------------------------------------------------------------------


  energy-cutoff  :      500.00
  volume of cell :      467.28
      direct lattice vectors                 reciprocal lattice vectors
     5.522882970  0.000000000  0.000000000     0.181064854  0.000000000  0.000000000
     0.000000000  3.905268000  0.000000000     0.000000000  0.256064373  0.000000000
     0.000000000  0.000000000 21.665045198     0.000000000  0.000000000  0.046157300

  length of vectors
     5.522882970  3.905268000 21.665045198     0.181064854  0.256064373  0.046157300


 
 k-points in units of 2pi/SCALE and weight: k-density: 5.0                          
   0.00000000  0.00000000  0.00000000       0.019
   0.03017748  0.00000000  0.00000000       0.037
   0.06035495  0.00000000  0.00000000       0.037
   0.09053243  0.00000000  0.00000000       0.019
   0.00000000  0.02845160  0.00000000       0.037
   0.03017748  0.02845160  0.00000000       0.074
   0.06035495  0.02845160  0.00000000       0.074
   0.09053243  0.02845160  0.00000000       0.037
   0.00000000  0.05690319  0.00000000       0.037
   0.03017748  0.05690319  0.00000000       0.074
   0.06035495  0.05690319  0.00000000       0.074
   0.09053243  0.05690319  0.00000000       0.037
   0.00000000  0.08535479  0.00000000       0.037
   0.03017748  0.08535479  0.00000000       0.074
   0.06035495  0.08535479  0.00000000       0.074
   0.09053243  0.08535479  0.00000000       0.037
   0.00000000  0.11380639  0.00000000       0.037
   0.03017748  0.11380639  0.00000000       0.074
   0.06035495  0.11380639  0.00000000       0.074
   0.09053243  0.11380639  0.00000000       0.037
 
 k-points in reciprocal lattice and weights: k-density: 5.0                          
   0.00000000  0.00000000  0.00000000       0.019
   0.16666667  0.00000000  0.00000000       0.037
   0.33333333  0.00000000  0.00000000       0.037
   0.50000000  0.00000000  0.00000000       0.019
   0.00000000  0.11111111  0.00000000       0.037
   0.16666667  0.11111111  0.00000000       0.074
   0.33333333  0.11111111  0.00000000       0.074
   0.50000000  0.11111111  0.00000000       0.037
   0.00000000  0.22222222  0.00000000       0.037
   0.16666667  0.22222222  0.00000000       0.074
   0.33333333  0.22222222  0.00000000       0.074
   0.50000000  0.22222222  0.00000000       0.037
   0.00000000  0.33333333  0.00000000       0.037
   0.16666667  0.33333333  0.00000000       0.074
   0.33333333  0.33333333  0.00000000       0.074
   0.50000000  0.33333333  0.00000000       0.037
   0.00000000  0.44444444  0.00000000       0.037
   0.16666667  0.44444444  0.00000000       0.074
   0.33333333  0.44444444  0.00000000       0.074
   0.50000000  0.44444444  0.00000000       0.037
 
 position of ions in fractional coordinates (direct lattice) 
   0.50000000  0.00000000  0.27694380
   0.25000000  0.50000000  0.34067414
   0.75000000  0.50000000  0.34067414
   0.00000000  0.00000000  0.40440449
   0.75000000  0.50000000  0.46813483
   0.25000000  0.50000000  0.46813483
   0.50000000  0.00000000  0.53186517
   0.25000000  0.50000000  0.59559551
   0.75000000  0.50000000  0.59559551
   0.00000000  0.00000000  0.65932586
   0.75000000  0.50000000  0.72305620
   0.25000000  0.50000000  0.72305620
   0.00000000  0.00000000  0.27694380
   0.50000000  0.00000000  0.40440449
   0.00000000  0.00000000  0.53186517
   0.50000000  0.00000000  0.65932586
   0.50000000  0.50000000  0.27694380
   0.00000000  0.50000000  0.40440449
   0.50000000  0.50000000  0.53186517
   0.00000000  0.50000000  0.65932586
 
 position of ions in cartesian coordinates  (Angst):
   2.76144149  0.00000000  6.00000000
   1.38072074  1.95263400  7.38072074
   4.14216223  1.95263400  7.38072074
   0.00000000  0.00000000  8.76144149
   4.14216223  1.95263400 10.14216223
   1.38072074  1.95263400 10.14216223
   2.76144149  0.00000000 11.52288297
   1.38072074  1.95263400 12.90360371
   4.14216223  1.95263400 12.90360371
   0.00000000  0.00000000 14.28432446
   4.14216223  1.95263400 15.66504520
   1.38072074  1.95263400 15.66504520
   0.00000000  0.00000000  6.00000000
   2.76144149  0.00000000  8.76144149
   0.00000000  0.00000000 11.52288297
   2.76144149  0.00000000 14.28432446
   2.76144149  1.95263400  6.00000000
   0.00000000  1.95263400  8.76144149
   2.76144149  1.95263400 11.52288297
   0.00000000  1.95263400 14.28432446
 


--------------------------------------------------------------------------------------------------------


 k-point  1 :   0.0000 0.0000 0.0000  plane waves:   11857
 k-point  2 :   0.1667 0.0000 0.0000  plane waves:   11850
 k-point  3 :   0.3333 0.0000 0.0000  plane waves:   11846
 k-point  4 :   0.5000 0.0000 0.0000  plane waves:   11860
 k-point  5 :   0.0000 0.1111 0.0000  plane waves:   11825
 k-point  6 :   0.1667 0.1111 0.0000  plane waves:   11844
 k-point  7 :   0.3333 0.1111 0.0000  plane waves:   11827
 k-point  8 :   0.5000 0.1111 0.0000  plane waves:   11842
 k-point  9 :   0.0000 0.2222 0.0000  plane waves:   11834
 k-point 10 :   0.1667 0.2222 0.0000  plane waves:   11861
 k-point 11 :   0.3333 0.2222 0.0000  plane waves:   11893
 k-point 12 :   0.5000 0.2222 0.0000  plane waves:   11898
 k-point 13 :   0.0000 0.3333 0.0000  plane waves:   11860
 k-point 14 :   0.1667 0.3333 0.0000  plane waves:   11858
 k-point 15 :   0.3333 0.3333 0.0000  plane waves:   11874
 k-point 16 :   0.5000 0.3333 0.0000  plane waves:   11898
 k-point 17 :   0.0000 0.4444 0.0000  plane waves:   11866
 k-point 18 :   0.1667 0.4444 0.0000  plane waves:   11877
 k-point 19 :   0.3333 0.4444 0.0000  plane waves:   11903
 k-point 20 :   0.5000 0.4444 0.0000  plane waves:   11904

 maximum and minimum number of plane-waves per node :      5963     5899

 maximum number of plane-waves:     11904
 maximum index in each direction: 
   IXMAX=   10   IYMAX=    7   IZMAX=   39
   IXMIN=  -10   IYMIN=   -7   IZMIN=  -39


 parallel 3D FFT for wavefunctions:
    minimum data exchange during FFTs selected (reduces bandwidth)
 parallel 3D FFT for charge:
    minimum data exchange during FFTs selected (reduces bandwidth)


 total amount of memory used by VASP MPI-rank0   177404. kBytes
=======================================================================

   base      :      30000. kBytes
   nonl-proj :      53383. kBytes
   fftplans  :       7169. kBytes
   grid      :      12862. kBytes
   one-center:        155. kBytes
   wavefun   :      73835. kBytes
 
     INWAV:  cpu time    0.0000: real time    0.0001
 Broyden mixing: mesh for mixing (old mesh)
   NGX = 21   NGY = 15   NGZ = 79
  (NGX  = 60   NGY  = 48   NGZ  =240)
  gives a total of  24885 points

 initial charge density was supplied:
 charge density of overlapping atoms calculated
 number of electron     128.0000000 magnetization 
 keeping initial charge density in first step


--------------------------------------------------------------------------------------------------------


 Maximum index for augmentation-charges         3132 (set IRDMAX)


--------------------------------------------------------------------------------------------------------


 First call to EWALD:  gamma=   0.228
 Maximum number of real-space cells 4x 5x 1
 Maximum number of reciprocal cells 2x 2x 7

    FEWALD:  cpu time    0.0020: real time    0.0019


--------------------------------------- Iteration      1(   1)  ---------------------------------------


    POTLOK:  cpu time    0.1270: real time    0.1586
    SETDIJ:  cpu time    0.0130: real time    0.0123
     EDDAV:  cpu time   12.5511: real time   12.5499
 BZINTS: Fermi energy: 13.538359;128.000000 electrons
         Band energy:  -4.703807;  BLOECHL correction: -0.041614
       DOS:  cpu time    0.0180: real time    0.0173
    --------------------------------------------
      LOOP:  cpu time   12.7091: real time   12.7382

 eigenvalue-minimisations  :  3056
 total energy-change (2. order) : 0.1595728E+04  (-0.5531625E+04)
 number of electron     128.0000000 magnetization 
 augmentation part      128.0000000 magnetization 

 Free energy of the ion-electron system (eV)
  ---------------------------------------------------
  alpha Z        PSCENC =       378.09908315
  Ewald energy   TEWEN  =     22731.27163923
  -Hartree energ DENC   =    -30966.93774878
  -exchange      EXHF   =         0.00000000
  -V(xc)+E(xc)   XCENC  =       325.41603597
  PAW double counting   =      5334.45189010    -5139.13784255
  entropy T*S    EENTRO =         0.00000000
  eigenvalues    EBANDS =        -4.70380708
  atomic energy  EATOM  =      8937.26825017
  Solvation  Ediel_sol  =         0.00000000
  ---------------------------------------------------
  free energy    TOTEN  =      1595.72750022 eV

  energy without entropy =     1595.72750022  energy(sigma->0) =     1595.72750022


--------------------------------------------------------------------------------------------------------




--------------------------------------- Iteration      1(   2)  ---------------------------------------


     EDDAV:  cpu time   14.6718: real time   14.6726
 BZINTS: Fermi energy:  3.516495;128.000000 electrons
         Band energy:***********;  BLOECHL correction: -0.065799
       DOS:  cpu time    0.0180: real time    0.0177
    --------------------------------------------
      LOOP:  cpu time   14.6898: real time   14.6903

 eigenvalue-minimisations  :  3716
 total energy-change (2. order) :-0.1409053E+04  (-0.1356260E+04)
 number of electron     128.0000000 magnetization 
 augmentation part      128.0000000 magnetization 

 Free energy of the ion-electron system (eV)
  ---------------------------------------------------
  alpha Z        PSCENC =       378.09908315
  Ewald energy   TEWEN  =     22731.27163923
  -Hartree energ DENC   =    -30966.93774878
  -exchange      EXHF   =         0.00000000
  -V(xc)+E(xc)   XCENC  =       325.41603597
  PAW double counting   =      5334.45189010    -5139.13784255
  entropy T*S    EENTRO =         0.00000000
  eigenvalues    EBANDS =     -1413.75653714
  atomic energy  EATOM  =      8937.26825017
  Solvation  Ediel_sol  =         0.00000000
  ---------------------------------------------------
  free energy    TOTEN  =       186.67477016 eV

  energy without entropy =      186.67477016  energy(sigma->0) =      186.67477016


--------------------------------------------------------------------------------------------------------




--------------------------------------- Iteration      1(   3)  ---------------------------------------


     EDDAV:  cpu time   16.2065: real time   16.2082
 BZINTS: Fermi energy: -2.988860;128.000000 electrons
         Band energy:***********;  BLOECHL correction:  0.000000
       DOS:  cpu time    0.0040: real time    0.0033
    --------------------------------------------
      LOOP:  cpu time   16.2105: real time   16.2115

 eigenvalue-minimisations  :  4200
 total energy-change (2. order) :-0.3589380E+03  (-0.3495340E+03)
 number of electron     128.0000000 magnetization 
 augmentation part      128.0000000 magnetization 

 Free energy of the ion-electron system (eV)
  ---------------------------------------------------
  alpha Z        PSCENC =       378.09908315
  Ewald energy   TEWEN  =     22731.27163923
  -Hartree energ DENC   =    -30966.93774878
  -exchange      EXHF   =         0.00000000
  -V(xc)+E(xc)   XCENC  =       325.41603597
  PAW double counting   =      5334.45189010    -5139.13784255
  entropy T*S    EENTRO =         0.00000000
  eigenvalues    EBANDS =     -1772.69448916
  atomic energy  EATOM  =      8937.26825017
  Solvation  Ediel_sol  =         0.00000000
  ---------------------------------------------------
  free energy    TOTEN  =      -172.26318187 eV

  energy without entropy =     -172.26318187  energy(sigma->0) =     -172.26318187


--------------------------------------------------------------------------------------------------------




--------------------------------------- Iteration      1(   4)  ---------------------------------------


     EDDAV:  cpu time   15.1717: real time   15.1718
 BZINTS: Fermi energy: -4.351222;128.000000 electrons
         Band energy:***********;  BLOECHL correction:  0.000000
       DOS:  cpu time    0.0040: real time    0.0032
    --------------------------------------------
      LOOP:  cpu time   15.1757: real time   15.1750

 eigenvalue-minimisations  :  3928
 total energy-change (2. order) :-0.2511006E+02  (-0.2502065E+02)
 number of electron     128.0000000 magnetization 
 augmentation part      128.0000000 magnetization 

 Free energy of the ion-electron system (eV)
  ---------------------------------------------------
  alpha Z        PSCENC =       378.09908315
  Ewald energy   TEWEN  =     22731.27163923
  -Hartree energ DENC   =    -30966.93774878
  -exchange      EXHF   =         0.00000000
  -V(xc)+E(xc)   XCENC  =       325.41603597
  PAW double counting   =      5334.45189010    -5139.13784255
  entropy T*S    EENTRO =         0.00000000
  eigenvalues    EBANDS =     -1797.80454903
  atomic energy  EATOM  =      8937.26825017
  Solvation  Ediel_sol  =         0.00000000
  ---------------------------------------------------
  free energy    TOTEN  =      -197.37324174 eV

  energy without entropy =     -197.37324174  energy(sigma->0) =     -197.37324174


--------------------------------------------------------------------------------------------------------




--------------------------------------- Iteration      1(   5)  ---------------------------------------


     EDDAV:  cpu time   19.0751: real time   19.0744
 BZINTS: Fermi energy: -4.438645;128.000000 electrons
         Band energy:***********;  BLOECHL correction:  0.000000
       DOS:  cpu time    0.0030: real time    0.0033
    CHARGE:  cpu time    0.4339: real time    0.4335
    MIXING:  cpu time    0.0030: real time    0.0030
    --------------------------------------------
      LOOP:  cpu time   19.5150: real time   19.5142

 eigenvalue-minimisations  :  5192
 total energy-change (2. order) :-0.1356291E+01  (-0.1355733E+01)
 number of electron     127.9999567 magnetization 
 augmentation part       13.6800316 magnetization 

 Broyden mixing:
  rms(total) = 0.37525E+01    rms(broyden)= 0.37519E+01
  rms(prec ) = 0.42611E+01
  weight for this iteration     100.00

 Free energy of the ion-electron system (eV)
  ---------------------------------------------------
  alpha Z        PSCENC =       378.09908315
  Ewald energy   TEWEN  =     22731.27163923
  -Hartree energ DENC   =    -30966.93774878
  -exchange      EXHF   =         0.00000000
  -V(xc)+E(xc)   XCENC  =       325.41603597
  PAW double counting   =      5334.45189010    -5139.13784255
  entropy T*S    EENTRO =         0.00000000
  eigenvalues    EBANDS =     -1799.16084000
  atomic energy  EATOM  =      8937.26825017
  Solvation  Ediel_sol  =         0.00000000
  ---------------------------------------------------
  free energy    TOTEN  =      -198.72953270 eV

  energy without entropy =     -198.72953270  energy(sigma->0) =     -198.72953270


--------------------------------------------------------------------------------------------------------




--------------------------------------- Iteration      1(   6)  ---------------------------------------


    POTLOK:  cpu time    0.1180: real time    0.1213
    SETDIJ:  cpu time    0.0130: real time    0.0118
    EDDIAG:  cpu time    1.4288: real time    1.4301
  RMM-DIIS:  cpu time   11.5862: real time   11.5833
    ORTHCH:  cpu time    0.2910: real time    0.2911
 BZINTS: Fermi energy: -0.971261;128.000000 electrons
         Band energy:***********;  BLOECHL correction: -0.072403
       DOS:  cpu time    0.0190: real time    0.0184
    CHARGE:  cpu time    0.4439: real time    0.4443
    MIXING:  cpu time    0.0040: real time    0.0034
    --------------------------------------------
      LOOP:  cpu time   13.9039: real time   13.9038

 eigenvalue-minimisations  :  3974
 total energy-change (2. order) :-0.6980956E+01  (-0.3943007E+02)
 number of electron     127.9999754 magnetization 
 augmentation part       17.3408013 magnetization 

 Broyden mixing:
  rms(total) = 0.52322E+01    rms(broyden)= 0.52313E+01
  rms(prec ) = 0.81417E+01
  weight for this iteration     100.00

 eigenvalues of (default mixing * dielectric matrix)
  average eigenvalue GAMMA=   0.4087
  0.4087

 Free energy of the ion-electron system (eV)
  ---------------------------------------------------
  alpha Z        PSCENC =       378.09908315
  Ewald energy   TEWEN  =     22731.27163923
  -Hartree energ DENC   =    -31255.61248716
  -exchange      EXHF   =         0.00000000
  -V(xc)+E(xc)   XCENC  =       345.65284417
  PAW double counting   =      5951.98062476    -5769.70420231
  entropy T*S    EENTRO =         0.00000000
  eigenvalues    EBANDS =     -1524.66624099
  atomic energy  EATOM  =      8937.26825017
  Solvation  Ediel_sol  =         0.00000000
  ---------------------------------------------------
  free energy    TOTEN  =      -205.71048897 eV

  energy without entropy =     -205.71048897  energy(sigma->0) =     -205.71048897


--------------------------------------------------------------------------------------------------------




--------------------------------------- Iteration      1(   7)  ---------------------------------------


    POTLOK:  cpu time    0.1140: real time    0.1167
    SETDIJ:  cpu time    0.0130: real time    0.0120
    EDDIAG:  cpu time    1.4338: real time    1.4351
  RMM-DIIS:  cpu time   10.4064: real time   10.4032
    ORTHCH:  cpu time    0.2890: real time    0.2896
 BZINTS: Fermi energy: -1.045360;128.000000 electrons
         Band energy:***********;  BLOECHL correction: -0.143084
       DOS:  cpu time    0.0190: real time    0.0183
    CHARGE:  cpu time    0.4459: real time    0.4462
    MIXING:  cpu time    0.0030: real time    0.0035
    --------------------------------------------
      LOOP:  cpu time   12.7241: real time   12.7245

 eigenvalue-minimisations  :  3549
 total energy-change (2. order) : 0.3332716E+02  (-0.9738144E+01)
 number of electron     127.9999679 magnetization 
 augmentation part       14.3884633 magnetization 

 Broyden mixing:
  rms(total) = 0.21620E+01    rms(broyden)= 0.21607E+01
  rms(prec ) = 0.33656E+01
  weight for this iteration     100.00

 eigenvalues of (default mixing * dielectric matrix)
  average eigenvalue GAMMA=   0.4337
  0.6349  0.2324

 Free energy of the ion-electron system (eV)
  ---------------------------------------------------
  alpha Z        PSCENC =       378.09908315
  Ewald energy   TEWEN  =     22731.27163923
  -Hartree energ DENC   =    -31268.64687413
  -exchange      EXHF   =         0.00000000
  -V(xc)+E(xc)   XCENC  =       340.69327163
  PAW double counting   =      5911.89694045    -5732.57376038
  entropy T*S    EENTRO =         0.00000000
  eigenvalues    EBANDS =     -1470.39187489
  atomic energy  EATOM  =      8937.26825017
  Solvation  Ediel_sol  =         0.00000000
  ---------------------------------------------------
  free energy    TOTEN  =      -172.38332476 eV

  energy without entropy =     -172.38332476  energy(sigma->0) =     -172.38332476


--------------------------------------------------------------------------------------------------------




--------------------------------------- Iteration      1(   8)  ---------------------------------------


    POTLOK:  cpu time    0.1150: real time    0.1191
    SETDIJ:  cpu time    0.0130: real time    0.0119
    EDDIAG:  cpu time    1.4358: real time    1.4366
  RMM-DIIS:  cpu time   10.2044: real time   10.2025
    ORTHCH:  cpu time    0.2910: real time    0.2907
 BZINTS: Fermi energy: -1.895642;128.000000 electrons
         Band energy:***********;  BLOECHL correction:  0.000000
       DOS:  cpu time    0.0030: real time    0.0028
    CHARGE:  cpu time    0.4319: real time    0.4325
    MIXING:  cpu time    0.0040: real time    0.0035
    --------------------------------------------
      LOOP:  cpu time   12.4981: real time   12.4996

 eigenvalue-minimisations  :  3471
 total energy-change (2. order) : 0.1181903E+02  (-0.2318982E+01)
 number of electron     127.9999650 magnetization 
 augmentation part       12.9784914 magnetization 

 Broyden mixing:
  rms(total) = 0.15301E+01    rms(broyden)= 0.15298E+01
  rms(prec ) = 0.20195E+01
  weight for this iteration     100.00

 eigenvalues of (default mixing * dielectric matrix)
  average eigenvalue GAMMA=   0.4435
  0.7494  0.2906  0.2906

 Free energy of the ion-electron system (eV)
  ---------------------------------------------------
  alpha Z        PSCENC =       378.09908315
  Ewald energy   TEWEN  =     22731.27163923
  -Hartree energ DENC   =    -31261.20806526
  -exchange      EXHF   =         0.00000000
  -V(xc)+E(xc)   XCENC  =       338.33581267
  PAW double counting   =      5935.77486678    -5759.71413490
  entropy T*S    EENTRO =         0.00000000
  eigenvalues    EBANDS =     -1460.39174907
  atomic energy  EATOM  =      8937.26825017
  Solvation  Ediel_sol  =         0.00000000
  ---------------------------------------------------
  free energy    TOTEN  =      -160.56429723 eV

  energy without entropy =     -160.56429723  energy(sigma->0) =     -160.56429723


--------------------------------------------------------------------------------------------------------




--------------------------------------- Iteration      1(   9)  ---------------------------------------


    POTLOK:  cpu time    0.1150: real time    0.1174
    SETDIJ:  cpu time    0.0120: real time    0.0119
    EDDIAG:  cpu time    1.3888: real time    1.3891
  RMM-DIIS:  cpu time   11.4673: real time   11.4645
    ORTHCH:  cpu time    0.2910: real time    0.2912
 BZINTS: Fermi energy: -1.696553;128.000000 electrons
         Band energy:***********;  BLOECHL correction:  0.000000
       DOS:  cpu time    0.0030: real time    0.0028
    CHARGE:  cpu time    0.4319: real time    0.4326
    MIXING:  cpu time    0.0040: real time    0.0040
    --------------------------------------------
      LOOP:  cpu time   13.7129: real time   13.7135

 eigenvalue-minimisations  :  3936
 total energy-change (2. order) : 0.4387066E+01  (-0.2037133E+00)
 number of electron     127.9999652 magnetization 
 augmentation part       13.0906211 magnetization 

 Broyden mixing:
  rms(total) = 0.12639E+01    rms(broyden)= 0.12639E+01
  rms(prec ) = 0.17701E+01
  weight for this iteration     100.00

 eigenvalues of (default mixing * dielectric matrix)
  average eigenvalue GAMMA=   0.9175
  1.9014  1.0122  0.2577  0.4986

 Free energy of the ion-electron system (eV)
  ---------------------------------------------------
  alpha Z        PSCENC =       378.09908315
  Ewald energy   TEWEN  =     22731.27163923
  -Hartree energ DENC   =    -31285.72128343
  -exchange      EXHF   =         0.00000000
  -V(xc)+E(xc)   XCENC  =       339.34051777
  PAW double counting   =      5993.47818300    -5818.87226617
  entropy T*S    EENTRO =         0.00000000
  eigenvalues    EBANDS =     -1431.04135453
  atomic energy  EATOM  =      8937.26825017
  Solvation  Ediel_sol  =         0.00000000
  ---------------------------------------------------
  free energy    TOTEN  =      -156.17723080 eV

  energy without entropy =     -156.17723080  energy(sigma->0) =     -156.17723080


--------------------------------------------------------------------------------------------------------




--------------------------------------- Iteration      1(  10)  ---------------------------------------


    POTLOK:  cpu time    0.1170: real time    0.1197
    SETDIJ:  cpu time    0.0120: real time    0.0119
    EDDIAG:  cpu time    1.4418: real time    1.4418
  RMM-DIIS:  cpu time   10.7334: real time   10.7316
    ORTHCH:  cpu time    0.2890: real time    0.2887
 BZINTS: Fermi energy: -0.651358;128.000000 electrons
         Band energy:***********;  BLOECHL correction: -0.046793
       DOS:  cpu time    0.0180: real time    0.0176
    CHARGE:  cpu time    0.4369: real time    0.4371
    MIXING:  cpu time    0.0030: real time    0.0036
    --------------------------------------------
      LOOP:  cpu time   13.0510: real time   13.0519

 eigenvalue-minimisations  :  3605
 total energy-change (2. order) :-0.1441672E+01  (-0.3947035E+01)
 number of electron     127.9999723 magnetization 
 augmentation part       15.2691891 magnetization 

 Broyden mixing:
  rms(total) = 0.30461E+01    rms(broyden)= 0.30455E+01
  rms(prec ) = 0.42563E+01
  weight for this iteration     100.00

 eigenvalues of (default mixing * dielectric matrix)
  average eigenvalue GAMMA=   0.7354
  1.8885  1.0172  0.5014  0.2574  0.0127

 Free energy of the ion-electron system (eV)
  ---------------------------------------------------
  alpha Z        PSCENC =       378.09908315
  Ewald energy   TEWEN  =     22731.27163923
  -Hartree energ DENC   =    -31351.74035367
  -exchange      EXHF   =         0.00000000
  -V(xc)+E(xc)   XCENC  =       342.57093562
  PAW double counting   =      6164.93566243    -5994.17684922
  entropy T*S    EENTRO =         0.00000000
  eigenvalues    EBANDS =     -1365.84727060
  atomic energy  EATOM  =      8937.26825017
  Solvation  Ediel_sol  =         0.00000000
  ---------------------------------------------------
  free energy    TOTEN  =      -157.61890289 eV

  energy without entropy =     -157.61890289  energy(sigma->0) =     -157.61890289


--------------------------------------------------------------------------------------------------------




--------------------------------------- Iteration      1(  11)  ---------------------------------------


    POTLOK:  cpu time    0.1110: real time    0.1120
    SETDIJ:  cpu time    0.0120: real time    0.0119
    EDDIAG:  cpu time    1.4458: real time    1.4464
  RMM-DIIS:  cpu time   13.7859: real time   13.7830
    ORTHCH:  cpu time    0.2950: real time    0.2942
 BZINTS: Fermi energy: -0.594620;128.000000 electrons
         Band energy:***********;  BLOECHL correction: -0.031482
       DOS:  cpu time    0.0180: real time    0.0184
    CHARGE:  cpu time    0.4279: real time    0.4284
    MIXING:  cpu time    0.0050: real time    0.0039
    --------------------------------------------
      LOOP:  cpu time   16.1006: real time   16.0981

 eigenvalue-minimisations  :  4656
 total energy-change (2. order) : 0.1306228E+01  (-0.3295656E+00)
 number of electron     127.9999724 magnetization 
 augmentation part       15.2842857 magnetization 

 Broyden mixing:
  rms(total) = 0.29874E+01    rms(broyden)= 0.29873E+01
  rms(prec ) = 0.41252E+01
  weight for this iteration     100.00

 eigenvalues of (default mixing * dielectric matrix)
  average eigenvalue GAMMA=   0.6639
  2.0225  0.9706  0.5050  0.2583  0.1338  0.0934

 Free energy of the ion-electron system (eV)
  ---------------------------------------------------
  alpha Z        PSCENC =       378.09908315
  Ewald energy   TEWEN  =     22731.27163923
  -Hartree energ DENC   =    -31349.69293212
  -exchange      EXHF   =         0.00000000
  -V(xc)+E(xc)   XCENC  =       342.51024237
  PAW double counting   =      6164.04101466    -5993.32067503
  entropy T*S    EENTRO =         0.00000000
  eigenvalues    EBANDS =     -1366.48929765
  atomic energy  EATOM  =      8937.26825017
  Solvation  Ediel_sol  =         0.00000000
  ---------------------------------------------------
  free energy    TOTEN  =      -156.31267521 eV

  energy without entropy =     -156.31267521  energy(sigma->0) =     -156.31267521


--------------------------------------------------------------------------------------------------------




--------------------------------------- Iteration      1(  12)  ---------------------------------------


    POTLOK:  cpu time    0.1090: real time    0.1127
    SETDIJ:  cpu time    0.0120: real time    0.0116
    EDDIAG:  cpu time    1.4038: real time    1.4045
  RMM-DIIS:  cpu time   13.2150: real time   13.2119
    ORTHCH:  cpu time    0.2940: real time    0.2938
 BZINTS: Fermi energy: -0.652926;128.000000 electrons
         Band energy:***********;  BLOECHL correction: -0.027935
       DOS:  cpu time    0.0180: real time    0.0182
    CHARGE:  cpu time    0.4449: real time    0.4449
    MIXING:  cpu time    0.0050: real time    0.0044
    --------------------------------------------
      LOOP:  cpu time   15.5016: real time   15.5021

 eigenvalue-minimisations  :  4525
 total energy-change (2. order) :-0.2707998E+01  (-0.1613900E+00)
 number of electron     127.9999729 magnetization 
 augmentation part       15.7138260 magnetization 

 Broyden mixing:
  rms(total) = 0.34123E+01    rms(broyden)= 0.34123E+01
  rms(prec ) = 0.47328E+01
  weight for this iteration     100.00

 eigenvalues of (default mixing * dielectric matrix)
  average eigenvalue GAMMA=   0.5703
  2.0239  0.9701  0.5051  0.2583  0.1240  0.0979  0.0129

 Free energy of the ion-electron system (eV)
  ---------------------------------------------------
  alpha Z        PSCENC =       378.09908315
  Ewald energy   TEWEN  =     22731.27163923
  -Hartree energ DENC   =    -31362.55333158
  -exchange      EXHF   =         0.00000000
  -V(xc)+E(xc)   XCENC  =       342.95091082
  PAW double counting   =      6178.50103060    -6008.05132687
  entropy T*S    EENTRO =         0.00000000
  eigenvalues    EBANDS =     -1356.50692866
  atomic energy  EATOM  =      8937.26825017
  Solvation  Ediel_sol  =         0.00000000
  ---------------------------------------------------
  free energy    TOTEN  =      -159.02067313 eV

  energy without entropy =     -159.02067313  energy(sigma->0) =     -159.02067313


--------------------------------------------------------------------------------------------------------




--------------------------------------- Iteration      1(  13)  ---------------------------------------


    POTLOK:  cpu time    0.1170: real time    0.1211
    SETDIJ:  cpu time    0.0110: real time    0.0119
    EDDIAG:  cpu time    1.4008: real time    1.3995
  RMM-DIIS:  cpu time   15.3777: real time   15.3746
    ORTHCH:  cpu time    0.2910: real time    0.2917
 BZINTS: Fermi energy: -0.661597;128.000000 electrons
         Band energy:***********;  BLOECHL correction: -0.025512
       DOS:  cpu time    0.0180: real time    0.0177
    CHARGE:  cpu time    0.4409: real time    0.4405
    MIXING:  cpu time    0.0050: real time    0.0045
    --------------------------------------------
      LOOP:  cpu time   17.6613: real time   17.6615

 eigenvalue-minimisations  :  5172
 total energy-change (2. order) :-0.2284905E+00  (-0.3486949E-01)
 number of electron     127.9999730 magnetization 
 augmentation part       15.7818345 magnetization 

 Broyden mixing:
  rms(total) = 0.34842E+01    rms(broyden)= 0.34842E+01
  rms(prec ) = 0.48622E+01
  weight for this iteration     100.00

 eigenvalues of (default mixing * dielectric matrix)
  average eigenvalue GAMMA=   0.5620
  2.0107  0.9780  0.5077  0.2584  0.2360  0.2360  0.1345  0.1345

 Free energy of the ion-electron system (eV)
  ---------------------------------------------------
  alpha Z        PSCENC =       378.09908315
  Ewald energy   TEWEN  =     22731.27163923
  -Hartree energ DENC   =    -31361.55020300
  -exchange      EXHF   =         0.00000000
  -V(xc)+E(xc)   XCENC  =       342.92439497
  PAW double counting   =      6178.61812421    -6008.16624582
  entropy T*S    EENTRO =         0.00000000
  eigenvalues    EBANDS =     -1357.71420656
  atomic energy  EATOM  =      8937.26825017
  Solvation  Ediel_sol  =         0.00000000
  ---------------------------------------------------
  free energy    TOTEN  =      -159.24916364 eV

  energy without entropy =     -159.24916364  energy(sigma->0) =     -159.24916364


--------------------------------------------------------------------------------------------------------




--------------------------------------- Iteration      1(  14)  ---------------------------------------


    POTLOK:  cpu time    0.1170: real time    0.1209
    SETDIJ:  cpu time    0.0120: real time    0.0120
    EDDIAG:  cpu time    1.3798: real time    1.3807
  RMM-DIIS:  cpu time   14.7708: real time   14.7677
    ORTHCH:  cpu time    0.2850: real time    0.2850
 BZINTS: Fermi energy: -0.663578;128.000000 electrons
         Band energy:***********;  BLOECHL correction: -0.027387
       DOS:  cpu time    0.0180: real time    0.0175
    CHARGE:  cpu time    0.4279: real time    0.4281
    MIXING:  cpu time    0.0050: real time    0.0046
    --------------------------------------------
      LOOP:  cpu time   17.0154: real time   17.0165

 eigenvalue-minimisations  :  5068
 total energy-change (2. order) : 0.4633981E+00  (-0.8838724E-02)
 number of electron     127.9999729 magnetization 
 augmentation part       15.7572508 magnetization 

 Broyden mixing:
  rms(total) = 0.34438E+01    rms(broyden)= 0.34438E+01
  rms(prec ) = 0.47862E+01
  weight for this iteration     100.00

 eigenvalues of (default mixing * dielectric matrix)
  average eigenvalue GAMMA=   0.5954
  2.0077  0.9672  0.5199  0.5199  0.5079  0.2575  0.2006  0.2006  0.1774

 Free energy of the ion-electron system (eV)
  ---------------------------------------------------
  alpha Z        PSCENC =       378.09908315
  Ewald energy   TEWEN  =     22731.27163923
  -Hartree energ DENC   =    -31357.66689114
  -exchange      EXHF   =         0.00000000
  -V(xc)+E(xc)   XCENC  =       342.84646365
  PAW double counting   =      6176.11116636    -6005.59209204
  entropy T*S    EENTRO =         0.00000000
  eigenvalues    EBANDS =     -1361.12338489
  atomic energy  EATOM  =      8937.26825017
  Solvation  Ediel_sol  =         0.00000000
  ---------------------------------------------------
  free energy    TOTEN  =      -158.78576550 eV

  energy without entropy =     -158.78576550  energy(sigma->0) =     -158.78576550


--------------------------------------------------------------------------------------------------------




--------------------------------------- Iteration      1(  15)  ---------------------------------------


    POTLOK:  cpu time    0.1110: real time    0.1123
    SETDIJ:  cpu time    0.0120: real time    0.0117
    EDDIAG:  cpu time    1.4148: real time    1.4156
  RMM-DIIS:  cpu time   11.3483: real time   11.3453
    ORTHCH:  cpu time    0.2920: real time    0.2915
 BZINTS: Fermi energy: -0.641558;128.000000 electrons
         Band energy:***********;  BLOECHL correction: -0.026445
       DOS:  cpu time    0.0180: real time    0.0178
    CHARGE:  cpu time    0.4429: real time    0.4431
    MIXING:  cpu time    0.0050: real time    0.0051
    --------------------------------------------
      LOOP:  cpu time   13.6439: real time   13.6424

 eigenvalue-minimisations  :  3856
 total energy-change (2. order) : 0.1151997E+01  (-0.2734865E-01)
 number of electron     127.9999727 magnetization 
 augmentation part       15.6330666 magnetization 

 Broyden mixing:
  rms(total) = 0.33387E+01    rms(broyden)= 0.33387E+01
  rms(prec ) = 0.46974E+01
  weight for this iteration     100.00

 eigenvalues of (default mixing * dielectric matrix)
  average eigenvalue GAMMA=   0.6544
  1.9576  0.8852  0.8852  0.9920  0.5125  0.3184  0.3184  0.2592  0.2079  0.2079

 Free energy of the ion-electron system (eV)
  ---------------------------------------------------
  alpha Z        PSCENC =       378.09908315
  Ewald energy   TEWEN  =     22731.27163923
  -Hartree energ DENC   =    -31346.78516595
  -exchange      EXHF   =         0.00000000
  -V(xc)+E(xc)   XCENC  =       342.55642889
  PAW double counting   =      6171.87685152    -6001.21827632
  entropy T*S    EENTRO =         0.00000000
  eigenvalues    EBANDS =     -1370.70257884
  atomic energy  EATOM  =      8937.26825017
  Solvation  Ediel_sol  =         0.00000000
  ---------------------------------------------------
  free energy    TOTEN  =      -157.63376814 eV

  energy without entropy =     -157.63376814  energy(sigma->0) =     -157.63376814


--------------------------------------------------------------------------------------------------------




--------------------------------------- Iteration      1(  16)  ---------------------------------------


    POTLOK:  cpu time    0.1160: real time    0.1215
    SETDIJ:  cpu time    0.0130: real time    0.0120
    EDDIAG:  cpu time    1.4328: real time    1.4338
  RMM-DIIS:  cpu time   10.2084: real time   10.2051
    ORTHCH:  cpu time    0.2800: real time    0.2806
 BZINTS: Fermi energy: -0.618602;128.000000 electrons
         Band energy:***********;  BLOECHL correction: -0.014163
       DOS:  cpu time    0.0180: real time    0.0178
    CHARGE:  cpu time    0.4279: real time    0.4279
    MIXING:  cpu time    0.0050: real time    0.0052
    --------------------------------------------
      LOOP:  cpu time   12.5011: real time   12.5039

 eigenvalue-minimisations  :  3515
 total energy-change (2. order) : 0.7247632E+01  (-0.8566881E+00)
 number of electron     127.9999700 magnetization 
 augmentation part       13.8192628 magnetization 

 Broyden mixing:
  rms(total) = 0.11615E+01    rms(broyden)= 0.11605E+01
  rms(prec ) = 0.13850E+01
  weight for this iteration     100.00

 eigenvalues of (default mixing * dielectric matrix)
  average eigenvalue GAMMA=   0.6261
  1.9241  0.9600  0.9600  1.0164  0.5093  0.3434  0.3434  0.2584  0.2077  0.2077
  0.1563

 Free energy of the ion-electron system (eV)
  ---------------------------------------------------
  alpha Z        PSCENC =       378.09908315
  Ewald energy   TEWEN  =     22731.27163923
  -Hartree energ DENC   =    -31274.45669317
  -exchange      EXHF   =         0.00000000
  -V(xc)+E(xc)   XCENC  =       340.73578980
  PAW double counting   =      6137.23708812    -5965.49813191
  entropy T*S    EENTRO =         0.00000000
  eigenvalues    EBANDS =     -1435.04316181
  atomic energy  EATOM  =      8937.26825017
  Solvation  Ediel_sol  =         0.00000000
  ---------------------------------------------------
  free energy    TOTEN  =      -150.38613642 eV

  energy without entropy =     -150.38613642  energy(sigma->0) =     -150.38613642


--------------------------------------------------------------------------------------------------------




--------------------------------------- Iteration      1(  17)  ---------------------------------------


    POTLOK:  cpu time    0.1140: real time    0.1155
    SETDIJ:  cpu time    0.0120: real time    0.0118
    EDDIAG:  cpu time    1.4308: real time    1.4307
  RMM-DIIS:  cpu time   11.7372: real time   11.7358
    ORTHCH:  cpu time    0.2930: real time    0.2925
 BZINTS: Fermi energy: -0.720328;128.000000 electrons
         Band energy:***********;  BLOECHL correction: -0.009010
       DOS:  cpu time    0.0180: real time    0.0179
    CHARGE:  cpu time    0.4379: real time    0.4373
    MIXING:  cpu time    0.0060: real time    0.0054
    --------------------------------------------
      LOOP:  cpu time   14.0489: real time   14.0469

 eigenvalue-minimisations  :  3998
 total energy-change (2. order) : 0.3551421E+00  (-0.3019589E+00)
 number of electron     127.9999690 magnetization 
 augmentation part       13.5489930 magnetization 

 Broyden mixing:
  rms(total) = 0.89790E+00    rms(broyden)= 0.89760E+00
  rms(prec ) = 0.10104E+01
  weight for this iteration     100.00

 eigenvalues of (default mixing * dielectric matrix)
  average eigenvalue GAMMA=   0.6062
  1.9356  0.9503  0.9503  1.0067  0.5152  0.3207  0.3207  0.2918  0.2918  0.2598
  0.2156  0.2156

 Free energy of the ion-electron system (eV)
  ---------------------------------------------------
  alpha Z        PSCENC =       378.09908315
  Ewald energy   TEWEN  =     22731.27163923
  -Hartree energ DENC   =    -31253.90801309
  -exchange      EXHF   =         0.00000000
  -V(xc)+E(xc)   XCENC  =       340.17900638
  PAW double counting   =      6126.62274728    -5954.57266386
  entropy T*S    EENTRO =         0.00000000
  eigenvalues    EBANDS =     -1454.99104364
  atomic energy  EATOM  =      8937.26825017
  Solvation  Ediel_sol  =         0.00000000
  ---------------------------------------------------
  free energy    TOTEN  =      -150.03099437 eV

  energy without entropy =     -150.03099437  energy(sigma->0) =     -150.03099437


--------------------------------------------------------------------------------------------------------




--------------------------------------- Iteration      1(  18)  ---------------------------------------


    POTLOK:  cpu time    0.1160: real time    0.1224
    SETDIJ:  cpu time    0.0120: real time    0.0119
    EDDIAG:  cpu time    1.3908: real time    1.3911
  RMM-DIIS:  cpu time   13.2660: real time   13.2630
    ORTHCH:  cpu time    0.2930: real time    0.2925
 BZINTS: Fermi energy: -0.676448;128.000000 electrons
         Band energy:***********;  BLOECHL correction: -0.011192
       DOS:  cpu time    0.0180: real time    0.0185
    CHARGE:  cpu time    0.4389: real time    0.4388
    MIXING:  cpu time    0.0060: real time    0.0056
    --------------------------------------------
      LOOP:  cpu time   15.5406: real time   15.5438

 eigenvalue-minimisations  :  4538
 total energy-change (2. order) : 0.4749590E-01  (-0.1918056E-01)
 number of electron     127.9999693 magnetization 
 augmentation part       13.6032532 magnetization 

 Broyden mixing:
  rms(total) = 0.91244E+00    rms(broyden)= 0.91243E+00
  rms(prec ) = 0.10737E+01
  weight for this iteration     100.00

 eigenvalues of (default mixing * dielectric matrix)
  average eigenvalue GAMMA=   0.6682
  1.9201  1.0371  1.0371  0.9386  0.7512  0.7512  0.5334  0.3542  0.3542  0.2945
  0.2655  0.2248  0.2248

 Free energy of the ion-electron system (eV)
  ---------------------------------------------------
  alpha Z        PSCENC =       378.09908315
  Ewald energy   TEWEN  =     22731.27163923
  -Hartree energ DENC   =    -31260.61661103
  -exchange      EXHF   =         0.00000000
  -V(xc)+E(xc)   XCENC  =       340.35205104
  PAW double counting   =      6131.92171277    -5960.05196764
  entropy T*S    EENTRO =         0.00000000
  eigenvalues    EBANDS =     -1448.22765617
  atomic energy  EATOM  =      8937.26825017
  Solvation  Ediel_sol  =         0.00000000
  ---------------------------------------------------
  free energy    TOTEN  =      -149.98349847 eV

  energy without entropy =     -149.98349847  energy(sigma->0) =     -149.98349847


--------------------------------------------------------------------------------------------------------




--------------------------------------- Iteration      1(  19)  ---------------------------------------


    POTLOK:  cpu time    0.1160: real time    0.1199
    SETDIJ:  cpu time    0.0120: real time    0.0120
    EDDIAG:  cpu time    1.3888: real time    1.3882
  RMM-DIIS:  cpu time   10.7274: real time   10.7256
    ORTHCH:  cpu time    0.2940: real time    0.2942
 BZINTS: Fermi energy: -0.665661;128.000000 electrons
         Band energy:***********;  BLOECHL correction: -0.018142
       DOS:  cpu time    0.0160: real time    0.0153
    CHARGE:  cpu time    0.4419: real time    0.4424
    MIXING:  cpu time    0.0060: real time    0.0060
    --------------------------------------------
      LOOP:  cpu time   13.0020: real time   13.0035

 eigenvalue-minimisations  :  3662
 total energy-change (2. order) : 0.2142552E+00  (-0.3456882E-01)
 number of electron     127.9999680 magnetization 
 augmentation part       13.4831153 magnetization 

 Broyden mixing:
  rms(total) = 0.62810E+00    rms(broyden)= 0.62803E+00
  rms(prec ) = 0.78423E+00
  weight for this iteration     100.00

 eigenvalues of (default mixing * dielectric matrix)
  average eigenvalue GAMMA=   0.7011
  2.0643  1.0633  1.0633  1.0398  1.0398  0.7979  0.3752  0.3752  0.4793  0.4024
  0.4024  0.2625  0.2254  0.2254

 Free energy of the ion-electron system (eV)
  ---------------------------------------------------
  alpha Z        PSCENC =       378.09908315
  Ewald energy   TEWEN  =     22731.27163923
  -Hartree energ DENC   =    -31249.18775168
  -exchange      EXHF   =         0.00000000
  -V(xc)+E(xc)   XCENC  =       340.29502937
  PAW double counting   =      6140.74094204    -5968.98006248
  entropy T*S    EENTRO =         0.00000000
  eigenvalues    EBANDS =     -1459.27637310
  atomic energy  EATOM  =      8937.26825017
  Solvation  Ediel_sol  =         0.00000000
  ---------------------------------------------------
  free energy    TOTEN  =      -149.76924330 eV

  energy without entropy =     -149.76924330  energy(sigma->0) =     -149.76924330


--------------------------------------------------------------------------------------------------------




--------------------------------------- Iteration      1(  20)  ---------------------------------------


    POTLOK:  cpu time    0.1190: real time    0.1217
    SETDIJ:  cpu time    0.0120: real time    0.0121
    EDDIAG:  cpu time    1.4488: real time    1.4491
  RMM-DIIS:  cpu time   10.6114: real time   10.6088
    ORTHCH:  cpu time    0.2870: real time    0.2869
 BZINTS: Fermi energy: -0.681391;128.000000 electrons
         Band energy:***********;  BLOECHL correction: -0.015039
       DOS:  cpu time    0.0170: real time    0.0176
    CHARGE:  cpu time    0.4289: real time    0.4293
    MIXING:  cpu time    0.0070: real time    0.0062
    --------------------------------------------
      LOOP:  cpu time   12.9310: real time   12.9316

 eigenvalue-minimisations  :  3586
 total energy-change (2. order) : 0.2224915E+00  (-0.1670145E+00)
 number of electron     127.9999677 magnetization 
 augmentation part       13.3879430 magnetization 

 Broyden mixing:
  rms(total) = 0.54767E+00    rms(broyden)= 0.54761E+00
  rms(prec ) = 0.70932E+00
  weight for this iteration     100.00

 eigenvalues of (default mixing * dielectric matrix)
  average eigenvalue GAMMA=   0.7053
  2.2544  1.0370  1.0370  1.0918  1.0918  0.8060  0.5071  0.5071  0.4791  0.3629
  0.3629  0.3293  0.2631  0.2250  0.2250

 Free energy of the ion-electron system (eV)
  ---------------------------------------------------
  alpha Z        PSCENC =       378.09908315
  Ewald energy   TEWEN  =     22731.27163923
  -Hartree energ DENC   =    -31240.42078355
  -exchange      EXHF   =         0.00000000
  -V(xc)+E(xc)   XCENC  =       339.96437264
  PAW double counting   =      6152.17745116    -5980.80634419
  entropy T*S    EENTRO =         0.00000000
  eigenvalues    EBANDS =     -1467.10042044
  atomic energy  EATOM  =      8937.26825017
  Solvation  Ediel_sol  =         0.00000000
  ---------------------------------------------------
  free energy    TOTEN  =      -149.54675182 eV

  energy without entropy =     -149.54675182  energy(sigma->0) =     -149.54675182


--------------------------------------------------------------------------------------------------------




--------------------------------------- Iteration      1(  21)  ---------------------------------------


    POTLOK:  cpu time    0.1120: real time    0.1133
    SETDIJ:  cpu time    0.0130: real time    0.0120
    EDDIAG:  cpu time    1.4178: real time    1.4181
  RMM-DIIS:  cpu time   11.7302: real time   11.7284
    ORTHCH:  cpu time    0.2920: real time    0.2912
 BZINTS: Fermi energy: -0.709624;128.000000 electrons
         Band energy:***********;  BLOECHL correction: -0.014174
       DOS:  cpu time    0.0170: real time    0.0176
    CHARGE:  cpu time    0.4369: real time    0.4370
    MIXING:  cpu time    0.0070: real time    0.0064
    --------------------------------------------
      LOOP:  cpu time   14.0259: real time   14.0241

 eigenvalue-minimisations  :  3968
 total energy-change (2. order) :-0.3367883E+00  (-0.1536481E+00)
 number of electron     127.9999672 magnetization 
 augmentation part       13.3467289 magnetization 

 Broyden mixing:
  rms(total) = 0.66610E+00    rms(broyden)= 0.66607E+00
  rms(prec ) = 0.86643E+00
  weight for this iteration     100.00

 eigenvalues of (default mixing * dielectric matrix)
  average eigenvalue GAMMA=   0.7209
  2.1543  1.0673  1.0673  1.1348  1.1348  0.9020  0.5977  0.5977  0.5425  0.5425
  0.3670  0.3670  0.3460  0.2629  0.2251  0.2251

 Free energy of the ion-electron system (eV)
  ---------------------------------------------------
  alpha Z        PSCENC =       378.09908315
  Ewald energy   TEWEN  =     22731.27163923
  -Hartree energ DENC   =    -31235.72888126
  -exchange      EXHF   =         0.00000000
  -V(xc)+E(xc)   XCENC  =       339.54172392
  PAW double counting   =      6153.91287844    -5982.78640435
  entropy T*S    EENTRO =         0.00000000
  eigenvalues    EBANDS =     -1471.46182939
  atomic energy  EATOM  =      8937.26825017
  Solvation  Ediel_sol  =         0.00000000
  ---------------------------------------------------
  free energy    TOTEN  =      -149.88354008 eV

  energy without entropy =     -149.88354008  energy(sigma->0) =     -149.88354008


--------------------------------------------------------------------------------------------------------




--------------------------------------- Iteration      1(  22)  ---------------------------------------


    POTLOK:  cpu time    0.1160: real time    0.1202
    SETDIJ:  cpu time    0.0120: real time    0.0117
    EDDIAG:  cpu time    1.3578: real time    1.3583
  RMM-DIIS:  cpu time   11.4813: real time   11.4779
    ORTHCH:  cpu time    0.2910: real time    0.2913
 BZINTS: Fermi energy: -0.718522;128.000000 electrons
         Band energy:***********;  BLOECHL correction: -0.014206
       DOS:  cpu time    0.0180: real time    0.0176
    CHARGE:  cpu time    0.4379: real time    0.4383
    MIXING:  cpu time    0.0070: real time    0.0069
    --------------------------------------------
      LOOP:  cpu time   13.7209: real time   13.7221

 eigenvalue-minimisations  :  3909
 total energy-change (2. order) : 0.1588778E+00  (-0.1967283E-01)
 number of electron     127.9999671 magnetization 
 augmentation part       13.2498878 magnetization 

 Broyden mixing:
  rms(total) = 0.66094E+00    rms(broyden)= 0.66094E+00
  rms(prec ) = 0.85491E+00
  weight for this iteration     100.00

 eigenvalues of (default mixing * dielectric matrix)
  average eigenvalue GAMMA=   0.7393
  2.1955  1.0867  1.0867  1.2801  1.2801  0.7188  0.6858  0.6858  0.6049  0.6049
  0.5554  0.3663  0.3663  0.3387  0.2629  0.2251  0.2251

 Free energy of the ion-electron system (eV)
  ---------------------------------------------------
  alpha Z        PSCENC =       378.09908315
  Ewald energy   TEWEN  =     22731.27163923
  -Hartree energ DENC   =    -31250.60072514
  -exchange      EXHF   =         0.00000000
  -V(xc)+E(xc)   XCENC  =       339.53761120
  PAW double counting   =      6154.35616275    -5983.55697113
  entropy T*S    EENTRO =         0.00000000
  eigenvalues    EBANDS =     -1456.09971255
  atomic energy  EATOM  =      8937.26825017
  Solvation  Ediel_sol  =         0.00000000
  ---------------------------------------------------
  free energy    TOTEN  =      -149.72466232 eV

  energy without entropy =     -149.72466232  energy(sigma->0) =     -149.72466232


--------------------------------------------------------------------------------------------------------




--------------------------------------- Iteration      1(  23)  ---------------------------------------


    POTLOK:  cpu time    0.1200: real time    0.1230
    SETDIJ:  cpu time    0.0130: real time    0.0120
    EDDIAG:  cpu time    1.3798: real time    1.3815
  RMM-DIIS:  cpu time   10.3644: real time   10.3612
    ORTHCH:  cpu time    0.2910: real time    0.2907
 BZINTS: Fermi energy: -0.741357;128.000000 electrons
         Band energy:***********;  BLOECHL correction: -0.017894
       DOS:  cpu time    0.0160: real time    0.0171
    CHARGE:  cpu time    0.4379: real time    0.4364
    MIXING:  cpu time    0.0070: real time    0.0070
    --------------------------------------------
      LOOP:  cpu time   12.6291: real time   12.6290

 eigenvalue-minimisations  :  3567
 total energy-change (2. order) : 0.4431929E+00  (-0.2348405E-01)
 number of electron     127.9999674 magnetization 
 augmentation part       13.2515297 magnetization 

 Broyden mixing:
  rms(total) = 0.52726E+00    rms(broyden)= 0.52725E+00
  rms(prec ) = 0.68639E+00
  weight for this iteration     100.00

 eigenvalues of (default mixing * dielectric matrix)
  average eigenvalue GAMMA=   0.7715
  2.3792  1.0786  1.0786  1.1423  1.1423  1.0542  0.9793  0.9793  0.5651  0.5651
  0.5677  0.5677  0.3667  0.3667  0.3413  0.2629  0.2251  0.2251

 Free energy of the ion-electron system (eV)
  ---------------------------------------------------
  alpha Z        PSCENC =       378.09908315
  Ewald energy   TEWEN  =     22731.27163923
  -Hartree energ DENC   =    -31270.85748104
  -exchange      EXHF   =         0.00000000
  -V(xc)+E(xc)   XCENC  =       339.90395816
  PAW double counting   =      6162.60112585    -5992.17093356
  entropy T*S    EENTRO =         0.00000000
  eigenvalues    EBANDS =     -1435.39711138
  atomic energy  EATOM  =      8937.26825017
  Solvation  Ediel_sol  =         0.00000000
  ---------------------------------------------------
  free energy    TOTEN  =      -149.28146941 eV

  energy without entropy =     -149.28146941  energy(sigma->0) =     -149.28146941


--------------------------------------------------------------------------------------------------------




--------------------------------------- Iteration      1(  24)  ---------------------------------------


    POTLOK:  cpu time    0.1190: real time    0.1235
[...]
     43      -4.9323      2.00000
     44      -4.7788      2.00000
     45      -4.6180      2.00000
     46      -4.5841      2.00000
     47      -4.4730      2.00000
     48      -4.1791      2.00000
     49      -4.0966      2.00000
     50      -3.7306      2.00000
     51      -3.5804      2.00000
     52      -3.4996      2.00000
     53      -3.0215      2.00000
     54      -2.8684      2.00000
     55      -2.7485      2.00000
     56      -2.7050      2.00000
     57      -2.2964      2.00000
     58      -2.1444      2.00000
     59      -1.8860      2.00000
     60      -1.4033      2.00000
     61      -1.2584      2.00000
     62      -0.8773      2.00000
     63      -0.7625      0.00648
     64      -0.7149      0.00000
     65      -0.4874      0.00000
     66      -0.4181      0.00000
     67      -0.2053      0.00000
     68       0.6725      0.00000
     69       0.7247      0.00000
     70       0.7576      0.00000
     71       1.4030      0.00000
     72       1.4469      0.00000
     73       1.8075      0.00000
     74       2.2824      0.00000
     75       2.3049      0.00000
     76       3.1931      0.00000

 k-point    18 :       0.1667    0.4444    0.0000
  band No.  band energies     occupation 
      1     -36.6196      2.00000
      2     -35.2623      2.00000
      3     -34.2960      2.00000
      4     -33.3934      2.00000
      5     -20.3788      2.00000
      6     -19.8271      2.00000
      7     -19.6372      2.00000
      8     -19.1741      2.00000
      9     -19.1278      2.00000
     10     -18.6489      2.00000
     11     -18.5508      2.00000
     12     -18.4897      2.00000
     13     -18.4402      2.00000
     14     -18.1695      2.00000
     15     -18.1196      2.00000
     16     -17.6272      2.00000
     17     -17.3577      2.00000
     18     -17.2309      2.00000
     19     -17.1325      2.00000
     20     -17.0659      2.00000
     21     -16.5983      2.00000
     22     -16.3994      2.00000
     23     -16.2270      2.00000
     24     -16.0937      2.00000
     25     -15.9773      2.00000
     26     -15.4601      2.00000
     27     -15.4401      2.00000
     28     -15.0824      2.00000
     29      -7.6267      2.00000
     30      -6.9715      2.00000
     31      -6.8050      2.00000
     32      -6.7419      2.00000
     33      -6.6553      2.00000
     34      -6.6113      2.00000
     35      -6.3164      2.00000
     36      -5.9931      2.00000
     37      -5.8876      2.00000
     38      -5.7708      2.00000
     39      -5.5528      2.00000
     40      -5.4693      2.00000
     41      -5.1614      2.00000
     42      -5.0967      2.00000
     43      -4.9699      2.00000
     44      -4.8368      2.00000
     45      -4.6841      2.00000
     46      -4.4478      2.00000
     47      -4.3512      2.00000
     48      -4.1989      2.00000
     49      -4.1500      2.00000
     50      -3.7535      2.00000
     51      -3.6857      2.00000
     52      -3.5004      2.00000
     53      -3.1231      2.00000
     54      -2.9147      2.00000
     55      -2.8083      2.00000
     56      -2.6120      2.00000
     57      -2.2883      2.00000
     58      -2.0687      2.00000
     59      -1.9166      2.00000
     60      -1.5551      2.00000
     61      -1.1982      2.00000
     62      -0.8564      2.00000
     63      -0.7514      0.48187
     64      -0.7390      0.00000
     65      -0.6168      0.00000
     66      -0.4117      0.00000
     67      -0.0826      0.00000
     68       0.6880      0.00000
     69       0.7276      0.00000
     70       0.8568      0.00000
     71       1.4146      0.00000
     72       1.4384      0.00000
     73       1.8362      0.00000
     74       2.2765      0.00000
     75       2.2852      0.00000
     76       3.2027      0.00000

 k-point    19 :       0.3333    0.4444    0.0000
  band No.  band energies     occupation 
      1     -36.6194      2.00000
      2     -35.2621      2.00000
      3     -34.2959      2.00000
      4     -33.3933      2.00000
      5     -20.2588      2.00000
      6     -19.9881      2.00000
      7     -19.7834      2.00000
      8     -19.2196      2.00000
      9     -19.0404      2.00000
     10     -18.6476      2.00000
     11     -18.5215      2.00000
     12     -18.4708      2.00000
     13     -18.4365      2.00000
     14     -18.2197      2.00000
     15     -18.0952      2.00000
     16     -17.7730      2.00000
     17     -17.2476      2.00000
     18     -17.2093      2.00000
     19     -17.1388      2.00000
     20     -17.0528      2.00000
     21     -16.5627      2.00000
     22     -16.2619      2.00000
     23     -16.2192      2.00000
     24     -16.1278      2.00000
     25     -15.9799      2.00000
     26     -15.4622      2.00000
     27     -15.2606      2.00000
     28     -15.0310      2.00000
     29      -7.6430      2.00000
     30      -7.0672      2.00000
     31      -6.9539      2.00000
     32      -6.8857      2.00000
     33      -6.6806      2.00000
     34      -6.5964      2.00000
     35      -6.1378      2.00000
     36      -6.0781      2.00000
     37      -5.9464      2.00000
     38      -5.8704      2.00000
     39      -5.5808      2.00000
     40      -5.3842      2.00000
     41      -5.2755      2.00000
     42      -5.2516      2.00000
     43      -5.0931      2.00000
     44      -4.8351      2.00000
     45      -4.7404      2.00000
     46      -4.3183      2.00000
     47      -4.2455      2.00000
     48      -4.1654      2.00000
     49      -4.1027      2.00000
     50      -3.8568      2.00000
     51      -3.7517      2.00000
     52      -3.5694      2.00000
     53      -3.5300      2.00000
     54      -2.8391      2.00000
     55      -2.7923      2.00000
     56      -2.7323      2.00000
     57      -2.1143      2.00000
     58      -2.0067      2.00000
     59      -1.9028      2.00000
     60      -1.6930      2.00000
     61      -1.1745      2.00000
     62      -0.9616      2.00000
     63      -0.8742      2.09735
     64      -0.7582      0.00000
     65      -0.6815      0.00000
     66      -0.3140      0.00000
     67       0.0497      0.00000
     68       0.7312      0.00000
     69       1.0239      0.00000
     70       1.4124      0.00000
     71       1.4324      0.00000
     72       1.9010      0.00000
     73       2.2502      0.00000
     74       2.2573      0.00000
     75       3.1766      0.00000
     76       3.4661      0.00000

 k-point    20 :       0.5000    0.4444    0.0000
  band No.  band energies     occupation 
      1     -36.6193      2.00000
      2     -35.2620      2.00000
      3     -34.2958      2.00000
      4     -33.3933      2.00000
      5     -20.1383      2.00000
      6     -20.0800      2.00000
      7     -19.8909      2.00000
      8     -19.2554      2.00000
      9     -18.9120      2.00000
     10     -18.7974      2.00000
     11     -18.5272      2.00000
     12     -18.4494      2.00000
     13     -18.3589      2.00000
     14     -18.2559      2.00000
     15     -18.0121      2.00000
     16     -17.8910      2.00000
     17     -17.2514      2.00000
     18     -17.2319      2.00000
     19     -17.0744      2.00000
     20     -17.0254      2.00000
     21     -16.5365      2.00000
     22     -16.2777      2.00000
     23     -16.1677      2.00000
     24     -16.1364      2.00000
     25     -15.9636      2.00000
     26     -15.4631      2.00000
     27     -15.1772      2.00000
     28     -15.0084      2.00000
     29      -7.6524      2.00000
     30      -7.1806      2.00000
     31      -7.0385      2.00000
     32      -6.8937      2.00000
     33      -6.6884      2.00000
     34      -6.5863      2.00000
     35      -6.1462      2.00000
     36      -6.0051      2.00000
     37      -5.8916      2.00000
     38      -5.8392      2.00000
     39      -5.7272      2.00000
     40      -5.3827      2.00000
     41      -5.3398      2.00000
     42      -5.3339      2.00000
     43      -5.2207      2.00000
     44      -4.8007      2.00000
     45      -4.6530      2.00000
     46      -4.3282      2.00000
     47      -4.1733      2.00000
     48      -4.1117      2.00000
     49      -4.0667      2.00000
     50      -3.8984      2.00000
     51      -3.7970      2.00000
     52      -3.7722      2.00000
     53      -3.5561      2.00000
     54      -2.8907      2.00000
     55      -2.8349      2.00000
     56      -2.7483      2.00000
     57      -1.9941      2.00000
     58      -1.9826      2.00000
     59      -1.8852      2.00000
     60      -1.6263      2.00000
     61      -1.2499      2.00000
     62      -1.1576      2.00000
     63      -0.9118      2.00000
     64      -0.7436      0.00000
     65      -0.6455      0.00000
     66      -0.2621      0.00000
     67       0.0924      0.00000
     68       0.7356      0.00000
     69       1.0948      0.00000
     70       1.4048      0.00000
     71       1.4297      0.00000
     72       1.9275      0.00000
     73       2.2357      0.00000
     74       2.2444      0.00000
     75       3.1800      0.00000
     76       3.4428      0.00000


--------------------------------------------------------------------------------------------------------


 soft charge-density along one line, spin component           1
         0         1         2         3         4         5         6         7         8         9
 total charge-density along one line
 
 pseudopotential strength for first ion, spin component:           1
 13.308  -0.447  -0.000   0.001   0.000   0.000   0.000  -0.000
 -0.447   0.104   0.000  -0.000  -0.000  -0.000   0.000   0.000
 -0.000   0.000  -9.835   0.000   0.000   0.121  -0.000  -0.000
  0.001  -0.000   0.000  -9.791   0.000  -0.000   0.115  -0.000
  0.000  -0.000   0.000   0.000  -9.799  -0.000  -0.000   0.117
  0.000  -0.000   0.121  -0.000  -0.000   0.180   0.000   0.000
  0.000   0.000  -0.000   0.115  -0.000   0.000   0.182   0.000
 -0.000   0.000  -0.000  -0.000   0.117   0.000   0.000   0.181
 total augmentation occupancy for first ion, spin component:           1
  1.869   0.136   0.000   0.017   0.000   0.000   0.002   0.000
  0.136   0.015   0.000  -0.005   0.000   0.000   0.001   0.000
  0.000   0.000   1.580   0.000   0.000   0.155   0.000   0.000
  0.017  -0.005   0.000   1.527   0.000   0.000   0.119   0.000
  0.000   0.000   0.000   0.000   1.512   0.000   0.000   0.127
  0.000   0.000   0.155   0.000   0.000   0.017   0.000   0.000
  0.002   0.001   0.000   0.119   0.000   0.000   0.011   0.000
  0.000   0.000   0.000   0.000   0.127   0.000   0.000   0.012


------------------------ aborting loop because EDIFF is reached ----------------------------------------


    CHARGE:  cpu time    0.3849: real time    0.3850
    FORLOC:  cpu time    0.0220: real time    0.0219
    FORNL :  cpu time    4.5073: real time    4.5053
    STRESS:  cpu time    9.4616: real time    9.4597
    FORCOR:  cpu time    0.1090: real time    0.1091
    FORHAR:  cpu time    0.0380: real time    0.0373
    MIXING:  cpu time    0.0160: real time    0.0165
    OFIELD:  cpu time    0.0000: real time    0.0000

  FORCE on cell =-STRESS in cart. coord.  units (eV):
  Direction    XX          YY          ZZ          XY          YZ          ZX
  --------------------------------------------------------------------------------------
  Alpha Z   378.09908   378.09908   378.09908
  Ewald   27809.53423 27749.52952-32827.80614    -0.00000    -0.00000    -0.00000
  Hartree 30092.51992 30018.99132-28823.68137    -0.00000    -0.00000    -0.00000
  E(xc)    -577.28872  -577.46387  -577.16523    -0.00000    -0.00000     0.00000
  Local  -59557.39376-59433.11476 59985.08832     0.00000    -0.00000    -0.00000
  n-local  -476.56723  -477.90656  -479.02767     0.28482     0.00002     0.00001
  augment   114.12701   115.35221   114.55133    -0.00000     0.00000     0.00000
  Kinetic  2221.22968  2235.60572  2232.37026    -0.15609    -0.00006    -0.00001
  Fock        0.00000     0.00000     0.00000     0.00000     0.00000     0.00000
  -------------------------------------------------------------------------------------
  Total       4.26021     9.09266     2.42859     0.00000     0.00000     0.00000
  in kB      14.60715    31.17636     8.32701     0.00000     0.00000     0.00000
  external pressure =       18.04 kB  Pullay stress =        0.00 kB


 VOLUME and BASIS-vectors are now :
 -----------------------------------------------------------------------------
  energy-cutoff  :      500.00
  volume of cell :      467.28
      direct lattice vectors                 reciprocal lattice vectors
     5.522882970  0.000000000  0.000000000     0.181064854  0.000000000  0.000000000
     0.000000000  3.905268000  0.000000000     0.000000000  0.256064373  0.000000000
     0.000000000  0.000000000 21.665045198     0.000000000  0.000000000  0.046157300

  length of vectors
     5.522882970  3.905268000 21.665045198     0.181064854  0.256064373  0.046157300


 FORCES acting on ions
    electron-ion (+dipol)            ewald-force                    non-local-force                 convergence-correction
 -----------------------------------------------------------------------------------------------
   0.155E-12 -.378E-12 0.128E+04   -.677E-14 0.936E-15 -.128E+04   0.000E+00 0.000E+00 -.173E+01   0.550E-13 -.466E-13 0.141E-02
   0.167E+00 -.204E-12 0.948E+03   -.132E+00 -.110E-13 -.946E+03   0.624E+00 -.347E-17 -.446E+01   0.532E-01 -.818E-14 -.200E+00
   -.167E+00 -.291E-13 0.948E+03   0.132E+00 -.115E-13 -.946E+03   -.624E+00 0.347E-17 -.446E+01   -.532E-01 0.334E-13 -.200E+00
   0.456E-14 -.664E-13 0.544E+03   -.628E-14 -.372E-14 -.542E+03   0.000E+00 0.000E+00 -.266E+01   -.337E-13 0.152E-12 -.251E+00
   0.171E+00 0.150E-11 0.150E+03   0.246E-13 -.106E-13 -.148E+03   0.379E+00 0.000E+00 -.275E+01   0.168E-01 -.265E-13 -.329E+00
   -.171E+00 0.127E-12 0.150E+03   -.125E-12 -.112E-13 -.148E+03   -.379E+00 0.000E+00 -.275E+01   -.168E-01 -.244E-13 -.329E+00
   0.164E-12 0.728E-13 -.245E+03   -.187E-14 -.940E-15 0.247E+03   0.000E+00 0.000E+00 -.200E+01   -.470E-14 0.689E-14 -.326E+00
   -.396E+00 0.819E-13 -.639E+03   0.132E+00 -.870E-15 0.641E+03   0.102E+01 -.347E-17 -.272E+01   0.488E-01 -.185E-13 -.322E+00
   0.396E+00 0.155E-12 -.639E+03   -.132E+00 0.195E-17 0.641E+03   -.102E+01 0.347E-17 -.272E+01   -.488E-01 -.688E-13 -.322E+00
   0.224E-15 -.437E-13 -.104E+04   -.158E-13 -.726E-14 0.105E+04   0.000E+00 0.000E+00 -.571E+01   0.480E-13 0.101E-13 -.188E+00
   0.205E+02 -.331E-12 -.134E+04   -.268E+02 0.747E-16 0.136E+04   0.656E+01 0.347E-17 -.169E+02   -.432E-01 -.473E-13 0.530E-01
   -.205E+02 0.473E-13 -.134E+04   0.268E+02 -.841E-15 0.136E+04   -.656E+01 -.347E-17 -.169E+02   0.432E-01 -.215E-13 0.530E-01
   0.236E-15 0.142E-12 0.213E+04   0.588E-13 0.130E-13 -.212E+04   0.000E+00 0.000E+00 -.234E+01   -.862E-13 0.656E-13 0.181E-01
   0.756E-13 -.146E-12 0.907E+03   0.105E-12 0.220E-13 -.904E+03   0.000E+00 0.000E+00 -.159E+01   0.992E-13 0.124E-12 -.440E+00
   0.740E-14 -.123E-12 -.409E+03   0.102E-12 0.196E-13 0.411E+03   0.000E+00 0.000E+00 -.136E+01   -.486E-13 0.630E-13 -.586E+00
   0.807E-13 0.182E-12 -.173E+04   -.674E-14 -.509E-14 0.174E+04   0.000E+00 0.000E+00 -.119E+01   0.201E-13 -.268E-13 -.282E+00
   -.217E-14 0.164E-12 0.900E+03   -.162E-13 0.219E-14 -.895E+03   0.000E+00 0.000E+00 -.247E+01   0.169E-13 0.166E-13 0.105E-02
   0.335E-15 0.130E-13 0.365E+03   -.108E-13 0.545E-15 -.362E+03   0.000E+00 0.000E+00 0.533E+00   -.924E-14 -.447E-13 -.168E+00
   0.261E-15 0.904E-13 -.163E+03   -.935E-14 0.336E-14 0.164E+03   0.000E+00 0.000E+00 0.758E+00   0.781E-14 0.781E-14 -.219E+00
   -.225E-15 0.309E-13 -.682E+03   -.243E-13 0.323E-14 0.685E+03   0.000E+00 0.000E+00 0.111E+01   0.157E-13 -.365E-14 -.121E+00
 -----------------------------------------------------------------------------------------------
   0.200E-11 0.128E-11 0.764E+02   -.390E-13 0.210E-14 -.182E-11   0.000E+00 0.000E+00 -.722E+02   0.224E-12 0.143E-12 -.416E+01
 
 
 POSITION                                       TOTAL-FORCE (eV/Angst)
 -----------------------------------------------------------------------------------
      2.76144      0.00000      6.00000         0.000000     -0.000000     -1.518470
      1.38072      1.95263      7.38072         0.712426     -0.000000     -2.115909
      4.14216      1.95263      7.38072        -0.712426     -0.000000     -2.115909
      0.00000      0.00000      8.76144         0.000000     -0.000000     -0.771057
      4.14216      1.95263     10.14216         0.567341     -0.000000     -1.299778
      1.38072      1.95263     10.14216        -0.567341      0.000000     -1.299778
      2.76144      0.00000     11.52288         0.000000     -0.000000     -0.596743
      1.38072      1.95263     12.90360         0.800606     -0.000000     -1.495746
      4.14216      1.95263     12.90360        -0.800606     -0.000000     -1.495746
      0.00000      0.00000     14.28432         0.000000     -0.000000     -1.086311
      4.14216      1.95263     15.66505         0.230360     -0.000000     -1.051825
      1.38072      1.95263     15.66505        -0.230360      0.000000     -1.051825
      0.00000      0.00000      6.00000         0.000000     -0.000000      0.964488
      2.76144      0.00000      8.76144         0.000000     -0.000000      0.971530
      0.00000      0.00000     11.52288         0.000000     -0.000000      0.753480
      2.76144      0.00000     14.28432         0.000000     -0.000000      1.614272
      2.76144      1.95263      6.00000         0.000000     -0.000000      2.378799
      0.00000      1.95263      8.76144         0.000000     -0.000000      2.659869
      2.76144      1.95263     11.52288         0.000000     -0.000000      2.410601
      0.00000      1.95263     14.28432         0.000000     -0.000000      4.146057
 -----------------------------------------------------------------------------------
    total drift:                                0.000000      0.000000      0.022580


--------------------------------------------------------------------------------------------------------



  FREE ENERGIE OF THE ION-ELECTRON SYSTEM (eV)
  ---------------------------------------------------
  free  energy   TOTEN  =      -148.71844971 eV

  energy  without entropy=     -148.71844971  energy(sigma->0) =     -148.71844971
 


--------------------------------------------------------------------------------------------------------


    POTLOK:  cpu time    0.1100: real time    0.1104


--------------------------------------------------------------------------------------------------------


     LOOP+:  cpu time  661.5604: real time  662.1651
    4ORBIT:  cpu time    0.0000: real time    0.0000
 BZINTS: Fermi energy: -0.778789;128.000000 electrons
         Band energy:***********;  BLOECHL correction: -0.015859

 total amount of memory used by VASP MPI-rank0   177404. kBytes
=======================================================================

   base      :      30000. kBytes
   nonl-proj :      53383. kBytes
   fftplans  :       7169. kBytes
   grid      :      12862. kBytes
   one-center:        155. kBytes
   wavefun   :      73835. kBytes
 
  
  
 General timing and accounting informations for this job:
 ========================================================
  
                  Total CPU time used (sec):      665.539
                            User time (sec):      656.083
                          System time (sec):        9.456
                         Elapsed time (sec):      667.864
  
                   Maximum memory used (kb):      184360.
                   Average memory used (kb):           0.
  
                          Minor page faults:        59758
                          Major page faults:           83
                 Voluntary context switches:         4249
