<?xml version="1.0" encoding="ISO-8859-1"?>
<modeling>
 <generator>
  <i name="program" type="string">vasp </i>
  <i name="version" type="string">5.4.4.18Apr17-6-g9f103f2a35  </i>
  <i name="subversion" type="string">(build Jun 30 2017 11:15:00) complex            parallel </i>
  <i name="platform" type="string">STALLO_VASP_5.4.4 </i>
  <i name="date" type="string">2019 11 06 </i>
  <i name="time" type="string">18:34:35 </i>
 </generator>
 <incar>
  <i type="string" name="PREC">normal    ! low/normal/accurate</i>
  <i type="string" name="ALGO"> Fast      ! Algorithm for electronic re</i>
  <i type="int" name="ISPIN">     1</i>
  <i type="int" name="NELMIN">     4</i>
  <i name="EDIFF">      0.00001000</i>
  <i type="int" name="NSW">     0</i>
  <i name="ENCUT">    500.00000000</i>
  <i type="logical" name="LREAL"> F  </i>
  <i type="int" name="ISMEAR">    -5</i>
  <i name="SIGMA">      0.20000000</i>
  <i type="logical" name="LWAVE"> F  </i>
  <v type="int" name="KPOINT_BSE">    -1     0     0     0</v>
 </incar>
 <structure name="primitive_cell" >
  <crystal>
   <varray name="basis" >
    <v>       5.52288297       0.00000000       0.00000000 </v>
    <v>       0.00000000       3.90526800       0.00000000 </v>
    <v>       0.00000000       0.00000000      21.66504520 </v>
   </varray>
   <i name="volume">    467.27902047 </i>
   <varray name="rec_basis" >
    <v>       0.18106485       0.00000000       0.00000000 </v>
    <v>       0.00000000       0.25606437       0.00000000 </v>
    <v>       0.00000000       0.00000000       0.04615730 </v>
   </varray>
  </crystal>
  <varray name="positions" >
   <v>      -0.50000000       0.00000000       0.27694380 </v>
   <v>      -0.50000000      -0.50000000       0.27694380 </v>
   <v>      -0.50000000       0.00000000       0.40440449 </v>
   <v>       0.25000000      -0.50000000       0.34067414 </v>
   <v>      -0.25000000      -0.50000000       0.34067414 </v>
   <v>       0.00000000       0.00000000       0.27694380 </v>
   <v>       0.00000000       0.00000000       0.40440449 </v>
   <v>       0.00000000      -0.50000000       0.40440449 </v>
   <v>      -0.25000000      -0.50000000       0.46813483 </v>
   <v>       0.25000000      -0.50000000       0.46813483 </v>
   <v>      -0.50000000       0.00000000      -0.46813483 </v>
   <v>      -0.50000000      -0.50000000      -0.46813483 </v>
   <v>       0.00000000       0.00000000      -0.46813483 </v>
   <v>       0.25000000      -0.50000000      -0.40440449 </v>
   <v>      -0.25000000      -0.50000000      -0.40440449 </v>
   <v>      -0.50000000       0.00000000      -0.34067414 </v>
   <v>       0.00000000       0.00000000      -0.34067414 </v>
   <v>       0.00000000      -0.50000000      -0.34067414 </v>
   <v>      -0.25000000      -0.50000000      -0.27694380 </v>
   <v>       0.25000000      -0.50000000      -0.27694380 </v>
  </varray>
 </structure>
 <varray name="primitive_index" >
  <v type="int" >        1 </v>
  <v type="int" >       17 </v>
  <v type="int" >       14 </v>
  <v type="int" >        2 </v>
  <v type="int" >        3 </v>
  <v type="int" >       13 </v>
  <v type="int" >        4 </v>
  <v type="int" >       18 </v>
  <v type="int" >        5 </v>
  <v type="int" >        6 </v>
  <v type="int" >        7 </v>
  <v type="int" >       19 </v>
  <v type="int" >       15 </v>
  <v type="int" >        8 </v>
  <v type="int" >        9 </v>
  <v type="int" >       16 </v>
  <v type="int" >       10 </v>
  <v type="int" >       20 </v>
  <v type="int" >       11 </v>
  <v type="int" >       12 </v>
 </varray>
 <kpoints>
  <generation param="Gamma">
   <v type="int" name="divisions">       6        9        1 </v>
   <v name="usershift">      0.00000000       0.00000000       0.00000000 </v>
   <v name="genvec1">      0.16666667       0.00000000       0.00000000 </v>
   <v name="genvec2">      0.00000000       0.11111111       0.00000000 </v>
   <v name="genvec3">      0.00000000       0.00000000       1.00000000 </v>
   <v name="shift">      0.00000000       0.00000000       0.00000000 </v>
  </generation>
  <varray name="kpointlist" >
   <v>       0.00000000       0.00000000       0.00000000 </v>
   <v>       0.16666667       0.00000000       0.00000000 </v>
   <v>       0.33333333       0.00000000       0.00000000 </v>
   <v>       0.50000000       0.00000000       0.00000000 </v>
   <v>       0.00000000       0.11111111       0.00000000 </v>
   <v>       0.16666667       0.11111111       0.00000000 </v>
   <v>       0.33333333       0.11111111       0.00000000 </v>
   <v>       0.50000000       0.11111111       0.00000000 </v>
   <v>       0.00000000       0.22222222       0.00000000 </v>
   <v>       0.16666667       0.22222222       0.00000000 </v>
   <v>       0.33333333       0.22222222       0.00000000 </v>
   <v>       0.50000000       0.22222222       0.00000000 </v>
   <v>       0.00000000       0.33333333       0.00000000 </v>
   <v>       0.16666667       0.33333333       0.00000000 </v>
   <v>       0.33333333       0.33333333       0.00000000 </v>
   <v>       0.50000000       0.33333333       0.00000000 </v>
   <v>       0.00000000       0.44444444       0.00000000 </v>
   <v>       0.16666667       0.44444444       0.00000000 </v>
   <v>       0.33333333       0.44444444       0.00000000 </v>
   <v>       0.50000000       0.44444444       0.00000000 </v>
  </varray>
  <varray name="weights" >
   <v>       0.01851852 </v>
   <v>       0.03703704 </v>
   <v>       0.03703704 </v>
   <v>       0.01851852 </v>
   <v>       0.03703704 </v>
   <v>       0.07407407 </v>
   <v>       0.07407407 </v>
   <v>       0.03703704 </v>
   <v>       0.03703704 </v>
   <v>       0.07407407 </v>
   <v>       0.07407407 </v>
   <v>       0.03703704 </v>
   <v>       0.03703704 </v>
   <v>       0.07407407 </v>
   <v>       0.07407407 </v>
   <v>       0.03703704 </v>
   <v>       0.03703704 </v>
   <v>       0.07407407 </v>
   <v>       0.07407407 </v>
   <v>       0.03703704 </v>
  </varray>
  <varray name="tetrahedronlist"  type="int" >
   <v type="int" >        2        1        1        2        6 </v>
   <v type="int" >        2        1        1        5        6 </v>
   <v type="int" >        2        1        5        5        6 </v>
   <v type="int" >        2        1        2        2        6 </v>
   <v type="int" >        2        1        2        6        6 </v>
   <v type="int" >        2        1        5        6        6 </v>
   <v type="int" >        2        2        2        3        7 </v>
   <v type="int" >        2        2        2        6        7 </v>
   <v type="int" >        2        2        6        6        7 </v>
   <v type="int" >        2        2        3        3        7 </v>
   <v type="int" >        2        2        3        7        7 </v>
   <v type="int" >        2        2        6        7        7 </v>
   <v type="int" >        2        3        3        4        8 </v>
   <v type="int" >        2        3        3        7        8 </v>
   <v type="int" >        2        3        7        7        8 </v>
   <v type="int" >        2        3        4        4        8 </v>
   <v type="int" >        2        3        4        8        8 </v>
   <v type="int" >        2        3        7        8        8 </v>
   <v type="int" >        2        3        4        4        7 </v>
   <v type="int" >        2        4        4        7        8 </v>
   <v type="int" >        2        4        7        8        8 </v>
   <v type="int" >        2        3        3        4        7 </v>
   <v type="int" >        2        3        4        7        7 </v>
   <v type="int" >        2        4        7        7        8 </v>
   <v type="int" >        2        2        3        3        6 </v>
   <v type="int" >        2        3        3        6        7 </v>
   <v type="int" >        2        3        6        7        7 </v>
   <v type="int" >        2        2        2        3        6 </v>
   <v type="int" >        2        2        3        6        6 </v>
   <v type="int" >        2        3        6        6        7 </v>
   <v type="int" >        2        1        2        2        5 </v>
   <v type="int" >        2        2        2        5        6 </v>
   <v type="int" >        2        2        5        6        6 </v>
   <v type="int" >        2        1        1        2        5 </v>
   <v type="int" >        2        1        2        5        5 </v>
   <v type="int" >        2        2        5        5        6 </v>
   <v type="int" >        2        5        5        6       10 </v>
   <v type="int" >        2        5        5        9       10 </v>
   <v type="int" >        2        5        9        9       10 </v>
   <v type="int" >        2        5        6        6       10 </v>
   <v type="int" >        2        5        6       10       10 </v>
   <v type="int" >        2        5        9       10       10 </v>
   <v type="int" >        2        6        6        7       11 </v>
   <v type="int" >        2        6        6       10       11 </v>
   <v type="int" >        2        6       10       10       11 </v>
   <v type="int" >        2        6        7        7       11 </v>
   <v type="int" >        2        6        7       11       11 </v>
   <v type="int" >        2        6       10       11       11 </v>
   <v type="int" >        2        7        7        8       12 </v>
   <v type="int" >        2        7        7       11       12 </v>
   <v type="int" >        2        7       11       11       12 </v>
   <v type="int" >        2        7        8        8       12 </v>
   <v type="int" >        2        7        8       12       12 </v>
   <v type="int" >        2        7       11       12       12 </v>
   <v type="int" >        2        7        8        8       11 </v>
   <v type="int" >        2        8        8       11       12 </v>
   <v type="int" >        2        8       11       12       12 </v>
   <v type="int" >        2        7        7        8       11 </v>
   <v type="int" >        2        7        8       11       11 </v>
   <v type="int" >        2        8       11       11       12 </v>
   <v type="int" >        2        6        7        7       10 </v>
   <v type="int" >        2        7        7       10       11 </v>
   <v type="int" >        2        7       10       11       11 </v>
   <v type="int" >        2        6        6        7       10 </v>
   <v type="int" >        2        6        7       10       10 </v>
   <v type="int" >        2        7       10       10       11 </v>
   <v type="int" >        2        5        6        6        9 </v>
   <v type="int" >        2        6        6        9       10 </v>
   <v type="int" >        2        6        9       10       10 </v>
   <v type="int" >        2        5        5        6        9 </v>
   <v type="int" >        2        5        6        9        9 </v>
   <v type="int" >        2        6        9        9       10 </v>
   <v type="int" >        2        9        9       10       14 </v>
   <v type="int" >        2        9        9       13       14 </v>
   <v type="int" >        2        9       13       13       14 </v>
   <v type="int" >        2        9       10       10       14 </v>
   <v type="int" >        2        9       10       14       14 </v>
   <v type="int" >        2        9       13       14       14 </v>
   <v type="int" >        2       10       10       11       15 </v>
   <v type="int" >        2       10       10       14       15 </v>
   <v type="int" >        2       10       14       14       15 </v>
   <v type="int" >        2       10       11       11       15 </v>
   <v type="int" >        2       10       11       15       15 </v>
   <v type="int" >        2       10       14       15       15 </v>
   <v type="int" >        2       11       11       12       16 </v>
   <v type="int" >        2       11       11       15       16 </v>
   <v type="int" >        2       11       15       15       16 </v>
   <v type="int" >        2       11       12       12       16 </v>
   <v type="int" >        2       11       12       16       16 </v>
   <v type="int" >        2       11       15       16       16 </v>
   <v type="int" >        2       11       12       12       15 </v>
   <v type="int" >        2       12       12       15       16 </v>
   <v type="int" >        2       12       15       16       16 </v>
   <v type="int" >        2       11       11       12       15 </v>
   <v type="int" >        2       11       12       15       15 </v>
   <v type="int" >        2       12       15       15       16 </v>
   <v type="int" >        2       10       11       11       14 </v>
   <v type="int" >        2       11       11       14       15 </v>
   <v type="int" >        2       11       14       15       15 </v>
   <v type="int" >        2       10       10       11       14 </v>
   <v type="int" >        2       10       11       14       14 </v>
   <v type="int" >        2       11       14       14       15 </v>
   <v type="int" >        2        9       10       10       13 </v>
   <v type="int" >        2       10       10       13       14 </v>
   <v type="int" >        2       10       13       14       14 </v>
   <v type="int" >        2        9        9       10       13 </v>
   <v type="int" >        2        9       10       13       13 </v>
   <v type="int" >        2       10       13       13       14 </v>
   <v type="int" >        2       13       13       14       18 </v>
   <v type="int" >        2       13       13       17       18 </v>
   <v type="int" >        2       13       17       17       18 </v>
   <v type="int" >        2       13       14       14       18 </v>
   <v type="int" >        2       13       14       18       18 </v>
   <v type="int" >        2       13       17       18       18 </v>
   <v type="int" >        2       14       14       15       19 </v>
   <v type="int" >        2       14       14       18       19 </v>
   <v type="int" >        2       14       18       18       19 </v>
   <v type="int" >        2       14       15       15       19 </v>
   <v type="int" >        2       14       15       19       19 </v>
   <v type="int" >        2       14       18       19       19 </v>
   <v type="int" >        2       15       15       16       20 </v>
   <v type="int" >        2       15       15       19       20 </v>
   <v type="int" >        2       15       19       19       20 </v>
   <v type="int" >        2       15       16       16       20 </v>
   <v type="int" >        2       15       16       20       20 </v>
   <v type="int" >        2       15       19       20       20 </v>
   <v type="int" >        2       15       16       16       19 </v>
   <v type="int" >        2       16       16       19       20 </v>
   <v type="int" >        2       16       19       20       20 </v>
   <v type="int" >        2       15       15       16       19 </v>
   <v type="int" >        2       15       16       19       19 </v>
   <v type="int" >        2       16       19       19       20 </v>
   <v type="int" >        2       14       15       15       18 </v>
   <v type="int" >        2       15       15       18       19 </v>
   <v type="int" >        2       15       18       19       19 </v>
   <v type="int" >        2       14       14       15       18 </v>
   <v type="int" >        2       14       15       18       18 </v>
   <v type="int" >        2       15       18       18       19 </v>
   <v type="int" >        2       13       14       14       17 </v>
   <v type="int" >        2       14       14       17       18 </v>
   <v type="int" >        2       14       17       18       18 </v>
   <v type="int" >        2       13       13       14       17 </v>
   <v type="int" >        2       13       14       17       17 </v>
   <v type="int" >        2       14       17       17       18 </v>
   <v type="int" >        4       17       17       18       18 </v>
   <v type="int" >        4       17       17       17       18 </v>
   <v type="int" >        4       17       18       18       18 </v>
   <v type="int" >        4       18       18       19       19 </v>
   <v type="int" >        4       18       18       18       19 </v>
   <v type="int" >        4       18       19       19       19 </v>
   <v type="int" >        4       19       19       20       20 </v>
   <v type="int" >        4       19       19       19       20 </v>
   <v type="int" >        4       19       20       20       20 </v>
  </varray>
  <i name="volumeweight">      0.00308642 </i>
 </kpoints>
 <parameters>
  <separator name="general" >
   <i type="string" name="SYSTEM">unknown system</i>
   <i type="logical" name="LCOMPAT"> F  </i>
  </separator>
  <separator name="electronic" >
   <i type="string" name="PREC">normal</i>
   <i name="ENMAX">    500.00000000</i>
   <i name="ENAUG">    605.39200000</i>
   <i name="EDIFF">      0.00001000</i>
   <i type="int" name="IALGO">    68</i>
   <i type="int" name="IWAVPR">    10</i>
   <i type="int" name="NBANDS">    76</i>
   <i name="NELECT">    128.00000000</i>
   <i type="int" name="TURBO">     0</i>
   <i type="int" name="IRESTART">     0</i>
   <i type="int" name="NREBOOT">     0</i>
   <i type="int" name="NMIN">     0</i>
   <i name="EREF">      0.00000000</i>
   <separator name="electronic smearing" >
    <i type="int" name="ISMEAR">    -5</i>
    <i name="SIGMA">      0.20000000</i>
    <i name="KSPACING">      0.50000000</i>
    <i type="logical" name="KGAMMA"> T  </i>
   </separator>
   <separator name="electronic projectors" >
    <i type="logical" name="LREAL"> F  </i>
    <v name="ROPT">      0.00000000      0.00000000      0.00000000</v>
    <i type="int" name="LMAXPAW">  -100</i>
    <i type="int" name="LMAXMIX">     2</i>
    <i type="logical" name="NLSPLINE"> F  </i>
   </separator>
   <separator name="electronic startup" >
    <i type="int" name="ISTART">     0</i>
    <i type="int" name="ICHARG">     2</i>
    <i type="int" name="INIWAV">     1</i>
   </separator>
   <separator name="electronic spin" >
    <i type="int" name="ISPIN">     1</i>
    <i type="logical" name="LNONCOLLINEAR"> F  </i>
    <v name="MAGMOM">      1.00000000      1.00000000      1.00000000      1.00000000      1.00000000      1.00000000      1.00000000      1.00000000      1.00000000      1.00000000      1.00000000      1.00000000      1.00000000      1.00000000      1.00000000      1.00000000      1.00000000      1.00000000      1.00000000      1.00000000
</v>
    <i name="NUPDOWN">     -1.00000000</i>
    <i type="logical" name="LSORBIT"> F  </i>
    <v name="SAXIS">      0.00000000      0.00000000      1.00000000</v>
    <i type="logical" name="LSPIRAL"> F  </i>
    <v name="QSPIRAL">      0.00000000      0.00000000      0.00000000</v>
    <i type="logical" name="LZEROZ"> F  </i>
   </separator>
   <separator name="electronic exchange-correlation" >
    <i type="logical" name="LASPH"> F  </i>
    <i type="logical" name="LMETAGGA"> F  </i>
   </separator>
   <separator name="electronic convergence" >
    <i type="int" name="NELM">    60</i>
    <i type="int" name="NELMDL">    -5</i>
    <i type="int" name="NELMIN">     4</i>
    <i name="ENINI">    500.00000000</i>
    <separator name="electronic convergence detail" >
     <i type="logical" name="LDIAG"> T  </i>
     <i type="logical" name="LSUBROT"> F  </i>
     <i name="WEIMIN">      0.00000000</i>
     <i name="EBREAK">      0.00000003</i>
     <i name="DEPER">      0.30000000</i>
     <i type="int" name="NRMM">     4</i>
     <i name="TIME">      0.40000000</i>
    </separator>
   </separator>
   <separator name="electronic mixer" >
    <i name="AMIX">      0.40000000</i>
    <i name="BMIX">      1.00000000</i>
    <i name="AMIN">      0.10000000</i>
    <i name="AMIX_MAG">      1.60000000</i>
    <i name="BMIX_MAG">      1.00000000</i>
    <separator name="electronic mixer details" >
     <i type="int" name="IMIX">     4</i>
     <i type="logical" name="MIXFIRST"> F  </i>
     <i type="int" name="MAXMIX">   -45</i>
     <i name="WC">    100.00000000</i>
     <i type="int" name="INIMIX">     1</i>
     <i type="int" name="MIXPRE">     1</i>
     <i type="int" name="MREMOVE">     5</i>
    </separator>
   </separator>
   <separator name="electronic dipolcorrection" >
    <i type="logical" name="LDIPOL"> F  </i>
    <i type="logical" name="LMONO"> F  </i>
    <i type="int" name="IDIPOL">     0</i>
    <i name="EPSILON">      1.00000000</i>
    <v name="DIPOL">   -100.00000000   -100.00000000   -100.00000000</v>
    <i name="EFIELD">      0.00000000</i>
   </separator>
  </separator>
  <separator name="grids" >
   <i type="int" name="NGX">    30</i>
   <i type="int" name="NGY">    24</i>
   <i type="int" name="NGZ">   120</i>
   <i type="int" name="NGXF">    60</i>
   <i type="int" name="NGYF">    48</i>
   <i type="int" name="NGZF">   240</i>
   <i type="logical" name="ADDGRID"> F  </i>
  </separator>
  <separator name="ionic" >
   <i type="int" name="NSW">     0</i>
   <i type="int" name="IBRION">    -1</i>
   <i type="int" name="MDALGO">     0</i>
   <i type="int" name="ISIF">     2</i>
   <i name="PSTRESS">      0.00000000</i>
   <i name="EDIFFG">      0.00010000</i>
   <i type="int" name="NFREE">     0</i>
   <i name="POTIM">      0.50000000</i>
   <i name="SMASS">     -3.00000000</i>
   <i name="SCALEE">      1.00000000</i>
  </separator>
  <separator name="ionic md" >
   <i name="TEBEG">      0.00010000</i>
   <i name="TEEND">      0.00010000</i>
   <i type="int" name="NBLOCK">     1</i>
   <i type="int" name="KBLOCK">     1</i>
   <i type="int" name="NPACO">   256</i>
   <i name="APACO">     16.00000000</i>
  </separator>
  <separator name="symmetry" >
   <i type="int" name="ISYM">     2</i>
   <i name="SYMPREC">      0.00001000</i>
  </separator>
  <separator name="dos" >
   <i type="int" name="LORBIT">     0</i>
   <v name="RWIGS">     -1.00000000     -1.00000000     -1.00000000</v>
   <i type="int" name="NEDOS">   301</i>
   <i name="EMIN">     10.00000000</i>
   <i name="EMAX">    -10.00000000</i>
   <i name="EFERMI">      0.00000000</i>
  </separator>
  <separator name="writing" >
   <i type="int" name="NWRITE">     2</i>
   <i type="logical" name="LWAVE"> F  </i>
   <i type="logical" name="LDOWNSAMPLE"> F  </i>
   <i type="logical" name="LCHARG"> T  </i>
   <i type="logical" name="LPARD"> F  </i>
   <i type="logical" name="LVTOT"> F  </i>
   <i type="logical" name="LVHAR"> F  </i>
   <i type="logical" name="LELF"> F  </i>
   <i type="logical" name="LOPTICS"> F  </i>
   <v name="STM">      0.00000000      0.00000000      0.00000000      0.00000000      0.00000000      0.00000000      0.00000000</v>
  </separator>
  <separator name="performance" >
   <i type="int" name="NPAR">     2</i>
   <i type="int" name="NSIM">     4</i>
   <i type="int" name="NBLK">    -1</i>
   <i type="logical" name="LPLANE"> T  </i>
   <i type="logical" name="LSCALAPACK"> T  </i>
   <i type="logical" name="LSCAAWARE"> F  </i>
   <i type="logical" name="LSCALU"> F  </i>
   <i type="logical" name="LASYNC"> F  </i>
   <i type="logical" name="LORBITALREAL"> F  </i>
  </separator>
  <separator name="miscellaneous" >
   <i type="int" name="IDIOT">     3</i>
   <i type="int" name="ISPECIAL">     0</i>
   <i type="logical" name="LMUSIC"> F  </i>
   <v name="POMASS">     16.00000000     87.62000000     47.88000000</v>
   <v name="DARWINR">      0.00000000      0.00000000      0.00000000</v>
   <v name="DARWINV">      1.00000000      1.00000000      1.00000000</v>
   <i type="logical" name="LCORR"> T  </i>
  </separator>
  <i type="logical" name="GGA_COMPAT"> T  </i>
  <i type="logical" name="LBERRY"> F  </i>
  <i type="int" name="ICORELEVEL">     0</i>
  <i type="logical" name="LDAU"> F  </i>
  <i type="int" name="I_CONSTRAINED_M">     0</i>
  <separator name="electronic exchange-correlation" >
   <i type="string" name="GGA">--</i>
   <i type="int" name="VOSKOWN">     0</i>
   <i type="logical" name="LHFCALC"> F  </i>
   <i type="string" name="PRECFOCK"></i>
   <i type="logical" name="LSYMGRAD"> F  </i>
   <i type="logical" name="LHFONE"> F  </i>
   <i type="logical" name="LRHFCALC"> F  </i>
   <i type="logical" name="LTHOMAS"> F  </i>
   <i type="logical" name="LMODELHF"> F  </i>
   <i name="ENCUT4O">     -1.00000000</i>
   <i type="int" name="EXXOEP">     0</i>
   <i type="int" name="FOURORBIT">     0</i>
   <i name="AEXX">      0.00000000</i>
   <i name="HFALPHA">      0.00000000</i>
   <i name="MCALPHA">      0.00000000</i>
   <i name="ALDAX">      1.00000000</i>
   <i name="AGGAX">      1.00000000</i>
   <i name="ALDAC">      1.00000000</i>
   <i name="AGGAC">      1.00000000</i>
   <i type="int" name="NKREDX">     1</i>
   <i type="int" name="NKREDY">     1</i>
   <i type="int" name="NKREDZ">     1</i>
   <i type="logical" name="SHIFTRED"> F  </i>
   <i type="logical" name="ODDONLY"> F  </i>
   <i type="logical" name="EVENONLY"> F  </i>
   <i type="int" name="LMAXFOCK">     0</i>
   <i type="int" name="NMAXFOCKAE">     0</i>
   <i type="logical" name="LFOCKAEDFT"> F  </i>
   <i name="HFSCREEN">      0.00000000</i>
   <i name="HFSCREENC">      0.00000000</i>
   <i type="int" name="NBANDSGWLOW">     0</i>
  </separator>
  <separator name="vdW DFT" >
   <i type="logical" name="LUSE_VDW"> F  </i>
   <i name="Zab_VDW">     -0.84910000</i>
   <i name="PARAM1">      0.12340000</i>
   <i name="PARAM2">      1.00000000</i>
   <i name="PARAM3">      0.00000000</i>
  </separator>
  <separator name="model GW" >
   <i type="int" name="MODEL_GW">     0</i>
   <i name="MODEL_EPS0">     14.01837061</i>
   <i name="MODEL_ALPHA">      1.00000000</i>
  </separator>
  <separator name="linear response parameters" >
   <i type="logical" name="LEPSILON"> F  </i>
   <i type="logical" name="LRPA"> F  </i>
   <i type="logical" name="LNABLA"> F  </i>
   <i type="logical" name="LVEL"> F  </i>
   <i type="int" name="KINTER">     0</i>
   <i name="CSHIFT">      0.10000000</i>
   <i name="OMEGAMAX">     -1.00000000</i>
   <i name="DEG_THRESHOLD">      0.00200000</i>
   <i name="RTIME">     -0.10000000</i>
   <i name="WPLASMAI">      0.00000000</i>
   <v name="DFIELD">      0.00000000      0.00000000      0.00000000</v>
   <v name="WPLASMA">      0.00000000      0.00000000      0.00000000      0.00000000      0.00000000      0.00000000      0.00000000      0.00000000      0.00000000</v>
  </separator>
  <separator name="orbital magnetization" >
   <i type="logical" name="NUCIND"> F  </i>
   <v name="MAGPOS">      0.00000000      0.00000000      0.00000000</v>
   <i type="logical" name="LNICSALL"> T  </i>
   <i type="logical" name="ORBITALMAG"> F  </i>
   <i type="logical" name="LMAGBLOCH"> F  </i>
   <i type="logical" name="LCHIMAG"> F  </i>
   <i type="logical" name="LGAUGE"> T  </i>
   <i type="int" name="MAGATOM">     0</i>
   <v name="MAGDIPOL">      0.00000000      0.00000000      0.00000000</v>
   <v name="AVECCONST">      0.00000000      0.00000000      0.00000000</v>
  </separator>
  <separator name="response functions" >
   <i type="logical" name="LADDER"> F  </i>
   <i type="logical" name="LRPAFORCE"> F  </i>
   <i type="logical" name="LFXC"> F  </i>
   <i type="logical" name="LHARTREE"> T  </i>
   <i type="int" name="IBSE">     0</i>
   <v type="int" name="KPOINT">    -1     0     0     0</v>
   <i type="logical" name="LTCTE"> F  </i>
   <i type="logical" name="LTETE"> F  </i>
   <i type="logical" name="LTRIPLET"> F  </i>
   <i type="logical" name="LFXCEPS"> F  </i>
   <i type="logical" name="LFXHEG"> F  </i>
   <i type="int" name="NATURALO">     2</i>
   <i type="logical" name="L2ORDER"> F  </i>
   <i type="logical" name="LMP2LT"> F  </i>
   <i type="logical" name="LUSEW"> F  </i>
   <i name="ENCUTGW">     -2.00000000</i>
   <i name="ENCUTGWSOFT">     -2.00000000</i>
   <i name="ENCUTLF">     -1.00000000</i>
   <i type="int" name="LMAXMP2">    -1</i>
   <i name="SCISSOR">      0.00000000</i>
   <i type="int" name="NOMEGA">     0</i>
   <i type="int" name="NOMEGAR">     0</i>
   <i type="int" name="NBANDSGW">    -1</i>
   <i type="int" name="NBANDSO">    -1</i>
   <i type="int" name="NBANDSV">    -1</i>
   <i type="int" name="NELM">     1</i>
   <i type="int" name="NELMHF">     1</i>
   <i type="int" name="DIM">     3</i>
   <i type="int" name="ANTIRES">     0</i>
   <i name="OMEGAMAX">    -30.00000000</i>
   <i name="OMEGAMIN">    -30.00000000</i>
   <i name="OMEGATL">   -200.00000000</i>
   <i type="int" name="OMEGAGRID">   140</i>
   <i name="CSHIFT">     -0.10000000</i>
   <i type="logical" name="SELFENERGY"> F  </i>
   <i type="logical" name="LSPECTRAL"> F  </i>
   <i type="logical" name="LSPECTRALGW"> F  </i>
   <i type="logical" name="LSINGLES"> F  </i>
   <i type="logical" name="LFERMIGW"> F  </i>
   <i type="logical" name="ODDONLYGW"> F  </i>
   <i type="logical" name="EVENONLYGW"> F  </i>
   <i type="int" name="NKREDLFX">     1</i>
   <i type="int" name="NKREDLFY">     1</i>
   <i type="int" name="NKREDLFZ">     1</i>
   <i type="int" name="MAXMEM">  2800</i>
   <i type="int" name="TELESCOPE">     0</i>
   <i type="int" name="TAUPAR">     1</i>
   <i type="int" name="OMEGAPAR">    -1</i>
   <i name="LAMBDA">      1.00000000</i>
  </separator>
  <separator name="External order field" >
   <i name="OFIELD_KAPPA">      0.00000000</i>
   <v name="OFIELD_K">      0.00000000      0.00000000      0.00000000</v>
   <i name="OFIELD_Q6_NEAR">      0.00000000</i>
   <i name="OFIELD_Q6_FAR">      0.00000000</i>
   <i name="OFIELD_A">      0.00000000</i>
  </separator>
 </parameters>
 <atominfo>
  <atoms>      20 </atoms>
  <types>       3 </types>
  <array name="atoms" >
   <dimension dim="1">ion</dimension>
   <field type="string">element</field>
   <field type="int">atomtype</field>
   <set>
    <rc><c>O </c><c>   1</c></rc>
    <rc><c>O </c><c>   1</c></rc>
    <rc><c>O </c><c>   1</c></rc>
    <rc><c>O </c><c>   1</c></rc>
    <rc><c>O </c><c>   1</c></rc>
    <rc><c>O </c><c>   1</c></rc>
    <rc><c>O </c><c>   1</c></rc>
    <rc><c>O </c><c>   1</c></rc>
    <rc><c>O </c><c>   1</c></rc>
    <rc><c>O </c><c>   1</c></rc>
    <rc><c>O </c><c>   1</c></rc>
    <rc><c>O </c><c>   1</c></rc>
    <rc><c>Sr</c><c>   2</c></rc>
    <rc><c>Sr</c><c>   2</c></rc>
    <rc><c>Sr</c><c>   2</c></rc>
    <rc><c>Sr</c><c>   2</c></rc>
    <rc><c>Ti</c><c>   3</c></rc>
    <rc><c>Ti</c><c>   3</c></rc>
    <rc><c>Ti</c><c>   3</c></rc>
    <rc><c>Ti</c><c>   3</c></rc>
   </set>
  </array>
  <array name="atomtypes" >
   <dimension dim="1">type</dimension>
   <field type="int">atomspertype</field>
   <field type="string">element</field>
   <field>mass</field>
   <field>valence</field>
   <field type="string">pseudopotential</field>
   <set>
    <rc><c>  12</c><c>O </c><c>     16.00000000</c><c>      6.00000000</c><c> PAW_PBE O 08Apr2002                    </c></rc>
    <rc><c>   4</c><c>Sr</c><c>     87.62000000</c><c>     10.00000000</c><c> PAW_PBE Sr_sv 07Sep2000                </c></rc>
    <rc><c>   4</c><c>Ti</c><c>     47.88000000</c><c>      4.00000000</c><c> PAW_PBE Ti 08Apr2002                   </c></rc>
   </set>
  </array>
 </atominfo>
 <structure name="initialpos" >
  <crystal>
   <varray name="basis" >
    <v>       5.52288297       0.00000000       0.00000000 </v>
    <v>       0.00000000       3.90526800       0.00000000 </v>
    <v>       0.00000000       0.00000000      21.66504520 </v>
   </varray>
   <i name="volume">    467.27902047 </i>
   <varray name="rec_basis" >
    <v>       0.18106485       0.00000000       0.00000000 </v>
    <v>       0.00000000       0.25606437       0.00000000 </v>
    <v>       0.00000000       0.00000000       0.04615730 </v>
   </varray>
  </crystal>
  <varray name="positions" >
   <v>       0.50000000       0.00000000       0.27694380 </v>
   <v>       0.25000000       0.50000000       0.34067414 </v>
   <v>       0.75000000       0.50000000       0.34067414 </v>
   <v>       0.00000000       0.00000000       0.40440449 </v>
   <v>       0.75000000       0.50000000       0.46813483 </v>
   <v>       0.25000000       0.50000000       0.46813483 </v>
   <v>       0.50000000       0.00000000       0.53186517 </v>
   <v>       0.25000000       0.50000000       0.59559551 </v>
   <v>       0.75000000       0.50000000       0.59559551 </v>
   <v>       0.00000000       0.00000000       0.65932586 </v>
   <v>       0.75000000       0.50000000       0.72305620 </v>
   <v>       0.25000000       0.50000000       0.72305620 </v>
   <v>       0.00000000       0.00000000       0.27694380 </v>
   <v>       0.50000000       0.00000000       0.40440449 </v>
   <v>       0.00000000       0.00000000       0.53186517 </v>
   <v>       0.50000000       0.00000000       0.65932586 </v>
   <v>       0.50000000       0.50000000       0.27694380 </v>
   <v>       0.00000000       0.50000000       0.40440449 </v>
   <v>       0.50000000       0.50000000       0.53186517 </v>
   <v>       0.00000000       0.50000000       0.65932586 </v>
  </varray>
 </structure>
 <calculation>
  <scstep>
   <time name="dav">   12.55   12.55</time>
   <time name="total">   12.71   12.74</time>
   <energy>
    <i name="alphaZ">    378.09908315 </i>
    <i name="ewald">  22731.27163923 </i>
    <i name="hartreedc"> -30966.93774878 </i>
    <i name="XCdc">    325.41603597 </i>
    <i name="pawpsdc">   5334.45189010 </i>
    <i name="pawaedc">  -5139.13784255 </i>
    <i name="eentropy">      0.00000000 </i>
    <i name="bandstr">     -4.70380708 </i>
    <i name="atom">   8937.26825017 </i>
    <i name="e_fr_energy">   1595.72750022 </i>
    <i name="e_wo_entrp">   1595.72750022 </i>
    <i name="e_0_energy">   1595.72750022 </i>
   </energy>
  </scstep>
  <scstep>
   <time name="dav">   14.67   14.67</time>
   <time name="total">   14.69   14.69</time>
   <energy>
    <i name="e_fr_energy">    186.67477016 </i>
    <i name="e_wo_entrp">    186.67477016 </i>
    <i name="e_0_energy">    186.67477016 </i>
   </energy>
  </scstep>
  <scstep>
   <time name="dav">   16.21   16.21</time>
   <time name="total">   16.21   16.21</time>
   <energy>
    <i name="e_fr_energy">   -172.26318187 </i>
    <i name="e_wo_entrp">   -172.26318187 </i>
    <i name="e_0_energy">   -172.26318187 </i>
   </energy>
  </scstep>
  <scstep>
   <time name="dav">   15.17   15.17</time>
   <time name="total">   15.18   15.18</time>
   <energy>
    <i name="e_fr_energy">   -197.37324174 </i>
    <i name="e_wo_entrp">   -197.37324174 </i>
    <i name="e_0_energy">   -197.37324174 </i>
   </energy>
  </scstep>
  <scstep>
   <time name="dav">   19.08   19.07</time>
   <time name="total">   19.52   19.51</time>
   <energy>
    <i name="e_fr_energy">   -198.72953270 </i>
    <i name="e_wo_entrp">   -198.72953270 </i>
    <i name="e_0_energy">   -198.72953270 </i>
   </energy>
  </scstep>
  <scstep>
   <time name="diag">    1.43    1.43</time>
   <time name="diis">   11.59   11.58</time>
   <time name="orth">    0.29    0.29</time>
   <time name="total">   13.90   13.90</time>
   <energy>
    <i name="e_fr_energy">   -205.71048897 </i>
    <i name="e_wo_entrp">   -205.71048897 </i>
    <i name="e_0_energy">   -205.71048897 </i>
   </energy>
  </scstep>
  <scstep>
   <time name="diag">    1.43    1.44</time>
   <time name="diis">   10.41   10.40</time>
   <time name="orth">    0.29    0.29</time>
   <time name="total">   12.72   12.72</time>
   <energy>
    <i name="e_fr_energy">   -172.38332476 </i>
    <i name="e_wo_entrp">   -172.38332476 </i>
    <i name="e_0_energy">   -172.38332476 </i>
   </energy>
  </scstep>
  <scstep>
   <time name="diag">    1.44    1.44</time>
   <time name="diis">   10.20   10.20</time>
   <time name="orth">    0.29    0.29</time>
   <time name="total">   12.50   12.50</time>
   <energy>
    <i name="e_fr_energy">   -160.56429723 </i>
    <i name="e_wo_entrp">   -160.56429723 </i>
    <i name="e_0_energy">   -160.56429723 </i>
   </energy>
  </scstep>
  <scstep>
   <time name="diag">    1.39    1.39</time>
   <time name="diis">   11.47   11.46</time>
   <time name="orth">    0.29    0.29</time>
   <time name="total">   13.71   13.71</time>
   <energy>
    <i name="e_fr_energy">   -156.17723080 </i>
    <i name="e_wo_entrp">   -156.17723080 </i>
    <i name="e_0_energy">   -156.17723080 </i>
   </energy>
  </scstep>
  <scstep>
   <time name="diag">    1.44    1.44</time>
   <time name="diis">   10.73   10.73</time>
   <time name="orth">    0.29    0.29</time>
   <time name="total">   13.05   13.05</time>
   <energy>
    <i name="e_fr_energy">   -157.61890289 </i>
    <i name="e_wo_entrp">   -157.61890289 </i>
    <i name="e_0_energy">   -157.61890289 </i>
   </energy>
  </scstep>
  <scstep>
   <time name="diag">    1.45    1.45</time>
   <time name="diis">   13.79   13.78</time>
   <time name="orth">    0.29    0.29</time>
   <time name="total">   16.10   16.10</time>
   <energy>
    <i name="e_fr_energy">   -156.31267521 </i>
    <i name="e_wo_entrp">   -156.31267521 </i>
    <i name="e_0_energy">   -156.31267521 </i>
   </energy>
  </scstep>
  <scstep>
   <time name="diag">    1.40    1.40</time>
   <time name="diis">   13.21   13.21</time>
   <time name="orth">    0.29    0.29</time>
   <time name="total">   15.50   15.50</time>
   <energy>
    <i name="e_fr_energy">   -159.02067313 </i>
    <i name="e_wo_entrp">   -159.02067313 </i>
    <i name="e_0_energy">   -159.02067313 </i>
   </energy>
  </scstep>
  <scstep>
   <time name="diag">    1.40    1.40</time>
   <time name="diis">   15.38   15.37</time>
   <time name="orth">    0.29    0.29</time>
   <time name="total">   17.66   17.66</time>
   <energy>
    <i name="e_fr_energy">   -159.24916364 </i>
    <i name="e_wo_entrp">   -159.24916364 </i>
    <i name="e_0_energy">   -159.24916364 </i>
   </energy>
  </scstep>
  <scstep>
   <time name="diag">    1.38    1.38</time>
   <time name="diis">   14.77   14.77</time>
   <time name="orth">    0.28    0.28</time>
   <time name="total">   17.02   17.02</time>
   <energy>
    <i name="e_fr_energy">   -158.78576550 </i>
    <i name="e_wo_entrp">   -158.78576550 </i>
    <i name="e_0_energy">   -158.78576550 </i>
   </energy>
  </scstep>
  <scstep>
   <time name="diag">    1.41    1.42</time>
   <time name="diis">   11.35   11.35</time>
   <time name="orth">    0.29    0.29</time>
   <time name="total">   13.64   13.64</time>
   <energy>
    <i name="e_fr_energy">   -157.63376814 </i>
    <i name="e_wo_entrp">   -157.63376814 </i>
    <i name="e_0_energy">   -157.63376814 </i>
   </energy>
  </scstep>
  <scstep>
   <time name="diag">    1.43    1.43</time>
   <time name="diis">   10.21   10.21</time>
   <time name="orth">    0.28    0.28</time>
   <time name="total">   12.50   12.50</time>
   <energy>
    <i name="e_fr_energy">   -150.38613642 </i>
    <i name="e_wo_entrp">   -150.38613642 </i>
    <i name="e_0_energy">   -150.38613642 </i>
   </energy>
  </scstep>
  <scstep>
   <time name="diag">    1.43    1.43</time>
   <time name="diis">   11.74   11.74</time>
   <time name="orth">    0.29    0.29</time>
   <time name="total">   14.05   14.05</time>
   <energy>
    <i name="e_fr_energy">   -150.03099437 </i>
    <i name="e_wo_entrp">   -150.03099437 </i>
    <i name="e_0_energy">   -150.03099437 </i>
   </energy>
  </scstep>
  <scstep>
   <time name="diag">    1.39    1.39</time>
   <time name="diis">   13.27   13.26</time>
   <time name="orth">    0.29    0.29</time>
   <time name="total">   15.54   15.54</time>
   <energy>
    <i name="e_fr_energy">   -149.98349847 </i>
    <i name="e_wo_entrp">   -149.98349847 </i>
    <i name="e_0_energy">   -149.98349847 </i>
   </energy>
  </scstep>
  <scstep>
   <time name="diag">    1.39    1.39</time>
   <time name="diis">   10.73   10.73</time>
   <time name="orth">    0.29    0.29</time>
   <time name="total">   13.00   13.00</time>
   <energy>
    <i name="e_fr_energy">   -149.76924330 </i>
    <i name="e_wo_entrp">   -149.76924330 </i>
    <i name="e_0_energy">   -149.76924330 </i>
   </energy>
  </scstep>
  <scstep>
   <time name="diag">    1.45    1.45</time>
   <time name="diis">   10.61   10.61</time>
   <time name="orth">    0.29    0.29</time>
   <time name="total">   12.93   12.93</time>
   <energy>
    <i name="e_fr_energy">   -149.54675182 </i>
    <i name="e_wo_entrp">   -149.54675182 </i>
    <i name="e_0_energy">   -149.54675182 </i>
   </energy>
  </scstep>
  <scstep>
   <time name="diag">    1.42    1.42</time>
   <time name="diis">   11.73   11.73</time>
   <time name="orth">    0.29    0.29</time>
   <time name="total">   14.03   14.02</time>
   <energy>
    <i name="e_fr_energy">   -149.88354008 </i>
    <i name="e_wo_entrp">   -149.88354008 </i>
    <i name="e_0_energy">   -149.88354008 </i>
   </energy>
  </scstep>
  <scstep>
   <time name="diag">    1.36    1.36</time>
   <time name="diis">   11.48   11.48</time>
   <time name="orth">    0.29    0.29</time>
   <time name="total">   13.72   13.72</time>
   <energy>
    <i name="e_fr_energy">   -149.72466232 </i>
    <i name="e_wo_entrp">   -149.72466232 </i>
    <i name="e_0_energy">   -149.72466232 </i>
   </energy>
  </scstep>
  <scstep>
   <time name="diag">    1.38    1.38</time>
   <time name="diis">   10.36   10.36</time>
   <time name="orth">    0.29    0.29</time>
   <time name="total">   12.63   12.63</time>
   <energy>
    <i name="e_fr_energy">   -149.28146941 </i>
    <i name="e_wo_entrp">   -149.28146941 </i>
    <i name="e_0_energy">   -149.28146941 </i>
   </energy>
  </scstep>
  <scstep>
   <time name="diag">    1.43    1.43</time>
   <time name="diis">   11.21   11.21</time>
   <time name="orth">    0.29    0.29</time>
   <time name="total">   13.53   13.53</time>
   <energy>
    <i name="e_fr_energy">   -149.09934559 </i>
    <i name="e_wo_entrp">   -149.09934559 </i>
    <i name="e_0_energy">   -149.09934559 </i>
   </energy>
  </scstep>
  <scstep>
   <time name="diag">    1.43    1.43</time>
   <time name="diis">   11.59   11.58</time>
   <time name="orth">    0.29    0.29</time>
   <time name="total">   13.90   13.90</time>
   <energy>
    <i name="e_fr_energy">   -149.07143405 </i>
    <i name="e_wo_entrp">   -149.07143405 </i>
    <i name="e_0_energy">   -149.07143405 </i>
   </energy>
  </scstep>
  <scstep>
   <time name="diag">    1.37    1.37</time>
   <time name="diis">   10.27   10.27</time>
   <time name="orth">    0.29    0.29</time>
   <time name="total">   12.52   12.53</time>
   <energy>
    <i name="e_fr_energy">   -148.91713423 </i>
    <i name="e_wo_entrp">   -148.91713423 </i>
    <i name="e_0_energy">   -148.91713423 </i>
   </energy>
  </scstep>
  <scstep>
   <time name="diag">    1.43    1.43</time>
   <time name="diis">   10.81   10.81</time>
   <time name="orth">    0.29    0.29</time>
   <time name="total">   13.11   13.11</time>
   <energy>
    <i name="e_fr_energy">   -148.80092988 </i>
    <i name="e_wo_entrp">   -148.80092988 </i>
    <i name="e_0_energy">   -148.80092988 </i>
   </energy>
  </scstep>
  <scstep>
   <time name="diag">    1.34    1.34</time>
   <time name="diis">   11.67   11.67</time>
   <time name="orth">    0.26    0.26</time>
   <time name="total">   13.81   13.81</time>
   <energy>
    <i name="e_fr_energy">   -148.79951466 </i>
    <i name="e_wo_entrp">   -148.79951466 </i>
    <i name="e_0_energy">   -148.79951466 </i>
   </energy>
  </scstep>
  <scstep>
   <time name="diag">    1.19    1.19</time>
   <time name="diis">    8.44    8.44</time>
   <time name="orth">    0.25    0.25</time>
   <time name="total">   10.41   10.41</time>
   <energy>
    <i name="e_fr_energy">   -148.80352155 </i>
    <i name="e_wo_entrp">   -148.80352155 </i>
    <i name="e_0_energy">   -148.80352155 </i>
   </energy>
  </scstep>
  <scstep>
   <time name="diag">    1.19    1.19</time>
   <time name="diis">   10.15   10.15</time>
   <time name="orth">    0.25    0.25</time>
   <time name="total">   12.11   12.11</time>
   <energy>
    <i name="e_fr_energy">   -148.78958112 </i>
    <i name="e_wo_entrp">   -148.78958112 </i>
    <i name="e_0_energy">   -148.78958112 </i>
   </energy>
  </scstep>
  <scstep>
   <time name="diag">    1.20    1.20</time>
   <time name="diis">    8.40    8.40</time>
   <time name="orth">    0.25    0.25</time>
   <time name="total">   10.37   10.38</time>
   <energy>
    <i name="e_fr_energy">   -148.77087681 </i>
    <i name="e_wo_entrp">   -148.77087681 </i>
    <i name="e_0_energy">   -148.77087681 </i>
   </energy>
  </scstep>
  <scstep>
   <time name="diag">    1.19    1.19</time>
   <time name="diis">    8.78    8.77</time>
   <time name="orth">    0.25    0.25</time>
   <time name="total">   10.75   10.75</time>
   <energy>
    <i name="e_fr_energy">   -148.74600155 </i>
    <i name="e_wo_entrp">   -148.74600155 </i>
    <i name="e_0_energy">   -148.74600155 </i>
   </energy>
  </scstep>
  <scstep>
   <time name="diag">    1.20    1.20</time>
   <time name="diis">    8.65    8.65</time>
   <time name="orth">    0.25    0.25</time>
   <time name="total">   10.62   10.63</time>
   <energy>
    <i name="e_fr_energy">   -148.73136810 </i>
    <i name="e_wo_entrp">   -148.73136810 </i>
    <i name="e_0_energy">   -148.73136810 </i>
   </energy>
  </scstep>
  <scstep>
   <time name="diag">    1.20    1.20</time>
   <time name="diis">    8.76    8.76</time>
   <time name="orth">    0.25    0.25</time>
   <time name="total">   10.73   10.73</time>
   <energy>
    <i name="e_fr_energy">   -148.72361849 </i>
    <i name="e_wo_entrp">   -148.72361849 </i>
    <i name="e_0_energy">   -148.72361849 </i>
   </energy>
  </scstep>
  <scstep>
   <time name="diag">    1.19    1.19</time>
   <time name="diis">    9.58    9.58</time>
   <time name="orth">    0.25    0.25</time>
   <time name="total">   11.55   11.55</time>
   <energy>
    <i name="e_fr_energy">   -148.72831625 </i>
    <i name="e_wo_entrp">   -148.72831625 </i>
    <i name="e_0_energy">   -148.72831625 </i>
   </energy>
  </scstep>
  <scstep>
   <time name="diag">    1.19    1.19</time>
   <time name="diis">    8.99    8.99</time>
   <time name="orth">    0.25    0.25</time>
   <time name="total">   10.96   10.96</time>
   <energy>
    <i name="e_fr_energy">   -148.71898336 </i>
    <i name="e_wo_entrp">   -148.71898336 </i>
    <i name="e_0_energy">   -148.71898336 </i>
   </energy>
  </scstep>
  <scstep>
   <time name="diag">    1.20    1.20</time>
   <time name="diis">    8.95    8.95</time>
   <time name="orth">    0.25    0.25</time>
   <time name="total">   10.92   10.92</time>
   <energy>
    <i name="e_fr_energy">   -148.71836188 </i>
    <i name="e_wo_entrp">   -148.71836188 </i>
    <i name="e_0_energy">   -148.71836188 </i>
   </energy>
  </scstep>
  <scstep>
   <time name="diag">    1.19    1.19</time>
   <time name="diis">    9.33    9.32</time>
   <time name="orth">    0.25    0.25</time>
   <time name="total">   11.30   11.30</time>
   <energy>
    <i name="e_fr_energy">   -148.71875735 </i>
    <i name="e_wo_entrp">   -148.71875735 </i>
    <i name="e_0_energy">   -148.71875735 </i>
   </energy>
  </scstep>
  <scstep>
   <time name="diag">    1.19    1.19</time>
   <time name="diis">    8.77    8.77</time>
   <time name="orth">    0.25    0.25</time>
   <time name="total">   10.73   10.73</time>
   <energy>
    <i name="e_fr_energy">   -148.71832079 </i>
    <i name="e_wo_entrp">   -148.71832079 </i>
    <i name="e_0_energy">   -148.71832079 </i>
   </energy>
  </scstep>
  <scstep>
   <time name="diag">    1.20    1.20</time>
   <time name="diis">    8.47    8.47</time>
   <time name="orth">    0.25    0.25</time>
   <time name="total">   10.44   10.44</time>
   <energy>
    <i name="e_fr_energy">   -148.71874591 </i>
    <i name="e_wo_entrp">   -148.71874591 </i>
    <i name="e_0_energy">   -148.71874591 </i>
   </energy>
  </scstep>
  <scstep>
   <time name="diag">    1.19    1.19</time>
   <time name="diis">    8.16    8.15</time>
   <time name="orth">    0.25    0.25</time>
   <time name="total">   10.13   10.13</time>
   <energy>
    <i name="e_fr_energy">   -148.71793259 </i>
    <i name="e_wo_entrp">   -148.71793259 </i>
    <i name="e_0_energy">   -148.71793259 </i>
   </energy>
  </scstep>
  <scstep>
   <time name="diag">    1.19    1.19</time>
   <time name="diis">    7.63    7.63</time>
   <time name="orth">    0.25    0.25</time>
   <time name="total">    9.61    9.61</time>
   <energy>
    <i name="e_fr_energy">   -148.71797308 </i>
    <i name="e_wo_entrp">   -148.71797308 </i>
    <i name="e_0_energy">   -148.71797308 </i>
   </energy>
  </scstep>
  <scstep>
   <time name="diag">    1.19    1.19</time>
   <time name="diis">    8.32    8.32</time>
   <time name="orth">    0.25    0.25</time>
   <time name="total">   10.29   10.30</time>
   <energy>
    <i name="e_fr_energy">   -148.71827027 </i>
    <i name="e_wo_entrp">   -148.71827027 </i>
    <i name="e_0_energy">   -148.71827027 </i>
   </energy>
  </scstep>
  <scstep>
   <time name="diag">    1.19    1.19</time>
   <time name="diis">    6.82    6.82</time>
   <time name="orth">    0.25    0.25</time>
   <time name="total">    8.79    8.79</time>
   <energy>
    <i name="e_fr_energy">   -148.71825340 </i>
    <i name="e_wo_entrp">   -148.71825340 </i>
    <i name="e_0_energy">   -148.71825340 </i>
   </energy>
  </scstep>
  <scstep>
   <time name="diag">    1.19    1.19</time>
   <time name="diis">    6.77    6.77</time>
   <time name="orth">    0.25    0.25</time>
   <time name="total">    8.74    8.74</time>
   <energy>
    <i name="e_fr_energy">   -148.71834688 </i>
    <i name="e_wo_entrp">   -148.71834688 </i>
    <i name="e_0_energy">   -148.71834688 </i>
   </energy>
  </scstep>
  <scstep>
   <time name="diag">    1.19    1.19</time>
   <time name="diis">    6.85    6.85</time>
   <time name="orth">    0.25    0.25</time>
   <time name="total">    8.82    8.82</time>
   <energy>
    <i name="e_fr_energy">   -148.71857816 </i>
    <i name="e_wo_entrp">   -148.71857816 </i>
    <i name="e_0_energy">   -148.71857816 </i>
   </energy>
  </scstep>
  <scstep>
   <time name="diag">    1.19    1.19</time>
   <time name="diis">    6.99    6.99</time>
   <time name="orth">    0.25    0.25</time>
   <time name="total">    8.96    8.97</time>
   <energy>
    <i name="e_fr_energy">   -148.71849604 </i>
    <i name="e_wo_entrp">   -148.71849604 </i>
    <i name="e_0_energy">   -148.71849604 </i>
   </energy>
  </scstep>
  <scstep>
   <time name="diag">    1.20    1.20</time>
   <time name="diis">    5.27    5.26</time>
   <time name="orth">    0.25    0.25</time>
   <time name="total">    7.24    7.24</time>
   <energy>
    <i name="e_fr_energy">   -148.71852220 </i>
    <i name="e_wo_entrp">   -148.71852220 </i>
    <i name="e_0_energy">   -148.71852220 </i>
   </energy>
  </scstep>
  <scstep>
   <time name="diag">    1.19    1.19</time>
   <time name="diis">    5.21    5.21</time>
   <time name="orth">    0.25    0.25</time>
   <time name="total">    7.17    7.18</time>
   <energy>
    <i name="e_fr_energy">   -148.71850685 </i>
    <i name="e_wo_entrp">   -148.71850685 </i>
    <i name="e_0_energy">   -148.71850685 </i>
   </energy>
  </scstep>
  <scstep>
   <time name="diag">    1.19    1.19</time>
   <time name="diis">    4.91    4.91</time>
   <time name="orth">    0.25    0.25</time>
   <time name="total">    6.88    6.88</time>
   <energy>
    <i name="e_fr_energy">   -148.71852001 </i>
    <i name="e_wo_entrp">   -148.71852001 </i>
    <i name="e_0_energy">   -148.71852001 </i>
   </energy>
  </scstep>
  <scstep>
   <time name="diag">    1.19    1.19</time>
   <time name="diis">    5.13    5.13</time>
   <time name="orth">    0.26    0.26</time>
   <time name="total">    7.11    7.11</time>
   <energy>
    <i name="e_fr_energy">   -148.71849789 </i>
    <i name="e_wo_entrp">   -148.71849789 </i>
    <i name="e_0_energy">   -148.71849789 </i>
   </energy>
  </scstep>
  <scstep>
   <time name="diag">    1.20    1.20</time>
   <time name="diis">    5.40    5.40</time>
   <time name="orth">    0.25    0.25</time>
   <time name="total">    7.38    7.38</time>
   <energy>
    <i name="e_fr_energy">   -148.71852688 </i>
    <i name="e_wo_entrp">   -148.71852688 </i>
    <i name="e_0_energy">   -148.71852688 </i>
   </energy>
  </scstep>
  <scstep>
   <time name="diag">    1.19    1.19</time>
   <time name="diis">    6.15    6.15</time>
   <time name="orth">    0.25    0.25</time>
   <time name="total">    8.12    8.13</time>
   <energy>
    <i name="e_fr_energy">   -148.71845146 </i>
    <i name="e_wo_entrp">   -148.71845146 </i>
    <i name="e_0_energy">   -148.71845146 </i>
   </energy>
  </scstep>
  <scstep>
   <time name="diag">    1.19    1.20</time>
   <time name="diis">    5.10    5.10</time>
   <time name="orth">    0.25    0.25</time>
   <time name="total">    6.67    6.67</time>
   <energy>
    <i name="alphaZ">    378.09908315 </i>
    <i name="ewald">  22731.27163923 </i>
    <i name="hartreedc"> -31287.97627292 </i>
    <i name="XCdc">    340.18062636 </i>
    <i name="pawpsdc">   6163.82782443 </i>
    <i name="pawaedc">  -5993.36420510 </i>
    <i name="eentropy">      0.00000000 </i>
    <i name="bandstr">  -1418.02539504 </i>
    <i name="atom">   8937.26825017 </i>
    <i name="e_fr_energy">   -148.71844971 </i>
    <i name="e_wo_entrp">   -148.71844971 </i>
    <i name="e_0_energy">   -148.71844971 </i>
   </energy>
  </scstep>
  <structure>
   <crystal>
    <varray name="basis" >
     <v>       5.52288297       0.00000000       0.00000000 </v>
     <v>       0.00000000       3.90526800       0.00000000 </v>
     <v>       0.00000000       0.00000000      21.66504520 </v>
    </varray>
    <i name="volume">    467.27902047 </i>
    <varray name="rec_basis" >
     <v>       0.18106485       0.00000000       0.00000000 </v>
     <v>       0.00000000       0.25606437       0.00000000 </v>
     <v>       0.00000000       0.00000000       0.04615730 </v>
    </varray>
   </crystal>
   <varray name="positions" >
    <v>       0.50000000       0.00000000       0.27694380 </v>
    <v>       0.25000000       0.50000000       0.34067414 </v>
    <v>       0.75000000       0.50000000       0.34067414 </v>
    <v>       0.00000000       0.00000000       0.40440449 </v>
    <v>       0.75000000       0.50000000       0.46813483 </v>
    <v>       0.25000000       0.50000000       0.46813483 </v>
    <v>       0.50000000       0.00000000       0.53186517 </v>
    <v>       0.25000000       0.50000000       0.59559551 </v>
    <v>       0.75000000       0.50000000       0.59559551 </v>
    <v>       0.00000000       0.00000000       0.65932586 </v>
    <v>       0.75000000       0.50000000       0.72305620 </v>
    <v>       0.25000000       0.50000000       0.72305620 </v>
    <v>       0.00000000       0.00000000       0.27694380 </v>
    <v>       0.50000000       0.00000000       0.40440449 </v>
    <v>       0.00000000       0.00000000       0.53186517 </v>
    <v>       0.50000000       0.00000000       0.65932586 </v>
    <v>       0.50000000       0.50000000       0.27694380 </v>
    <v>       0.00000000       0.50000000       0.40440449 </v>
    <v>       0.50000000       0.50000000       0.53186517 </v>
    <v>       0.00000000       0.50000000       0.65932586 </v>
   </varray>
  </structure>
  <varray name="forces" >
   <v>       0.00000000      -0.00000000      -1.51846957 </v>
   <v>       0.71242646      -0.00000000      -2.11590898 </v>
   <v>      -0.71242646      -0.00000000      -2.11590898 </v>
   <v>       0.00000000      -0.00000000      -0.77105682 </v>
   <v>       0.56734144      -0.00000000      -1.29977828 </v>
   <v>      -0.56734144       0.00000000      -1.29977828 </v>
   <v>       0.00000000      -0.00000000      -0.59674345 </v>
   <v>       0.80060577      -0.00000000      -1.49574555 </v>
   <v>      -0.80060577      -0.00000000      -1.49574555 </v>
   <v>       0.00000000      -0.00000000      -1.08631079 </v>
   <v>       0.23035955      -0.00000000      -1.05182516 </v>
   <v>      -0.23035955       0.00000000      -1.05182516 </v>
   <v>       0.00000000      -0.00000000       0.96448791 </v>
   <v>       0.00000000      -0.00000000       0.97152984 </v>
   <v>       0.00000000      -0.00000000       0.75348024 </v>
   <v>       0.00000000      -0.00000000       1.61427227 </v>
   <v>       0.00000000      -0.00000000       2.37879941 </v>
   <v>       0.00000000      -0.00000000       2.65986909 </v>
   <v>       0.00000000      -0.00000000       2.41060119 </v>
   <v>       0.00000000      -0.00000000       4.14605663 </v>
  </varray>
  <varray name="stress" >
   <v>      14.60715040       0.00000000       0.00000000 </v>
   <v>       0.00000000      31.17636082       0.00000000 </v>
   <v>       0.00000000       0.00000000       8.32700723 </v>
  </varray>
  <energy>
   <i name="e_fr_energy">   -148.71844971 </i>
   <i name="e_wo_entrp">   -148.71844971 </i>
   <i name="e_0_energy">      0.00000000 </i>
  </energy>
  <time name="totalsc">  661.56  662.17</time>
  <eigenvalues>
   <array>
    <dimension dim="1">band</dimension>
    <dimension dim="2">kpoint</dimension>
    <dimension dim="3">spin</dimension>
    <field>eigene</field>
    <field>occ</field>
    <set>
     <set comment="spin 1">
      <set comment="kpoint 1">
       <r>  -36.6374    1.0000 </r>
       <r>  -35.2826    1.0000 </r>
       <r>  -34.3163    1.0000 </r>
       <r>  -33.4133    1.0000 </r>
       <r>  -20.5242    1.0000 </r>
       <r>  -20.0516    1.0000 </r>
       <r>  -19.8764    1.0000 </r>
       <r>  -19.3728    1.0000 </r>
       <r>  -19.0591    1.0000 </r>
       <r>  -18.6933    1.0000 </r>
       <r>  -18.6397    1.0000 </r>
       <r>  -18.5620    1.0000 </r>
       <r>  -18.5554    1.0000 </r>
       <r>  -18.3645    1.0000 </r>
       <r>  -18.0989    1.0000 </r>
       <r>  -17.8228    1.0000 </r>
       <r>  -17.3261    1.0000 </r>
       <r>  -17.3258    1.0000 </r>
       <r>  -17.1483    1.0000 </r>
       <r>  -17.0683    1.0000 </r>
       <r>  -16.4903    1.0000 </r>
       <r>  -16.3534    1.0000 </r>
       <r>  -16.2719    1.0000 </r>
       <r>  -16.1588    1.0000 </r>
       <r>  -16.1033    1.0000 </r>
       <r>  -15.4267    1.0000 </r>
       <r>  -15.1599    1.0000 </r>
       <r>  -15.1083    1.0000 </r>
       <r>   -7.1314    1.0000 </r>
       <r>   -6.8190    1.0000 </r>
       <r>   -6.6551    1.0000 </r>
       <r>   -6.0260    1.0000 </r>
       <r>   -5.8994    1.0000 </r>
       <r>   -5.5480    1.0000 </r>
       <r>   -5.4658    1.0000 </r>
       <r>   -5.3033    1.0000 </r>
       <r>   -5.1506    1.0000 </r>
       <r>   -5.0743    1.0000 </r>
       <r>   -5.0106    1.0000 </r>
       <r>   -4.8556    1.0000 </r>
       <r>   -4.7747    1.0000 </r>
       <r>   -4.5804    1.0000 </r>
       <r>   -4.2571    1.0000 </r>
       <r>   -4.1260    1.0000 </r>
       <r>   -4.0920    1.0000 </r>
       <r>   -4.0178    1.0000 </r>
       <r>   -3.8062    1.0000 </r>
       <r>   -3.7831    1.0000 </r>
       <r>   -3.5566    1.0000 </r>
       <r>   -3.2518    1.0000 </r>
       <r>   -3.0205    1.0000 </r>
       <r>   -2.9322    1.0000 </r>
       <r>   -2.8788    1.0000 </r>
       <r>   -2.7179    1.0000 </r>
       <r>   -2.6708    1.0000 </r>
       <r>   -2.4052    1.0000 </r>
       <r>   -2.3061    1.0000 </r>
       <r>   -1.9613    1.0000 </r>
       <r>   -1.9250    1.0000 </r>
       <r>   -1.3623    1.0000 </r>
       <r>   -1.3378    1.0000 </r>
       <r>   -1.0888    1.0000 </r>
       <r>   -1.0742    1.0000 </r>
       <r>   -1.0579    1.0000 </r>
       <r>   -0.8844    1.0478 </r>
       <r>   -0.7839    0.1046 </r>
       <r>   -0.7728    0.0000 </r>
       <r>   -0.4463    0.0000 </r>
       <r>    0.0494    0.0000 </r>
       <r>    0.2779    0.0000 </r>
       <r>    0.3732    0.0000 </r>
       <r>    0.6361    0.0000 </r>
       <r>    1.3068    0.0000 </r>
       <r>    1.6276    0.0000 </r>
       <r>    2.6565    0.0000 </r>
       <r>    4.1348    0.0000 </r>
      </set>
      <set comment="kpoint 2">
       <r>  -36.6372    1.0000 </r>
       <r>  -35.2824    1.0000 </r>
       <r>  -34.3161    1.0000 </r>
       <r>  -33.4131    1.0000 </r>
       <r>  -20.5665    1.0000 </r>
       <r>  -20.1843    1.0000 </r>
       <r>  -19.7630    1.0000 </r>
       <r>  -19.3675    1.0000 </r>
       <r>  -19.1164    1.0000 </r>
       <r>  -18.7307    1.0000 </r>
       <r>  -18.6399    1.0000 </r>
       <r>  -18.5248    1.0000 </r>
       <r>  -18.4470    1.0000 </r>
       <r>  -18.3705    1.0000 </r>
       <r>  -18.1535    1.0000 </r>
       <r>  -17.7970    1.0000 </r>
       <r>  -17.3265    1.0000 </r>
       <r>  -17.3132    1.0000 </r>
       <r>  -17.1187    1.0000 </r>
       <r>  -17.0737    1.0000 </r>
       <r>  -16.4713    1.0000 </r>
       <r>  -16.3539    1.0000 </r>
       <r>  -16.2718    1.0000 </r>
       <r>  -16.1537    1.0000 </r>
       <r>  -16.0455    1.0000 </r>
       <r>  -15.4273    1.0000 </r>
       <r>  -15.1649    1.0000 </r>
       <r>  -15.0969    1.0000 </r>
       <r>   -7.0059    1.0000 </r>
       <r>   -6.7943    1.0000 </r>
       <r>   -6.6773    1.0000 </r>
       <r>   -6.0064    1.0000 </r>
       <r>   -5.7916    1.0000 </r>
       <r>   -5.6065    1.0000 </r>
       <r>   -5.5354    1.0000 </r>
       <r>   -5.3215    1.0000 </r>
       <r>   -5.1740    1.0000 </r>
       <r>   -5.1441    1.0000 </r>
       <r>   -4.9564    1.0000 </r>
       <r>   -4.7799    1.0000 </r>
       <r>   -4.7226    1.0000 </r>
       <r>   -4.6343    1.0000 </r>
       <r>   -4.3507    1.0000 </r>
       <r>   -4.2733    1.0000 </r>
       <r>   -4.0887    1.0000 </r>
       <r>   -4.0601    1.0000 </r>
       <r>   -3.9301    1.0000 </r>
       <r>   -3.7539    1.0000 </r>
       <r>   -3.5214    1.0000 </r>
       <r>   -3.3435    1.0000 </r>
       <r>   -3.1112    1.0000 </r>
       <r>   -3.0261    1.0000 </r>
       <r>   -2.8926    1.0000 </r>
       <r>   -2.7856    1.0000 </r>
       <r>   -2.6492    1.0000 </r>
       <r>   -2.5032    1.0000 </r>
       <r>   -2.3116    1.0000 </r>
       <r>   -2.1379    1.0000 </r>
       <r>   -1.9057    1.0000 </r>
       <r>   -1.3828    1.0000 </r>
       <r>   -1.3704    1.0000 </r>
       <r>   -1.1009    1.0000 </r>
       <r>   -1.0861    1.0000 </r>
       <r>   -0.9889    1.0000 </r>
       <r>   -0.8872    1.0242 </r>
       <r>   -0.7551    0.0675 </r>
       <r>   -0.6862    0.0000 </r>
       <r>   -0.5922    0.0000 </r>
       <r>    0.0656    0.0000 </r>
       <r>    0.3080    0.0000 </r>
       <r>    0.3540    0.0000 </r>
       <r>    0.7603    0.0000 </r>
       <r>    1.2805    0.0000 </r>
       <r>    1.3126    0.0000 </r>
       <r>    2.5894    0.0000 </r>
       <r>    4.2050    0.0000 </r>
      </set>
      <set comment="kpoint 3">
       <r>  -36.6367    1.0000 </r>
       <r>  -35.2819    1.0000 </r>
       <r>  -34.3156    1.0000 </r>
       <r>  -33.4127    1.0000 </r>
       <r>  -20.6563    1.0000 </r>
       <r>  -20.3028    1.0000 </r>
       <r>  -19.6980    1.0000 </r>
       <r>  -19.3341    1.0000 </r>
       <r>  -19.2137    1.0000 </r>
       <r>  -18.7496    1.0000 </r>
       <r>  -18.6404    1.0000 </r>
       <r>  -18.4376    1.0000 </r>
       <r>  -18.3816    1.0000 </r>
       <r>  -18.3282    1.0000 </r>
       <r>  -18.2257    1.0000 </r>
       <r>  -17.7723    1.0000 </r>
       <r>  -17.3274    1.0000 </r>
       <r>  -17.2954    1.0000 </r>
       <r>  -17.0811    1.0000 </r>
       <r>  -17.0560    1.0000 </r>
       <r>  -16.4159    1.0000 </r>
       <r>  -16.3549    1.0000 </r>
       <r>  -16.2919    1.0000 </r>
       <r>  -16.0896    1.0000 </r>
       <r>  -15.9891    1.0000 </r>
       <r>  -15.4287    1.0000 </r>
       <r>  -15.1676    1.0000 </r>
       <r>  -15.0706    1.0000 </r>
       <r>   -6.8574    1.0000 </r>
       <r>   -6.7210    1.0000 </r>
       <r>   -6.5265    1.0000 </r>
       <r>   -5.9572    1.0000 </r>
       <r>   -5.7758    1.0000 </r>
       <r>   -5.6542    1.0000 </r>
       <r>   -5.5898    1.0000 </r>
       <r>   -5.4894    1.0000 </r>
       <r>   -5.2451    1.0000 </r>
       <r>   -5.0149    1.0000 </r>
       <r>   -4.9370    1.0000 </r>
       <r>   -4.8465    1.0000 </r>
       <r>   -4.6591    1.0000 </r>
       <r>   -4.6415    1.0000 </r>
       <r>   -4.5818    1.0000 </r>
       <r>   -4.4843    1.0000 </r>
       <r>   -4.1163    1.0000 </r>
       <r>   -4.0907    1.0000 </r>
       <r>   -3.9493    1.0000 </r>
       <r>   -3.6693    1.0000 </r>
       <r>   -3.6162    1.0000 </r>
       <r>   -3.6020    1.0000 </r>
       <r>   -3.3825    1.0000 </r>
       <r>   -3.0821    1.0000 </r>
       <r>   -3.0513    1.0000 </r>
       <r>   -2.9019    1.0000 </r>
       <r>   -2.6384    1.0000 </r>
       <r>   -2.5430    1.0000 </r>
       <r>   -2.4037    1.0000 </r>
       <r>   -2.3262    1.0000 </r>
       <r>   -1.7971    1.0000 </r>
       <r>   -1.4921    1.0000 </r>
       <r>   -1.4342    1.0000 </r>
       <r>   -1.0820    1.0000 </r>
       <r>   -1.0723    1.0000 </r>
       <r>   -0.9294    1.0000 </r>
       <r>   -0.9089    1.0000 </r>
       <r>   -0.8531    0.8590 </r>
       <r>   -0.7400    0.0000 </r>
       <r>   -0.4801    0.0000 </r>
       <r>    0.0474    0.0000 </r>
       <r>    0.3101    0.0000 </r>
       <r>    0.3726    0.0000 </r>
       <r>    0.9215    0.0000 </r>
       <r>    1.2874    0.0000 </r>
       <r>    1.3224    0.0000 </r>
       <r>    1.7734    0.0000 </r>
       <r>    2.6366    0.0000 </r>
      </set>
      <set comment="kpoint 4">
       <r>  -36.6365    1.0000 </r>
       <r>  -35.2816    1.0000 </r>
       <r>  -34.3153    1.0000 </r>
       <r>  -33.4125    1.0000 </r>
       <r>  -20.7012    1.0000 </r>
       <r>  -20.3417    1.0000 </r>
       <r>  -19.6882    1.0000 </r>
       <r>  -19.3129    1.0000 </r>
       <r>  -19.2589    1.0000 </r>
       <r>  -18.7514    1.0000 </r>
       <r>  -18.6406    1.0000 </r>
       <r>  -18.3967    1.0000 </r>
       <r>  -18.3828    1.0000 </r>
       <r>  -18.2930    1.0000 </r>
       <r>  -18.2466    1.0000 </r>
       <r>  -17.7648    1.0000 </r>
       <r>  -17.3279    1.0000 </r>
       <r>  -17.2898    1.0000 </r>
       <r>  -17.0761    1.0000 </r>
       <r>  -17.0317    1.0000 </r>
       <r>  -16.3732    1.0000 </r>
       <r>  -16.3553    1.0000 </r>
       <r>  -16.3085    1.0000 </r>
       <r>  -16.0549    1.0000 </r>
       <r>  -15.9759    1.0000 </r>
       <r>  -15.4293    1.0000 </r>
       <r>  -15.1665    1.0000 </r>
       <r>  -15.0542    1.0000 </r>
       <r>   -6.8444    1.0000 </r>
       <r>   -6.7350    1.0000 </r>
       <r>   -6.0328    1.0000 </r>
       <r>   -6.0099    1.0000 </r>
       <r>   -5.9215    1.0000 </r>
       <r>   -5.7166    1.0000 </r>
       <r>   -5.6572    1.0000 </r>
       <r>   -5.5534    1.0000 </r>
       <r>   -5.3898    1.0000 </r>
       <r>   -5.1687    1.0000 </r>
       <r>   -4.7379    1.0000 </r>
       <r>   -4.7154    1.0000 </r>
       <r>   -4.7111    1.0000 </r>
       <r>   -4.6495    1.0000 </r>
       <r>   -4.5150    1.0000 </r>
       <r>   -4.4087    1.0000 </r>
       <r>   -4.3658    1.0000 </r>
       <r>   -4.1268    1.0000 </r>
       <r>   -4.0499    1.0000 </r>
       <r>   -3.8133    1.0000 </r>
       <r>   -3.7748    1.0000 </r>
       <r>   -3.3511    1.0000 </r>
       <r>   -3.3043    1.0000 </r>
       <r>   -3.2649    1.0000 </r>
       <r>   -3.0984    1.0000 </r>
       <r>   -3.0708    1.0000 </r>
       <r>   -2.8534    1.0000 </r>
       <r>   -2.4944    1.0000 </r>
       <r>   -2.3505    1.0000 </r>
       <r>   -2.3386    1.0000 </r>
       <r>   -1.6451    1.0000 </r>
       <r>   -1.5520    1.0000 </r>
       <r>   -1.4636    1.0000 </r>
       <r>   -1.2519    1.0000 </r>
       <r>   -1.0702    1.0000 </r>
       <r>   -1.0206    1.0000 </r>
       <r>   -0.8458    1.0000 </r>
       <r>   -0.8023    0.5806 </r>
       <r>   -0.7586    0.0000 </r>
       <r>   -0.3821    0.0000 </r>
       <r>    0.0133    0.0000 </r>
       <r>    0.2987    0.0000 </r>
       <r>    0.3889    0.0000 </r>
       <r>    0.9693    0.0000 </r>
       <r>    1.3136    0.0000 </r>
       <r>    1.8237    0.0000 </r>
       <r>    2.6081    0.0000 </r>
       <r>    2.7340    0.0000 </r>
      </set>
      <set comment="kpoint 5">
       <r>  -36.6352    1.0000 </r>
       <r>  -35.2802    1.0000 </r>
       <r>  -34.3139    1.0000 </r>
       <r>  -33.4109    1.0000 </r>
       <r>  -20.4904    1.0000 </r>
       <r>  -20.0260    1.0000 </r>
       <r>  -19.8475    1.0000 </r>
       <r>  -19.3460    1.0000 </r>
       <r>  -19.0721    1.0000 </r>
       <r>  -18.6660    1.0000 </r>
       <r>  -18.6493    1.0000 </r>
       <r>  -18.5737    1.0000 </r>
       <r>  -18.5369    1.0000 </r>
       <r>  -18.3395    1.0000 </r>
       <r>  -18.1079    1.0000 </r>
       <r>  -17.7975    1.0000 </r>
       <r>  -17.3142    1.0000 </r>
       <r>  -17.2881    1.0000 </r>
       <r>  -17.1785    1.0000 </r>
       <r>  -17.0794    1.0000 </r>
       <r>  -16.5218    1.0000 </r>
       <r>  -16.3269    1.0000 </r>
       <r>  -16.2586    1.0000 </r>
       <r>  -16.1820    1.0000 </r>
       <r>  -16.1147    1.0000 </r>
       <r>  -15.3935    1.0000 </r>
       <r>  -15.1795    1.0000 </r>
       <r>  -15.1484    1.0000 </r>
       <r>   -7.0923    1.0000 </r>
       <r>   -6.7780    1.0000 </r>
       <r>   -6.6516    1.0000 </r>
       <r>   -6.2459    1.0000 </r>
       <r>   -5.8658    1.0000 </r>
       <r>   -5.7407    1.0000 </r>
       <r>   -5.5502    1.0000 </r>
       <r>   -5.3408    1.0000 </r>
       <r>   -5.2514    1.0000 </r>
       <r>   -5.1977    1.0000 </r>
       <r>   -4.9924    1.0000 </r>
       <r>   -4.9756    1.0000 </r>
       <r>   -4.8534    1.0000 </r>
       <r>   -4.6036    1.0000 </r>
       <r>   -4.4129    1.0000 </r>
       <r>   -4.3176    1.0000 </r>
       <r>   -4.0615    1.0000 </r>
       <r>   -4.0474    1.0000 </r>
       <r>   -3.9131    1.0000 </r>
       <r>   -3.7237    1.0000 </r>
       <r>   -3.7235    1.0000 </r>
       <r>   -3.3599    1.0000 </r>
       <r>   -3.0387    1.0000 </r>
       <r>   -3.0033    1.0000 </r>
       <r>   -2.9209    1.0000 </r>
       <r>   -2.8412    1.0000 </r>
       <r>   -2.6915    1.0000 </r>
       <r>   -2.4820    1.0000 </r>
       <r>   -2.3758    1.0000 </r>
       <r>   -1.9899    1.0000 </r>
       <r>   -1.9652    1.0000 </r>
       <r>   -1.4477    1.0000 </r>
       <r>   -1.3050    1.0000 </r>
       <r>   -1.1136    1.0000 </r>
       <r>   -1.0141    1.0000 </r>
       <r>   -1.0049    1.0000 </r>
       <r>   -0.7704    0.4872 </r>
       <r>   -0.7501   -0.0070 </r>
       <r>   -0.5863    0.0000 </r>
       <r>   -0.4504    0.0000 </r>
       <r>    0.0835    0.0000 </r>
       <r>    0.3967    0.0000 </r>
       <r>    0.4841    0.0000 </r>
       <r>    0.6556    0.0000 </r>
       <r>    1.3460    0.0000 </r>
       <r>    1.4256    0.0000 </r>
       <r>    2.7343    0.0000 </r>
       <r>    4.1757    0.0000 </r>
      </set>
      <set comment="kpoint 6">
       <r>  -36.6350    1.0000 </r>
       <r>  -35.2800    1.0000 </r>
       <r>  -34.3136    1.0000 </r>
       <r>  -33.4108    1.0000 </r>
       <r>  -20.5238    1.0000 </r>
       <r>  -20.1573    1.0000 </r>
       <r>  -19.7448    1.0000 </r>
       <r>  -19.3446    1.0000 </r>
       <r>  -19.1139    1.0000 </r>
       <r>  -18.7273    1.0000 </r>
       <r>  -18.6339    1.0000 </r>
       <r>  -18.5364    1.0000 </r>
       <r>  -18.4340    1.0000 </r>
       <r>  -18.3480    1.0000 </r>
       <r>  -18.1538    1.0000 </r>
       <r>  -17.7826    1.0000 </r>
       <r>  -17.3085    1.0000 </r>
       <r>  -17.2859    1.0000 </r>
       <r>  -17.1418    1.0000 </r>
       <r>  -17.0880    1.0000 </r>
       <r>  -16.5020    1.0000 </r>
       <r>  -16.3305    1.0000 </r>
       <r>  -16.2543    1.0000 </r>
       <r>  -16.1807    1.0000 </r>
       <r>  -16.0526    1.0000 </r>
       <r>  -15.3913    1.0000 </r>
       <r>  -15.1883    1.0000 </r>
       <r>  -15.1262    1.0000 </r>
       <r>   -6.9818    1.0000 </r>
       <r>   -6.7585    1.0000 </r>
       <r>   -6.6744    1.0000 </r>
       <r>   -6.2277    1.0000 </r>
       <r>   -5.8296    1.0000 </r>
       <r>   -5.7832    1.0000 </r>
       <r>   -5.5989    1.0000 </r>
       <r>   -5.3547    1.0000 </r>
       <r>   -5.2720    1.0000 </r>
       <r>   -5.1728    1.0000 </r>
       <r>   -5.0289    1.0000 </r>
       <r>   -4.9303    1.0000 </r>
       <r>   -4.7979    1.0000 </r>
       <r>   -4.6429    1.0000 </r>
       <r>   -4.5151    1.0000 </r>
       <r>   -4.3038    1.0000 </r>
       <r>   -4.2901    1.0000 </r>
       <r>   -4.0172    1.0000 </r>
       <r>   -3.8844    1.0000 </r>
       <r>   -3.8066    1.0000 </r>
       <r>   -3.6908    1.0000 </r>
       <r>   -3.4462    1.0000 </r>
       <r>   -3.0896    1.0000 </r>
       <r>   -2.9901    1.0000 </r>
       <r>   -2.9532    1.0000 </r>
       <r>   -2.9187    1.0000 </r>
       <r>   -2.8233    1.0000 </r>
       <r>   -2.5119    1.0000 </r>
       <r>   -2.3674    1.0000 </r>
       <r>   -2.1505    1.0000 </r>
       <r>   -1.9289    1.0000 </r>
       <r>   -1.5343    1.0000 </r>
       <r>   -1.2951    1.0000 </r>
       <r>   -1.1185    1.0000 </r>
       <r>   -1.0214    1.0000 </r>
       <r>   -0.9595    1.0000 </r>
       <r>   -0.7982    0.8417 </r>
       <r>   -0.6360   -0.0375 </r>
       <r>   -0.5903    0.0000 </r>
       <r>   -0.5492    0.0000 </r>
       <r>    0.1112    0.0000 </r>
       <r>    0.4230    0.0000 </r>
       <r>    0.4697    0.0000 </r>
       <r>    0.7746    0.0000 </r>
       <r>    1.3727    0.0000 </r>
       <r>    1.3979    0.0000 </r>
       <r>    2.7244    0.0000 </r>
       <r>    4.3730    0.0000 </r>
      </set>
      <set comment="kpoint 7">
       <r>  -36.6346    1.0000 </r>
       <r>  -35.2795    1.0000 </r>
       <r>  -34.3132    1.0000 </r>
       <r>  -33.4104    1.0000 </r>
       <r>  -20.6022    1.0000 </r>
       <r>  -20.2728    1.0000 </r>
       <r>  -19.6923    1.0000 </r>
       <r>  -19.3248    1.0000 </r>
       <r>  -19.1900    1.0000 </r>
       <r>  -18.7581    1.0000 </r>
       <r>  -18.6287    1.0000 </r>
       <r>  -18.4387    1.0000 </r>
       <r>  -18.3716    1.0000 </r>
       <r>  -18.3263    1.0000 </r>
       <r>  -18.2180    1.0000 </r>
       <r>  -17.7717    1.0000 </r>
       <r>  -17.2935    1.0000 </r>
       <r>  -17.2854    1.0000 </r>
       <r>  -17.1020    1.0000 </r>
       <r>  -17.0704    1.0000 </r>
       <r>  -16.4471    1.0000 </r>
       <r>  -16.3339    1.0000 </r>
       <r>  -16.2714    1.0000 </r>
       <r>  -16.1163    1.0000 </r>
       <r>  -15.9953    1.0000 </r>
       <r>  -15.3811    1.0000 </r>
       <r>  -15.1882    1.0000 </r>
       <r>  -15.0912    1.0000 </r>
       <r>   -6.8609    1.0000 </r>
       <r>   -6.7247    1.0000 </r>
       <r>   -6.5232    1.0000 </r>
       <r>   -6.2100    1.0000 </r>
       <r>   -5.9651    1.0000 </r>
       <r>   -5.7608    1.0000 </r>
       <r>   -5.5841    1.0000 </r>
       <r>   -5.3979    1.0000 </r>
       <r>   -5.3847    1.0000 </r>
       <r>   -5.0995    1.0000 </r>
       <r>   -5.0251    1.0000 </r>
       <r>   -4.9258    1.0000 </r>
       <r>   -4.8656    1.0000 </r>
       <r>   -4.6778    1.0000 </r>
       <r>   -4.6223    1.0000 </r>
       <r>   -4.5263    1.0000 </r>
       <r>   -4.3087    1.0000 </r>
       <r>   -4.0684    1.0000 </r>
       <r>   -3.8623    1.0000 </r>
       <r>   -3.8048    1.0000 </r>
       <r>   -3.6718    1.0000 </r>
       <r>   -3.5869    1.0000 </r>
       <r>   -3.4798    1.0000 </r>
       <r>   -3.0772    1.0000 </r>
       <r>   -3.0633    1.0000 </r>
       <r>   -2.9831    1.0000 </r>
       <r>   -2.7443    1.0000 </r>
       <r>   -2.7193    1.0000 </r>
       <r>   -2.4615    1.0000 </r>
       <r>   -2.2148    1.0000 </r>
       <r>   -1.8335    1.0000 </r>
       <r>   -1.6598    1.0000 </r>
       <r>   -1.2796    1.0000 </r>
       <r>   -1.1855    1.0000 </r>
       <r>   -1.0099    1.0000 </r>
       <r>   -0.9690    1.0000 </r>
       <r>   -0.8768    1.0108 </r>
       <r>   -0.7159    0.0127 </r>
       <r>   -0.5170    0.0000 </r>
       <r>   -0.4350    0.0000 </r>
       <r>    0.1138    0.0000 </r>
       <r>    0.4383    0.0000 </r>
       <r>    0.4860    0.0000 </r>
       <r>    0.9366    0.0000 </r>
       <r>    1.3702    0.0000 </r>
       <r>    1.5156    0.0000 </r>
       <r>    2.6866    0.0000 </r>
       <r>    2.7618    0.0000 </r>
      </set>
      <set comment="kpoint 8">
       <r>  -36.6344    1.0000 </r>
       <r>  -35.2793    1.0000 </r>
       <r>  -34.3130    1.0000 </r>
       <r>  -33.4102    1.0000 </r>
       <r>  -20.6440    1.0000 </r>
       <r>  -20.3085    1.0000 </r>
       <r>  -19.6862    1.0000 </r>
       <r>  -19.3169    1.0000 </r>
       <r>  -19.2232    1.0000 </r>
       <r>  -18.7622    1.0000 </r>
       <r>  -18.6256    1.0000 </r>
       <r>  -18.3809    1.0000 </r>
       <r>  -18.3785    1.0000 </r>
       <r>  -18.3108    1.0000 </r>
       <r>  -18.2358    1.0000 </r>
       <r>  -17.7695    1.0000 </r>
       <r>  -17.2905    1.0000 </r>
       <r>  -17.2824    1.0000 </r>
       <r>  -17.0968    1.0000 </r>
       <r>  -17.0461    1.0000 </r>
       <r>  -16.4068    1.0000 </r>
       <r>  -16.3410    1.0000 </r>
       <r>  -16.2779    1.0000 </r>
       <r>  -16.0825    1.0000 </r>
       <r>  -15.9830    1.0000 </r>
       <r>  -15.3741    1.0000 </r>
       <r>  -15.1840    1.0000 </r>
       <r>  -15.0726    1.0000 </r>
       <r>   -6.8579    1.0000 </r>
       <r>   -6.7383    1.0000 </r>
       <r>   -6.2695    1.0000 </r>
       <r>   -6.2105    1.0000 </r>
       <r>   -5.9219    1.0000 </r>
       <r>   -5.8222    1.0000 </r>
       <r>   -5.5895    1.0000 </r>
       <r>   -5.5421    1.0000 </r>
       <r>   -5.4059    1.0000 </r>
       <r>   -5.3600    1.0000 </r>
       <r>   -4.9803    1.0000 </r>
       <r>   -4.9024    1.0000 </r>
       <r>   -4.7622    1.0000 </r>
       <r>   -4.6939    1.0000 </r>
       <r>   -4.5608    1.0000 </r>
       <r>   -4.4250    1.0000 </r>
       <r>   -4.2984    1.0000 </r>
       <r>   -4.2894    1.0000 </r>
       <r>   -4.0546    1.0000 </r>
       <r>   -3.8034    1.0000 </r>
       <r>   -3.7880    1.0000 </r>
       <r>   -3.4807    1.0000 </r>
       <r>   -3.3453    1.0000 </r>
       <r>   -3.3054    1.0000 </r>
       <r>   -3.0944    1.0000 </r>
       <r>   -3.0021    1.0000 </r>
       <r>   -2.9692    1.0000 </r>
       <r>   -2.7349    1.0000 </r>
       <r>   -2.4906    1.0000 </r>
       <r>   -2.1366    1.0000 </r>
       <r>   -1.8059    1.0000 </r>
       <r>   -1.5626    1.0000 </r>
       <r>   -1.3587    1.0000 </r>
       <r>   -1.2526    1.0000 </r>
       <r>   -1.1674    1.0000 </r>
       <r>   -0.9538    1.0000 </r>
       <r>   -0.8867    1.0000 </r>
       <r>   -0.6653   -0.0517 </r>
       <r>   -0.5018    0.0000 </r>
       <r>   -0.3369    0.0000 </r>
       <r>    0.3516    0.0000 </r>
       <r>    0.4979    0.0000 </r>
       <r>    0.9247    0.0000 </r>
       <r>    1.3684    0.0000 </r>
       <r>    1.4064    0.0000 </r>
       <r>    1.8599    0.0000 </r>
       <r>    2.6699    0.0000 </r>
       <r>    2.7681    0.0000 </r>
      </set>
      <set comment="kpoint 9">
       <r>  -36.6298    1.0000 </r>
       <r>  -35.2740    1.0000 </r>
       <r>  -34.3077    1.0000 </r>
       <r>  -33.4049    1.0000 </r>
       <r>  -20.4288    1.0000 </r>
       <r>  -19.9489    1.0000 </r>
       <r>  -19.7684    1.0000 </r>
       <r>  -19.2794    1.0000 </r>
       <r>  -19.0978    1.0000 </r>
[...]
      </set>
      <set comment="kpoint 20">
       <r>  -36.6193    1.0000 </r>
       <r>  -35.2620    1.0000 </r>
       <r>  -34.2958    1.0000 </r>
       <r>  -33.3933    1.0000 </r>
       <r>  -20.1383    1.0000 </r>
       <r>  -20.0800    1.0000 </r>
       <r>  -19.8909    1.0000 </r>
       <r>  -19.2554    1.0000 </r>
       <r>  -18.9120    1.0000 </r>
       <r>  -18.7974    1.0000 </r>
       <r>  -18.5272    1.0000 </r>
       <r>  -18.4494    1.0000 </r>
       <r>  -18.3589    1.0000 </r>
       <r>  -18.2559    1.0000 </r>
       <r>  -18.0121    1.0000 </r>
       <r>  -17.8910    1.0000 </r>
       <r>  -17.2514    1.0000 </r>
       <r>  -17.2319    1.0000 </r>
       <r>  -17.0744    1.0000 </r>
       <r>  -17.0254    1.0000 </r>
       <r>  -16.5365    1.0000 </r>
       <r>  -16.2777    1.0000 </r>
       <r>  -16.1677    1.0000 </r>
       <r>  -16.1364    1.0000 </r>
       <r>  -15.9636    1.0000 </r>
       <r>  -15.4631    1.0000 </r>
       <r>  -15.1772    1.0000 </r>
       <r>  -15.0084    1.0000 </r>
       <r>   -7.6524    1.0000 </r>
       <r>   -7.1806    1.0000 </r>
       <r>   -7.0385    1.0000 </r>
       <r>   -6.8937    1.0000 </r>
       <r>   -6.6884    1.0000 </r>
       <r>   -6.5863    1.0000 </r>
       <r>   -6.1462    1.0000 </r>
       <r>   -6.0051    1.0000 </r>
       <r>   -5.8916    1.0000 </r>
       <r>   -5.8392    1.0000 </r>
       <r>   -5.7272    1.0000 </r>
       <r>   -5.3827    1.0000 </r>
       <r>   -5.3398    1.0000 </r>
       <r>   -5.3339    1.0000 </r>
       <r>   -5.2207    1.0000 </r>
       <r>   -4.8007    1.0000 </r>
       <r>   -4.6530    1.0000 </r>
       <r>   -4.3282    1.0000 </r>
       <r>   -4.1733    1.0000 </r>
       <r>   -4.1117    1.0000 </r>
       <r>   -4.0667    1.0000 </r>
       <r>   -3.8984    1.0000 </r>
       <r>   -3.7970    1.0000 </r>
       <r>   -3.7722    1.0000 </r>
       <r>   -3.5561    1.0000 </r>
       <r>   -2.8907    1.0000 </r>
       <r>   -2.8349    1.0000 </r>
       <r>   -2.7483    1.0000 </r>
       <r>   -1.9941    1.0000 </r>
       <r>   -1.9826    1.0000 </r>
       <r>   -1.8852    1.0000 </r>
       <r>   -1.6263    1.0000 </r>
       <r>   -1.2499    1.0000 </r>
       <r>   -1.1576    1.0000 </r>
       <r>   -0.9118    1.0000 </r>
       <r>   -0.7436    0.0000 </r>
       <r>   -0.6455    0.0000 </r>
       <r>   -0.2621    0.0000 </r>
       <r>    0.0924    0.0000 </r>
       <r>    0.7356    0.0000 </r>
       <r>    1.0948    0.0000 </r>
       <r>    1.4048    0.0000 </r>
       <r>    1.4297    0.0000 </r>
       <r>    1.9275    0.0000 </r>
       <r>    2.2357    0.0000 </r>
       <r>    2.2444    0.0000 </r>
       <r>    3.1800    0.0000 </r>
       <r>    3.4428    0.0000 </r>
      </set>
     </set>
    </set>
   </array>
  </eigenvalues>
  <separator name="orbital magnetization" >
   <v name="MAGDIPOLOUT">      0.00000000      0.00000000      0.00000000</v>
  </separator>
  <dos>
   <i name="efermi">     -0.77878946 </i>
   <total>
    <array>
     <dimension dim="1">gridpoints</dimension>
     <dimension dim="2">spin</dimension>
     <field>energy</field>
     <field>total</field>
     <field>integrated</field>
     <set>
      <set comment="spin 1">
       <r>   -38.6980     0.0000     0.0000 </r>
       <r>   -38.5468     0.0000     0.0000 </r>
       <r>   -38.3957     0.0000     0.0000 </r>
       <r>   -38.2446     0.0000     0.0000 </r>
       <r>   -38.0935     0.0000     0.0000 </r>
       <r>   -37.9424     0.0000     0.0000 </r>
       <r>   -37.7913     0.0000     0.0000 </r>
       <r>   -37.6402     0.0000     0.0000 </r>
       <r>   -37.4891     0.0000     0.0000 </r>
       <r>   -37.3380     0.0000     0.0000 </r>
       <r>   -37.1869     0.0000     0.0000 </r>
       <r>   -37.0357     0.0000     0.0000 </r>
       <r>   -36.8846     0.0000     0.0000 </r>
       <r>   -36.7335     0.0000     0.0000 </r>
       <r>   -36.5824     0.0000     2.0000 </r>
       <r>   -36.4313     0.0000     2.0000 </r>
       <r>   -36.2802     0.0000     2.0000 </r>
       <r>   -36.1291     0.0000     2.0000 </r>
       <r>   -35.9780     0.0000     2.0000 </r>
       <r>   -35.8269     0.0000     2.0000 </r>
       <r>   -35.6758     0.0000     2.0000 </r>
       <r>   -35.5246     0.0000     2.0000 </r>
       <r>   -35.3735     0.0000     2.0000 </r>
       <r>   -35.2224     0.0000     4.0000 </r>
       <r>   -35.0713     0.0000     4.0000 </r>
       <r>   -34.9202     0.0000     4.0000 </r>
       <r>   -34.7691     0.0000     4.0000 </r>
       <r>   -34.6180     0.0000     4.0000 </r>
       <r>   -34.4669     0.0000     4.0000 </r>
       <r>   -34.3158    98.5703     4.0299 </r>
       <r>   -34.1647     0.0000     6.0000 </r>
       <r>   -34.0135     0.0000     6.0000 </r>
       <r>   -33.8624     0.0000     6.0000 </r>
       <r>   -33.7113     0.0000     6.0000 </r>
       <r>   -33.5602     0.0000     6.0000 </r>
       <r>   -33.4091    74.6200     6.5540 </r>
       <r>   -33.2580     0.0000     8.0000 </r>
       <r>   -33.1069     0.0000     8.0000 </r>
       <r>   -32.9558     0.0000     8.0000 </r>
       <r>   -32.8047     0.0000     8.0000 </r>
       <r>   -32.6536     0.0000     8.0000 </r>
       <r>   -32.5024     0.0000     8.0000 </r>
       <r>   -32.3513     0.0000     8.0000 </r>
       <r>   -32.2002     0.0000     8.0000 </r>
       <r>   -32.0491     0.0000     8.0000 </r>
       <r>   -31.8980     0.0000     8.0000 </r>
       <r>   -31.7469     0.0000     8.0000 </r>
       <r>   -31.5958     0.0000     8.0000 </r>
       <r>   -31.4447     0.0000     8.0000 </r>
       <r>   -31.2936     0.0000     8.0000 </r>
       <r>   -31.1425     0.0000     8.0000 </r>
       <r>   -30.9913     0.0000     8.0000 </r>
       <r>   -30.8402     0.0000     8.0000 </r>
       <r>   -30.6891     0.0000     8.0000 </r>
       <r>   -30.5380     0.0000     8.0000 </r>
       <r>   -30.3869     0.0000     8.0000 </r>
       <r>   -30.2358     0.0000     8.0000 </r>
       <r>   -30.0847     0.0000     8.0000 </r>
       <r>   -29.9336     0.0000     8.0000 </r>
       <r>   -29.7825     0.0000     8.0000 </r>
       <r>   -29.6314     0.0000     8.0000 </r>
       <r>   -29.4802     0.0000     8.0000 </r>
       <r>   -29.3291     0.0000     8.0000 </r>
       <r>   -29.1780     0.0000     8.0000 </r>
       <r>   -29.0269     0.0000     8.0000 </r>
       <r>   -28.8758     0.0000     8.0000 </r>
       <r>   -28.7247     0.0000     8.0000 </r>
       <r>   -28.5736     0.0000     8.0000 </r>
       <r>   -28.4225     0.0000     8.0000 </r>
       <r>   -28.2714     0.0000     8.0000 </r>
       <r>   -28.1203     0.0000     8.0000 </r>
       <r>   -27.9691     0.0000     8.0000 </r>
       <r>   -27.8180     0.0000     8.0000 </r>
       <r>   -27.6669     0.0000     8.0000 </r>
       <r>   -27.5158     0.0000     8.0000 </r>
       <r>   -27.3647     0.0000     8.0000 </r>
       <r>   -27.2136     0.0000     8.0000 </r>
       <r>   -27.0625     0.0000     8.0000 </r>
       <r>   -26.9114     0.0000     8.0000 </r>
       <r>   -26.7603     0.0000     8.0000 </r>
       <r>   -26.6092     0.0000     8.0000 </r>
       <r>   -26.4580     0.0000     8.0000 </r>
       <r>   -26.3069     0.0000     8.0000 </r>
       <r>   -26.1558     0.0000     8.0000 </r>
       <r>   -26.0047     0.0000     8.0000 </r>
       <r>   -25.8536     0.0000     8.0000 </r>
       <r>   -25.7025     0.0000     8.0000 </r>
       <r>   -25.5514     0.0000     8.0000 </r>
       <r>   -25.4003     0.0000     8.0000 </r>
       <r>   -25.2492     0.0000     8.0000 </r>
       <r>   -25.0981     0.0000     8.0000 </r>
       <r>   -24.9469     0.0000     8.0000 </r>
       <r>   -24.7958     0.0000     8.0000 </r>
       <r>   -24.6447     0.0000     8.0000 </r>
       <r>   -24.4936     0.0000     8.0000 </r>
       <r>   -24.3425     0.0000     8.0000 </r>
       <r>   -24.1914     0.0000     8.0000 </r>
       <r>   -24.0403     0.0000     8.0000 </r>
       <r>   -23.8892     0.0000     8.0000 </r>
       <r>   -23.7381     0.0000     8.0000 </r>
       <r>   -23.5870     0.0000     8.0000 </r>
       <r>   -23.4358     0.0000     8.0000 </r>
       <r>   -23.2847     0.0000     8.0000 </r>
       <r>   -23.1336     0.0000     8.0000 </r>
       <r>   -22.9825     0.0000     8.0000 </r>
       <r>   -22.8314     0.0000     8.0000 </r>
       <r>   -22.6803     0.0000     8.0000 </r>
       <r>   -22.5292     0.0000     8.0000 </r>
       <r>   -22.3781     0.0000     8.0000 </r>
       <r>   -22.2270     0.0000     8.0000 </r>
       <r>   -22.0759     0.0000     8.0000 </r>
       <r>   -21.9247     0.0000     8.0000 </r>
       <r>   -21.7736     0.0000     8.0000 </r>
       <r>   -21.6225     0.0000     8.0000 </r>
       <r>   -21.4714     0.0000     8.0000 </r>
       <r>   -21.3203     0.0000     8.0000 </r>
       <r>   -21.1692     0.0000     8.0000 </r>
       <r>   -21.0181     0.0000     8.0000 </r>
       <r>   -20.8670     0.0000     8.0000 </r>
       <r>   -20.7159     0.0000     8.0000 </r>
       <r>   -20.5648     3.4698     8.3300 </r>
       <r>   -20.4136    10.8525     9.1017 </r>
       <r>   -20.2625     5.5698    10.0780 </r>
       <r>   -20.1114     4.9662    10.9103 </r>
       <r>   -19.9603     2.6704    11.5679 </r>
       <r>   -19.8092     5.7438    12.0759 </r>
       <r>   -19.6581     5.7445    13.7463 </r>
       <r>   -19.5070     0.0000    14.0000 </r>
       <r>   -19.3559     8.5755    14.0999 </r>
       <r>   -19.2048    14.0068    15.9318 </r>
       <r>   -19.0537     4.3275    17.7169 </r>
       <r>   -18.9025     0.0000    18.0000 </r>
       <r>   -18.7514    33.6890    18.4362 </r>
       <r>   -18.6003    13.6682    21.1495 </r>
       <r>   -18.4492    19.0806    23.7485 </r>
       <r>   -18.2981    11.2879    26.8620 </r>
       <r>   -18.1470    14.3704    28.7651 </r>
       <r>   -17.9959     0.0000    30.0000 </r>
       <r>   -17.8448     2.0448    30.0618 </r>
       <r>   -17.6937     4.1976    31.6171 </r>
       <r>   -17.5426     0.0000    32.0000 </r>
       <r>   -17.3914     2.0484    32.0925 </r>
       <r>   -17.2403     8.5677    34.7562 </r>
       <r>   -17.0892    42.3298    38.2670 </r>
       <r>   -16.9381     0.0000    40.0000 </r>
       <r>   -16.7870     0.0000    40.0000 </r>
       <r>   -16.6359     0.0000    40.0000 </r>
       <r>   -16.4848     9.9250    41.5507 </r>
       <r>   -16.3337    25.3530    42.8421 </r>
       <r>   -16.1826    16.9352    46.0570 </r>
       <r>   -16.0315     9.8281    48.5779 </r>
       <r>   -15.8803     0.0000    50.0000 </r>
       <r>   -15.7292     0.0000    50.0000 </r>
       <r>   -15.5781     0.0000    50.0000 </r>
       <r>   -15.4270    18.1813    50.6490 </r>
       <r>   -15.2759     3.8161    52.5772 </r>
       <r>   -15.1248    16.2126    54.5684 </r>
       <r>   -14.9737     0.0000    56.0000 </r>
       <r>   -14.8226     0.0000    56.0000 </r>
       <r>   -14.6715     0.0000    56.0000 </r>
       <r>   -14.5204     0.0000    56.0000 </r>
       <r>   -14.3692     0.0000    56.0000 </r>
       <r>   -14.2181     0.0000    56.0000 </r>
       <r>   -14.0670     0.0000    56.0000 </r>
       <r>   -13.9159     0.0000    56.0000 </r>
       <r>   -13.7648     0.0000    56.0000 </r>
       <r>   -13.6137     0.0000    56.0000 </r>
       <r>   -13.4626     0.0000    56.0000 </r>
       <r>   -13.3115     0.0000    56.0000 </r>
       <r>   -13.1604     0.0000    56.0000 </r>
       <r>   -13.0093     0.0000    56.0000 </r>
       <r>   -12.8581     0.0000    56.0000 </r>
       <r>   -12.7070     0.0000    56.0000 </r>
       <r>   -12.5559     0.0000    56.0000 </r>
       <r>   -12.4048     0.0000    56.0000 </r>
       <r>   -12.2537     0.0000    56.0000 </r>
       <r>   -12.1026     0.0000    56.0000 </r>
       <r>   -11.9515     0.0000    56.0000 </r>
       <r>   -11.8004     0.0000    56.0000 </r>
       <r>   -11.6493     0.0000    56.0000 </r>
       <r>   -11.4982     0.0000    56.0000 </r>
       <r>   -11.3470     0.0000    56.0000 </r>
       <r>   -11.1959     0.0000    56.0000 </r>
       <r>   -11.0448     0.0000    56.0000 </r>
       <r>   -10.8937     0.0000    56.0000 </r>
       <r>   -10.7426     0.0000    56.0000 </r>
       <r>   -10.5915     0.0000    56.0000 </r>
       <r>   -10.4404     0.0000    56.0000 </r>
       <r>   -10.2893     0.0000    56.0000 </r>
       <r>   -10.1382     0.0000    56.0000 </r>
       <r>    -9.9871     0.0000    56.0000 </r>
       <r>    -9.8359     0.0000    56.0000 </r>
       <r>    -9.6848     0.0000    56.0000 </r>
       <r>    -9.5337     0.0000    56.0000 </r>
       <r>    -9.3826     0.0000    56.0000 </r>
       <r>    -9.2315     0.0000    56.0000 </r>
       <r>    -9.0804     0.0000    56.0000 </r>
       <r>    -8.9293     0.0000    56.0000 </r>
       <r>    -8.7782     0.0000    56.0000 </r>
       <r>    -8.6271     0.0000    56.0000 </r>
       <r>    -8.4760     0.0000    56.0000 </r>
       <r>    -8.3248     0.0000    56.0000 </r>
       <r>    -8.1737     0.0000    56.0000 </r>
       <r>    -8.0226     0.0000    56.0000 </r>
       <r>    -7.8715     0.0000    56.0000 </r>
       <r>    -7.7204     0.0000    56.0000 </r>
       <r>    -7.5693     1.1039    56.2954 </r>
       <r>    -7.4182     1.1032    56.4621 </r>
       <r>    -7.2671     1.1082    56.6288 </r>
       <r>    -7.1160     3.4683    56.9127 </r>
       <r>    -6.9649    11.6853    58.1115 </r>
       <r>    -6.8137     6.8229    59.5112 </r>
       <r>    -6.6626    28.6908    62.1208 </r>
       <r>    -6.5115     5.4683    64.0886 </r>
       <r>    -6.3604     6.1721    64.8593 </r>
       <r>    -6.2093     6.9978    65.8711 </r>
       <r>    -6.0582     8.9746    67.0650 </r>
       <r>    -5.9071    12.7169    68.6740 </r>
       <r>    -5.7560    11.0585    70.7146 </r>
       <r>    -5.6049    13.2702    72.4944 </r>
       <r>    -5.4538    12.7892    74.6110 </r>
       <r>    -5.3026    11.5289    76.7707 </r>
       <r>    -5.1515    14.5836    78.8617 </r>
       <r>    -5.0004    19.1164    81.0684 </r>
       <r>    -4.8493    12.7651    83.2776 </r>
       <r>    -4.6982    12.2702    85.5897 </r>
       <r>    -4.5471     8.5235    87.4369 </r>
       <r>    -4.3960    10.1890    88.7791 </r>
       <r>    -4.2449    28.4882    91.1106 </r>
       <r>    -4.0938    14.3354    93.6111 </r>
       <r>    -3.9427     9.3025    95.5047 </r>
       <r>    -3.7915    14.5347    97.2203 </r>
       <r>    -3.6404    10.0976    99.5436 </r>
       <r>    -3.4893    13.2920   101.4762 </r>
       <r>    -3.3382     8.3408   103.0755 </r>
       <r>    -3.1871     5.0057   103.9303 </r>
       <r>    -3.0360    11.5171   105.1617 </r>
       <r>    -2.8849    28.9372   107.5419 </r>
       <r>    -2.7338    17.3464   110.2176 </r>
       <r>    -2.5827     5.7917   111.3832 </r>
       <r>    -2.4316     4.0129   112.1060 </r>
       <r>    -2.2804    13.8748   113.2647 </r>
       <r>    -2.1293    14.3489   114.3490 </r>
       <r>    -1.9782    10.5488   116.4575 </r>
       <r>    -1.8271     2.6506   117.8272 </r>
       <r>    -1.6760     9.7666   118.2441 </r>
       <r>    -1.5249     6.4197   119.4555 </r>
       <r>    -1.3738     3.0660   120.1192 </r>
       <r>    -1.2227    13.9610   121.6407 </r>
       <r>    -1.0716    12.6770   123.1802 </r>
       <r>    -0.9205    16.4616   125.4360 </r>
       <r>    -0.7693    31.1934   128.2182 </r>
       <r>    -0.6182     9.6408   130.6647 </r>
       <r>    -0.4671     9.3460   132.1770 </r>
       <r>    -0.3160     6.3911   133.4188 </r>
       <r>    -0.1649     4.5105   134.1850 </r>
       <r>    -0.0138     2.8132   134.7499 </r>
       <r>     0.1373     3.5829   135.5333 </r>
       <r>     0.2884     3.5519   136.0714 </r>
       <r>     0.4395     7.4164   137.1612 </r>
       <r>     0.5906     5.8062   138.0834 </r>
       <r>     0.7418     8.3884   139.4441 </r>
       <r>     0.8929     6.3932   140.7567 </r>
       <r>     1.0440     6.0924   141.6812 </r>
       <r>     1.1951     3.9122   142.3507 </r>
       <r>     1.3462    10.6955   143.2506 </r>
       <r>     1.4973     3.8584   144.5584 </r>
       <r>     1.6484     3.0956   145.0781 </r>
       <r>     1.7995     3.3745   145.5578 </r>
       <r>     1.9506     3.2934   146.4283 </r>
       <r>     2.1017     3.7897   146.9686 </r>
       <r>     2.2529     8.0703   147.6272 </r>
       <r>     2.4040     1.1994   148.0733 </r>
       <r>     2.5551     1.1646   148.2519 </r>
       <r>     2.7062     4.5088   148.6473 </r>
       <r>     2.8573     2.9552   149.1939 </r>
       <r>     3.0084     3.4846   149.6639 </r>
       <r>     3.1595     8.6386   150.2993 </r>
       <r>     3.3106     2.0128   151.1988 </r>
       <r>     3.4617     3.9859   151.5068 </r>
       <r>     3.6128     0.3643   151.5785 </r>
       <r>     3.7640     0.3470   151.6322 </r>
       <r>     3.9151     0.3297   151.6834 </r>
       <r>     4.0662     0.3124   151.7319 </r>
       <r>     4.2173     1.1896   151.8576 </r>
       <r>     4.3684     0.3056   151.9706 </r>
       <r>     4.5195     0.0760   151.9979 </r>
       <r>     4.6706     0.0000   152.0000 </r>
       <r>     4.8217     0.0000   152.0000 </r>
       <r>     4.9728     0.0000   152.0000 </r>
       <r>     5.1239     0.0000   152.0000 </r>
       <r>     5.2751     0.0000   152.0000 </r>
       <r>     5.4262     0.0000   152.0000 </r>
       <r>     5.5773     0.0000   152.0000 </r>
       <r>     5.7284     0.0000   152.0000 </r>
       <r>     5.8795     0.0000   152.0000 </r>
       <r>     6.0306     0.0000   152.0000 </r>
       <r>     6.1817     0.0000   152.0000 </r>
       <r>     6.3328     0.0000   152.0000 </r>
       <r>     6.4839     0.0000   152.0000 </r>
       <r>     6.6350     0.0000   152.0000 </r>
      </set>
     </set>
    </array>
   </total>
  </dos>
 </calculation>
 <structure name="finalpos" >
  <crystal>
   <varray name="basis" >
    <v>       5.52288297       0.00000000       0.00000000 </v>
    <v>       0.00000000       3.90526800       0.00000000 </v>
    <v>       0.00000000       0.00000000      21.66504520 </v>
   </varray>
   <i name="volume">    467.27902047 </i>
   <varray name="rec_basis" >
    <v>       0.18106485       0.00000000       0.00000000 </v>
    <v>       0.00000000       0.25606437       0.00000000 </v>
    <v>       0.00000000       0.00000000       0.04615730 </v>
   </varray>
  </crystal>
  <varray name="positions" >
   <v>       0.50000000       0.00000000       0.27694380 </v>
   <v>       0.25000000       0.50000000       0.34067414 </v>
   <v>       0.75000000       0.50000000       0.34067414 </v>
   <v>       0.00000000       0.00000000       0.40440449 </v>
   <v>       0.75000000       0.50000000       0.46813483 </v>
   <v>       0.25000000       0.50000000       0.46813483 </v>
   <v>       0.50000000       0.00000000       0.53186517 </v>
   <v>       0.25000000       0.50000000       0.59559551 </v>
   <v>       0.75000000       0.50000000       0.59559551 </v>
   <v>       0.00000000       0.00000000       0.65932586 </v>
   <v>       0.75000000       0.50000000       0.72305620 </v>
   <v>       0.25000000       0.50000000       0.72305620 </v>
   <v>       0.00000000       0.00000000       0.27694380 </v>
   <v>       0.50000000       0.00000000       0.40440449 </v>
   <v>       0.00000000       0.00000000       0.53186517 </v>
   <v>       0.50000000       0.00000000       0.65932586 </v>
   <v>       0.50000000       0.50000000       0.27694380 </v>
   <v>       0.00000000       0.50000000       0.40440449 </v>
   <v>       0.50000000       0.50000000       0.53186517 </v>
   <v>       0.00000000       0.50000000       0.65932586 </v>
  </varray>
 </structure>
</modeling>
