  20  20   0   0
  0.2336395E+02  0.5522883E-09  0.3905268E-09  0.2166505E-08  0.5000000E-15
  1.000000000000000E-004
  CAR 
 unknown system                          
      6.53847924    -38.64719996  301     -0.76524559      1.00000000
    -38.647  0.0000E+00  0.0000E+00
    -38.497  0.0000E+00  0.0000E+00
    -38.346  0.0000E+00  0.0000E+00
    -38.195  0.0000E+00  0.0000E+00
    -38.045  0.0000E+00  0.0000E+00
    -37.894  0.0000E+00  0.0000E+00
    -37.743  0.0000E+00  0.0000E+00
    -37.593  0.0000E+00  0.0000E+00
    -37.442  0.0000E+00  0.0000E+00
    -37.292  0.0000E+00  0.0000E+00
    -37.141  0.0000E+00  0.0000E+00
    -36.990  0.0000E+00  0.0000E+00
    -36.840  0.0000E+00  0.0000E+00
    -36.689  0.0000E+00  0.0000E+00
    -36.539  0.0000E+00  0.2000E+01
    -36.388  0.0000E+00  0.2000E+01
    -36.237  0.0000E+00  0.2000E+01
    -36.087  0.0000E+00  0.2000E+01
    -35.936  0.0000E+00  0.2000E+01
    -35.785  0.0000E+00  0.2000E+01
    -35.635  0.0000E+00  0.2000E+01
    -35.484  0.0000E+00  0.2000E+01
    -35.334  0.0000E+00  0.2000E+01
    -35.183  0.0000E+00  0.4000E+01
    -35.032  0.0000E+00  0.4000E+01
    -34.882  0.0000E+00  0.4000E+01
    -34.731  0.0000E+00  0.4000E+01
    -34.580  0.0000E+00  0.4000E+01
    -34.430  0.0000E+00  0.4000E+01
    -34.279  0.0000E+00  0.6000E+01
    -34.129  0.0000E+00  0.6000E+01
    -33.978  0.0000E+00  0.6000E+01
    -33.827  0.0000E+00  0.6000E+01
    -33.677  0.0000E+00  0.6000E+01
    -33.526  0.0000E+00  0.6000E+01
    -33.376  0.0000E+00  0.8000E+01
    -33.225  0.0000E+00  0.8000E+01
    -33.074  0.0000E+00  0.8000E+01
    -32.924  0.0000E+00  0.8000E+01
    -32.773  0.0000E+00  0.8000E+01
    -32.622  0.0000E+00  0.8000E+01
    -32.472  0.0000E+00  0.8000E+01
    -32.321  0.0000E+00  0.8000E+01
    -32.171  0.0000E+00  0.8000E+01
    -32.020  0.0000E+00  0.8000E+01
    -31.869  0.0000E+00  0.8000E+01
    -31.719  0.0000E+00  0.8000E+01
    -31.568  0.0000E+00  0.8000E+01
    -31.417  0.0000E+00  0.8000E+01
    -31.267  0.0000E+00  0.8000E+01
    -31.116  0.0000E+00  0.8000E+01
    -30.966  0.0000E+00  0.8000E+01
    -30.815  0.0000E+00  0.8000E+01
    -30.664  0.0000E+00  0.8000E+01
    -30.514  0.0000E+00  0.8000E+01
    -30.363  0.0000E+00  0.8000E+01
    -30.213  0.0000E+00  0.8000E+01
    -30.062  0.0000E+00  0.8000E+01
    -29.911  0.0000E+00  0.8000E+01
    -29.761  0.0000E+00  0.8000E+01
    -29.610  0.0000E+00  0.8000E+01
    -29.459  0.0000E+00  0.8000E+01
    -29.309  0.0000E+00  0.8000E+01
    -29.158  0.0000E+00  0.8000E+01
    -29.008  0.0000E+00  0.8000E+01
    -28.857  0.0000E+00  0.8000E+01
    -28.706  0.0000E+00  0.8000E+01
    -28.556  0.0000E+00  0.8000E+01
    -28.405  0.0000E+00  0.8000E+01
    -28.254  0.0000E+00  0.8000E+01
    -28.104  0.0000E+00  0.8000E+01
    -27.953  0.0000E+00  0.8000E+01
    -27.803  0.0000E+00  0.8000E+01
    -27.652  0.0000E+00  0.8000E+01
    -27.501  0.0000E+00  0.8000E+01
    -27.351  0.0000E+00  0.8000E+01
    -27.200  0.0000E+00  0.8000E+01
    -27.050  0.0000E+00  0.8000E+01
    -26.899  0.0000E+00  0.8000E+01
    -26.748  0.0000E+00  0.8000E+01
    -26.598  0.0000E+00  0.8000E+01
    -26.447  0.0000E+00  0.8000E+01
    -26.296  0.0000E+00  0.8000E+01
    -26.146  0.0000E+00  0.8000E+01
    -25.995  0.0000E+00  0.8000E+01
    -25.845  0.0000E+00  0.8000E+01
    -25.694  0.0000E+00  0.8000E+01
    -25.543  0.0000E+00  0.8000E+01
    -25.393  0.0000E+00  0.8000E+01
    -25.242  0.0000E+00  0.8000E+01
    -25.091  0.0000E+00  0.8000E+01
    -24.941  0.0000E+00  0.8000E+01
    -24.790  0.0000E+00  0.8000E+01
    -24.640  0.0000E+00  0.8000E+01
    -24.489  0.0000E+00  0.8000E+01
    -24.338  0.0000E+00  0.8000E+01
    -24.188  0.0000E+00  0.8000E+01
    -24.037  0.0000E+00  0.8000E+01
    -23.887  0.0000E+00  0.8000E+01
    -23.736  0.0000E+00  0.8000E+01
    -23.585  0.0000E+00  0.8000E+01
    -23.435  0.0000E+00  0.8000E+01
    -23.284  0.0000E+00  0.8000E+01
    -23.133  0.0000E+00  0.8000E+01
    -22.983  0.0000E+00  0.8000E+01
    -22.832  0.0000E+00  0.8000E+01
    -22.682  0.0000E+00  0.8000E+01
    -22.531  0.0000E+00  0.8000E+01
    -22.380  0.0000E+00  0.8000E+01
    -22.230  0.0000E+00  0.8000E+01
    -22.079  0.0000E+00  0.8000E+01
    -21.928  0.0000E+00  0.8000E+01
    -21.778  0.0000E+00  0.8000E+01
    -21.627  0.0000E+00  0.8000E+01
    -21.477  0.0000E+00  0.8000E+01
    -21.326  0.0000E+00  0.8000E+01
    -21.175  0.0000E+00  0.8000E+01
    -21.025  0.0000E+00  0.8000E+01
    -20.874  0.0000E+00  0.8000E+01
    -20.724  0.0000E+00  0.8000E+01
    -20.573  0.2960E+01  0.8229E+01
    -20.422  0.4181E+01  0.8904E+01
    -20.272  0.5996E+01  0.9845E+01
    -20.121  0.4733E+01  0.1073E+02
    -19.970  0.3277E+01  0.1149E+02
    -19.820  0.2988E+01  0.1188E+02
    -19.669  0.5528E+02  0.1337E+02
    -19.519  0.0000E+00  0.1400E+02
    -19.368  0.0000E+00  0.1400E+02
    -19.217  0.1225E+02  0.1554E+02
    -19.067  0.1063E+02  0.1754E+02
    -18.916  0.0000E+00  0.1800E+02
    -18.766  0.0000E+00  0.1800E+02
    -18.615  0.5525E+01  0.1985E+02
    -18.464  0.1460E+02  0.2302E+02
    -18.314  0.1356E+02  0.2636E+02
    -18.163  0.9242E+01  0.2852E+02
    -18.012  0.0000E+00  0.3000E+02
    -17.862  0.0000E+00  0.3000E+02
    -17.711  0.5019E+01  0.3156E+02
    -17.561  0.0000E+00  0.3200E+02
    -17.410  0.1272E+01  0.3202E+02
    -17.259  0.3428E+02  0.3362E+02
    -17.109  0.3628E+02  0.3715E+02
    -16.958  0.0000E+00  0.4000E+02
    -16.807  0.0000E+00  0.4000E+02
    -16.657  0.0000E+00  0.4000E+02
    -16.506  0.7848E+01  0.4160E+02
    -16.356  0.3589E+01  0.4224E+02
    -16.205  0.1724E+02  0.4537E+02
    -16.054  0.8798E+01  0.4845E+02
    -15.904  0.0000E+00  0.5000E+02
    -15.753  0.0000E+00  0.5000E+02
    -15.603  0.0000E+00  0.5000E+02
    -15.452  0.8017E+01  0.5039E+02
    -15.301  0.3824E+01  0.5250E+02
    -15.151  0.1249E+02  0.5435E+02
    -15.000  0.0000E+00  0.5600E+02
    -14.849  0.0000E+00  0.5600E+02
    -14.699  0.0000E+00  0.5600E+02
    -14.548  0.0000E+00  0.5600E+02
    -14.398  0.0000E+00  0.5600E+02
    -14.247  0.0000E+00  0.5600E+02
    -14.096  0.0000E+00  0.5600E+02
    -13.946  0.0000E+00  0.5600E+02
    -13.795  0.0000E+00  0.5600E+02
    -13.644  0.0000E+00  0.5600E+02
    -13.494  0.0000E+00  0.5600E+02
    -13.343  0.0000E+00  0.5600E+02
    -13.193  0.0000E+00  0.5600E+02
    -13.042  0.0000E+00  0.5600E+02
    -12.891  0.0000E+00  0.5600E+02
    -12.741  0.0000E+00  0.5600E+02
    -12.590  0.0000E+00  0.5600E+02
    -12.440  0.0000E+00  0.5600E+02
    -12.289  0.0000E+00  0.5600E+02
    -12.138  0.0000E+00  0.5600E+02
    -11.988  0.0000E+00  0.5600E+02
    -11.837  0.0000E+00  0.5600E+02
    -11.686  0.0000E+00  0.5600E+02
    -11.536  0.0000E+00  0.5600E+02
    -11.385  0.0000E+00  0.5600E+02
    -11.235  0.0000E+00  0.5600E+02
    -11.084  0.0000E+00  0.5600E+02
    -10.933  0.0000E+00  0.5600E+02
    -10.783  0.0000E+00  0.5600E+02
    -10.632  0.0000E+00  0.5600E+02
    -10.481  0.0000E+00  0.5600E+02
    -10.331  0.0000E+00  0.5600E+02
    -10.180  0.0000E+00  0.5600E+02
    -10.030  0.0000E+00  0.5600E+02
     -9.879  0.0000E+00  0.5600E+02
     -9.728  0.0000E+00  0.5600E+02
     -9.578  0.0000E+00  0.5600E+02
     -9.427  0.0000E+00  0.5600E+02
     -9.277  0.0000E+00  0.5600E+02
     -9.126  0.0000E+00  0.5600E+02
     -8.975  0.0000E+00  0.5600E+02
     -8.825  0.0000E+00  0.5600E+02
     -8.674  0.0000E+00  0.5600E+02
     -8.523  0.0000E+00  0.5600E+02
     -8.373  0.0000E+00  0.5600E+02
     -8.222  0.0000E+00  0.5600E+02
     -8.072  0.0000E+00  0.5600E+02
     -7.921  0.0000E+00  0.5600E+02
     -7.770  0.0000E+00  0.5600E+02
     -7.620  0.0000E+00  0.5600E+02
     -7.469  0.9706E+00  0.5640E+02
     -7.318  0.9701E+00  0.5655E+02
     -7.168  0.9696E+00  0.5670E+02
     -7.017  0.7144E+01  0.5719E+02
     -6.867  0.8208E+01  0.5897E+02
     -6.716  0.1895E+02  0.6075E+02
     -6.565  0.1660E+02  0.6302E+02
     -6.415  0.7391E+01  0.6444E+02
     -6.264  0.5514E+01  0.6549E+02
     -6.114  0.6519E+01  0.6640E+02
     -5.963  0.8907E+01  0.6791E+02
     -5.812  0.1242E+02  0.6987E+02
     -5.662  0.1042E+02  0.7163E+02
     -5.511  0.1480E+02  0.7372E+02
     -5.360  0.1233E+02  0.7573E+02
     -5.210  0.1488E+02  0.7778E+02
     -5.059  0.1315E+02  0.8021E+02
     -4.909  0.1232E+02  0.8240E+02
     -4.758  0.1541E+02  0.8439E+02
     -4.607  0.1128E+02  0.8683E+02
     -4.457  0.8457E+01  0.8820E+02
     -4.306  0.1297E+02  0.8983E+02
     -4.155  0.1827E+02  0.9206E+02
     -4.005  0.1044E+02  0.9480E+02
     -3.854  0.9118E+01  0.9640E+02
     -3.704  0.1032E+02  0.9881E+02
     -3.553  0.1130E+02  0.1004E+03
     -3.402  0.9525E+01  0.1022E+03
     -3.252  0.6081E+01  0.1034E+03
     -3.101  0.1097E+02  0.1046E+03
     -2.951  0.1120E+02  0.1062E+03
     -2.800  0.1475E+02  0.1094E+03
     -2.649  0.9403E+01  0.1110E+03
     -2.499  0.1717E+01  0.1119E+03
     -2.348  0.1031E+02  0.1124E+03
     -2.197  0.5750E+01  0.1139E+03
     -2.047  0.9898E+01  0.1155E+03
     -1.896  0.1446E+02  0.1175E+03
     -1.746  0.0000E+00  0.1180E+03
     -1.595  0.5857E+01  0.1192E+03
     -1.444  0.3532E+01  0.1199E+03
     -1.294  0.1290E+02  0.1207E+03
     -1.143  0.4318E+01  0.1227E+03
     -0.992  0.1348E+02  0.1243E+03
     -0.842  0.1391E+02  0.1267E+03
     -0.691  0.1531E+02  0.1300E+03
     -0.541  0.6972E+01  0.1315E+03
     -0.390  0.1195E+02  0.1327E+03
     -0.239  0.3945E+01  0.1338E+03
     -0.089  0.3558E+01  0.1344E+03
      0.062  0.4158E+01  0.1349E+03
      0.212  0.2580E+01  0.1358E+03
      0.363  0.5428E+01  0.1363E+03
      0.514  0.8172E+01  0.1375E+03
      0.664  0.7975E+01  0.1384E+03
      0.815  0.7093E+01  0.1397E+03
      0.966  0.6131E+01  0.1406E+03
      1.116  0.4267E+01  0.1416E+03
      1.267  0.4204E+01  0.1422E+03
      1.417  0.1065E+02  0.1435E+03
      1.568  0.3779E+01  0.1443E+03
      1.719  0.4153E+01  0.1449E+03
      1.869  0.1136E+02  0.1458E+03
      2.020  0.3418E+01  0.1466E+03
      2.171  0.3393E+01  0.1472E+03
      2.321  0.7810E+00  0.1478E+03
      2.472  0.6881E+00  0.1479E+03
      2.622  0.2170E+01  0.1481E+03
      2.773  0.3502E+01  0.1486E+03
      2.924  0.2492E+01  0.1490E+03
      3.074  0.2658E+01  0.1494E+03
      3.225  0.3214E+01  0.1504E+03
      3.375  0.2837E+01  0.1508E+03
      3.526  0.3589E+01  0.1514E+03
      3.677  0.4512E+00  0.1515E+03
      3.827  0.4262E+00  0.1516E+03
      3.978  0.4012E+00  0.1516E+03
      4.129  0.5527E+00  0.1517E+03
      4.279  0.1211E+01  0.1518E+03
      4.430  0.6237E+00  0.1520E+03
      4.580  0.0000E+00  0.1520E+03
      4.731  0.0000E+00  0.1520E+03
      4.882  0.0000E+00  0.1520E+03
      5.032  0.0000E+00  0.1520E+03
      5.183  0.0000E+00  0.1520E+03
      5.334  0.0000E+00  0.1520E+03
      5.484  0.0000E+00  0.1520E+03
      5.635  0.0000E+00  0.1520E+03
      5.785  0.0000E+00  0.1520E+03
      5.936  0.0000E+00  0.1520E+03
      6.087  0.0000E+00  0.1520E+03
      6.237  0.0000E+00  0.1520E+03
      6.388  0.0000E+00  0.1520E+03
      6.538  0.0000E+00  0.1520E+03
