   20   20    1    1
  0.2336395E+02  0.5522883E-09  0.3905268E-09  0.2166505E-08  0.5000000E-15
  1.000000000000000E-004
  CAR 
 unknown system                          
    128     12     76
 
  0.0000000E+00  0.0000000E+00  0.0000000E+00  0.2857143E-01
    1      -36.593305   1.000000
    2      -35.265769   1.000000
    3      -34.305688   1.000000
    4      -33.416478   1.000000
    5      -20.505215   1.000000
    6      -20.033857   1.000000
    7      -19.847625   1.000000
    8      -19.355413   1.000000
    9      -19.044670   1.000000
   10      -18.678337   1.000000
   11      -18.592088   1.000000
   12      -18.535754   1.000000
   13      -18.519383   1.000000
   14      -18.345332   1.000000
   15      -18.093012   1.000000
   16      -17.827558   1.000000
   17      -17.308853   1.000000
   18      -17.290156   1.000000
   19      -17.131584   1.000000
   20      -17.050624   1.000000
   21      -16.519342   1.000000
   22      -16.344190   1.000000
   23      -16.291235   1.000000
   24      -16.158802   1.000000
   25      -16.091045   1.000000
   26      -15.436077   1.000000
   27      -15.168350   1.000000
   28      -15.117475   1.000000
   29       -7.105503   1.000000
   30       -6.794774   1.000000
   31       -6.630054   1.000000
   32       -6.005206   1.000000
   33       -5.887347   1.000000
   34       -5.534856   1.000000
   35       -5.441217   1.000000
   36       -5.295504   1.000000
   37       -5.141192   1.000000
   38       -5.058523   1.000000
   39       -4.995717   1.000000
   40       -4.857261   1.000000
   41       -4.762842   1.000000
   42       -4.580401   1.000000
   43       -4.244864   1.000000
   44       -4.121511   1.000000
   45       -4.077715   1.000000
   46       -3.991003   1.000000
   47       -3.804576   1.000000
   48       -3.764448   1.000000
   49       -3.540288   1.000000
   50       -3.249411   1.000000
   51       -3.015259   1.000000
   52       -2.922472   1.000000
   53       -2.909203   1.000000
   54       -2.696386   1.000000
   55       -2.663036   1.000000
   56       -2.389057   1.000000
   57       -2.294637   1.000000
   58       -1.953275   1.000000
   59       -1.913979   1.000000
   60       -1.369230   1.000000
   61       -1.341254   1.000000
   62       -1.086107   1.000000
   63       -1.078133   1.000000
   64       -1.038960   1.000000
   65       -0.867531   1.120878
   66       -0.777226   0.207240
   67       -0.752174   0.000000
   68       -0.514558   0.000000
   69        0.069786   0.000000
   70        0.291282   0.000000
   71        0.388228   0.000000
   72        0.651414   0.000000
   73        1.252264   0.000000
   74        1.344773   0.000000
   75        1.728777   0.000000
   76        4.089688   0.000000
 
  0.2000000E+00  0.0000000E+00  0.0000000E+00  0.5714286E-01
    1      -36.593004   1.000000
    2      -35.265438   1.000000
    3      -34.305361   1.000000
    4      -33.416213   1.000000
    5      -20.565330   1.000000
    6      -20.190455   1.000000
    7      -19.719346   1.000000
    8      -19.344028   1.000000
    9      -19.124141   1.000000
   10      -18.715125   1.000000
   11      -18.592422   1.000000
   12      -18.470036   1.000000
   13      -18.400377   1.000000
   14      -18.352587   1.000000
   15      -18.163704   1.000000
   16      -17.793950   1.000000
   17      -17.309487   1.000000
   18      -17.275870   1.000000
   19      -17.091363   1.000000
   20      -17.058226   1.000000
   21      -16.491624   1.000000
   22      -16.344866   1.000000
   23      -16.292062   1.000000
   24      -16.134712   1.000000
   25      -16.031038   1.000000
   26      -15.436995   1.000000
   27      -15.174120   1.000000
   28      -15.098706   1.000000
   29       -6.935178   1.000000
   30       -6.751662   1.000000
   31       -6.659408   1.000000
   32       -5.977755   1.000000
   33       -5.746343   1.000000
   34       -5.607036   1.000000
   35       -5.535472   1.000000
   36       -5.337175   1.000000
   37       -5.174519   1.000000
   38       -5.129059   1.000000
   39       -4.921996   1.000000
   40       -4.771860   1.000000
   41       -4.690966   1.000000
   42       -4.639008   1.000000
   43       -4.366853   1.000000
   44       -4.342826   1.000000
   45       -4.075627   1.000000
   46       -4.034944   1.000000
   47       -3.953566   1.000000
   48       -3.738556   1.000000
   49       -3.502888   1.000000
   50       -3.360656   1.000000
   51       -3.186459   1.000000
   52       -3.027124   1.000000
   53       -2.934201   1.000000
   54       -2.791654   1.000000
   55       -2.610919   1.000000
   56       -2.520223   1.000000
   57       -2.300763   1.000000
   58       -2.201704   1.000000
   59       -1.891055   1.000000
   60       -1.410915   1.000000
   61       -1.386994   1.000000
   62       -1.100137   1.000000
   63       -1.072164   1.000000
   64       -0.963305   1.000000
   65       -0.869453   1.082414
   66       -0.741064   0.044496
   67       -0.723179   0.000000
   68       -0.619273   0.000000
   69        0.088552   0.000000
   70        0.329556   0.000000
   71        0.365905   0.000000
   72        0.816337   0.000000
   73        1.301350   0.000000
   74        2.637510   0.000000
   75        2.663533   0.000000
   76        4.290175   0.000000
 
  0.4000000E+00  0.0000000E+00  0.0000000E+00  0.5714286E-01
    1      -36.592517   1.000000
    2      -35.264900   1.000000
    3      -34.304831   1.000000
    4      -33.415784   1.000000
    5      -20.666566   1.000000
    6      -20.302650   1.000000
    7      -19.669733   1.000000
    8      -19.301297   1.000000
    9      -19.230424   1.000000
   10      -18.726393   1.000000
   11      -18.592965   1.000000
   12      -18.383811   1.000000
   13      -18.348421   1.000000
   14      -18.294321   1.000000
   15      -18.229263   1.000000
   16      -17.770493   1.000000
   17      -17.310515   1.000000
   18      -17.262397   1.000000
   19      -17.062729   1.000000
   20      -17.024586   1.000000
   21      -16.421505   1.000000
   22      -16.345962   1.000000
   23      -16.312312   1.000000
   24      -16.061857   1.000000
   25      -15.985797   1.000000
   26      -15.438481   1.000000
   27      -15.175171   1.000000
   28      -15.061892   1.000000
   29       -6.823466   1.000000
   30       -6.705673   1.000000
   31       -6.300323   1.000000
   32       -5.917698   1.000000
   33       -5.819209   1.000000
   34       -5.667475   1.000000
   35       -5.608743   1.000000
   36       -5.489545   1.000000
   37       -5.306614   1.000000
   38       -5.104383   1.000000
   39       -4.800966   1.000000
   40       -4.779737   1.000000
   41       -4.686208   1.000000
   42       -4.634043   1.000000
   43       -4.568316   1.000000
   44       -4.497555   1.000000
   45       -4.127288   1.000000
   46       -4.109616   1.000000
   47       -3.895060   1.000000
   48       -3.888784   1.000000
   49       -3.672609   1.000000
   50       -3.514048   1.000000
   51       -3.346178   1.000000
   52       -3.106433   1.000000
   53       -3.066615   1.000000
   54       -3.005017   1.000000
   55       -2.761779   1.000000
   56       -2.505361   1.000000
   57       -2.364749   1.000000
   58       -2.315330   1.000000
   59       -1.746425   1.000000
   60       -1.547673   1.000000
   61       -1.457228   1.000000
   62       -1.197598   1.000000
   63       -1.059536   1.000000
   64       -1.025546   1.000000
   65       -0.849673   1.013368
   66       -0.811051   0.601667
   67       -0.740072   0.000000
   68       -0.397981   0.000000
   69        0.048369   0.000000
   70        0.318519   0.000000
   71        0.397817   0.000000
   72        1.000610   0.000000
   73        1.323531   0.000000
   74        1.771197   0.000000
   75        2.608711   0.000000
   76        2.699994   0.000000
 
  0.0000000E+00  0.1428571E+00  0.0000000E+00  0.5714286E-01
    1      -36.589877   1.000000
    2      -35.261858   1.000000
    3      -34.301786   1.000000
    4      -33.412635   1.000000
    5      -20.450850   1.000000
    6      -19.993556   1.000000
    7      -19.800648   1.000000
    8      -19.311424   1.000000
    9      -19.062777   1.000000
   10      -18.633555   1.000000
   11      -18.606563   1.000000
   12      -18.549801   1.000000
   13      -18.498114   1.000000
   14      -18.306479   1.000000
   15      -18.108255   1.000000
   16      -17.786717   1.000000
   17      -17.281456   1.000000
   18      -17.236998   1.000000
   19      -17.180769   1.000000
   20      -17.066002   1.000000
   21      -16.566566   1.000000
   22      -16.303213   1.000000
   23      -16.263745   1.000000
   24      -16.202416   1.000000
   25      -16.108585   1.000000
   26      -15.385367   1.000000
   27      -15.199493   1.000000
   28      -15.182320   1.000000
   29       -7.047475   1.000000
   30       -6.724864   1.000000
   31       -6.624342   1.000000
   32       -6.331449   1.000000
   33       -5.855512   1.000000
   34       -5.830431   1.000000
   35       -5.538982   1.000000
   36       -5.495797   1.000000
   37       -5.280322   1.000000
   38       -5.217980   1.000000
   39       -5.052141   1.000000
   40       -4.979450   1.000000
   41       -4.866544   1.000000
   42       -4.621771   1.000000
   43       -4.422506   1.000000
   44       -4.419813   1.000000
   45       -4.076333   1.000000
   46       -4.065431   1.000000
   47       -4.018725   1.000000
   48       -3.724013   1.000000
   49       -3.704137   1.000000
   50       -3.352864   1.000000
   51       -3.166806   1.000000
   52       -3.069078   1.000000
   53       -2.933214   1.000000
   54       -2.820463   1.000000
   55       -2.701105   1.000000
   56       -2.558724   1.000000
   57       -2.338508   1.000000
   58       -2.001942   1.000000
   59       -1.974060   1.000000
   60       -1.500984   1.000000
   61       -1.310117   1.000000
   62       -1.093611   1.000000
   63       -0.970407   1.000000
   64       -0.967687   1.036149
   65       -0.746672   0.268551
   66       -0.653956  -0.032472
   67       -0.521170   0.000000
   68       -0.465142   0.000000
   69        0.128652   0.000000
   70        0.489613   0.000000
   71        0.570028   0.000000
   72        0.681746   0.000000
   73        1.427014   0.000000
   74        1.530546   0.000000
   75        2.786892   0.000000
   76        4.367556   0.000000
 
  0.2000000E+00  0.1428571E+00  0.0000000E+00  0.1142857E+00
    1      -36.589608   1.000000
    2      -35.261565   1.000000
    3      -34.301497   1.000000
    4      -33.412405   1.000000
    5      -20.491553   1.000000
    6      -20.147276   1.000000
    7      -19.695524   1.000000
    8      -19.309319   1.000000
    9      -19.111423   1.000000
   10      -18.707333   1.000000
   11      -18.589372   1.000000
   12      -18.486740   1.000000
   13      -18.382627   1.000000
   14      -18.319894   1.000000
   15      -18.162038   1.000000
   16      -17.775072   1.000000
   17      -17.276945   1.000000
   18      -17.236841   1.000000
   19      -17.124016   1.000000
   20      -17.081895   1.000000
   21      -16.538488   1.000000
   22      -16.314103   1.000000
   23      -16.259691   1.000000
   24      -16.173082   1.000000
   25      -16.043584   1.000000
   26      -15.380453   1.000000
   27      -15.211647   1.000000
   28      -15.140725   1.000000
   29       -6.911308   1.000000
   30       -6.703442   1.000000
   31       -6.649598   1.000000
   32       -6.313179   1.000000
   33       -5.951101   1.000000
   34       -5.758937   1.000000
   35       -5.600883   1.000000
   36       -5.503135   1.000000
   37       -5.330788   1.000000
   38       -5.171435   1.000000
   39       -5.050440   1.000000
   40       -4.969197   1.000000
   41       -4.819410   1.000000
   42       -4.650249   1.000000
   43       -4.575710   1.000000
   44       -4.412496   1.000000
   45       -4.349547   1.000000
   46       -4.052364   1.000000
   47       -3.929471   1.000000
   48       -3.818378   1.000000
   49       -3.687474   1.000000
   50       -3.477072   1.000000
   51       -3.163730   1.000000
   52       -3.085799   1.000000
   53       -3.021946   1.000000
   54       -2.958757   1.000000
   55       -2.842655   1.000000
   56       -2.535754   1.000000
   57       -2.364779   1.000000
   58       -2.183464   1.000000
   59       -1.937643   1.000000
   60       -1.621132   1.000000
   61       -1.305352   1.000000
   62       -1.097360   1.000000
   63       -0.970602   1.000000
   64       -0.935557   1.016769
   65       -0.729976   0.316173
   66       -0.710793  -0.013900
   67       -0.529541   0.000000
   68       -0.417249   0.000000
   69        0.169972   0.000000
   70        0.520851   0.000000
   71        0.555549   0.000000
   72        0.837701   0.000000
   73        1.449275   0.000000
   74        1.454647   0.000000
   75        2.777209   0.000000
   76        4.484585   0.000000
 
  0.4000000E+00  0.1428571E+00  0.0000000E+00  0.1142857E+00
    1      -36.589173   1.000000
    2      -35.261092   1.000000
    3      -34.301031   1.000000
    4      -33.412035   1.000000
    5      -20.574897   1.000000
    6      -20.251336   1.000000
    7      -19.666422   1.000000
    8      -19.296774   1.000000
    9      -19.180736   1.000000
   10      -18.735756   1.000000
   11      -18.579028   1.000000
   12      -18.374116   1.000000
   13      -18.334644   1.000000
   14      -18.307501   1.000000
   15      -18.215215   1.000000
   16      -17.775670   1.000000
   17      -17.257792   1.000000
   18      -17.243034   1.000000
   19      -17.095916   1.000000
   20      -17.045311   1.000000
   21      -16.473193   1.000000
   22      -16.333064   1.000000
   23      -16.255656   1.000000
   24      -16.099237   1.000000
   25      -15.999207   1.000000
   26      -15.362807   1.000000
   27      -15.202817   1.000000
   28      -15.091205   1.000000
   29       -6.840308   1.000000
   30       -6.713052   1.000000
   31       -6.415513   1.000000
   32       -6.293167   1.000000
   33       -6.020720   1.000000
   34       -5.778913   1.000000
   35       -5.593230   1.000000
   36       -5.527912   1.000000
   37       -5.442539   1.000000
   38       -5.281207   1.000000
   39       -5.066238   1.000000
   40       -4.944955   1.000000
   41       -4.817751   1.000000
   42       -4.720129   1.000000
   43       -4.677315   1.000000
   44       -4.519139   1.000000
   45       -4.343165   1.000000
   46       -4.134681   1.000000
   47       -3.961076   1.000000
   48       -3.815413   1.000000
   49       -3.777124   1.000000
   50       -3.544674   1.000000
   51       -3.472056   1.000000
   52       -3.221804   1.000000
   53       -3.106590   1.000000
   54       -2.985979   1.000000
   55       -2.885585   1.000000
   56       -2.814743   1.000000
   57       -2.425584   1.000000
   58       -2.146916   1.000000
   59       -1.861962   1.000000
   60       -1.698819   1.000000
   61       -1.297201   1.000000
   62       -1.245564   1.000000
   63       -1.103052   1.000000
   64       -0.931893   1.000000
   65       -0.872628   1.063376
   66       -0.618408  -0.057686
   67       -0.369245   0.000000
   68       -0.331741   0.000000
   69        0.163974   0.000000
   70        0.529280   0.000000
   71        0.586279   0.000000
   72        1.292932   0.000000
   73        1.436896   0.000000
   74        1.825615   0.000000
   75        2.716885   0.000000
   76        2.804431   0.000000
 
  0.0000000E+00  0.2857143E+00  0.0000000E+00  0.5714286E-01
    1      -36.582157   1.000000
    2      -35.253048   1.000000
    3      -34.292996   1.000000
    4      -33.403978   1.000000
    5      -20.384892   1.000000
    6      -19.869590   1.000000
    7      -19.681122   1.000000
    8      -19.218207   1.000000
    9      -19.089859   1.000000
   10      -18.636223   1.000000
   11      -18.582784   1.000000
   12      -18.516076   1.000000
   13      -18.448071   1.000000
   14      -18.220344   1.000000
   15      -18.116269   1.000000
   16      -17.682404   1.000000
   17      -17.306393   1.000000
   18      -17.221125   1.000000
   19      -17.170547   1.000000
   20      -17.045422   1.000000
   21      -16.633118   1.000000
   22      -16.358425   1.000000
   23      -16.215606   1.000000
   24      -16.137730   1.000000
   25      -16.134109   1.000000
   26      -15.373074   1.000000
   27      -15.347466   1.000000
   28      -15.196815   1.000000
   29       -6.990566   1.000000
   30       -6.928858   1.000000
   31       -6.609170   1.000000
   32       -6.527555   1.000000
   33       -6.368876   1.000000
   34       -6.274558   1.000000
   35       -6.003080   1.000000
   36       -5.793078   1.000000
   37       -5.559806   1.000000
   38       -5.458086   1.000000
   39       -5.300477   1.000000
   40       -5.171360   1.000000
   41       -5.045152   1.000000
   42       -4.983403   1.000000
   43       -4.739109   1.000000
   44       -4.527373   1.000000
   45       -4.516646   1.000000
   46       -4.246167   1.000000
   47       -4.180487   1.000000
   48       -3.988713   1.000000
   49       -3.903446   1.000000
   50       -3.709474   1.000000
   51       -3.409510   1.000000
   52       -3.367103   1.000000
   53       -2.971371   1.000000
   54       -2.811804   1.000000
   55       -2.766682   1.000000
   56       -2.696410   1.000000
   57       -2.263308   1.000000
   58       -2.140123   1.000000
   59       -1.982815   1.000000
   60       -1.499047   1.000000
   61       -1.293710   1.000000
   62       -0.983719   1.000000
   63       -0.810660   1.034462
   64       -0.741431   0.405920
   65       -0.695759   0.000000
   66       -0.535811   0.000000
   67       -0.306738   0.000000
   68        0.162871   0.000000
   69        0.371765   0.000000
   70        0.735143   0.000000
   71        0.980751   0.000000
   72        1.021213   0.000000
   73        1.835584   0.000000
   74        1.885706   0.000000
   75        3.097613   0.000000
   76        3.149875   0.000000
 
  0.2000000E+00  0.2857143E+00  0.0000000E+00  0.1142857E+00
    1      -36.581961   1.000000
    2      -35.252844   1.000000
    3      -34.292796   1.000000
    4      -33.403829   1.000000
    5      -20.363603   1.000000
    6      -20.029985   1.000000
    7      -19.647574   1.000000
    8      -19.234231   1.000000
    9      -19.089685   1.000000
   10      -18.627104   1.000000
   11      -18.587527   1.000000
   12      -18.508133   1.000000
   13      -18.381793   1.000000
   14      -18.235170   1.000000
   15      -18.145549   1.000000
   16      -17.717981   1.000000
   17      -17.265380   1.000000
   18      -17.175357   1.000000
   19      -17.158097   1.000000
   20      -17.087396   1.000000
   21      -16.608994   1.000000
   22      -16.295367   1.000000
   23      -16.232170   1.000000
   24      -16.175051   1.000000
   25      -16.041435   1.000000
   26      -15.375350   1.000000
   27      -15.297833   1.000000
   28      -15.155735   1.000000
   29       -6.971451   1.000000
   30       -6.893466   1.000000
   31       -6.692069   1.000000
   32       -6.550964   1.000000
   33       -6.414605   1.000000
   34       -6.277565   1.000000
   35       -6.015684   1.000000
   36       -5.797174   1.000000
   37       -5.633108   1.000000
   38       -5.408869   1.000000
   39       -5.352894   1.000000
   40       -5.182816   1.000000
   41       -5.041719   1.000000
   42       -4.963144   1.000000
   43       -4.834292   1.000000
   44       -4.699125   1.000000
   45       -4.384415   1.000000
   46       -4.281179   1.000000
   47       -4.142701   1.000000
   48       -4.060599   1.000000
   49       -3.876157   1.000000
   50       -3.762740   1.000000
   51       -3.540909   1.000000
   52       -3.347361   1.000000
   53       -3.154726   1.000000
   54       -2.891838   1.000000
   55       -2.883070   1.000000
   56       -2.550074   1.000000
   57       -2.325158   1.000000
   58       -2.083738   1.000000
   59       -2.031166   1.000000
   60       -1.658428   1.000000
   61       -1.258159   1.000000
   62       -0.963683   1.000000
   63       -0.828195   1.032994
   64       -0.794684   0.890488
   65       -0.713432   0.020359
   66       -0.551996   0.000000
   67       -0.225225   0.000000
   68        0.196236   0.000000
   69        0.414894   0.000000
   70        0.874063   0.000000
   71        0.994081   0.000000
   72        1.018255   0.000000
   73        1.855985   0.000000
   74        1.865018   0.000000
   75        3.117821   0.000000
   76        3.136905   0.000000
 
  0.4000000E+00  0.2857143E+00  0.0000000E+00  0.1142857E+00
    1      -36.581643   1.000000
    2      -35.252512   1.000000
    3      -34.292471   1.000000
    4      -33.403589   1.000000
    5      -20.350838   1.000000
    6      -20.152311   1.000000
    7      -19.700642   1.000000
    8      -19.281579   1.000000
    9      -19.052462   1.000000
   10      -18.724314   1.000000
   11      -18.551603   1.000000
   12      -18.387009   1.000000
   13      -18.345849   1.000000
   14      -18.278539   1.000000
   15      -18.133128   1.000000
   16      -17.803324   1.000000
   17      -17.225716   1.000000
   18      -17.182552   1.000000
   19      -17.110377   1.000000
   20      -17.063436   1.000000
   21      -16.553137   1.000000
   22      -16.311106   1.000000
   23      -16.172224   1.000000
   24      -16.132974   1.000000
   25      -16.008226   1.000000
   26      -15.378443   1.000000
   27      -15.173404   1.000000
   28      -15.116679   1.000000
   29       -7.034076   1.000000
   30       -6.941058   1.000000
   31       -6.692187   1.000000
   32       -6.619669   1.000000
   33       -6.495549   1.000000
   34       -6.066091   1.000000
   35       -6.017714   1.000000
   36       -5.853570   1.000000
   37       -5.730294   1.000000
   38       -5.468811   1.000000
   39       -5.331699   1.000000
   40       -5.213304   1.000000
   41       -5.192432   1.000000
   42       -5.068709   1.000000
   43       -4.903783   1.000000
   44       -4.736215   1.000000
   45       -4.240345   1.000000
   46       -4.230918   1.000000
   47       -4.148354   1.000000
   48       -4.086972   1.000000
   49       -3.944092   1.000000
   50       -3.811701   1.000000
   51       -3.681414   1.000000
   52       -3.478210   1.000000
   53       -3.437509   1.000000
   54       -2.914011   1.000000
   55       -2.877989   1.000000
   56       -2.836656   1.000000
   57       -2.150951   1.000000
   58       -2.046247   1.000000
   59       -1.993824   1.000000
   60       -1.736346   1.000000
   61       -1.242286   1.000000
   62       -1.202300   1.000000
   63       -0.941013   1.006945
   64       -0.801841   0.994248
   65       -0.776335   0.510913
   66       -0.339746   0.000000
   67       -0.175046   0.000000
   68        0.446050   0.000000
   69        0.982143   0.000000
   70        1.009606   0.000000
   71        1.051733   0.000000
   72        1.847032   0.000000
   73        1.863409   0.000000
   74        1.892692   0.000000
   75        3.082186   0.000000
   76        3.148572   0.000000
 
  0.0000000E+00  0.4285714E+00  0.0000000E+00  0.5714286E-01
    1      -36.575948   1.000000
    2      -35.245958   1.000000
    3      -34.285923   1.000000
    4      -33.397011   1.000000
    5      -20.392941   1.000000
    6      -19.719325   1.000000
    7      -19.563296   1.000000
    8      -19.191430   1.000000
    9      -19.071611   1.000000
   10      -18.726138   1.000000
   11      -18.545424   1.000000
   12      -18.402980   1.000000
   13      -18.398183   1.000000
   14      -18.188151   1.000000
   15      -18.062422   1.000000
   16      -17.577811   1.000000
   17      -17.432400   1.000000
   18      -17.200759   1.000000
   19      -17.156419   1.000000
   20      -16.978984   1.000000
   21      -16.636290   1.000000
   22      -16.481833   1.000000
   23      -16.179295   1.000000
   24      -16.109097   1.000000
   25      -16.002676   1.000000
   26      -15.524492   1.000000
   27      -15.455227   1.000000
   28      -15.131141   1.000000
   29       -7.573105   1.000000
   30       -6.975523   1.000000
   31       -6.708787   1.000000
   32       -6.593714   1.000000
   33       -6.589531   1.000000
   34       -6.525221   1.000000
   35       -6.358491   1.000000
   36       -5.968563   1.000000
   37       -5.828183   1.000000
   38       -5.639146   1.000000
   39       -5.563536   1.000000
   40       -5.473983   1.000000
   41       -5.140860   1.000000
   42       -4.970030   1.000000
   43       -4.910474   1.000000
   44       -4.728793   1.000000
   45       -4.610546   1.000000
   46       -4.579691   1.000000
   47       -4.436092   1.000000
   48       -4.162455   1.000000
   49       -4.067825   1.000000
   50       -3.715126   1.000000
   51       -3.547962   1.000000
   52       -3.490601   1.000000
   53       -3.002409   1.000000
   54       -2.858146   1.000000
   55       -2.764289   1.000000
   56       -2.733672   1.000000
   57       -2.302681   1.000000
   58       -2.141214   1.000000
   59       -1.885455   1.000000
   60       -1.433034   1.000000
   61       -1.282198   1.000000
   62       -0.870160   1.000000
   63       -0.738870   0.138623
   64       -0.709304  -0.037382
   65       -0.552571   0.000000
   66       -0.415965   0.000000
   67       -0.186532   0.000000
   68        0.649253   0.000000
   69        0.716725   0.000000
   70        0.770838   0.000000
   71        1.396832   0.000000
   72        1.439643   0.000000
   73        2.035111   0.000000
   74        3.075392   0.000000
   75        3.505783   0.000000
   76        3.528685   0.000000
 
  0.2000000E+00  0.4285714E+00  0.0000000E+00  0.1142857E+00
    1      -36.575810   1.000000
    2      -35.245825   1.000000
    3      -34.285794   1.000000
    4      -33.396928   1.000000
    5      -20.331015   1.000000
    6      -19.860988   1.000000
    7      -19.633137   1.000000
    8      -19.156025   1.000000
    9      -19.103267   1.000000
   10      -18.571950   1.000000
   11      -18.512467   1.000000
   12      -18.498583   1.000000
   13      -18.418893   1.000000
   14      -18.165204   1.000000
   15      -18.129787   1.000000
   16      -17.662109   1.000000
   17      -17.301949   1.000000
   18      -17.217224   1.000000
   19      -17.108860   1.000000
   20      -17.043096   1.000000
   21      -16.619414   1.000000
   22      -16.350461   1.000000
   23      -16.218028   1.000000
   24      -16.101029   1.000000
   25      -16.016300   1.000000
   26      -15.457160   1.000000
   27      -15.392305   1.000000
   28      -15.092149   1.000000
   29       -7.583361   1.000000
   30       -6.943689   1.000000
   31       -6.794268   1.000000
   32       -6.753395   1.000000
   33       -6.627328   1.000000
   34       -6.575048   1.000000
   35       -6.271188   1.000000
   36       -5.982026   1.000000
   37       -5.847722   1.000000
   38       -5.770547   1.000000
   39       -5.534492   1.000000
   40       -5.439984   1.000000
   41       -5.158790   1.000000
   42       -5.109962   1.000000
   43       -4.956656   1.000000
   44       -4.816049   1.000000
   45       -4.658070   1.000000
   46       -4.412745   1.000000
   47       -4.298185   1.000000
   48       -4.186409   1.000000
   49       -4.129124   1.000000
   50       -3.763025   1.000000
   51       -3.669205   1.000000
   52       -3.497914   1.000000
   53       -3.199660   1.000000
   54       -2.874989   1.000000
   55       -2.805844   1.000000
   56       -2.631956   1.000000
   57       -2.303599   1.000000
   58       -2.049089   1.000000
   59       -1.919973   1.000000
   60       -1.626649   1.000000
   61       -1.217358   1.000000
   62       -0.851122   1.000000
   63       -0.754430   0.527973
   64       -0.734707   0.022560
   65       -0.703191  -0.005190
   66       -0.386494   0.000000
   67       -0.037654   0.000000
   68        0.706483   0.000000
   69        0.897056   0.000000
   70        1.373520   0.000000
   71        1.425884   0.000000
   72        1.857319   0.000000
   73        2.257053   0.000000
   74        2.273596   0.000000
   75        3.142372   0.000000
   76        3.491451   0.000000
 
  0.4000000E+00  0.4285714E+00  0.0000000E+00  0.1142857E+00
    1      -36.575588   1.000000
    2      -35.245610   1.000000
    3      -34.285585   1.000000
    4      -33.396794   1.000000
    5      -20.176366   1.000000
    6      -20.034516   1.000000
    7      -19.805766   1.000000
    8      -19.222232   1.000000
    9      -18.968020   1.000000
   10      -18.706950   1.000000
   11      -18.494428   1.000000
   12      -18.416730   1.000000
   13      -18.355057   1.000000
   14      -18.236924   1.000000
   15      -18.061606   1.000000
   16      -17.838927   1.000000
   17      -17.232392   1.000000
   18      -17.184878   1.000000
   19      -17.083200   1.000000
   20      -17.022255   1.000000
   21      -16.577316   1.000000
   22      -16.266916   1.000000
   23      -16.160870   1.000000
   24      -16.155287   1.000000
   25      -15.987067   1.000000
   26      -15.459884   1.000000
   27      -15.197425   1.000000
   28      -15.038757   1.000000
   29       -7.604036   1.000000
   30       -7.108111   1.000000
   31       -6.968194   1.000000
   32       -6.842456   1.000000
   33       -6.662624   1.000000
   34       -6.554795   1.000000
   35       -6.088211   1.000000
   36       -6.016560   1.000000
   37       -5.917025   1.000000
   38       -5.842910   1.000000
   39       -5.600910   1.000000
   40       -5.366412   1.000000
   41       -5.292500   1.000000
   42       -5.280857   1.000000
   43       -5.144987   1.000000
   44       -4.748557   1.000000