unknown system                          
   1.00000000000000     
     5.431010    0.000000    0.000000
     0.000000    5.431010    0.000000
     0.000000    0.000000    8.791010
   Si
    10
Direct
  0.000000  0.000000  0.000000
  0.499999  0.499999  0.000000
  0.250000  0.250000  0.154448
  0.750000  0.750000  0.154448
  0.000000  0.499999  0.308895
  0.499999  0.000000  0.308895
  0.250000  0.750000  0.463344
  0.750000  0.250000  0.463344
  0.000000  0.000000  0.617791
  0.499999  0.499999  0.617791
 
   48   48   72
 -45.678     -35.943     -9.7425      25.123      59.074      84.114      96.128      95.433      85.751      72.274    
  58.860      46.772      36.547      28.304      21.893      17.025      13.379      10.664      8.6451      7.1508    
  6.0588      5.2847      4.7708      4.4783      4.3835      4.4783      4.7708      5.2847      6.0588      7.1508    
  8.6451      10.664      13.379      17.025      21.893      28.304      36.547      46.772      58.860      72.274    
  85.751      95.433      96.128      84.114      59.074      25.123     -9.7425     -35.943     -35.943     -26.343    
 -.84983      33.142      66.263      90.526      101.74      100.22      89.783      75.723      61.823      49.297    
  38.676      30.081      23.360      18.227      14.358      11.458      9.2879      7.6686      6.4718      5.6074    
  5.0129      4.6455      4.4783      4.5005      4.7174      5.1490      5.8298      6.8118      8.1720      10.023    
  12.527      15.903      20.432      26.423      34.158      43.794      55.224      67.948      80.826      90.415    
  91.934      81.861      59.707      29.037     -2.8802     -27.063     -9.7425     -.84983      21.716      51.467    
  79.993      100.06      107.94      104.15      92.490      78.027      63.931      51.247      40.470      31.707    
  24.810      19.501      15.466      12.417      10.115      8.3815      7.0852      6.1324      5.4570      5.0129    
  4.7708      4.7174      4.8551      5.2005      5.7833      6.6491      7.8665      9.5367      11.806      14.878    
  19.009      24.492      31.598      40.489      51.093      62.983      75.240      85.221      88.795      82.760    
  66.386      42.379      16.727     -2.8802      25.123      33.142      51.467      74.807      96.238      109.87    
  112.88      106.16      93.379      78.937      65.028      52.526      41.870      33.151      26.230      20.851    
  16.719      13.563      11.155      9.3209      7.9311      6.8909      6.1324      5.6074      5.2847      5.1490    
  5.2005      5.4522      5.9294      6.6712      7.7367      9.2144      11.233      13.973      17.665      22.576    
  28.961      36.987      46.630      57.561      69.081      79.500      85.559      84.469      75.295      59.786    
  42.379      29.037      59.074      66.263      79.993      96.238      109.81      116.47      114.54      105.31    
  92.180      78.311      65.029      53.080      42.843      34.397      27.621      22.289      18.142      14.932    
  12.450      10.534      9.0579      7.9311      7.0852      6.4718      6.0588      5.8298      5.7833      5.9294    
  6.2892      6.8955      7.7982      9.0723      10.828      13.218      16.445      20.742      26.343      33.419    
  41.992      51.845      62.457      72.902      81.019      84.501      82.299      75.295      66.386      59.707    
  84.114      90.526      100.06      109.87      116.47      117.27      111.70      101.35      88.944      76.166    
  63.948      52.916      43.390      35.446      28.991      23.840      19.771      16.572      14.059      12.084    
  10.534      9.3209      8.3815      7.6686      7.1508      6.8118      6.6491      6.6712      6.8955      7.3495    
  8.0745      9.1321      10.613      12.644      15.392      19.057      23.843      29.918      37.345      46.005    
  55.550      65.410      74.548      81.265      84.501      84.469      82.760      81.861      96.128      101.74    
  107.94      112.88      114.54      111.70      104.63      94.885      83.926      72.682      61.903      52.101    
  43.548      36.323      30.367      25.537      21.656      18.549      16.059      14.059      12.450      11.155    
  10.115      9.2879      8.6451      8.1720      7.8665      7.7367      7.7982      8.0745      8.5994      9.4226    
  10.616      12.280      14.549      17.582      21.554      26.617      32.860      40.245      48.568      57.445    
  66.377      74.548      81.019      85.559      88.795      91.934      95.433      100.22      104.15      106.16    
  105.31      101.35      94.885      86.716      77.574      68.172      59.095      50.756      43.388      37.076    
  31.790      27.431      23.863      20.944      18.549      16.572      14.932      13.563      12.417      11.458    
  10.664      10.023      9.5367      9.2144      9.0723      9.1321      9.4226      9.9833      10.870      12.158    
  13.950      16.368      19.551      23.630      28.702      34.785      41.777      49.444      57.445      65.410    
  72.902      79.500      85.221      90.415      85.751      89.783      92.490      93.379      92.180      88.944    
  83.926      77.574      70.426      63.010      55.772      49.038      43.008      37.771      33.321      29.589    
  26.473      23.863      21.656      19.771      18.142      16.719      15.466      14.358      13.379      12.527    
  11.806      11.233      10.828      10.613      10.616      10.870      11.416      12.311      13.626      15.451    
  17.887      21.042      25.004      29.818      35.453      41.777      48.568      55.550      62.457      69.081    
  75.240      80.826      72.274      75.723      78.027      78.937      78.311      76.166      72.682      68.172    
  63.010      57.574      52.192      47.120      42.528      38.498      35.036      32.094      29.589      27.431    
  25.537      23.840      22.289      20.851      19.501      18.227      17.025      15.903      14.878      13.973    
  13.218      12.644      12.280      12.158      12.311      12.777      13.606      14.854      16.593      18.899    
  21.846      25.484      29.818      34.785      40.245      46.005      51.845      57.561      62.983      67.948    
  58.860      61.823      63.931      65.028      65.029      63.948      61.903      59.095      55.772      52.192    
  48.594      45.174      42.069      39.349      37.020      35.036      33.321      31.790      30.367      28.991    
  27.621      26.230      24.810      23.360      21.893      20.432      19.009      17.665      16.445      15.392    
  14.549      13.950      13.626      13.606      13.917      14.593      15.675      17.211      19.254      21.846    
  25.004      28.702      32.860      37.345      41.992      46.630      51.093      55.224      46.772      49.297    
  51.247      52.526      53.080      52.916      52.101      50.756      49.038      47.120      45.174      43.346    
  41.742      40.412      39.349      38.498      37.771      37.076      36.323      35.446      34.397      33.151    
  31.707      30.081      28.304      26.423      24.492      22.576      20.742      19.057      17.582      16.368    
  15.451      14.854      14.593      14.679      15.129      15.963      17.211      18.899      21.042      23.630    
  26.617      29.918      33.419      36.987      40.489      43.794      36.547      38.676      40.470      41.870    
  42.843      43.390      43.548      43.388      43.008      42.528      42.069      41.742      41.624      41.742    
  42.069      42.528      43.008      43.388      43.548      43.390      42.843      41.870      40.470      38.676    
  36.547      34.158      31.598      28.961      26.343      23.843      21.554      19.551      17.887      16.593    
  15.675      15.129      14.948      15.129      15.675      16.593      17.887      19.551      21.554      23.843    
  26.343      28.961      31.598      34.158      28.304      30.081      31.707      33.151      34.397      35.446    
  36.323      37.076      37.771      38.498      39.349      40.412      41.742      43.346      45.174      47.120    
  49.038      50.756      52.101      52.916      53.080      52.526      51.247      49.297      46.772      43.794    
  40.489      36.987      33.419      29.918      26.617      23.630      21.042      18.899      17.211      15.963    
  15.129      14.679      14.593      14.854      15.451      16.368      17.582      19.057      20.742      22.576    
  24.492      26.423      21.893      23.360      24.810      26.230      27.621      28.991      30.367      31.790    
  33.321      35.036      37.020      39.349      42.069      45.174      48.594      52.192      55.772      59.095    
  61.903      63.948      65.029      65.028      63.931      61.823      58.860      55.224      51.093      46.630    
  41.992      37.345      32.860      28.702      25.004      21.846      19.254      17.211      15.675      14.593    
  13.917      13.606      13.626      13.950      14.549      15.392      16.445      17.665      19.009      20.432    
  17.025      18.227      19.501      20.851      22.289      23.840      25.537      27.431      29.589      32.094    
  35.036      38.498      42.528      47.120      52.192      57.574      63.010      68.172      72.682      76.166    
  78.311      78.937      78.027      75.723      72.274      67.948      62.983      57.561      51.845      46.005    
  40.245      34.785      29.818      25.484      21.846      18.899      16.593      14.854      13.606      12.777    
  12.311      12.158      12.280      12.644      13.218      13.973      14.878      15.903      13.379      14.358    
  15.466      16.719      18.142      19.771      21.656      23.863      26.473      29.589      33.321      37.771    
  43.008      49.038      55.772      63.010      70.426      77.574      83.926      88.944      92.180      93.379    
  92.490      89.783      85.751      80.826      75.240      69.081      62.457      55.550      48.568      41.777    
  35.453      29.818      25.004      21.042      17.887      15.451      13.626      12.311      11.416      10.870    
  10.616      10.613      10.828      11.233      11.806      12.527      10.664      11.458      12.417      13.563    
  14.932      16.572      18.549      20.944      23.863      27.431      31.790      37.076      43.388      50.756    
  59.095      68.172      77.574      86.716      94.885      101.35      105.31      106.16      104.15      100.22    
  95.433      90.415      85.220      79.500      72.902      65.410      57.445      49.444      41.777      34.785    
  28.702      23.630      19.551      16.368      13.950      12.158      10.870      9.9833      9.4226      9.1321    
  9.0723      9.2144      9.5367      10.023      8.6451      9.2879      10.115      11.155      12.450      14.059    
  16.059      18.549      21.656      25.537      30.367      36.323      43.548      52.101      61.903      72.682    
  83.926      94.885      104.63      111.70      114.54      112.88      107.94      101.74      96.127      91.933    
  88.794      85.558      81.019      74.548      66.377      57.445      48.568      40.245      32.860      26.617    
  21.554      17.582      14.549      12.280      10.616      9.4226      8.5994      8.0745      7.7982      7.7367    
  7.8665      8.1720      7.1508      7.6686      8.3815      9.3209      10.534      12.084      14.059      16.572    
  19.771      23.840      28.991      35.446      43.390      52.916      63.948      76.166      88.944      101.35    
  111.70      117.27      116.47      109.87      100.06      90.525      84.113      81.861      82.760      84.469    
  84.501      81.265      74.548      65.410      55.550      46.005      37.345      29.918      23.843      19.057    
  15.392      12.644      10.613      9.1321      8.0745      7.3495      6.8955      6.6712      6.6491      6.8118    
  6.0588      6.4718      7.0852      7.9311      9.0579      10.534      12.450      14.932      18.142      22.289    
  27.621      34.397      42.843      53.080      65.029      78.311      92.180      105.31      114.54      116.47    
  109.81      96.236      79.992      66.262      59.073      59.706      66.386      75.294      82.299      84.501    
  81.019      72.902      62.457      51.845      41.992      33.419      26.343      20.742      16.445      13.218    
  10.828      9.0723      7.7982      6.8955      6.2892      5.9294      5.7833      5.8298      5.2847      5.6074    
  6.1324      6.8909      7.9311      9.3209      11.155      13.563      16.719      20.851      26.230      33.151    
  41.870      52.526      65.028      78.937      93.379      106.16      112.88      109.87      96.236      74.805    
  51.466      33.140      25.122      29.036      42.378      59.786      75.295      84.469      85.559      79.501    
  69.081      57.561      46.630      36.987      28.961      22.576      17.665      13.973      11.233      9.2144    
  7.7367      6.6712      5.9294      5.4522      5.2005      5.1490      4.7708      5.0129      5.4570      6.1324    
  7.0852      8.3815      10.115      12.417      15.466      19.501      24.810      31.707      40.470      51.247    
  63.931      78.027      92.490      104.15      107.94      100.06      79.992      51.466      21.714     -.85129    
 -9.7435     -2.8806      16.727      42.379      66.387      82.761      88.795      85.221      75.240      62.983    
  51.093      40.489      31.598      24.492      19.009      14.878      11.806      9.5367      7.8665      6.6491    
  5.7833      5.2005      4.8551      4.7174      4.4783      4.6455      5.0129      5.6074      6.4718      7.6686    
  9.2879      11.458      14.358      18.227      23.360      30.081      38.676      49.297      61.823      75.723    
  89.783      100.22      101.74      90.525      66.262      33.140     -.85129     -26.344     -35.944     -27.063    
 -2.8797      29.037      59.708      81.862      91.934      90.416      80.826      67.948      55.224      43.794    
  34.158      26.423      20.432      15.903      12.527      10.023      8.1720      6.8118      5.8298      5.1490    
  4.7174      4.5005      4.3835      4.4783      4.7708      5.2847      6.0588      7.1508      8.6451      10.664    
  13.379      17.025      21.893      28.304      36.547      46.772      58.860      72.274      85.751      95.433    
  96.127      84.113      59.073      25.122     -9.7435     -35.944     -45.678     -35.943     -9.7415      25.124    
  59.075      84.115      96.128      95.433      85.751      72.274      58.860      46.772      36.547      28.304    
  21.893      17.025      13.379      10.664      8.6451      7.1508      6.0588      5.2847      4.7708      4.4783    
  4.4783      4.5005      4.7174      5.1490      5.8298      6.8118      8.1720      10.023      12.527      15.903    
  20.432      26.423      34.158      43.794      55.224      67.948      80.826      90.415      91.933      81.861    
  59.706      29.036     -2.8806     -27.063     -35.943     -26.342     -.84837      33.143      66.265      90.527    
  101.74      100.22      89.783      75.723      61.823      49.297      38.676      30.081      23.360      18.227    
  14.358      11.458      9.2879      7.6686      6.4718      5.6074      5.0129      4.6455      4.7708      4.7174    
  4.8551      5.2005      5.7833      6.6491      7.8665      9.5367      11.806      14.878      19.009      24.492    
  31.598      40.489      51.093      62.983      75.240      85.220      88.794      82.760      66.386      42.378    
  16.727     -2.8797     -9.7415     -.84837      21.718      51.469      79.995      100.06      107.94      104.15    
  92.490      78.027      63.931      51.247      40.470      31.707      24.810      19.501      15.466      12.417    
  10.115      8.3815      7.0852      6.1324      5.4570      5.0129      5.2847      5.1490      5.2005      5.4522    
  5.9294      6.6712      7.7367      9.2144      11.233      13.973      17.665      22.576      28.961      36.987    
  46.630      57.561      69.081      79.500      85.558      84.469      75.294      59.786      42.379      29.037    
  25.124      33.143      51.469      74.808      96.239      109.87      112.88      106.16      93.379      78.937    
  65.028      52.526      41.870      33.151      26.230      20.851      16.719      13.563      11.155      9.3209    
  7.9311      6.8909      6.1324      5.6074      6.0588      5.8298      5.7833      5.9294      6.2892      6.8955    
  7.7982      9.0723      10.828      13.218      16.445      20.742      26.343      33.419      41.992      51.845    
  62.457      72.902      81.019      84.501      82.299      75.295      66.387      59.708      59.075      66.265    
  79.995      96.239      109.81      116.47      114.54      105.31      92.180      78.311      65.029      53.080    
  42.843      34.397      27.621      22.289      18.142      14.932      12.450      10.534      9.0579      7.9311    
  7.0852      6.4718      7.1508      6.8118      6.6491      6.6712      6.8955      7.3495      8.0745      9.1321    
  10.613      12.644      15.392      19.057      23.843      29.918      37.345      46.005      55.550      65.410    
  74.548      81.265      84.501      84.469      82.761      81.862      84.115      90.527      100.06      109.87    
  116.47      117.27      111.70      101.35      88.944      76.166      63.948      52.916      43.390      35.446    
  28.991      23.840      19.771      16.572      14.059      12.084      10.534      9.3209      8.3815      7.6686    
  8.6451      8.1720      7.8665      7.7367      7.7982      8.0745      8.5994      9.4226      10.616      12.280    
  14.549      17.582      21.554      26.617      32.860      40.245      48.568      57.445      66.377      74.548    
  81.019      85.559      88.795      91.934      96.128      101.74      107.94      112.88      114.54      111.70    
  104.63      94.885      83.926      72.682      61.903      52.101      43.548      36.323      30.367      25.537    
  21.656      18.549      16.059      14.059      12.450      11.155      10.115      9.2879      10.664      10.023    
  9.5367      9.2144      9.0723      9.1321      9.4226      9.9833      10.870      12.158      13.950      16.368    
  19.551      23.630      28.702      34.785      41.777      49.444      57.445      65.410      72.902      79.501    
  85.221      90.416      95.433      100.22      104.15      106.16      105.31      101.35      94.885      86.716    
  77.574      68.172      59.095      50.756      43.388      37.076      31.790      27.431      23.863      20.944    
  18.549      16.572      14.932      13.563      12.417      11.458      13.379      12.527      11.806      11.233    
  10.828      10.613      10.616      10.870      11.416      12.311      13.626      15.451      17.887      21.042    
  25.004      29.818      35.453      41.777      48.568      55.550      62.457      69.081      75.240      80.826    
  85.751      89.783      92.490      93.379      92.180      88.944      83.926      77.574      70.426      63.010    
  55.772      49.038      43.008      37.771      33.321      29.589      26.473      23.863      21.656      19.771    
  18.142      16.719      15.466      14.358      17.025      15.903      14.878      13.973      13.218      12.644    
  12.280      12.158      12.311      12.777      13.606      14.854      16.593      18.899      21.846      25.484    
  29.818      34.785      40.245      46.005      51.845      57.561      62.983      67.948      72.274      75.723    
  78.027      78.937      78.311      76.166      72.682      68.172      63.010      57.574      52.192      47.120    
  42.528      38.498      35.036      32.094      29.589      27.431      25.537      23.840      22.289      20.851    
  19.501      18.227      21.893      20.432      19.009      17.665      16.445      15.392      14.549      13.950    
  13.626      13.606      13.917      14.593      15.675      17.211      19.254      21.846      25.004      28.702    
  32.860      37.345      41.992      46.630      51.093      55.224      58.860      61.823      63.931      65.028    
  65.029      63.948      61.903      59.095      55.772      52.192      48.594      45.174      42.069      39.349    
  37.020      35.036      33.321      31.790      30.367      28.991      27.621      26.230      24.810      23.360    
  28.304      26.423      24.492      22.576      20.742      19.057      17.582      16.368      15.451      14.854    
  14.593      14.679      15.129      15.963      17.211      18.899      21.042      23.630      26.617      29.918    
  33.419      36.987      40.489      43.794      46.772      49.297      51.247      52.526      53.080      52.916    
  52.101      50.756      49.038      47.120      45.174      43.346      41.742      40.412      39.349      38.498    
  37.771      37.076      36.323      35.446      34.397      33.151      31.707      30.081      36.547      34.158    
  31.598      28.961      26.343      23.843      21.554      19.551      17.887      16.593      15.675      15.129    
  14.948      15.129      15.675      16.593      17.887      19.551      21.554      23.843      26.343      28.961    
  31.598      34.158      36.547      38.676      40.470      41.870      42.843      43.390      43.548      43.388    
  43.008      42.528      42.069      41.742      41.624      41.742      42.069      42.528      43.008      43.388    
  43.548      43.390      42.843      41.870      40.470      38.676      46.772      43.794      40.489      36.987    
  33.419      29.918      26.617      23.630      21.042      18.899      17.211      15.963      15.129      14.679    
  14.593      14.854      15.451      16.368      17.582      19.057      20.742      22.576      24.492      26.423    
  28.304      30.081      31.707      33.151      34.397      35.446      36.323      37.076      37.771      38.498    
  39.349      40.412      41.742      43.346      45.174      47.120      49.038      50.756      52.101      52.916    
  53.080      52.526      51.247      49.297      58.860      55.224      51.093      46.630      41.992      37.345    
  32.860      28.702      25.004      21.846      19.254      17.211      15.675      14.593      13.917      13.606    
  13.626      13.950      14.549      15.392      16.445      17.665      19.009      20.432      21.893      23.360    
  24.810      26.230      27.621      28.991      30.367      31.790      33.321      35.036      37.020      39.349    
  42.069      45.174      48.594      52.192      55.772      59.095      61.903      63.948      65.029      65.028    
  63.931      61.823      72.274      67.948      62.983      57.561      51.845      46.005      40.245      34.785    
  29.818      25.484      21.846      18.899      16.593      14.854      13.606      12.777      12.311      12.158    
  12.280      12.644      13.218      13.973      14.878      15.903      17.025      18.227      19.501      20.851    
  22.289      23.840      25.537      27.431      29.589      32.094      35.036      38.498      42.528      47.120    
  52.192      57.574      63.010      68.172      72.682      76.166      78.311      78.937      78.027      75.723    
  85.751      80.826      75.240      69.081      62.457      55.550      48.568      41.777      35.453      29.818    
  25.004      21.042      17.887      15.451      13.626      12.311      11.416      10.870      10.616      10.613    
  10.828      11.233      11.806      12.527      13.379      14.358      15.466      16.719      18.142      19.771    
  21.656      23.863      26.473      29.589      33.321      37.771      43.008      49.038      55.772      63.010    
  70.426      77.574      83.926      88.944      92.180      93.379      92.490      89.783      95.433      90.415    
  85.221      79.500      72.902      65.410      57.445      49.444      41.777      34.785      28.702      23.630    
  19.551      16.368      13.950      12.158      10.870      9.9833      9.4226      9.1321      9.0723      9.2144    
  9.5367      10.023      10.664      11.458      12.417      13.563      14.932      16.572      18.549      20.944    
  23.863      27.431      31.790      37.076      43.388      50.756      59.095      68.172      77.574      86.716    
  94.885      101.35      105.31      106.16      104.15      100.22      96.128      91.934      88.795      85.559    
  81.019      74.548      66.377      57.445      48.568      40.245      32.860      26.617      21.554      17.582    
  14.549      12.280      10.616      9.4226      8.5994      8.0745      7.7982      7.7367      7.8665      8.1720    
  8.6451      9.2879      10.115      11.155      12.450      14.059      16.059      18.549      21.656      25.537    
  30.367      36.323      43.548      52.101      61.903      72.682      83.926      94.885      104.63      111.70    
  114.54      112.88      107.94      101.74      84.114      81.861      82.760      84.469      84.501      81.265    
  74.548      65.410      55.550      46.005      37.345      29.918      23.843      19.057      15.392      12.644    
  10.613      9.1321      8.0745      7.3495      6.8955      6.6712      6.6491      6.8118      7.1508      7.6686    
  8.3815      9.3209      10.534      12.084      14.059      16.572      19.771      23.840      28.991      35.446    
  43.390      52.916      63.948      76.166      88.944      101.35      111.70      117.27      116.47      109.87    
  100.06      90.526      59.074      59.707      66.386      75.295      82.299      84.501      81.019      72.902    
  62.457      51.845      41.992      33.419      26.343      20.742      16.445      13.218      10.828      9.0723    
  7.7982      6.8955      6.2892      5.9294      5.7833      5.8298      6.0588      6.4718      7.0852      7.9311    
  9.0579      10.534      12.450      14.932      18.142      22.289      27.621      34.397      42.843      53.080    
  65.029      78.311      92.180      105.31      114.54      116.47      109.81      96.238      79.993      66.263    
  25.123      29.037      42.379      59.786      75.295      84.469      85.559      79.500      69.081      57.561    
  46.630      36.987      28.961      22.576      17.665      13.973      11.233      9.2144      7.7367      6.6712    
  5.9294      5.4522      5.2005      5.1490      5.2847      5.6074      6.1324      6.8909      7.9311      9.3209    
  11.155      13.563      16.719      20.851      26.230      33.151      41.870      52.526      65.028      78.937    
  93.379      106.16      112.88      109.87      96.238      74.807      51.467      33.142     -9.7425     -2.8802    
  16.727      42.379      66.386      82.760      88.795      85.221      75.240      62.983      51.093      40.489    
  31.598      24.492      19.009      14.878      11.806      9.5367      7.8665      6.6491      5.7833      5.2005    
  4.8551      4.7174      4.7708      5.0129      5.4570      6.1324      7.0852      8.3815      10.115      12.417    
  15.466      19.501      24.810      31.707      40.470      51.247      63.931      78.027      92.490      104.15    
  107.94      100.06      79.993      51.467      21.716     -.84983     -35.943     -27.063     -2.8802      29.037    
  59.707      81.861      91.934      90.415      80.826      67.948      55.224      43.794      34.158      26.423    
  20.432      15.903      12.527      10.023      8.1720      6.8118      5.8298      5.1490      4.7174      4.5005    
  4.4783      4.6455      5.0129      5.6074      6.4718      7.6686      9.2879      11.458      14.358      18.227    
  23.360      30.081      38.676      49.297      61.823      75.723      89.783      100.22      101.74      90.526    
  66.263      33.142     -.84983     -26.343     -34.905     -25.403     0.10517      33.865      66.433      90.041    
  100.82      99.259      89.106      75.441      61.871      49.589      39.124      30.607      23.907      18.760    
  14.864      11.936      9.7434      8.1102      6.9092      6.0524      5.4801      5.1527      5.0464      5.1527    
  5.4801      6.0524      6.9092      8.1102      9.7434      11.936      14.864      18.760      23.907      30.607    
  39.124      49.589      61.871      75.441      89.106      99.259      100.82      90.041      66.433      33.865    
 0.10517     -25.403     -25.403     -15.086      10.492      43.874      75.815      98.622      108.45      105.87    
  94.753      80.310      66.064      53.168      42.146      33.128      25.986      20.460      16.243      13.049    
  10.638      8.8236      7.4712      6.4844      5.7966      5.3622      5.1527      5.1562      5.3771      5.8348    
  6.5631      7.6138      9.0655      11.033      13.680      17.223      21.933      28.099      35.982      45.715    
  57.183      69.886      82.740      92.537      94.623      85.509      64.639      35.447      5.0579     -17.693    
 0.10517      10.492      33.824      63.468      91.127      109.89      116.43      111.54      99.117      84.128    
  69.515      56.290      44.945      35.603      28.143      22.316      17.826      14.391      11.771      9.7772    
  8.2709      7.1501      6.3422      5.7966      5.4801      5.3771      5.4884      5.8291      6.4271      7.3265    