unknown system                          
   1.00000000000000     
     5.431010    0.000000    0.000000
     0.000000    5.431010    0.000000
     0.000000    0.000000    8.791010
   Si
    10
Direct
  0.000000  0.000000  0.000000
  0.499999  0.499999  0.000000
  0.250000  0.250000  0.154448
  0.750000  0.750000  0.154448
  0.000000  0.499999  0.308895
  0.499999  0.000000  0.308895
  0.250000  0.750000  0.463344
  0.750000  0.250000  0.463344
  0.000000  0.000000  0.617791
  0.499999  0.499999  0.617791
 
   48   48   72
 -.45678166199E+02 -.35943147022E+02 -.97425268213E+01 0.25123162995E+02 0.59074118032E+02
 0.84114173797E+02 0.96127906397E+02 0.95432833884E+02 0.85750747020E+02 0.72273652097E+02
 0.58860385085E+02 0.46772428820E+02 0.36546555658E+02 0.28304210207E+02 0.21893227240E+02
 0.17025343573E+02 0.13379305370E+02 0.10663720577E+02 0.86451012299E+01 0.71507812001E+01
 0.60587585178E+01 0.52846907148E+01 0.47708334425E+01 0.44782814820E+01 0.43834621994E+01
 0.44782814343E+01 0.47708333479E+01 0.52846905748E+01 0.60587583347E+01 0.71507809769E+01
 0.86451009703E+01 0.10663720285E+02 0.13379305051E+02 0.17025343232E+02 0.21893226883E+02
 0.28304209840E+02 0.36546555287E+02 0.46772428452E+02 0.58860384725E+02 0.72273651753E+02
 0.85750746697E+02 0.95432833588E+02 0.96127906132E+02 0.84114173569E+02 0.59074117844E+02
 0.25123162852E+02 -.97425269186E+01 -.35943147071E+02 -.35943147022E+02 -.26343191655E+02
 -.84983176174E+00 0.33141720981E+02 0.66263410932E+02 0.90525944581E+02 0.10174303107E+03
 0.10022382640E+03 0.89783331665E+02 0.75723417726E+02 0.61823367361E+02 0.49296937265E+02
 0.38676008728E+02 0.30080768733E+02 0.23360236695E+02 0.18226898444E+02 0.14357959437E+02
 0.11458021417E+02 0.92879164897E+01 0.76685976177E+01 0.64717711305E+01 0.56074039225E+01
 0.50129125063E+01 0.46454543408E+01 0.44782814772E+01 0.45005274129E+01 0.47174083812E+01
 0.51490246247E+01 0.58298334028E+01 0.68118273999E+01 0.81719727506E+01 0.10023024901E+02
 0.12526507835E+02 0.15903295675E+02 0.20431909508E+02 0.26422728274E+02 0.34158295428E+02
 0.43793920316E+02 0.55224458533E+02 0.67948181779E+02 0.80825609115E+02 0.90415359458E+02
 0.91933746158E+02 0.81861340285E+02 0.59707215513E+02 0.29036716336E+02 -.28801613064E+01
 -.27062533770E+02 -.97425268213E+01 -.84983176174E+00 0.21716130378E+02 0.51467466482E+02
 0.79993449530E+02 0.10005822527E+03 0.10793930926E+03 0.10414856666E+03 0.92490239562E+02
 0.78026562067E+02 0.63930710843E+02 0.51247021760E+02 0.40470110116E+02 0.31707114524E+02
 0.24810044635E+02 0.19500915057E+02 0.15466238952E+02 0.12416604650E+02 0.10115010599E+02
 0.83815447527E+01 0.70851902096E+01 0.61323830547E+01 0.54569605453E+01 0.50129124978E+01
 0.47708334292E+01 0.47174084196E+01 0.48550964009E+01 0.52004600801E+01 0.57832530596E+01
 0.66491398844E+01 0.78665234440E+01 0.95366826020E+01 0.11806209080E+02 0.14877624854E+02
 0.19009068865E+02 0.24492105714E+02 0.31598370554E+02 0.40489219947E+02 0.51093482486E+02
 0.62982516571E+02 0.75240079657E+02 0.85220550359E+02 0.88794734635E+02 0.82760143071E+02
 0.66386193379E+02 0.42378643170E+02 0.16727397846E+02 -.28801612581E+01 0.25123162995E+02
 0.33141720981E+02 0.51467466482E+02 0.74806655611E+02 0.96237707390E+02 0.10986692621E+03
 0.11287958992E+03 0.10615889971E+03 0.93378969588E+02 0.78936994466E+02 0.65027581020E+02
 0.52525787689E+02 0.41869995774E+02 0.33151092388E+02 0.26230496476E+02 0.20850611405E+02
 0.16718966275E+02 0.13562572637E+02 0.11154822651E+02 0.93208839305E+01 0.79310645980E+01
 0.68909145045E+01 0.61323830424E+01 0.56074039017E+01 0.52846906894E+01 0.51490246964E+01
 0.52004601133E+01 0.54522229141E+01 0.59294151638E+01 0.66711827786E+01 0.77367250216E+01
 0.92144137121E+01 0.11233216365E+02 0.13972915373E+02 0.17665173758E+02 0.22575870840E+02
 0.28960513490E+02 0.36987155231E+02 0.46630363737E+02 0.57561352236E+02 0.69080734207E+02
 0.79500468018E+02 0.85558541730E+02 0.84468989423E+02 0.75294563583E+02 0.59785621229E+02
 0.42378643216E+02 0.29036716431E+02 0.59074118032E+02 0.66263410932E+02 0.79993449530E+02
 0.96237707390E+02 0.10980949953E+03 0.11646835245E+03 0.11453741660E+03 0.10531361271E+03
 0.92179999122E+02 0.78311425800E+02 0.65028632719E+02 0.53080174201E+02 0.42843130919E+02
 0.34396519535E+02 0.27620522464E+02 0.22289079449E+02 0.18141714463E+02 0.14931517017E+02
 0.12450068667E+02 0.10533547098E+02 0.90579452529E+01 0.79310645818E+01 0.70851901812E+01
 0.64717710937E+01 0.60587584767E+01 0.58298335018E+01 0.57832531201E+01 0.59294151912E+01
 0.62891971437E+01 0.68954905922E+01 0.77982464140E+01 0.90723405989E+01 0.10827601589E+02
 0.13218182426E+02 0.16444766155E+02 0.20741750195E+02 0.26342666052E+02 0.33418781698E+02
 0.41992457086E+02 0.51844503398E+02 0.62456881691E+02 0.72901815696E+02 0.81018707040E+02
 0.84501385297E+02 0.82299062973E+02 0.75294563627E+02 0.66386193470E+02 0.59707215651E+02
 0.84114173797E+02 0.90525944581E+02 0.10005822527E+03 0.10986692621E+03 0.11646835245E+03
 0.11727219382E+03 0.11170199704E+03 0.10134868723E+03 0.88943699318E+02 0.76165505010E+02
 0.63947959755E+02 0.52915985059E+02 0.43390271827E+02 0.35446020005E+02 0.28991047373E+02
 0.23839511621E+02 0.19771062353E+02 0.16572199894E+02 0.14059047786E+02 0.12084136096E+02
 0.10533547079E+02 0.93208838946E+01 0.83815447047E+01 0.76685975615E+01 0.71507811397E+01
 0.68118275198E+01 0.66491399658E+01 0.66711828267E+01 0.68954906131E+01 0.73494927542E+01
 0.80744888141E+01 0.91321329655E+01 0.10612823475E+02 0.12643845377E+02 0.15392307752E+02
 0.19056883123E+02 0.23843168787E+02 0.29918317103E+02 0.37344616415E+02 0.46004754679E+02
 0.55549947191E+02 0.65410045712E+02 0.74548382941E+02 0.81265259214E+02 0.84501385338E+02
 0.84468989508E+02 0.82760143202E+02 0.81861340465E+02 0.96127906397E+02 0.10174303107E+03
 0.10793930926E+03 0.11287958992E+03 0.11453741660E+03 0.11170199704E+03 0.10462619627E+03
 0.94885182732E+02 0.83925923179E+02 0.72681970760E+02 0.61903399182E+02 0.52100992450E+02
 0.43548213593E+02 0.36323464353E+02 0.30367039303E+02 0.25536950519E+02 0.21656351830E+02
 0.18548741468E+02 0.16058662360E+02 0.14059047763E+02 0.12450068624E+02 0.11154822591E+02
 0.10115010528E+02 0.92879164107E+01 0.86451011471E+01 0.81719728844E+01 0.78665235393E+01
 0.77367250838E+01 0.77982464488E+01 0.80744888281E+01 0.85994085139E+01 0.94225846753E+01
 0.10615902954E+02 0.12280250076E+02 0.14548744445E+02 0.17582294093E+02 0.21553746721E+02
 0.26617049105E+02 0.32859711400E+02 0.40245394193E+02 0.48567653210E+02 0.57445379552E+02
 0.66377091830E+02 0.74548382978E+02 0.81018707118E+02 0.85558541852E+02 0.88794734803E+02
 0.91933746374E+02 0.95432833884E+02 0.10022382640E+03 0.10414856666E+03 0.10615889971E+03
 0.10531361271E+03 0.10134868723E+03 0.94885182732E+02 0.86715662784E+02 0.77573816330E+02
 0.68171802971E+02 0.59095439588E+02 0.50755885277E+02 0.43387855400E+02 0.37075507323E+02
 0.31790267424E+02 0.27431225615E+02 0.23862652939E+02 0.20943989330E+02 0.18548741441E+02
 0.16572199844E+02 0.14931516947E+02 0.13562572552E+02 0.12416604553E+02 0.11458021312E+02
 0.10663720468E+02 0.10023025041E+02 0.95366827041E+01 0.92144137810E+01 0.90723406406E+01
 0.91321329865E+01 0.94225846822E+01 0.99832725893E+01 0.10869623666E+02 0.12158170040E+02
 0.13949760496E+02 0.16368037721E+02 0.19550609935E+02 0.23630039255E+02 0.28702223894E+02
 0.34784603277E+02 0.41776594529E+02 0.49443676454E+02 0.57445379585E+02 0.65410045782E+02
 0.72901815807E+02 0.79500468173E+02 0.85220550560E+02 0.90415359706E+02 0.85750747020E+02
 0.89783331665E+02 0.92490239562E+02 0.93378969588E+02 0.92179999122E+02 0.88943699318E+02
 0.83925923179E+02 0.77573816330E+02 0.70425969133E+02 0.63010291213E+02 0.55771962626E+02
 0.49037617468E+02 0.43008362507E+02 0.37771173364E+02 0.33321060143E+02 0.29589311959E+02
 0.26473341287E+02 0.23862652910E+02 0.21656351775E+02 0.19771062274E+02 0.18141714364E+02
 0.16718966161E+02 0.15466238826E+02 0.14357959304E+02 0.13379305234E+02 0.12526507975E+02
 0.11806209181E+02 0.11233216434E+02 0.10827601631E+02 0.10612823496E+02 0.10615902961E+02
 0.10869623666E+02 0.11416126862E+02 0.12310935121E+02 0.13626064615E+02 0.15450647022E+02
 0.17887291104E+02 0.21041837114E+02 0.25003922806E+02 0.29818210860E+02 0.35452514974E+02
 0.41776594557E+02 0.48567653271E+02 0.55549947289E+02 0.62456881830E+02 0.69080734389E+02
 0.75240079885E+02 0.80825609390E+02 0.72273652097E+02 0.75723417726E+02 0.78026562067E+02
 0.78936994466E+02 0.78311425800E+02 0.76165505010E+02 0.72681970760E+02 0.68171802971E+02
 0.63010291213E+02 0.57573629720E+02 0.52191671443E+02 0.47119988719E+02 0.42527718521E+02
 0.38497550758E+02 0.35036246894E+02 0.32094097269E+02 0.29589311927E+02 0.27431225555E+02
 0.25536950432E+02 0.23839511510E+02 0.22289079320E+02 0.20850611260E+02 0.19500914901E+02
 0.18226898281E+02 0.17025343407E+02 0.15903295808E+02 0.14877624948E+02 0.13972915434E+02
 0.13218182460E+02 0.12643845390E+02 0.12280250076E+02 0.12158170033E+02 0.12310935114E+02
 0.12777483436E+02 0.13605528992E+02 0.14853886539E+02 0.16592584906E+02 0.18898718775E+02
 0.21845607596E+02 0.25484037108E+02 0.29818210883E+02 0.34784603328E+02 0.40245394276E+02
 0.46004754800E+02 0.51844503559E+02 0.57561352440E+02 0.62982516820E+02 0.67948182076E+02
 0.58860385085E+02 0.61823367361E+02 0.63930710843E+02 0.65027581020E+02 0.65028632719E+02
 0.63947959755E+02 0.61903399182E+02 0.59095439588E+02 0.55771962626E+02 0.52191671443E+02
 0.48593538063E+02 0.45173641014E+02 0.42068971954E+02 0.39349435033E+02 0.37020408190E+02
 0.35036246861E+02 0.33321060078E+02 0.31790267330E+02 0.30367039183E+02 0.28991047230E+02
 0.27620522301E+02 0.26230496299E+02 0.24810044447E+02 0.23360236500E+02 0.21893227044E+02
 0.20431909625E+02 0.19009068944E+02 0.17665173804E+02 0.16444766175E+02 0.15392307752E+02
 0.14548744430E+02 0.13949760475E+02 0.13626064594E+02 0.13605528978E+02 0.13916684222E+02
 0.14592717508E+02 0.15674554326E+02 0.17210995515E+02 0.19253695253E+02 0.21845607613E+02
 0.25003922846E+02 0.28702223962E+02 0.32859711501E+02 0.37344616552E+02 0.41992457263E+02
 0.46630363957E+02 0.51093482752E+02 0.55224458846E+02 0.46772428820E+02 0.49296937265E+02
 0.51247021760E+02 0.52525787689E+02 0.53080174201E+02 0.52915985059E+02 0.52100992450E+02
 0.50755885277E+02 0.49037617468E+02 0.47119988719E+02 0.45173641014E+02 0.43345896807E+02
 0.41742062074E+02 0.40412386534E+02 0.39349434999E+02 0.38497550690E+02 0.37771173265E+02
 0.37075507195E+02 0.36323464199E+02 0.35446019828E+02 0.34396519339E+02 0.33151092177E+02
 0.31707114303E+02 0.30080768506E+02 0.28304209979E+02 0.26422728370E+02 0.24492105772E+02
 0.22575870865E+02 0.20741750193E+02 0.19056883101E+02 0.17582294058E+02 0.16368037679E+02
 0.15450646981E+02 0.14853886505E+02 0.14592717487E+02 0.14679276974E+02 0.15128849636E+02
 0.15963461287E+02 0.17210995527E+02 0.18898718804E+02 0.21041837166E+02 0.23630039333E+02
 0.26617049216E+02 0.29918317251E+02 0.33418781885E+02 0.36987155462E+02 0.40489220223E+02
 0.43793920638E+02 0.36546555658E+02 0.38676008728E+02 0.40470110116E+02 0.41869995774E+02
 0.42843130919E+02 0.43390271827E+02 0.43548213593E+02 0.43387855400E+02 0.43008362507E+02
 0.42527718521E+02 0.42068971954E+02 0.41742062074E+02 0.41623858659E+02 0.41742062039E+02
 0.42068971884E+02 0.42527718418E+02 0.43008362373E+02 0.43387855236E+02 0.43548213404E+02
 0.43390271616E+02 0.42843130689E+02 0.41869995529E+02 0.40470109861E+02 0.38676008468E+02
 0.36546555397E+02 0.34158295495E+02 0.31598370584E+02 0.28960513488E+02 0.26342666023E+02
 0.23843168738E+02 0.21553746659E+02 0.19550609867E+02 0.17887291036E+02 0.16592584845E+02
 0.15674554279E+02 0.15128849610E+02 0.14948063682E+02 0.15128849642E+02 0.15674554343E+02
 0.16592584941E+02 0.17887291161E+02 0.19550610019E+02 0.21553746837E+02 0.23843168939E+02
 0.26342666243E+02 0.28960513725E+02 0.31598370832E+02 0.34158295752E+02 0.28304210207E+02
 0.30080768733E+02 0.31707114524E+02 0.33151092388E+02 0.34396519535E+02 0.35446020005E+02
 0.36323464353E+02 0.37075507323E+02 0.37771173364E+02 0.38497550758E+02 0.39349435033E+02
 0.40412386534E+02 0.41742062039E+02 0.43345896736E+02 0.45173640909E+02 0.47119988581E+02
 0.49037617299E+02 0.50755885079E+02 0.52100992226E+02 0.52915984813E+02 0.53080173937E+02
 0.52525787411E+02 0.51247021473E+02 0.49296936973E+02 0.46772428528E+02 0.43793920350E+02
 0.40489219944E+02 0.36987155196E+02 0.33418781636E+02 0.29918317022E+02 0.26617049011E+02
 0.23630039154E+02 0.21041837014E+02 0.18898718683E+02 0.17210995437E+02 0.15963461229E+02
 0.15128849610E+02 0.14679276981E+02 0.14592717526E+02 0.14853886574E+02 0.15450647079E+02
 0.16368037804E+02 0.17582294208E+02 0.19056883274E+02 0.20741750384E+02 0.22575871072E+02
 0.24492105990E+02 0.26422728595E+02 0.21893227240E+02 0.23360236695E+02 0.24810044635E+02
 0.26230496476E+02 0.27620522464E+02 0.28991047373E+02 0.30367039303E+02 0.31790267424E+02
 0.33321060143E+02 0.35036246894E+02 0.37020408190E+02 0.39349434999E+02 0.42068971884E+02
 0.45173640909E+02 0.48593537924E+02 0.52191671271E+02 0.55771962422E+02 0.59095439356E+02
 0.61903398925E+02 0.63947959476E+02 0.65028632423E+02 0.65027580710E+02 0.63930710524E+02
 0.61823367038E+02 0.58860384763E+02 0.55224458529E+02 0.51093482445E+02 0.46630363663E+02
 0.41992456987E+02 0.37344616296E+02 0.32859711269E+02 0.28702223757E+02 0.25003922669E+02
 0.21845607467E+02 0.19253695138E+02 0.17210995432E+02 0.15674554275E+02 0.14592717489E+02
 0.13916684234E+02 0.13605529021E+02 0.13626064665E+02 0.13949760573E+02 0.14548744553E+02
 0.15392307895E+02 0.16444766337E+02 0.17665173981E+02 0.19009069132E+02 0.20431909819E+02
 0.17025343573E+02 0.18226898444E+02 0.19500915057E+02 0.20850611405E+02 0.22289079449E+02
 0.23839511621E+02 0.25536950519E+02 0.27431225615E+02 0.29589311959E+02 0.32094097269E+02
 0.35036246861E+02 0.38497550690E+02 0.42527718418E+02 0.47119988581E+02 0.52191671271E+02
 0.57573629515E+02 0.63010290977E+02 0.68171802707E+02 0.72681970471E+02 0.76165504700E+02
 0.78311425472E+02 0.78936994126E+02 0.78026561719E+02 0.75723417375E+02 0.72273651747E+02
 0.67948181732E+02 0.62982516486E+02 0.57561352121E+02 0.51844503257E+02 0.46004754519E+02
 0.40245394020E+02 0.34784603099E+02 0.29818210683E+02 0.25484036938E+02 0.21845607458E+02
 0.18898718668E+02 0.16592584831E+02 0.14853886496E+02 0.13605528980E+02 0.12777483454E+02
 0.12310935159E+02 0.12158170105E+02 0.12280250171E+02 0.12643845506E+02 0.13218182593E+02
 0.13972915581E+02 0.14877625106E+02 0.15903295971E+02 0.13379305370E+02 0.14357959437E+02
 0.15466238952E+02 0.16718966275E+02 0.18141714463E+02 0.19771062353E+02 0.21656351830E+02
 0.23862652939E+02 0.26473341287E+02 0.29589311927E+02 0.33321060078E+02 0.37771173265E+02
 0.43008362373E+02 0.49037617299E+02 0.55771962422E+02 0.63010290977E+02 0.70425968866E+02
 0.77573816036E+02 0.83925922860E+02 0.88943698979E+02 0.92179998767E+02 0.93378965241E+02
 0.92490215878E+02 0.89783292182E+02 0.85750706895E+02 0.80825581769E+02 0.75240068183E+02
 0.69080732691E+02 0.62456881506E+02 0.55549946987E+02 0.48567652993E+02 0.41776594307E+02
 0.35452514753E+02 0.29818210669E+02 0.25003922646E+02 0.21041836986E+02 0.17887291007E+02
 0.15450646957E+02 0.13626064580E+02 0.12310935115E+02 0.11416126883E+02 0.10869623713E+02
 0.10615903030E+02 0.10612823585E+02 0.10827601737E+02 0.11233216553E+02 0.11806209311E+02
 0.12526508110E+02 0.10663720577E+02 0.11458021417E+02 0.12416604650E+02 0.13562572637E+02
 0.14931517017E+02 0.16572199894E+02 0.18548741468E+02 0.20943989330E+02 0.23862652910E+02
 0.27431225555E+02 0.31790267330E+02 0.37075507195E+02 0.43387855236E+02 0.50755885079E+02
 0.59095439356E+02 0.68171802707E+02 0.77573816036E+02 0.86715662463E+02 0.94885182387E+02
 0.10134868461E+03 0.10531355832E+03 0.10615875665E+03 0.10414834669E+03 0.10022357622E+03
 0.95432607412E+02 0.90415193533E+02 0.85220453664E+02 0.79500426614E+02 0.72901805478E+02
 0.65410045213E+02 0.57445379289E+02 0.49443676185E+02 0.41776594289E+02 0.34784603067E+02
 0.28702223715E+02 0.23630039107E+02 0.19550609819E+02 0.16368037635E+02 0.13949760440E+02
 0.12158170013E+02 0.10869623665E+02 0.99832726128E+01 0.94225847278E+01 0.91321330513E+01
 0.90723407215E+01 0.92144138745E+01 0.95366828065E+01 0.10023025148E+02 0.86451012299E+01
 0.92879164897E+01 0.10115010599E+02 0.11154822651E+02 0.12450068667E+02 0.14059047786E+02
 0.16058662360E+02 0.18548741441E+02 0.21656351775E+02 0.25536950432E+02 0.30367039183E+02
 0.36323464199E+02 0.43548213404E+02 0.52100992226E+02 0.61903398925E+02 0.72681970471E+02
 0.83925922860E+02 0.94885182387E+02 0.10462618803E+03 0.11170188768E+03 0.11453712497E+03
 0.11287910878E+03 0.10793870538E+03 0.10174241144E+03 0.96127371781E+02 0.91933356482E+02
 0.88794498084E+02 0.85558427638E+02 0.81018668164E+02 0.74548376304E+02 0.66377091518E+02
 0.57445379267E+02 0.48567652954E+02 0.40245393967E+02 0.32859711205E+02 0.26617048941E+02
 0.21553746587E+02 0.17582293989E+02 0.14548744370E+02 0.12280250029E+02 0.10615902933E+02
 0.94225846779E+01 0.85994085378E+01 0.80744888705E+01 0.77982465066E+01 0.77367251535E+01
 0.78665236174E+01 0.81719729669E+01 0.71507812001E+01 0.76685976177E+01 0.83815447527E+01
 0.93208839305E+01 0.10533547098E+02 0.12084136096E+02 0.14059047763E+02 0.16572199844E+02
 0.19771062274E+02 0.23839511510E+02 0.28991047230E+02 0.35446019828E+02 0.43390271616E+02
 0.52915984813E+02 0.63947959476E+02 0.76165504700E+02 0.88943698979E+02 0.10134868461E+03
 0.11170188768E+03 0.11727183499E+03 0.11646767757E+03 0.10986597807E+03 0.10005713888E+03
 0.90524891718E+02 0.84113299351E+02 0.81860720124E+02 0.82759776056E+02 0.84468819552E+02
 0.84501334971E+02 0.81265258865E+02 0.74548388953E+02 0.65410045663E+02 0.55549946923E+02
 0.46004754441E+02 0.37344616207E+02 0.29918316925E+02 0.23843168639E+02 0.19056883005E+02
 0.15392307662E+02 0.12643845313E+02 0.10612823436E+02 0.91321329501E+01 0.80744888191E+01
 0.73494927769E+01 0.68954906505E+01 0.66711828755E+01 0.66491400223E+01 0.68118275803E+01
 0.60587585178E+01 0.64717711305E+01 0.70851902096E+01 0.79310645980E+01 0.90579452529E+01
 0.10533547079E+02 0.12450068624E+02 0.14931516947E+02 0.18141714364E+02 0.22289079320E+02
 0.27620522301E+02 0.34396519339E+02 0.42843130689E+02 0.53080173937E+02 0.65028632423E+02
 0.78311425472E+02 0.92179998767E+02 0.10531355832E+03 0.11453712497E+03 0.11646767757E+03
 0.10980840752E+03 0.96236299241E+02 0.79991925927E+02 0.66261998368E+02 0.59072992736E+02
 0.59706457720E+02 0.66385783834E+02 0.75294414726E+02 0.82299062596E+02 0.84501434938E+02
 0.81018745302E+02 0.72901825375E+02 0.62456881415E+02 0.51844503151E+02 0.41992456869E+02
 0.33418781510E+02 0.26342665893E+02 0.20741750064E+02 0.16444766052E+02 0.13218182349E+02
 0.10827601537E+02 0.90723405683E+01 0.77982464030E+01 0.68954905983E+01 0.62891971638E+01
 0.59294152221E+01 0.57832531583E+01 0.58298335434E+01 0.52846907148E+01 0.56074039225E+01
 0.61323830547E+01 0.68909145045E+01 0.79310645818E+01 0.93208838946E+01 0.11154822591E+02
 0.13562572552E+02 0.16718966161E+02 0.20850611260E+02 0.26230496299E+02 0.33151092177E+02
 0.41869995529E+02 0.52525787411E+02 0.65027580710E+02 0.78936994126E+02 0.93378965241E+02
 0.10615875665E+03 0.11287910878E+03 0.10986597807E+03 0.96236299241E+02 0.74804940409E+02
 0.51465693341E+02 0.33140149949E+02 0.25121983180E+02 0.29035999882E+02 0.42378345939E+02
 0.59785620833E+02 0.75294711711E+02 0.84469158631E+02 0.85558655229E+02 0.79500508903E+02
 0.69080735280E+02 0.57561351983E+02 0.46630363513E+02 0.36987155036E+02 0.28960513324E+02
 0.22575870701E+02 0.17665173646E+02 0.13972915286E+02 0.11233216301E+02 0.92144136695E+01
 0.77367249980E+01 0.66711827712E+01 0.59294151699E+01 0.54522229304E+01 0.52004601364E+01
 0.51490247226E+01 0.47708334425E+01 0.50129125063E+01 0.54569605453E+01 0.61323830424E+01
 0.70851901812E+01 0.83815447047E+01 0.10115010528E+02 0.12416604553E+02 0.15466238826E+02
 0.19500914901E+02 0.24810044447E+02 0.31707114303E+02 0.40470109861E+02 0.51247021473E+02
 0.63930710524E+02 0.78026561719E+02 0.92490215878E+02 0.10414834669E+03 0.10793870538E+03
 0.10005713888E+03 0.79991925927E+02 0.51465693341E+02 0.21714379958E+02 -.85129082601E+00
 -.97435110479E+01 -.28806169990E+01 0.16727397439E+02 0.42378939644E+02 0.66386602227E+02
 0.82760509451E+02 0.88794970621E+02 0.85220646564E+02 0.75240090717E+02 0.62982516316E+02
 0.51093482260E+02 0.40489219749E+02 0.31598370383E+02 0.24492105570E+02 0.19009068747E+02
 0.14877624760E+02 0.11806209008E+02 0.95366825506E+01 0.78665234109E+01 0.66491398669E+01
 0.57832530550E+01 0.52004600852E+01 0.48550964124E+01 0.47174084339E+01 0.44782814820E+01
 0.46454543408E+01 0.50129124978E+01 0.56074039017E+01 0.64717710937E+01 0.76685975615E+01
 0.92879164107E+01 0.11458021312E+02 0.14357959304E+02 0.18226898281E+02 0.23360236500E+02
 0.30080768506E+02 0.38676008468E+02 0.49296936973E+02 0.61823367038E+02 0.75723417375E+02
 0.89783292182E+02 0.10022357622E+03 0.10174241144E+03 0.90524891718E+02 0.66261998368E+02
 0.33140149949E+02 -.85129082601E+00 -.26344283103E+02 -.35943707169E+02 -.27062534181E+02
 -.28797063848E+01 0.29037432073E+02 0.59707972645E+02 0.81861959847E+02 0.91934135304E+02
 0.90415524927E+02 0.80825636083E+02 0.67948181526E+02 0.55224458308E+02 0.43793920118E+02
 0.34158295256E+02 0.26422728128E+02 0.20431909386E+02 0.15903295577E+02 0.12526507759E+02
 0.10023024844E+02 0.81719727113E+01 0.68118273757E+01 0.58298333909E+01 0.51490246221E+01
 0.47174083846E+01 0.45005274188E+01 0.43834621994E+01 0.44782814772E+01 0.47708334292E+01
 0.52846906894E+01 0.60587584767E+01 0.71507811397E+01 0.86451011471E+01 0.10663720468E+02
 0.13379305234E+02 0.17025343407E+02 0.21893227044E+02 0.28304209979E+02 0.36546555397E+02
 0.46772428528E+02 0.58860384763E+02 0.72273651747E+02 0.85750706895E+02 0.95432607412E+02
 0.96127371781E+02 0.84113299351E+02 0.59072992736E+02 0.25121983180E+02 -.97435110479E+01
 -.35943707169E+02 -.45678166611E+02 -.35942587749E+02 -.97415435156E+01 0.25124341848E+02
 0.59075242332E+02 0.84115047229E+02 0.96128439995E+02 0.95433059351E+02 0.85750786166E+02
 0.72273651504E+02 0.58860384503E+02 0.46772428257E+02 0.36546555117E+02 0.28304209695E+02
 0.21893226762E+02 0.17025343133E+02 0.13379304973E+02 0.10663720226E+02 0.86451009282E+01
 0.71507809492E+01 0.60587583188E+01 0.52846905678E+01 0.47708333467E+01 0.44782814355E+01
 0.44782814343E+01 0.45005274129E+01 0.47174084196E+01 0.51490246964E+01 0.58298335018E+01
 0.68118275198E+01 0.81719728844E+01 0.10023025041E+02 0.12526507975E+02 0.15903295808E+02
 0.20431909625E+02 0.26422728370E+02 0.34158295495E+02 0.43793920350E+02 0.55224458529E+02
 0.67948181732E+02 0.80825581769E+02 0.90415193533E+02 0.91933356482E+02 0.81860720124E+02
 0.59706457720E+02 0.29035999882E+02 -.28806169990E+01 -.27062534181E+02 -.35942587749E+02
 -.26342101131E+02 -.84837367090E+00 0.33143290997E+02 0.66264822448E+02 0.90526996378E+02
 0.10174364964E+03 0.10022407553E+03 0.89783370127E+02 0.75723417093E+02 0.61823366739E+02
 0.49296936660E+02 0.38676008147E+02 0.30080768180E+02 0.23360236175E+02 0.18226897962E+02
 0.14357958998E+02 0.11458021024E+02 0.92879161453E+01 0.76685973241E+01 0.64717708886E+01
 0.56074037327E+01 0.50129123676E+01 0.46454542514E+01 0.47708333479E+01 0.47174083812E+01
 0.48550964009E+01 0.52004601133E+01 0.57832531201E+01 0.66491399658E+01 0.78665235393E+01
 0.95366827041E+01 0.11806209181E+02 0.14877624948E+02 0.19009068944E+02 0.24492105772E+02
 0.31598370584E+02 0.40489219944E+02 0.51093482445E+02 0.62982516486E+02 0.75240068183E+02
 0.85220453664E+02 0.88794498084E+02 0.82759776056E+02 0.66385783834E+02 0.42378345939E+02
 0.16727397439E+02 -.28797063848E+01 -.97415435156E+01 -.84837367090E+00 0.21717879775E+02
 0.51469238557E+02 0.79994972036E+02 0.10005931056E+03 0.10793991203E+03 0.10414878554E+03
 0.92490262193E+02 0.78026561399E+02 0.63930710185E+02 0.51247021120E+02 0.40470109498E+02
 0.31707113933E+02 0.24810044077E+02 0.19500914538E+02 0.15466238474E+02 0.12416604219E+02
 0.10115010216E+02 0.83815444207E+01 0.70851899293E+01 0.61323828264E+01 0.54569603681E+01
 0.50129123699E+01 0.52846905748E+01 0.51490246247E+01 0.52004600801E+01 0.54522229141E+01
 0.59294151912E+01 0.66711828267E+01 0.77367250838E+01 0.92144137810E+01 0.11233216434E+02
 0.13972915434E+02 0.17665173804E+02 0.22575870865E+02 0.28960513488E+02 0.36987155196E+02
 0.46630363663E+02 0.57561352121E+02 0.69080732691E+02 0.79500426614E+02 0.85558427638E+02
 0.84468819552E+02 0.75294414726E+02 0.59785620833E+02 0.42378939644E+02 0.29037432073E+02
 0.25124341848E+02 0.33143290997E+02 0.51469238557E+02 0.74808369707E+02 0.96239114404E+02
 0.10986787321E+03 0.11288006993E+03 0.10615904167E+03 0.93378972861E+02 0.78936993766E+02
 0.65027580331E+02 0.52525787017E+02 0.41869995123E+02 0.33151091765E+02 0.26230495886E+02
 0.20850610853E+02 0.16718965765E+02 0.13562572172E+02 0.11154822234E+02 0.93208835650E+01
 0.79310642843E+01 0.68909142428E+01 0.61323828319E+01 0.56074037405E+01 0.60587583347E+01
 0.58298334028E+01 0.57832530596E+01 0.59294151638E+01 0.62891971437E+01 0.68954906131E+01
 0.77982464488E+01 0.90723406406E+01 0.10827601631E+02 0.13218182460E+02 0.16444766175E+02
 0.20741750193E+02 0.26342666023E+02 0.33418781636E+02 0.41992456987E+02 0.51844503257E+02
 0.62456881506E+02 0.72901805478E+02 0.81018668164E+02 0.84501334971E+02 0.82299062596E+02
 0.75294711711E+02 0.66386602227E+02 0.59707972645E+02 0.59075242332E+02 0.66264822448E+02
 0.79994972036E+02 0.96239114404E+02 0.10981059039E+03 0.11646902616E+03 0.11453770709E+03
 0.10531366598E+03 0.92179998392E+02 0.78311425074E+02 0.65028632004E+02 0.53080173502E+02
 0.42843130241E+02 0.34396518884E+02 0.27620521846E+02 0.22289078869E+02 0.18141713925E+02
 0.14931516524E+02 0.12450068223E+02 0.10533546705E+02 0.90579449116E+01 0.79310642926E+01
 0.70851899432E+01 0.64717709051E+01 0.71507809769E+01 0.68118273999E+01 0.66491398844E+01
 0.66711827786E+01 0.68954905922E+01 0.73494927542E+01 0.80744888281E+01 0.91321329865E+01
 0.10612823496E+02 0.12643845390E+02 0.15392307752E+02 0.19056883101E+02 0.23843168738E+02
 0.29918317022E+02 0.37344616296E+02 0.46004754519E+02 0.55549946987E+02 0.65410045213E+02
 0.74548376304E+02 0.81265258865E+02 0.84501434938E+02 0.84469158631E+02 0.82760509451E+02
 0.81861959847E+02 0.84115047229E+02 0.90526996378E+02 0.10005931056E+03 0.10986787321E+03
 0.11646902616E+03 0.11727255149E+03 0.11170210525E+03 0.10134868873E+03 0.88943698568E+02
 0.76165504263E+02 0.63947959018E+02 0.52915984337E+02 0.43390271128E+02 0.35446019332E+02
 0.28991046733E+02 0.23839511019E+02 0.19771061793E+02 0.16572199380E+02 0.14059047321E+02
 0.12084135682E+02 0.10533546716E+02 0.93208835843E+01 0.83815444457E+01 0.76685973520E+01
 0.86451009703E+01 0.81719727506E+01 0.78665234440E+01 0.77367250216E+01 0.77982464140E+01
 0.80744888141E+01 0.85994085139E+01 0.94225846822E+01 0.10615902961E+02 0.12280250076E+02
 0.14548744430E+02 0.17582294058E+02 0.21553746659E+02 0.26617049011E+02 0.32859711269E+02
 0.40245394020E+02 0.48567652993E+02 0.57445379289E+02 0.66377091518E+02 0.74548388953E+02
 0.81018745302E+02 0.85558655229E+02 0.88794970621E+02 0.91934135304E+02 0.96128439995E+02
 0.10174364964E+03 0.10793991203E+03 0.11288006993E+03 0.11453770709E+03 0.11170210525E+03
 0.10462620339E+03 0.94885181969E+02 0.83925922414E+02 0.72681969999E+02 0.61903398430E+02
 0.52100991713E+02 0.43548212878E+02 0.36323463665E+02 0.30367038648E+02 0.25536949901E+02
 0.21656351255E+02 0.18548740939E+02 0.16058661880E+02 0.14059047334E+02 0.12450068247E+02
 0.11154822267E+02 0.10115010254E+02 0.92879161871E+01 0.10663720285E+02 0.10023024901E+02
 0.95366826020E+01 0.92144137121E+01 0.90723405989E+01 0.91321329655E+01 0.94225846753E+01
 0.99832725893E+01 0.10869623666E+02 0.12158170033E+02 0.13949760475E+02 0.16368037679E+02
 0.19550609867E+02 0.23630039154E+02 0.28702223757E+02 0.34784603099E+02 0.41776594307E+02
 0.49443676185E+02 0.57445379267E+02 0.65410045663E+02 0.72901825375E+02 0.79500508903E+02
 0.85220646564E+02 0.90415524927E+02 0.95433059351E+02 0.10022407553E+03 0.10414878554E+03
 0.10615904167E+03 0.10531366598E+03 0.10134868873E+03 0.94885181969E+02 0.86715662013E+02
 0.77573815556E+02 0.68171802200E+02 0.59095438826E+02 0.50755884531E+02 0.43387854675E+02
 0.37075506626E+02 0.31790266760E+02 0.27431224989E+02 0.23862652355E+02 0.20943988793E+02
 0.18548740953E+02 0.16572199408E+02 0.14931516563E+02 0.13562572220E+02 0.12416604273E+02
 0.11458021082E+02 0.13379305051E+02 0.12526507835E+02 0.11806209080E+02 0.11233216365E+02
 0.10827601589E+02 0.10612823475E+02 0.10615902954E+02 0.10869623666E+02 0.11416126862E+02
 0.12310935114E+02 0.13626064594E+02 0.15450646981E+02 0.17887291036E+02 0.21041837014E+02
 0.25003922669E+02 0.29818210683E+02 0.35452514753E+02 0.41776594289E+02 0.48567652954E+02
 0.55549946923E+02 0.62456881415E+02 0.69080735280E+02 0.75240090717E+02 0.80825636083E+02
 0.85750786166E+02 0.89783370127E+02 0.92490262193E+02 0.93378972861E+02 0.92179998392E+02
 0.88943698568E+02 0.83925922414E+02 0.77573815556E+02 0.70425968355E+02 0.63010290439E+02
 0.55771961861E+02 0.49037616719E+02 0.43008361779E+02 0.37771172664E+02 0.33321059476E+02
 0.29589311331E+02 0.26473340702E+02 0.23862652371E+02 0.21656351286E+02 0.19771061837E+02
 0.18141713980E+02 0.16718965830E+02 0.15466238546E+02 0.14357959074E+02 0.17025343232E+02
 0.15903295675E+02 0.14877624854E+02 0.13972915373E+02 0.13218182426E+02 0.12643845377E+02
 0.12280250076E+02 0.12158170040E+02 0.12310935121E+02 0.12777483436E+02 0.13605528978E+02
 0.14853886505E+02 0.16592584845E+02 0.18898718683E+02 0.21845607467E+02 0.25484036938E+02
 0.29818210669E+02 0.34784603067E+02 0.40245393967E+02 0.46004754441E+02 0.51844503151E+02
 0.57561351983E+02 0.62982516316E+02 0.67948181526E+02 0.72273651504E+02 0.75723417093E+02
 0.78026561399E+02 0.78936993766E+02 0.78311425074E+02 0.76165504263E+02 0.72681969999E+02