   10   10    1    1
  0.2592985E+02  0.5431010E-09  0.5431010E-09  0.8791010E-09  0.5000000E-15
  1.000000000000000E-004
  CAR 
 unknown system                          
     40      6     26
 
  0.0000000E+00  0.0000000E+00  0.0000000E+00  0.4000000E-01
    1       -8.035531   1.000000
    2       -6.361209   1.000000
    3       -4.376643   1.000000
    4       -4.288084   1.000000
    5       -4.287985   1.000000
    6       -4.269140   1.000000
    7       -3.668816   1.000000
    8       -3.205421   1.000000
    9       -0.718665   1.000000
   10        0.086543   1.000000
   11        0.171628   1.000000
   12        0.171663   1.000000
   13        1.025061   1.000000
   14        1.025080   1.000000
   15        1.056990   1.000000
   16        1.259246   1.000000
   17        2.399498   1.000000
   18        2.399503   1.000000
   19        2.503268   1.000000
   20        2.503346   1.000000
   21        4.027631   0.000000
   22        4.582777   0.000000
   23        4.688960   0.000000
   24        4.889522   0.000000
   25        5.222801   0.000000
   26        5.306538   0.000000
 
  0.2000000E+00  0.0000000E+00  0.0000000E+00  0.1600000E+00
    1       -7.868211   1.000000
    2       -6.222520   1.000000
    3       -5.504803   1.000000
    4       -4.615508   1.000000
    5       -4.197718   1.000000
    6       -3.963779   1.000000
    7       -2.938171   1.000000
    8       -2.746073   1.000000
    9       -0.985915   1.000000
   10       -0.202018   1.000000
   11       -0.103960   1.000000
   12        0.342133   1.000000
   13        0.703591   1.000000
   14        0.810429   1.000000
   15        1.029815   1.000000
   16        1.606909   1.000000
   17        1.973960   1.000000
   18        2.168533   1.000000
   19        2.584971   1.000000
   20        2.944609   1.000000
   21        3.780178   0.000000
   22        4.192583   0.000000
   23        4.695197   0.000000
   24        5.427347   0.000000
   25        5.452645   0.000000
   26        5.633881   0.000000
 
  0.4000000E+00  0.0000000E+00  0.0000000E+00  0.1600000E+00
    1       -7.372352   1.000000
    2       -6.569031   1.000000
    3       -5.825565   1.000000
    4       -5.238404   1.000000
    5       -4.039584   1.000000
    6       -3.936812   1.000000
    7       -2.369924   1.000000
    8       -1.651982   1.000000
    9       -1.448806   1.000000
   10       -0.429082   1.000000
   11       -0.337271   1.000000
   12       -0.080498   1.000000
   13        0.129683   1.000000
   14        0.367742   1.000000
   15        1.203060   1.000000
   16        1.529547   1.000000
   17        2.146057   1.000000
   18        2.226740   1.000000
   19        2.917983   1.000000
   20        3.358827   0.273692
   21        3.469224   0.015273
   22        3.724336   0.000000
   23        4.084787   0.000000
   24        5.214510   0.000000
   25        5.975891   0.000000
   26        6.698169   0.000000
 
  0.2000000E+00  0.2000000E+00  0.0000000E+00  0.1600000E+00
    1       -7.704963   1.000000
    2       -6.103447   1.000000
    3       -5.598524   1.000000
    4       -5.301699   1.000000
    5       -4.156881   1.000000
    6       -3.652151   1.000000
    7       -3.064983   1.000000
    8       -2.308417   1.000000
    9       -1.437265   1.000000
   10       -0.246380   1.000000
   11       -0.094533   1.000000
   12        0.121996   1.000000
   13        0.616521   1.000000
   14        0.778520   1.000000
   15        1.267656   1.000000
   16        1.853492   1.000000
   17        1.869698   1.000000
   18        2.481517   1.000000
   19        2.704417   1.000000
   20        3.294983   0.618370
   21        3.400838   0.115885
   22        3.702277   0.000000
   23        4.917464   0.000000
   24        5.271139   0.000000
   25        5.367194   0.000000
   26        5.947994   0.000000
 
  0.4000000E+00  0.2000000E+00  0.0000000E+00  0.3200000E+00
    1       -7.223925   1.000000
    2       -6.459490   1.000000
    3       -5.794243   1.000000
    4       -5.486918   1.000000
    5       -4.088893   1.000000
    6       -3.972031   1.000000
    7       -2.544828   1.000000
    8       -2.078012   1.000000
    9       -1.800370   1.000000
   10       -1.116217   1.000000
   11        0.251211   1.000000
   12        0.384771   1.000000
   13        0.504039   1.000000
   14        0.995653   1.000000
   15        1.110704   1.000000
   16        1.932827   1.000000
   17        2.207619   1.000000
   18        2.229937   1.000000
   19        2.830094   1.000000
   20        2.841913   1.000000
   21        3.579284   0.000100
   22        4.288013   0.000000
   23        4.314000   0.000000
   24        5.191022   0.000000
   25        6.094133   0.000000
   26        6.286078   0.000000
 
  0.4000000E+00  0.4000000E+00  0.0000000E+00  0.1600000E+00
    1       -6.800659   1.000000
    2       -6.286887   1.000000
    3       -5.993220   1.000000
    4       -5.836421   1.000000
    5       -4.127311   1.000000
    6       -3.995863   1.000000
    7       -2.810180   1.000000
    8       -2.543594   1.000000
    9       -1.951564   1.000000
   10       -1.808652   1.000000
   11        0.334981   1.000000
   12        0.437079   1.000000
   13        1.554146   1.000000
   14        1.595384   1.000000
   15        1.874879   1.000000
   16        2.115155   1.000000
   17        2.365305   1.000000
   18        2.446487   1.000000
   19        2.733771   1.000000
   20        3.090812   0.999285
   21        3.174800   0.977296
   22        3.719637   0.000000
   23        5.174456   0.000000
   24        5.609708   0.000000
   25        5.684705   0.000000
   26        6.074363   0.000000
