unknown system                          
   1.00000000000000     
     5.431010    0.000000    0.000000
     0.000000    5.431010    0.000000
     0.000000    0.000000    8.791010
   Si
    10
Direct
  0.000000  0.000000  0.000000
  0.499999  0.499999  0.000000
  0.250000  0.250000  0.154448
  0.750000  0.750000  0.154448
  0.000000  0.499999  0.308895
  0.499999  0.000000  0.308895
  0.250000  0.750000  0.463344
  0.750000  0.250000  0.463344
  0.000000  0.000000  0.617791
  0.499999  0.499999  0.617791
 
   24   24   36
 0.10924     0.19586     0.46630     0.69505     0.77033     0.73615     0.60631     0.41036     0.21811     0.95514E-01
 0.42021E-01 0.23212E-01 0.18766E-01 0.23223E-01 0.42004E-01 0.95580E-01 0.21802     0.41048     0.60624     0.73618    
 0.77032     0.69505     0.46631     0.19586     0.19586     0.34876     0.61789     0.77592     0.81363     0.76533    
 0.63071     0.43253     0.24001     0.11516     0.56063E-01 0.31823E-01 0.23223E-01 0.24009E-01 0.37488E-01 0.80600E-01
 0.18752     0.37018     0.56691     0.70295     0.74069     0.66701     0.46225     0.24413     0.46630     0.61789    
 0.77229     0.84149     0.84061     0.77207     0.62554     0.42586     0.24714     0.13736     0.82879E-01 0.56025E-01
 0.42004E-01 0.37488E-01 0.45569E-01 0.77987E-01 0.16259     0.32337     0.51848     0.66909     0.73068     0.69946    
 0.58531     0.46225     0.69505     0.77592     0.84149     0.86138     0.83174     0.74050     0.58246     0.39783    
 0.25531     0.17564     0.13741     0.11520     0.95580E-01 0.80600E-01 0.77987E-01 0.96566E-01 0.15432     0.27724    
 0.45459     0.61736     0.71119     0.73060     0.69945     0.66701     0.77033     0.81363     0.84061     0.83174    
 0.77556     0.66363     0.51224     0.37484     0.29057     0.25528     0.24710     0.23992     0.21802     0.18752    
 0.16259     0.15432     0.17570     0.24594     0.37555     0.52946     0.64905     0.71122     0.73069     0.74071    
 0.73615     0.76533     0.77207     0.74050     0.66363     0.55230     0.44592     0.38474     0.37485     0.39785    
 0.42591     0.43261     0.41048     0.37018     0.32337     0.27724     0.24594     0.25101     0.30773     0.41259    
 0.52942     0.61733     0.66905     0.70292     0.60631     0.63071     0.62554     0.58246     0.51224     0.44592    
 0.41881     0.44592     0.51223     0.58244     0.62551     0.63066     0.60624     0.56691     0.51848     0.45459    
 0.37555     0.30773     0.28193     0.30774     0.37558     0.45465     0.51854     0.56699     0.41036     0.43253    
 0.42586     0.39783     0.37484     0.38474     0.44592     0.55230     0.66363     0.74051     0.77209     0.76535    
 0.73618     0.70295     0.66909     0.61736     0.52946     0.41259     0.30774     0.25100     0.24592     0.27720    
 0.32327     0.37008     0.21811     0.24001     0.24714     0.25531     0.29057     0.37485     0.51223     0.66363    
 0.77555     0.83173     0.84060     0.81363     0.77032     0.74069     0.73068     0.71119     0.64905     0.52942    
 0.37558     0.24592     0.17572     0.15434     0.16264     0.18762     0.95514E-01 0.11516     0.13736     0.17564    
 0.25528     0.39785     0.58244     0.74051     0.83173     0.86138     0.84149     0.77592     0.69505     0.66701    
 0.69946     0.73060     0.71122     0.61733     0.45465     0.27720     0.15434     0.96544E-01 0.77965E-01 0.80561E-01
 0.42021E-01 0.56063E-01 0.82879E-01 0.13741     0.24710     0.42591     0.62551     0.77209     0.84060     0.84149    
 0.77229     0.61789     0.46631     0.46225     0.58531     0.69945     0.73069     0.66905     0.51854     0.32327    
 0.16264     0.77965E-01 0.45586E-01 0.37503E-01 0.23212E-01 0.31823E-01 0.56025E-01 0.11520     0.23992     0.43261    
 0.63066     0.76535     0.81363     0.77592     0.61789     0.34876     0.19586     0.24413     0.46225     0.66701    
 0.74071     0.70292     0.56699     0.37008     0.18762     0.80561E-01 0.37503E-01 0.24000E-01 0.18766E-01 0.23223E-01
 0.42004E-01 0.95580E-01 0.21802     0.41048     0.60624     0.73618     0.77032     0.69505     0.46631     0.19586    
 0.10924     0.19586     0.46630     0.69505     0.77033     0.73615     0.60631     0.41036     0.21811     0.95514E-01
 0.42021E-01 0.23212E-01 0.23223E-01 0.24009E-01 0.37488E-01 0.80600E-01 0.18752     0.37018     0.56691     0.70295    
 0.74069     0.66701     0.46225     0.24413     0.19586     0.34876     0.61789     0.77592     0.81363     0.76533    
 0.63071     0.43253     0.24001     0.11516     0.56063E-01 0.31823E-01 0.42004E-01 0.37488E-01 0.45569E-01 0.77987E-01
 0.16259     0.32337     0.51848     0.66909     0.73068     0.69946     0.58531     0.46225     0.46630     0.61789    
 0.77229     0.84149     0.84061     0.77207     0.62554     0.42586     0.24714     0.13736     0.82879E-01 0.56025E-01
 0.95580E-01 0.80600E-01 0.77987E-01 0.96566E-01 0.15432     0.27724     0.45459     0.61736     0.71119     0.73060    
 0.69945     0.66701     0.69505     0.77592     0.84149     0.86138     0.83174     0.74050     0.58246     0.39783    
 0.25531     0.17564     0.13741     0.11520     0.21802     0.18752     0.16259     0.15432     0.17570     0.24594    
 0.37555     0.52946     0.64905     0.71122     0.73069     0.74071     0.77033     0.81363     0.84061     0.83174    
 0.77556     0.66363     0.51224     0.37484     0.29057     0.25528     0.24710     0.23992     0.41048     0.37018    
 0.32337     0.27724     0.24594     0.25101     0.30773     0.41259     0.52942     0.61733     0.66905     0.70292    
 0.73615     0.76533     0.77207     0.74050     0.66363     0.55230     0.44592     0.38474     0.37485     0.39785    
 0.42591     0.43261     0.60624     0.56691     0.51848     0.45459     0.37555     0.30773     0.28193     0.30774    
 0.37558     0.45465     0.51854     0.56699     0.60631     0.63071     0.62554     0.58246     0.51224     0.44592    
 0.41881     0.44592     0.51223     0.58244     0.62551     0.63066     0.73618     0.70295     0.66909     0.61736    
 0.52946     0.41259     0.30774     0.25100     0.24592     0.27720     0.32327     0.37008     0.41036     0.43253    
 0.42586     0.39783     0.37484     0.38474     0.44592     0.55230     0.66363     0.74051     0.77209     0.76535    
 0.77032     0.74069     0.73068     0.71119     0.64905     0.52942     0.37558     0.24592     0.17572     0.15434    
 0.16264     0.18762     0.21811     0.24001     0.24714     0.25531     0.29057     0.37485     0.51223     0.66363    
 0.77555     0.83173     0.84060     0.81363     0.69505     0.66701     0.69946     0.73060     0.71122     0.61733    
 0.45465     0.27720     0.15434     0.96544E-01 0.77965E-01 0.80561E-01 0.95514E-01 0.11516     0.13736     0.17564    
 0.25528     0.39785     0.58244     0.74051     0.83173     0.86138     0.84149     0.77592     0.46631     0.46225    
 0.58531     0.69945     0.73069     0.66905     0.51854     0.32327     0.16264     0.77965E-01 0.45586E-01 0.37503E-01
 0.42021E-01 0.56063E-01 0.82879E-01 0.13741     0.24710     0.42591     0.62551     0.77209     0.84060     0.84149    
 0.77229     0.61789     0.19586     0.24413     0.46225     0.66701     0.74071     0.70292     0.56699     0.37008    
 0.18762     0.80561E-01 0.37503E-01 0.24000E-01 0.23212E-01 0.31823E-01 0.56025E-01 0.11520     0.23992     0.43261    
 0.63066     0.76535     0.81363     0.77592     0.61789     0.34876     0.13674     0.24364     0.54075     0.74691    
 0.80021     0.75635     0.62820     0.43846     0.24589     0.11635     0.54140E-01 0.29984E-01 0.23940E-01 0.29989E-01
 0.54135E-01 0.11638     0.24587     0.43851     0.62818     0.75636     0.80021     0.74691     0.54076     0.24364    
 0.24364     0.47980     0.74765     0.85207     0.86269     0.80899     0.68498     0.49753     0.29958     0.15841    
 0.82327E-01 0.45784E-01 0.29989E-01 0.27581E-01 0.40343E-01 0.83330E-01 0.18714     0.36248     0.55231     0.68747    
 0.72825     0.65257     0.44437     0.24617     0.54075     0.74765     0.86958     0.90428     0.89142     0.83206    
 0.71126     0.52834     0.33942     0.20529     0.12742     0.82303E-01 0.54135E-01 0.40343E-01 0.43002E-01 0.69926E-01
 0.14431     0.28951     0.47198     0.61827     0.67809     0.63741     0.52101     0.44437     0.74691     0.85207    
 0.90428     0.91283     0.88862     0.82496     0.70392     0.53352     0.37674     0.27102     0.20532     0.15842    
 0.11638     0.83330E-01 0.69926E-01 0.81434E-01 0.12931     0.23523     0.39349     0.54514     0.63637     0.65608    
 0.63740     0.65257     0.80021     0.86269     0.89142     0.88862     0.85660     0.78435     0.66165     0.52592    
 0.43091     0.37671     0.33941     0.29953     0.24587     0.18714     0.14431     0.12931     0.14692     0.20824    
 0.32097     0.45674     0.56791     0.63640     0.67810     0.72826     0.75635     0.80899     0.83206     0.82496    
 0.78435     0.70216     0.60096     0.53707     0.52593     0.53353     0.52837     0.49755     0.43851     0.36248    
 0.28951     0.23523     0.20824     0.21640     0.26713     0.35599     0.45669     0.54512     0.61824     0.68747    
 0.62820     0.68498     0.71126     0.70392     0.66165     0.60096     0.57054     0.60096     0.66165     0.70391    
 0.71125     0.68495     0.62818     0.55231     0.47198     0.39349     0.32097     0.26713     0.24727     0.26715    
 0.32099     0.39354     0.47201     0.55235     0.43846     0.49753     0.52834     0.53352     0.52592     0.53707    
 0.60096     0.70217     0.78435     0.82497     0.83206     0.80900     0.75636     0.68747     0.61827     0.54514    
 0.45674     0.35599     0.26715     0.21639     0.20822     0.23521     0.28945     0.36245     0.24589     0.29958    
 0.33942     0.37674     0.43091     0.52593     0.66165     0.78435     0.85660     0.88861     0.89142     0.86269    
 0.80021     0.72825     0.67809     0.63637     0.56791     0.45669     0.32099     0.20822     0.14693     0.12933    
 0.14433     0.18719     0.11635     0.15841     0.20529     0.27102     0.37671     0.53353     0.70391     0.82497    
 0.88861     0.91283     0.90428     0.85207     0.74691     0.65257     0.63741     0.65608     0.63640     0.54512    
 0.39354     0.23521     0.12933     0.81423E-01 0.69916E-01 0.83320E-01 0.54140E-01 0.82327E-01 0.12742     0.20532    
 0.33941     0.52837     0.71125     0.83206     0.89142     0.90428     0.86958     0.74765     0.54076     0.44437    
 0.52101     0.63740     0.67810     0.61824     0.47201     0.28945     0.14433     0.69916E-01 0.43008E-01 0.40349E-01
 0.29984E-01 0.45784E-01 0.82303E-01 0.15842     0.29953     0.49755     0.68495     0.80900     0.86269     0.85207    
 0.74765     0.47980     0.24364     0.24617     0.44437     0.65257     0.72826     0.68747     0.55235     0.36245    
 0.18719     0.83320E-01 0.40349E-01 0.27579E-01 0.23940E-01 0.29989E-01 0.54135E-01 0.11638     0.24587     0.43851    
 0.62818     0.75636     0.80021     0.74691     0.54076     0.24364     0.13674     0.24364     0.54075     0.74691    
 0.80021     0.75635     0.62820     0.43846     0.24589     0.11635     0.54140E-01 0.29984E-01 0.29989E-01 0.27581E-01
 0.40343E-01 0.83330E-01 0.18714     0.36248     0.55231     0.68747     0.72825     0.65257     0.44437     0.24617    
 0.24364     0.47980     0.74765     0.85207     0.86269     0.80899     0.68498     0.49753     0.29958     0.15841    
 0.82327E-01 0.45784E-01 0.54135E-01 0.40343E-01 0.43002E-01 0.69926E-01 0.14431     0.28951     0.47198     0.61827    
 0.67809     0.63741     0.52101     0.44437     0.54075     0.74765     0.86958     0.90428     0.89142     0.83206    
 0.71126     0.52834     0.33942     0.20529     0.12742     0.82303E-01 0.11638     0.83330E-01 0.69926E-01 0.81434E-01
 0.12931     0.23523     0.39349     0.54514     0.63637     0.65608     0.63740     0.65257     0.74691     0.85207    
 0.90428     0.91283     0.88862     0.82496     0.70392     0.53352     0.37674     0.27102     0.20532     0.15842    
 0.24587     0.18714     0.14431     0.12931     0.14692     0.20824     0.32097     0.45674     0.56791     0.63640    
 0.67810     0.72826     0.80021     0.86269     0.89142     0.88862     0.85660     0.78435     0.66165     0.52592    
 0.43091     0.37671     0.33941     0.29953     0.43851     0.36248     0.28951     0.23523     0.20824     0.21640    
 0.26713     0.35599     0.45669     0.54512     0.61824     0.68747     0.75635     0.80899     0.83206     0.82496    
 0.78435     0.70216     0.60096     0.53707     0.52593     0.53353     0.52837     0.49755     0.62818     0.55231    
 0.47198     0.39349     0.32097     0.26713     0.24727     0.26715     0.32099     0.39354     0.47201     0.55235    
 0.62820     0.68498     0.71126     0.70392     0.66165     0.60096     0.57054     0.60096     0.66165     0.70391    
 0.71125     0.68495     0.75636     0.68747     0.61827     0.54514     0.45674     0.35599     0.26715     0.21639    
 0.20822     0.23521     0.28945     0.36245     0.43846     0.49753     0.52834     0.53352     0.52592     0.53707    
 0.60096     0.70217     0.78435     0.82497     0.83206     0.80900     0.80021     0.72825     0.67809     0.63637    
 0.56791     0.45669     0.32099     0.20822     0.14693     0.12933     0.14433     0.18719     0.24589     0.29958    
 0.33942     0.37674     0.43091     0.52593     0.66165     0.78435     0.85660     0.88861     0.89142     0.86269    
 0.74691     0.65257     0.63741     0.65608     0.63640     0.54512     0.39354     0.23521     0.12933     0.81423E-01
 0.69916E-01 0.83320E-01 0.11635     0.15841     0.20529     0.27102     0.37671     0.53353     0.70391     0.82497    
 0.88861     0.91283     0.90428     0.85207     0.54076     0.44437     0.52101     0.63740     0.67810     0.61824    
 0.47201     0.28945     0.14433     0.69916E-01 0.43008E-01 0.40349E-01 0.54140E-01 0.82327E-01 0.12742     0.20532    
 0.33941     0.52837     0.71125     0.83206     0.89142     0.90428     0.86958     0.74765     0.24364     0.24617    
 0.44437     0.65257     0.72826     0.68747     0.55235     0.36245     0.18719     0.83320E-01 0.40349E-01 0.27579E-01
 0.29984E-01 0.45784E-01 0.82303E-01 0.15842     0.29953     0.49755     0.68495     0.80900     0.86269     0.85207    
 0.74765     0.47980     0.30704     0.42456     0.66190     0.79511     0.81565     0.75768     0.63017     0.44924    
 0.26788     0.14199     0.74301E-01 0.44562E-01 0.36582E-01 0.44559E-01 0.74306E-01 0.14199     0.26792     0.44924    
 0.63020     0.75768     0.81565     0.79511     0.66190     0.42456     0.42456     0.65486     0.83405     0.89072    
 0.88393     0.82859     0.71689     0.54539     0.35736     0.21217     0.12124     0.69979E-01 0.44559E-01 0.37618E-01
 0.48995E-01 0.89850E-01 0.18333     0.34112     0.51969     0.65579     0.71330     0.67080     0.52518     0.38438    
 0.66190     0.83405     0.91203     0.92850     0.91331     0.86690     0.77027     0.60972     0.43180     0.29042    
 0.19055     0.12125     0.74306E-01 0.48995E-01 0.44987E-01 0.64802E-01 0.12440     0.24501     0.40642     0.54592    
 0.61705     0.60301     0.53626     0.52518     0.79511     0.89072     0.92850     0.93373     0.91953     0.87811    
 0.78081     0.62462     0.47849     0.37486     0.29043     0.21215     0.14199     0.89850E-01 0.64802E-01 0.66964E-01
 0.10060     0.18202     0.31207     0.44594     0.53903     0.58092     0.60300     0.67081     0.81565     0.88393    
 0.91331     0.91953     0.90584     0.85345     0.73633     0.59655     0.51541     0.47847     0.43181     0.35736    
 0.26792     0.18333     0.12440     0.10060     0.11005     0.15638     0.24524     0.35662     0.45701     0.53906    
 0.61704     0.71331     0.75768     0.82859     0.86690     0.87811     0.85345     0.77214     0.65133     0.58298    
 0.59656     0.62462     0.60973     0.54536     0.44924     0.34112     0.24501     0.18202     0.15638     0.16380    
 0.20430     0.27382     0.35657     0.44594     0.54590     0.65581     0.63017     0.71689     0.77027     0.78081    
 0.73633     0.65133     0.60397     0.65133     0.73633     0.78080     0.77027     0.71688     0.63020     0.51969    
 0.40642     0.31207     0.24524     0.20430     0.19001     0.20433     0.24525     0.31211     0.40641     0.51970    
 0.44924     0.54539     0.60972     0.62462     0.59655     0.58298     0.65133     0.77214     0.85345     0.87811    
 0.86690     0.82858     0.75768     0.65579     0.54592     0.44594     0.35662     0.27382     0.20433     0.16379    
 0.15636     0.18201     0.24498     0.34115     0.26788     0.35736     0.43180     0.47849     0.51541     0.59656    
 0.73633     0.85345     0.90584     0.91953     0.91331     0.88393     0.81565     0.71330     0.61705     0.53903    
 0.45701     0.35657     0.24525     0.15636     0.11005     0.10061     0.12440     0.18334     0.14199     0.21217    
 0.29042     0.37486     0.47847     0.62462     0.78080     0.87811     0.91953     0.93373     0.92850     0.89072    
 0.79511     0.67080     0.60301     0.58092     0.53906     0.44594     0.31211     0.18201     0.10061     0.66961E-01
 0.64800E-01 0.89859E-01 0.74301E-01 0.12124     0.19055     0.29043     0.43181     0.60973     0.77027     0.86690    
 0.91331     0.92850     0.91203     0.83405     0.66190     0.52518     0.53626     0.60300     0.61704     0.54590    
 0.40641     0.24498     0.12440     0.64800E-01 0.44987E-01 0.48994E-01 0.44562E-01 0.69979E-01 0.12125     0.21215    
 0.35736     0.54536     0.71688     0.82858     0.88393     0.89072     0.83405     0.65486     0.42456     0.38438    
 0.52518     0.67081     0.71331     0.65581     0.51970     0.34115     0.18334     0.89859E-01 0.48994E-01 0.37618E-01
 0.36582E-01 0.44559E-01 0.74306E-01 0.14199     0.26792     0.44924     0.63020     0.75768     0.81565     0.79511    
 0.66190     0.42456     0.30704     0.42456     0.66190     0.79511     0.81565     0.75768     0.63017     0.44924    
 0.26788     0.14199     0.74301E-01 0.44562E-01 0.44559E-01 0.37618E-01 0.48995E-01 0.89850E-01 0.18333     0.34112    
 0.51969     0.65579     0.71330     0.67080     0.52518     0.38438     0.42456     0.65486     0.83405     0.89072    
 0.88393     0.82859     0.71689     0.54539     0.35736     0.21217     0.12124     0.69979E-01 0.74306E-01 0.48995E-01
 0.44987E-01 0.64802E-01 0.12440     0.24501     0.40642     0.54592     0.61705     0.60301     0.53626     0.52518    
 0.66190     0.83405     0.91203     0.92850     0.91331     0.86690     0.77027     0.60972     0.43180     0.29042    
 0.19055     0.12125     0.14199     0.89850E-01 0.64802E-01 0.66964E-01 0.10060     0.18202     0.31207     0.44594    
 0.53903     0.58092     0.60300     0.67081     0.79511     0.89072     0.92850     0.93373     0.91953     0.87811    
 0.78081     0.62462     0.47849     0.37486     0.29043     0.21215     0.26792     0.18333     0.12440     0.10060    
 0.11005     0.15638     0.24524     0.35662     0.45701     0.53906     0.61704     0.71331     0.81565     0.88393    
 0.91331     0.91953     0.90584     0.85345     0.73633     0.59655     0.51541     0.47847     0.43181     0.35736    
 0.44924     0.34112     0.24501     0.18202     0.15638     0.16380     0.20430     0.27382     0.35657     0.44594    
 0.54590     0.65581     0.75768     0.82859     0.86690     0.87811     0.85345     0.77214     0.65133     0.58298    
 0.59656     0.62462     0.60973     0.54536     0.63020     0.51969     0.40642     0.31207     0.24524     0.20430    
 0.19001     0.20433     0.24525     0.31211     0.40641     0.51970     0.63017     0.71689     0.77027     0.78081    
 0.73633     0.65133     0.60397     0.65133     0.73633     0.78080     0.77027     0.71688     0.75768     0.65579    
 0.54592     0.44594     0.35662     0.27382     0.20433     0.16379     0.15636     0.18201     0.24498     0.34115    
 0.44924     0.54539     0.60972     0.62462     0.59655     0.58298     0.65133     0.77214     0.85345     0.87811    
 0.86690     0.82858     0.81565     0.71330     0.61705     0.53903     0.45701     0.35657     0.24525     0.15636    
 0.11005     0.10061     0.12440     0.18334     0.26788     0.35736     0.43180     0.47849     0.51541     0.59656    
 0.73633     0.85345     0.90584     0.91953     0.91331     0.88393     0.79511     0.67080     0.60301     0.58092    
 0.53906     0.44594     0.31211     0.18201     0.10061     0.66961E-01 0.64800E-01 0.89859E-01 0.14199     0.21217    
 0.29042     0.37486     0.47847     0.62462     0.78080     0.87811     0.91953     0.93373     0.92850     0.89072    
 0.66190     0.52518     0.53626     0.60300     0.61704     0.54590     0.40641     0.24498     0.12440     0.64800E-01
 0.44987E-01 0.48994E-01 0.74301E-01 0.12124     0.19055     0.29043     0.43181     0.60973     0.77027     0.86690    
 0.91331     0.92850     0.91203     0.83405     0.42456     0.38438     0.52518     0.67081     0.71331     0.65581    
 0.51970     0.34115     0.18334     0.89859E-01 0.48994E-01 0.37618E-01 0.44562E-01 0.69979E-01 0.12125     0.21215    
 0.35736     0.54536     0.71688     0.82858     0.88393     0.89072     0.83405     0.65486     0.48662     0.56704    
 0.71307     0.79186     0.79011     0.72578     0.60648     0.44836     0.29776     0.18692     0.11620     0.79417E-01
 0.68597E-01 0.79409E-01 0.11620     0.18691     0.29780     0.44834     0.60651     0.72577     0.79012     0.79186    
 0.71307     0.56704     0.56704     0.72922     0.84764     0.88480     0.87250     0.82151     0.72258     0.57610    
 0.42223     0.29338     0.19258     0.12106     0.79409E-01 0.63867E-01 0.72103E-01 0.10896     0.18572     0.31174    
 0.46470     0.59192     0.66128     0.65633     0.58165     0.51298     0.71307     0.84764     0.90952     0.92377    
 0.91354     0.87616     0.78847     0.64780     0.50816     0.39524     0.29077     0.19261     0.11620     0.72103E-01
 0.57839E-01 0.69147E-01 0.11191     0.20041     0.32830     0.44912     0.52616     0.54955     0.54322     0.58165    
 0.79186     0.88480     0.92377     0.93536     0.92945     0.89197     0.78838     0.63267     0.52207     0.46369    
 0.39524     0.29335     0.18691     0.10896     0.69147E-01 0.60718E-01 0.79414E-01 0.13328     0.22668     0.33127    
 0.41669     0.48252     0.54955     0.65633     0.79011     0.87250     0.91354     0.92945     0.91986     0.85946    
 0.70742     0.54551     0.50123     0.52207     0.50817     0.42224     0.29780     0.18572     0.11191     0.79414E-01
 0.79137E-01 0.10756     0.16723     0.24679     0.32821     0.41671     0.52615     0.66128     0.72578     0.82151    
 0.87616     0.89197     0.85946     0.74207     0.55850     0.48033     0.54551     0.63267     0.64780     0.57608    
 0.44834     0.31174     0.20041     0.13328     0.10756     0.11086     0.13769     0.18465     0.24676     0.33127    
 0.44912     0.59195     0.60648     0.72258     0.78847     0.78838     0.70742     0.55850     0.47595     0.55850    
 0.70742     0.78838     0.78847     0.72259     0.60651     0.46470     0.32830     0.22668     0.16723     0.13769    
 0.12842     0.13770     0.16723     0.22670     0.32828     0.46469     0.44836     0.57610     0.64780     0.63267    
 0.54551     0.48033     0.55850     0.74207     0.85946     0.89197     0.87616     0.82150     0.72577     0.59192    
 0.44912     0.33127     0.24679     0.18465     0.13770     0.11086     0.10755     0.13328     0.20040     0.31178    
 0.29776     0.42223     0.50816     0.52207     0.50123     0.54551     0.70742     0.85946     0.91986     0.92945    
 0.91354     0.87250     0.79012     0.66128     0.52616     0.41669     0.32821     0.24676     0.16723     0.10755    
 0.79138E-01 0.79418E-01 0.11190     0.18572     0.18692     0.29338     0.39524     0.46369     0.52207     0.63267    
 0.78838     0.89197     0.92945     0.93536     0.92377     0.88480     0.79186     0.65633     0.54955     0.48252    
 0.41671     0.33127     0.22670     0.13328     0.79418E-01 0.60718E-01 0.69147E-01 0.10897     0.11620     0.19258    
 0.29077     0.39524     0.50817     0.64780     0.78847     0.87616     0.91354     0.92377     0.90952     0.84764    
 0.71307     0.58165     0.54322     0.54955     0.52615     0.44912     0.32828     0.20040     0.11190     0.69147E-01
 0.57840E-01 0.72098E-01 0.79417E-01 0.12106     0.19261     0.29335     0.42224     0.57608     0.72259     0.82150    
 0.87250     0.88480     0.84764     0.72922     0.56704     0.51298     0.58165     0.65633     0.66128     0.59195    
 0.46469     0.31178     0.18572     0.10897     0.72098E-01 0.63866E-01 0.68597E-01 0.79409E-01 0.11620     0.18691    
 0.29780     0.44834     0.60651     0.72577     0.79012     0.79186     0.71307     0.56704     0.48662     0.56704    
 0.71307     0.79186     0.79011     0.72578     0.60648     0.44836     0.29776     0.18692     0.11620     0.79417E-01
 0.79409E-01 0.63867E-01 0.72103E-01 0.10896     0.18572     0.31174     0.46470     0.59192     0.66128     0.65633    
 0.58165     0.51298     0.56704     0.72922     0.84764     0.88480     0.87250     0.82151     0.72258     0.57610    
 0.42223     0.29338     0.19258     0.12106     0.11620     0.72103E-01 0.57839E-01 0.69147E-01 0.11191     0.20041    
 0.32830     0.44912     0.52616     0.54955     0.54322     0.58165     0.71307     0.84764     0.90952     0.92377    
 0.91354     0.87616     0.78847     0.64780     0.50816     0.39524     0.29077     0.19261     0.18691     0.10896    
 0.69147E-01 0.60718E-01 0.79414E-01 0.13328     0.22668     0.33127     0.41669     0.48252     0.54955     0.65633    
 0.79186     0.88480     0.92377     0.93536     0.92945     0.89197     0.78838     0.63267     0.52207     0.46369    
 0.39524     0.29335     0.29780     0.18572     0.11191     0.79414E-01 0.79137E-01 0.10756     0.16723     0.24679    
 0.32821     0.41671     0.52615     0.66128     0.79011     0.87250     0.91354     0.92945     0.91986     0.85946    
 0.70742     0.54551     0.50123     0.52207     0.50817     0.42224     0.44834     0.31174     0.20041     0.13328    
 0.10756     0.11086     0.13769     0.18465     0.24676     0.33127     0.44912     0.59195     0.72578     0.82151    
 0.87616     0.89197     0.85946     0.74207     0.55850     0.48033     0.54551     0.63267     0.64780     0.57608    
 0.60651     0.46470     0.32830     0.22668     0.16723     0.13769     0.12842     0.13770     0.16723     0.22670    
 0.32828     0.46469     0.60648     0.72258     0.78847     0.78838     0.70742     0.55850     0.47595     0.55850    
 0.70742     0.78838     0.78847     0.72259     0.72577     0.59192     0.44912     0.33127     0.24679     0.18465    
 0.13770     0.11086     0.10755     0.13328     0.20040     0.31178     0.44836     0.57610     0.64780     0.63267    
 0.54551     0.48033     0.55850     0.74207     0.85946     0.89197     0.87616     0.82150     0.79012     0.66128    
 0.52616     0.41669     0.32821     0.24676     0.16723     0.10755     0.79138E-01 0.79418E-01 0.11190     0.18572    
 0.29776     0.42223     0.50816     0.52207     0.50123     0.54551     0.70742     0.85946     0.91986     0.92945    
 0.91354     0.87250     0.79186     0.65633     0.54955     0.48252     0.41671     0.33127     0.22670     0.13328    
 0.79418E-01 0.60718E-01 0.69147E-01 0.10897     0.18692     0.29338     0.39524     0.46369     0.52207     0.63267    
 0.78838     0.89197     0.92945     0.93536     0.92377     0.88480     0.71307     0.58165     0.54322     0.54955    
 0.52615     0.44912     0.32828     0.20040     0.11190     0.69147E-01 0.57840E-01 0.72098E-01 0.11620     0.19258    
 0.29077     0.39524     0.50817     0.64780     0.78847     0.87616     0.91354     0.92377     0.90952     0.84764    
 0.56704     0.51298     0.58165     0.65633     0.66128     0.59195     0.46469     0.31178     0.18572     0.10897    
 0.72098E-01 0.63866E-01 0.79417E-01 0.12106     0.19261     0.29335     0.42224     0.57608     0.72259     0.82150    
 0.87250     0.88480     0.84764     0.72922     0.53631     0.58330     0.67230     0.72367     0.71695     0.66031    
 0.56374     0.45295     0.35549     0.27335     0.20361     0.15734     0.14192     0.15733     0.20362     0.27334    
 0.35550     0.45294     0.56374     0.66030     0.71696     0.72367     0.67230     0.58329     0.58330     0.70354    
 0.79965     0.83701     0.83027     0.78469     0.69870     0.59499     0.50355     0.41815     0.32169     0.22579    
 0.15733     0.12566     0.12695     0.15700     0.21201     0.29334     0.39765     0.49610     0.55714     0.56993    
 0.54336     0.52626     0.67230     0.79965     0.86996     0.89538     0.89070     0.84833     0.75666     0.64964    
 0.57877     0.52572     0.44278     0.32171     0.20362     0.12695     0.93908E-01 0.92901E-01 0.11782     0.17079    
 0.25173     0.33732     0.39964     0.43829     0.47265     0.54335     0.72367     0.83701     0.89538     0.91786    
 0.90990     0.85279     0.72065     0.58630     0.54805     0.55743     0.52571     0.41814     0.27334     0.15700    
 0.92901E-01 0.69667E-01 0.73448E-01 0.10121     0.15460     0.22117     0.28348     0.34914     0.43829     0.56994    
 0.71695     0.83027     0.89070     0.90990     0.88742     0.78265     0.56325     0.41913     0.45275     0.54805    
 0.57878     0.50355     0.35550     0.21201     0.11782     0.73448E-01 0.62476E-01 0.73792E-01 0.10520     0.15173    
 0.20719     0.28348     0.39963     0.55714     0.66031     0.78469     0.84833     0.85279     0.78265     0.57347    