PROCAR lm decomposed
# of k-points:    6         # of bands:  26         # of ions:  10

 k-point    1 :    0.00000000 0.00000000 0.00000000     weight = 0.04000000

band   1 # energy   -8.03553092 # occ.  2.00000000
 
ion      s     py     pz     px    dxy    dyz    dz2    dxz    dx2    tot
  1  0.016  0.000  0.001  0.000  0.000  0.000  0.000  0.000  0.000  0.017
  2  0.016  0.000  0.001  0.000  0.000  0.000  0.000  0.000  0.000  0.017
  3  0.054  0.000  0.001  0.000  0.000  0.000  0.000  0.000  0.000  0.054
  4  0.054  0.000  0.001  0.000  0.000  0.000  0.000  0.000  0.000  0.054
  5  0.075  0.000  0.000  0.000  0.000  0.000  0.000  0.000  0.000  0.075
  6  0.075  0.000  0.000  0.000  0.000  0.000  0.000  0.000  0.000  0.075
  7  0.054  0.000  0.001  0.000  0.000  0.000  0.000  0.000  0.000  0.054
  8  0.054  0.000  0.001  0.000  0.000  0.000  0.000  0.000  0.000  0.054
  9  0.016  0.000  0.001  0.000  0.000  0.000  0.000  0.000  0.000  0.017
 10  0.016  0.000  0.001  0.000  0.000  0.000  0.000  0.000  0.000  0.017
tot  0.428  0.000  0.008  0.000  0.000  0.000  0.000  0.000  0.000  0.436
 
band   2 # energy   -6.36120855 # occ.  2.00000000
 
ion      s     py     pz     px    dxy    dyz    dz2    dxz    dx2    tot
  1  0.045  0.000  0.003  0.000  0.000  0.000  0.000  0.000  0.000  0.048
  2  0.045  0.000  0.003  0.000  0.000  0.000  0.000  0.000  0.000  0.048
  3  0.059  0.000  0.002  0.000  0.000  0.000  0.000  0.000  0.000  0.061
  4  0.059  0.000  0.002  0.000  0.000  0.000  0.000  0.000  0.000  0.061
  5  0.000  0.000  0.009  0.000  0.000  0.000  0.000  0.000  0.000  0.009
  6  0.000  0.000  0.009  0.000  0.000  0.000  0.000  0.000  0.000  0.009
  7  0.059  0.000  0.002  0.000  0.000  0.000  0.000  0.000  0.000  0.061
  8  0.059  0.000  0.002  0.000  0.000  0.000  0.000  0.000  0.000  0.061
  9  0.045  0.000  0.003  0.000  0.000  0.000  0.000  0.000  0.000  0.048
 10  0.045  0.000  0.003  0.000  0.000  0.000  0.000  0.000  0.000  0.048
tot  0.419  0.000  0.036  0.000  0.000  0.000  0.000  0.000  0.000  0.455
 
band   3 # energy   -4.37664322 # occ.  2.00000000
 
ion      s     py     pz     px    dxy    dyz    dz2    dxz    dx2    tot
  1  0.000  0.000  0.000  0.000  0.000  0.000  0.000  0.000  0.000  0.000
  2  0.000  0.000  0.000  0.000  0.000  0.000  0.000  0.000  0.000  0.000
  3  0.000  0.011  0.000  0.011  0.000  0.000  0.000  0.000  0.000  0.022
  4  0.000  0.011  0.000  0.011  0.000  0.000  0.000  0.000  0.000  0.022
  5  0.202  0.000  0.000  0.000  0.000  0.000  0.000  0.000  0.000  0.202
  6  0.202  0.000  0.000  0.000  0.000  0.000  0.000  0.000  0.000  0.202
  7  0.000  0.011  0.000  0.011  0.000  0.000  0.000  0.000  0.000  0.022
  8  0.000  0.011  0.000  0.011  0.000  0.000  0.000  0.000  0.000  0.022
  9  0.000  0.000  0.000  0.000  0.000  0.000  0.000  0.000  0.000  0.000
 10  0.000  0.000  0.000  0.000  0.000  0.000  0.000  0.000  0.000  0.000
tot  0.405  0.044  0.000  0.044  0.000  0.000  0.000  0.000  0.000  0.492
 
band   4 # energy   -4.28808435 # occ.  2.00000000
 
ion      s     py     pz     px    dxy    dyz    dz2    dxz    dx2    tot
  1  0.000  0.010  0.000  0.010  0.000  0.000  0.000  0.000  0.000  0.020
  2  0.000  0.010  0.000  0.010  0.000  0.000  0.000  0.000  0.000  0.020
  3  0.202  0.000  0.000  0.000  0.000  0.000  0.000  0.000  0.000  0.202
  4  0.202  0.000  0.000  0.000  0.000  0.000  0.000  0.000  0.000  0.202
  5  0.000  0.012  0.000  0.012  0.000  0.000  0.000  0.000  0.000  0.024
  6  0.000  0.012  0.000  0.012  0.000  0.000  0.000  0.000  0.000  0.024
  7  0.000  0.000  0.000  0.000  0.000  0.000  0.000  0.000  0.000  0.000
  8  0.000  0.000  0.000  0.000  0.000  0.000  0.000  0.000  0.000  0.000
  9  0.000  0.000  0.000  0.000  0.000  0.000  0.000  0.000  0.000  0.000
 10  0.000  0.000  0.000  0.000  0.000  0.000  0.000  0.000  0.000  0.000
tot  0.404  0.044  0.000  0.044  0.000  0.000  0.000  0.000  0.000  0.492
 
band   5 # energy   -4.28798462 # occ.  2.00000000
 
ion      s     py     pz     px    dxy    dyz    dz2    dxz    dx2    tot
  1  0.000  0.000  0.000  0.000  0.000  0.000  0.000  0.000  0.000  0.000
  2  0.000  0.000  0.000  0.000  0.000  0.000  0.000  0.000  0.000  0.000
  3  0.000  0.000  0.000  0.000  0.000  0.000  0.000  0.000  0.000  0.000
  4  0.000  0.000  0.000  0.000  0.000  0.000  0.000  0.000  0.000  0.000
  5  0.000  0.012  0.000  0.012  0.000  0.000  0.000  0.000  0.000  0.024
  6  0.000  0.012  0.000  0.012  0.000  0.000  0.000  0.000  0.000  0.024
  7  0.202  0.000  0.000  0.000  0.000  0.000  0.000  0.000  0.000  0.202
  8  0.202  0.000  0.000  0.000  0.000  0.000  0.000  0.000  0.000  0.202
  9  0.000  0.010  0.000  0.010  0.000  0.000  0.000  0.000  0.000  0.020
 10  0.000  0.010  0.000  0.010  0.000  0.000  0.000  0.000  0.000  0.020
tot  0.404  0.044  0.000  0.044  0.000  0.000  0.000  0.000  0.000  0.492
 
band   6 # energy   -4.26913963 # occ.  2.00000000
 
ion      s     py     pz     px    dxy    dyz    dz2    dxz    dx2    tot
  1  0.066  0.000  0.000  0.000  0.000  0.000  0.000  0.000  0.000  0.066
  2  0.066  0.000  0.000  0.000  0.000  0.000  0.000  0.000  0.000  0.066
  3  0.000  0.000  0.016  0.000  0.000  0.000  0.000  0.000  0.000  0.016
  4  0.000  0.000  0.016  0.000  0.000  0.000  0.000  0.000  0.000  0.016
  5  0.062  0.000  0.000  0.000  0.000  0.000  0.000  0.000  0.000  0.062
  6  0.062  0.000  0.000  0.000  0.000  0.000  0.000  0.000  0.000  0.062
  7  0.000  0.000  0.016  0.000  0.000  0.000  0.000  0.000  0.000  0.016
  8  0.000  0.000  0.016  0.000  0.000  0.000  0.000  0.000  0.000  0.016
  9  0.066  0.000  0.000  0.000  0.000  0.000  0.000  0.000  0.000  0.066
 10  0.066  0.000  0.000  0.000  0.000  0.000  0.000  0.000  0.000  0.066
tot  0.387  0.000  0.063  0.000  0.000  0.000  0.000  0.000  0.000  0.450
 
band   7 # energy   -3.66881594 # occ.  2.00000000
 
ion      s     py     pz     px    dxy    dyz    dz2    dxz    dx2    tot
  1  0.099  0.000  0.002  0.000  0.000  0.000  0.000  0.000  0.000  0.100
  2  0.099  0.000  0.002  0.000  0.000  0.000  0.000  0.000  0.000  0.101
  3  0.000  0.009  0.000  0.009  0.000  0.000  0.000  0.000  0.000  0.019
  4  0.000  0.009  0.000  0.009  0.000  0.000  0.000  0.000  0.000  0.019
  5  0.000  0.000  0.000  0.000  0.000  0.000  0.000  0.000  0.000  0.000
  6  0.000  0.000  0.000  0.000  0.000  0.000  0.000  0.000  0.000  0.000
  7  0.000  0.009  0.000  0.009  0.000  0.000  0.000  0.000  0.000  0.019
  8  0.000  0.009  0.000  0.009  0.000  0.000  0.000  0.000  0.000  0.019
  9  0.099  0.000  0.002  0.000  0.000  0.000  0.000  0.000  0.000  0.100
 10  0.099  0.000  0.002  0.000  0.000  0.000  0.000  0.000  0.000  0.100
tot  0.395  0.038  0.007  0.038  0.000  0.000  0.000  0.000  0.000  0.477
 
band   8 # energy   -3.20542123 # occ.  2.00000000
 
ion      s     py     pz     px    dxy    dyz    dz2    dxz    dx2    tot
  1  0.102  0.000  0.004  0.000  0.000  0.000  0.000  0.000  0.000  0.107
  2  0.102  0.000  0.004  0.000  0.000  0.000  0.000  0.000  0.000  0.107
  3  0.000  0.010  0.000  0.010  0.000  0.000  0.000  0.000  0.000  0.020
  4  0.000  0.010  0.000  0.010  0.000  0.000  0.000  0.000  0.000  0.020
  5  0.000  0.000  0.000  0.000  0.000  0.000  0.000  0.000  0.000  0.000
  6  0.000  0.000  0.000  0.000  0.000  0.000  0.000  0.000  0.000  0.000
  7  0.000  0.010  0.000  0.010  0.000  0.000  0.000  0.000  0.000  0.020
  8  0.000  0.010  0.000  0.010  0.000  0.000  0.000  0.000  0.000  0.020
  9  0.102  0.000  0.004  0.000  0.000  0.000  0.000  0.000  0.000  0.107
 10  0.102  0.000  0.004  0.000  0.000  0.000  0.000  0.000  0.000  0.107
tot  0.409  0.040  0.018  0.040  0.000  0.000  0.000  0.000  0.000  0.506
 
band   9 # energy   -0.71866541 # occ.  2.00000000
 
ion      s     py     pz     px    dxy    dyz    dz2    dxz    dx2    tot
  1  0.055  0.000  0.002  0.000  0.000  0.000  0.000  0.000  0.000  0.057
  2  0.055  0.000  0.002  0.000  0.000  0.000  0.000  0.000  0.000  0.057
  3  0.036  0.000  0.015  0.000  0.000  0.000  0.000  0.000  0.000  0.051
  4  0.036  0.000  0.015  0.000  0.000  0.000  0.000  0.000  0.000  0.051
  5  0.000  0.000  0.035  0.000  0.000  0.000  0.000  0.000  0.000  0.035
  6  0.000  0.000  0.035  0.000  0.000  0.000  0.000  0.000  0.000  0.035
  7  0.036  0.000  0.015  0.000  0.000  0.000  0.000  0.000  0.000  0.051
  8  0.036  0.000  0.015  0.000  0.000  0.000  0.000  0.000  0.000  0.051
  9  0.055  0.000  0.002  0.000  0.000  0.000  0.000  0.000  0.000  0.057
 10  0.055  0.000  0.002  0.000  0.000  0.000  0.000  0.000  0.000  0.057
tot  0.364  0.000  0.137  0.000  0.000  0.000  0.000  0.000  0.000  0.501
 
band  10 # energy    0.08654319 # occ.  2.00000000
 
ion      s     py     pz     px    dxy    dyz    dz2    dxz    dx2    tot
  1  0.000  0.000  0.000  0.000  0.000  0.000  0.000  0.000  0.000  0.000
  2  0.000  0.000  0.000  0.000  0.000  0.000  0.000  0.000  0.000  0.000
  3  0.000  0.024  0.000  0.024  0.000  0.000  0.000  0.000  0.000  0.049
  4  0.000  0.024  0.000  0.024  0.000  0.000  0.000  0.000  0.000  0.049
  5  0.000  0.000  0.086  0.000  0.000  0.000  0.000  0.000  0.000  0.086
  6  0.000  0.000  0.086  0.000  0.000  0.000  0.000  0.000  0.000  0.086
  7  0.000  0.024  0.000  0.024  0.000  0.000  0.000  0.000  0.000  0.049
  8  0.000  0.024  0.000  0.024  0.000  0.000  0.000  0.000  0.000  0.049
  9  0.000  0.000  0.000  0.000  0.000  0.000  0.000  0.000  0.000  0.000
 10  0.000  0.000  0.000  0.000  0.000  0.000  0.000  0.000  0.000  0.000
tot  0.000  0.097  0.172  0.097  0.000  0.000  0.000  0.000  0.000  0.366
 
band  11 # energy    0.17162753 # occ.  2.00000000
 
ion      s     py     pz     px    dxy    dyz    dz2    dxz    dx2    tot
  1  0.000  0.023  0.000  0.023  0.000  0.000  0.000  0.000  0.000  0.046
  2  0.000  0.023  0.000  0.023  0.000  0.000  0.000  0.000  0.000  0.046
  3  0.001  0.000  0.083  0.000  0.000  0.000  0.000  0.000  0.000  0.084
  4  0.001  0.000  0.083  0.000  0.000  0.000  0.000  0.000  0.000  0.084
  5  0.000  0.025  0.000  0.025  0.000  0.000  0.000  0.000  0.000  0.049
  6  0.000  0.025  0.000  0.025  0.000  0.000  0.000  0.000  0.000  0.049
  7  0.000  0.000  0.000  0.000  0.000  0.000  0.000  0.000  0.000  0.000
  8  0.000  0.000  0.000  0.000  0.000  0.000  0.000  0.000  0.000  0.000
  9  0.000  0.001  0.000  0.001  0.000  0.000  0.000  0.000  0.000  0.002
 10  0.000  0.001  0.000  0.001  0.000  0.000  0.000  0.000  0.000  0.002
tot  0.002  0.097  0.167  0.097  0.000  0.000  0.000  0.000  0.000  0.363
 
band  12 # energy    0.17166290 # occ.  2.00000000
 
ion      s     py     pz     px    dxy    dyz    dz2    dxz    dx2    tot
  1  0.000  0.001  0.000  0.001  0.000  0.000  0.000  0.000  0.000  0.002
  2  0.000  0.001  0.000  0.001  0.000  0.000  0.000  0.000  0.000  0.002
  3  0.000  0.000  0.000  0.000  0.000  0.000  0.000  0.000  0.000  0.000
  4  0.000  0.000  0.000  0.000  0.000  0.000  0.000  0.000  0.000  0.000
  5  0.000  0.025  0.000  0.025  0.000  0.000  0.000  0.000  0.000  0.049
  6  0.000  0.025  0.000  0.025  0.000  0.000  0.000  0.000  0.000  0.049
  7  0.001  0.000  0.083  0.000  0.000  0.000  0.000  0.000  0.000  0.084
  8  0.001  0.000  0.083  0.000  0.000  0.000  0.000  0.000  0.000  0.084
  9  0.000  0.023  0.000  0.023  0.000  0.000  0.000  0.000  0.000  0.046
 10  0.000  0.023  0.000  0.023  0.000  0.000  0.000  0.000  0.000  0.046
tot  0.002  0.097  0.167  0.097  0.000  0.000  0.000  0.000  0.000  0.363
 
band  13 # energy    1.02506068 # occ.  2.00000000
 
ion      s     py     pz     px    dxy    dyz    dz2    dxz    dx2    tot
  1  0.000  0.003  0.000  0.003  0.000  0.000  0.000  0.000  0.000  0.006
  2  0.000  0.003  0.000  0.003  0.000  0.000  0.000  0.000  0.000  0.006
  3  0.000  0.026  0.000  0.026  0.000  0.000  0.000  0.000  0.000  0.053
  4  0.000  0.026  0.000  0.026  0.000  0.000  0.000  0.000  0.000  0.053
  5  0.000  0.035  0.000  0.035  0.000  0.000  0.000  0.000  0.000  0.070
  6  0.000  0.035  0.000  0.035  0.000  0.000  0.000  0.000  0.000  0.070
  7  0.000  0.024  0.000  0.024  0.000  0.000  0.000  0.000  0.000  0.048
  8  0.000  0.024  0.000  0.024  0.000  0.000  0.000  0.000  0.000  0.048
  9  0.000  0.012  0.000  0.012  0.000  0.000  0.000  0.000  0.000  0.025
 10  0.000  0.012  0.000  0.012  0.000  0.000  0.000  0.000  0.000  0.025
tot  0.000  0.202  0.000  0.202  0.000  0.000  0.000  0.000  0.000  0.404
 
band  14 # energy    1.02508034 # occ.  2.00000000
 
ion      s     py     pz     px    dxy    dyz    dz2    dxz    dx2    tot
  1  0.000  0.012  0.000  0.012  0.000  0.000  0.000  0.000  0.000  0.025
  2  0.000  0.012  0.000  0.012  0.000  0.000  0.000  0.000  0.000  0.025
  3  0.000  0.024  0.000  0.024  0.000  0.000  0.000  0.000  0.000  0.048
  4  0.000  0.024  0.000  0.024  0.000  0.000  0.000  0.000  0.000  0.048
  5  0.000  0.035  0.000  0.035  0.000  0.000  0.000  0.000  0.000  0.070
  6  0.000  0.035  0.000  0.035  0.000  0.000  0.000  0.000  0.000  0.070
  7  0.000  0.026  0.000  0.026  0.000  0.000  0.000  0.000  0.000  0.053
  8  0.000  0.026  0.000  0.026  0.000  0.000  0.000  0.000  0.000  0.053
  9  0.000  0.003  0.000  0.003  0.000  0.000  0.000  0.000  0.000  0.006
 10  0.000  0.003  0.000  0.003  0.000  0.000  0.000  0.000  0.000  0.006
tot  0.000  0.202  0.000  0.202  0.000  0.000  0.000  0.000  0.000  0.404
 
band  15 # energy    1.05698982 # occ.  2.00000000
 
ion      s     py     pz     px    dxy    dyz    dz2    dxz    dx2    tot
  1  0.005  0.000  0.041  0.000  0.000  0.000  0.000  0.000  0.000  0.046
  2  0.005  0.000  0.041  0.000  0.000  0.000  0.000  0.000  0.000  0.046
  3  0.020  0.000  0.008  0.000  0.000  0.000  0.000  0.000  0.000  0.028
  4  0.020  0.000  0.008  0.000  0.000  0.000  0.000  0.000  0.000  0.028
  5  0.039  0.000  0.000  0.000  0.000  0.000  0.000  0.000  0.000  0.039
  6  0.039  0.000  0.000  0.000  0.000  0.000  0.000  0.000  0.000  0.039
  7  0.020  0.000  0.008  0.000  0.000  0.000  0.000  0.000  0.000  0.028
  8  0.020  0.000  0.008  0.000  0.000  0.000  0.000  0.000  0.000  0.028
  9  0.005  0.000  0.041  0.000  0.000  0.000  0.000  0.000  0.000  0.046
 10  0.005  0.000  0.041  0.000  0.000  0.000  0.000  0.000  0.000  0.046
tot  0.179  0.000  0.194  0.000  0.000  0.000  0.000  0.000  0.000  0.373
 
band  16 # energy    1.25924579 # occ.  2.00000000
 
ion      s     py     pz     px    dxy    dyz    dz2    dxz    dx2    tot
  1  0.018  0.000  0.038  0.000  0.000  0.000  0.000  0.000  0.000  0.056
  2  0.018  0.000  0.038  0.000  0.000  0.000  0.000  0.000  0.000  0.056
  3  0.000  0.011  0.000  0.011  0.000  0.000  0.000  0.000  0.000  0.022
  4  0.000  0.011  0.000  0.011  0.000  0.000  0.000  0.000  0.000  0.022
  5  0.000  0.000  0.000  0.000  0.000  0.000  0.000  0.000  0.000  0.000
  6  0.000  0.000  0.000  0.000  0.000  0.000  0.000  0.000  0.000  0.000
  7  0.000  0.011  0.000  0.011  0.000  0.000  0.000  0.000  0.000  0.022
  8  0.000  0.011  0.000  0.011  0.000  0.000  0.000  0.000  0.000  0.022
  9  0.018  0.000  0.038  0.000  0.000  0.000  0.000  0.000  0.000  0.056
 10  0.018  0.000  0.038  0.000  0.000  0.000  0.000  0.000  0.000  0.056
tot  0.072  0.044  0.152  0.044  0.000  0.000  0.000  0.000  0.000  0.312
 
band  17 # energy    2.39949782 # occ.  2.00000000
 
ion      s     py     pz     px    dxy    dyz    dz2    dxz    dx2    tot
  1  0.000  0.005  0.000  0.005  0.000  0.000  0.000  0.000  0.000  0.011
  2  0.000  0.005  0.000  0.005  0.000  0.000  0.000  0.000  0.000  0.011
  3  0.000  0.026  0.000  0.026  0.000  0.000  0.000  0.000  0.000  0.052
  4  0.000  0.026  0.000  0.026  0.000  0.000  0.000  0.000  0.000  0.052
  5  0.000  0.008  0.000  0.008  0.000  0.000  0.000  0.000  0.000  0.016
  6  0.000  0.008  0.000  0.008  0.000  0.000  0.000  0.000  0.000  0.016
  7  0.000  0.030  0.000  0.030  0.000  0.000  0.000  0.000  0.000  0.059
  8  0.000  0.030  0.000  0.030  0.000  0.000  0.000  0.000  0.000  0.059
  9  0.000  0.036  0.000  0.036  0.000  0.000  0.000  0.000  0.000  0.072
 10  0.000  0.036  0.000  0.036  0.000  0.000  0.000  0.000  0.000  0.072
tot  0.000  0.210  0.000  0.210  0.000  0.000  0.000  0.000  0.000  0.420
 
band  18 # energy    2.39950276 # occ.  2.00000000
 
ion      s     py     pz     px    dxy    dyz    dz2    dxz    dx2    tot
  1  0.000  0.036  0.000  0.036  0.000  0.000  0.000  0.000  0.000  0.072
  2  0.000  0.036  0.000  0.036  0.000  0.000  0.000  0.000  0.000  0.072
  3  0.000  0.030  0.000  0.030  0.000  0.000  0.000  0.000  0.000  0.059
  4  0.000  0.030  0.000  0.030  0.000  0.000  0.000  0.000  0.000  0.059
  5  0.000  0.008  0.000  0.008  0.000  0.000  0.000  0.000  0.000  0.016
  6  0.000  0.008  0.000  0.008  0.000  0.000  0.000  0.000  0.000  0.016
  7  0.000  0.026  0.000  0.026  0.000  0.000  0.000  0.000  0.000  0.052
  8  0.000  0.026  0.000  0.026  0.000  0.000  0.000  0.000  0.000  0.052
  9  0.000  0.005  0.000  0.005  0.000  0.000  0.000  0.000  0.000  0.011
 10  0.000  0.005  0.000  0.005  0.000  0.000  0.000  0.000  0.000  0.011
tot  0.000  0.210  0.000  0.210  0.000  0.000  0.000  0.000  0.000  0.420
 
band  19 # energy    2.50326800 # occ.  2.00000000
 
ion      s     py     pz     px    dxy    dyz    dz2    dxz    dx2    tot
  1  0.000  0.051  0.000  0.051  0.000  0.000  0.000  0.000  0.000  0.103
  2  0.000  0.052  0.000  0.052  0.000  0.000  0.000  0.000  0.000  0.103
  3  0.000  0.000  0.000  0.000  0.000  0.000  0.000  0.000  0.000  0.000
  4  0.000  0.000  0.000  0.000  0.000  0.000  0.000  0.000  0.000  0.000
  5  0.000  0.000  0.000  0.000  0.000  0.000  0.000  0.000  0.000  0.000
  6  0.000  0.000  0.000  0.000  0.000  0.000  0.000  0.000  0.000  0.000
  7  0.005  0.000  0.007  0.000  0.000  0.000  0.000  0.000  0.000  0.012
  8  0.005  0.000  0.007  0.000  0.000  0.000  0.000  0.000  0.000  0.012
  9  0.000  0.003  0.000  0.003  0.000  0.000  0.000  0.000  0.000  0.006
 10  0.000  0.003  0.000  0.003  0.000  0.000  0.000  0.000  0.000  0.006
tot  0.011  0.109  0.013  0.109  0.000  0.000  0.000  0.000  0.000  0.241
 
band  20 # energy    2.50334611 # occ.  2.00000000
 
ion      s     py     pz     px    dxy    dyz    dz2    dxz    dx2    tot
  1  0.000  0.003  0.000  0.003  0.000  0.000  0.000  0.000  0.000  0.006
  2  0.000  0.003  0.000  0.003  0.000  0.000  0.000  0.000  0.000  0.006
  3  0.005  0.000  0.007  0.000  0.000  0.000  0.000  0.000  0.000  0.012
  4  0.005  0.000  0.007  0.000  0.000  0.000  0.000  0.000  0.000  0.012
  5  0.000  0.000  0.000  0.000  0.000  0.000  0.000  0.000  0.000  0.000
  6  0.000  0.000  0.000  0.000  0.000  0.000  0.000  0.000  0.000  0.000
  7  0.000  0.000  0.000  0.000  0.000  0.000  0.000  0.000  0.000  0.000
  8  0.000  0.000  0.000  0.000  0.000  0.000  0.000  0.000  0.000  0.000
  9  0.000  0.051  0.000  0.051  0.000  0.000  0.000  0.000  0.000  0.103
 10  0.000  0.052  0.000  0.052  0.000  0.000  0.000  0.000  0.000  0.103
tot  0.011  0.109  0.013  0.109  0.000  0.000  0.000  0.000  0.000  0.241
 
band  21 # energy    4.02763125 # occ.  0.00000000
 
ion      s     py     pz     px    dxy    dyz    dz2    dxz    dx2    tot
  1  0.033  0.000  0.051  0.000  0.000  0.000  0.000  0.000  0.000  0.084
  2  0.033  0.000  0.051  0.000  0.000  0.000  0.000  0.000  0.000  0.084
  3  0.000  0.014  0.000  0.014  0.000  0.000  0.000  0.000  0.000  0.029
  4  0.000  0.014  0.000  0.014  0.000  0.000  0.000  0.000  0.000  0.029
  5  0.000  0.000  0.000  0.000  0.000  0.000  0.000  0.000  0.000  0.000
  6  0.000  0.000  0.000  0.000  0.000  0.000  0.000  0.000  0.000  0.000
  7  0.000  0.014  0.000  0.014  0.000  0.000  0.000  0.000  0.000  0.029
  8  0.000  0.014  0.000  0.014  0.000  0.000  0.000  0.000  0.000  0.029
  9  0.033  0.000  0.051  0.000  0.000  0.000  0.000  0.000  0.000  0.084
 10  0.033  0.000  0.051  0.000  0.000  0.000  0.000  0.000  0.000  0.084
tot  0.133  0.057  0.205  0.057  0.000  0.000  0.000  0.000  0.000  0.452
 
band  22 # energy    4.58277732 # occ.  0.00000000
 
ion      s     py     pz     px    dxy    dyz    dz2    dxz    dx2    tot
  1  0.013  0.000  0.003  0.000  0.000  0.000  0.000  0.000  0.000  0.016
  2  0.013  0.000  0.003  0.000  0.000  0.000  0.000  0.000  0.000  0.016
  3  0.005  0.000  0.024  0.000  0.000  0.000  0.000  0.000  0.000  0.029
  4  0.005  0.000  0.024  0.000  0.000  0.000  0.000  0.000  0.000  0.029
  5  0.018  0.000  0.000  0.000  0.000  0.000  0.000  0.000  0.000  0.018
  6  0.018  0.000  0.000  0.000  0.000  0.000  0.000  0.000  0.000  0.018
  7  0.005  0.000  0.024  0.000  0.000  0.000  0.000  0.000  0.000  0.029
  8  0.005  0.000  0.024  0.000  0.000  0.000  0.000  0.000  0.000  0.029
  9  0.013  0.000  0.003  0.000  0.000  0.000  0.000  0.000  0.000  0.016
 10  0.013  0.000  0.003  0.000  0.000  0.000  0.000  0.000  0.000  0.016
tot  0.111  0.000  0.109  0.000  0.000  0.000  0.000  0.000  0.000  0.220
 
band  23 # energy    4.68895964 # occ.  0.00000000
 
ion      s     py     pz     px    dxy    dyz    dz2    dxz    dx2    tot
  1  0.002  0.000  0.011  0.000  0.000  0.000  0.000  0.000  0.000  0.013
  2  0.002  0.000  0.011  0.000  0.000  0.000  0.000  0.000  0.000  0.013
  3  0.018  0.000  0.011  0.000  0.000  0.000  0.000  0.000  0.000  0.028
  4  0.018  0.000  0.011  0.000  0.000  0.000  0.000  0.000  0.000  0.028
  5  0.000  0.000  0.022  0.000  0.000  0.000  0.000  0.000  0.000  0.022
  6  0.000  0.000  0.022  0.000  0.000  0.000  0.000  0.000  0.000  0.022
  7  0.018  0.000  0.011  0.000  0.000  0.000  0.000  0.000  0.000  0.028
  8  0.018  0.000  0.011  0.000  0.000  0.000  0.000  0.000  0.000  0.028
  9  0.002  0.000  0.011  0.000  0.000  0.000  0.000  0.000  0.000  0.013
 10  0.002  0.000  0.011  0.000  0.000  0.000  0.000  0.000  0.000  0.013
tot  0.078  0.000  0.130  0.000  0.000  0.000  0.000  0.000  0.000  0.208
 
band  24 # energy    4.88952190 # occ.  0.00000000
 
ion      s     py     pz     px    dxy    dyz    dz2    dxz    dx2    tot
  1  0.001  0.000  0.050  0.000  0.000  0.000  0.000  0.000  0.000  0.051
  2  0.001  0.000  0.050  0.000  0.000  0.000  0.000  0.000  0.000  0.051
  3  0.004  0.000  0.005  0.000  0.000  0.000  0.000  0.000  0.000  0.009
  4  0.004  0.000  0.005  0.000  0.000  0.000  0.000  0.000  0.000  0.009
  5  0.000  0.000  0.057  0.000  0.000  0.000  0.000  0.000  0.000  0.057
  6  0.000  0.000  0.057  0.000  0.000  0.000  0.000  0.000  0.000  0.057
  7  0.004  0.000  0.005  0.000  0.000  0.000  0.000  0.000  0.000  0.009
  8  0.004  0.000  0.005  0.000  0.000  0.000  0.000  0.000  0.000  0.009
  9  0.001  0.000  0.050  0.000  0.000  0.000  0.000  0.000  0.000  0.051
 10  0.001  0.000  0.050  0.000  0.000  0.000  0.000  0.000  0.000  0.051
tot  0.019  0.000  0.335  0.000  0.000  0.000  0.000  0.000  0.000  0.354
 
band  25 # energy    5.22280078 # occ.  0.00000000
 
ion      s     py     pz     px    dxy    dyz    dz2    dxz    dx2    tot
  1  0.000  0.029  0.000  0.050  0.000  0.000  0.000  0.000  0.000  0.080
  2  0.000  0.029  0.000  0.050  0.000  0.000  0.000  0.000  0.000  0.080
  3  0.000  0.000  0.000  0.001  0.000  0.000  0.000  0.000  0.000  0.001
  4  0.000  0.000  0.000  0.001  0.000  0.000  0.000  0.000  0.000  0.001
  5  0.000  0.012  0.000  0.032  0.000  0.000  0.000  0.000  0.000  0.044
  6  0.000  0.012  0.000  0.032  0.000  0.000  0.000  0.000  0.000  0.044
  7  0.000  0.000  0.000  0.001  0.000  0.000  0.000  0.000  0.000  0.001
  8  0.000  0.000  0.000  0.001  0.000  0.000  0.000  0.000  0.000  0.001
  9  0.000  0.016  0.000  0.038  0.000  0.000  0.000  0.000  0.000  0.054
 10  0.000  0.016  0.000  0.038  0.000  0.000  0.000  0.000  0.000  0.054
tot  0.000  0.117  0.000  0.244  0.000  0.000  0.000  0.000  0.000  0.360
 
band  26 # energy    5.30653829 # occ.  0.00000000
 
ion      s     py     pz     px    dxy    dyz    dz2    dxz    dx2    tot
  1  0.000  0.010  0.000  0.004  0.000  0.000  0.000  0.000  0.000  0.014
  2  0.000  0.010  0.000  0.004  0.000  0.000  0.000  0.000  0.000  0.014
  3  0.000  0.009  0.000  0.009  0.000  0.000  0.000  0.000  0.000  0.018
  4  0.000  0.006  0.000  0.006  0.000  0.000  0.000  0.000  0.000  0.012
  5  0.030  0.008  0.000  0.003  0.000  0.000  0.000  0.000  0.000  0.042
  6  0.030  0.008  0.000  0.003  0.000  0.000  0.000  0.000  0.000  0.042
  7  0.000  0.007  0.000  0.008  0.000  0.000  0.000  0.000  0.000  0.015
  8  0.000  0.008  0.000  0.007  0.000  0.000  0.000  0.000  0.000  0.015
  9  0.000  0.013  0.000  0.008  0.000  0.000  0.000  0.000  0.000  0.021
 10  0.000  0.013  0.000  0.008  0.000  0.000  0.000  0.000  0.000  0.021
tot  0.060  0.093  0.000  0.060  0.000  0.000  0.000  0.000  0.000  0.213
 

 k-point    2 :    0.20000000 0.00000000 0.00000000     weight = 0.16000000

band   1 # energy   -7.86821107 # occ.  2.00000000
 
ion      s     py     pz     px    dxy    dyz    dz2    dxz    dx2    tot
  1  0.016  0.000  0.001  0.000  0.000  0.000  0.000  0.000  0.000  0.017
  2  0.016  0.000  0.001  0.000  0.000  0.000  0.000  0.000  0.000  0.017
  3  0.054  0.000  0.001  0.000  0.000  0.000  0.000  0.000  0.000  0.055
  4  0.053  0.000  0.001  0.000  0.000  0.000  0.000  0.000  0.000  0.055
  5  0.075  0.000  0.000  0.001  0.000  0.000  0.000  0.000  0.000  0.076
  6  0.075  0.000  0.000  0.001  0.000  0.000  0.000  0.000  0.000  0.076
  7  0.053  0.000  0.001  0.000  0.000  0.000  0.000  0.000  0.000  0.055
  8  0.053  0.000  0.001  0.000  0.000  0.000  0.000  0.000  0.000  0.055
  9  0.016  0.000  0.001  0.000  0.000  0.000  0.000  0.000  0.000  0.017
 10  0.016  0.000  0.001  0.000  0.000  0.000  0.000  0.000  0.000  0.017
tot  0.427  0.000  0.008  0.003  0.000  0.000  0.000  0.000  0.000  0.438
 
band   2 # energy   -6.22252003 # occ.  2.00000000
 
ion      s     py     pz     px    dxy    dyz    dz2    dxz    dx2    tot
  1  0.045  0.000  0.003  0.000  0.000  0.000  0.000  0.000  0.000  0.048
  2  0.045  0.000  0.003  0.000  0.000  0.000  0.000  0.000  0.000  0.048
  3  0.060  0.000  0.002  0.000  0.000  0.000  0.000  0.000  0.000  0.062
  4  0.060  0.000  0.002  0.000  0.000  0.000  0.000  0.000  0.000  0.062
  5  0.000  0.000  0.008  0.000  0.000  0.000  0.000  0.000  0.000  0.009
  6  0.000  0.000  0.008  0.000  0.000  0.000  0.000  0.000  0.000  0.009
  7  0.060  0.000  0.002  0.000  0.000  0.000  0.000  0.000  0.000  0.062
  8  0.060  0.000  0.002  0.000  0.000  0.000  0.000  0.000  0.000  0.062
  9  0.045  0.000  0.003  0.000  0.000  0.000  0.000  0.000  0.000  0.048
 10  0.045  0.000  0.003  0.000  0.000  0.000  0.000  0.000  0.000  0.048
tot  0.420  0.001  0.034  0.002  0.000  0.000  0.000  0.000  0.000  0.458
 
band   3 # energy   -5.50480251 # occ.  2.00000000
 
ion      s     py     pz     px    dxy    dyz    dz2    dxz    dx2    tot
  1  0.010  0.001  0.001  0.002  0.000  0.000  0.000  0.000  0.000  0.014
  2  0.010  0.001  0.001  0.002  0.000  0.000  0.000  0.000  0.000  0.014
  3  0.053  0.001  0.000  0.006  0.000  0.000  0.000  0.000  0.000  0.060
  4  0.053  0.001  0.000  0.006  0.000  0.000  0.000  0.000  0.000  0.060
  5  0.081  0.000  0.000  0.009  0.000  0.000  0.000  0.000  0.000  0.090
  6  0.081  0.000  0.000  0.009  0.000  0.000  0.000  0.000  0.000  0.090
  7  0.052  0.001  0.000  0.006  0.000  0.000  0.000  0.000  0.000  0.060
  8  0.052  0.001  0.000  0.006  0.000  0.000  0.000  0.000  0.000  0.060
  9  0.010  0.001  0.001  0.002  0.000  0.000  0.000  0.000  0.000  0.014
 10  0.010  0.001  0.001  0.002  0.000  0.000  0.000  0.000  0.000  0.014
tot  0.414  0.007  0.003  0.050  0.000  0.000  0.000  0.000  0.000  0.474
 
band   4 # energy   -4.61550816 # occ.  2.00000000
 
ion      s     py     pz     px    dxy    dyz    dz2    dxz    dx2    tot
  1  0.023  0.003  0.001  0.004  0.000  0.000  0.000  0.000  0.000  0.031
  2  0.023  0.003  0.001  0.004  0.000  0.000  0.000  0.000  0.000  0.031
  3  0.083  0.001  0.000  0.001  0.000  0.000  0.000  0.000  0.000  0.085
  4  0.083  0.001  0.000  0.001  0.000  0.000  0.000  0.000  0.000  0.085
  5  0.000  0.013  0.002  0.000  0.000  0.000  0.000  0.000  0.000  0.015
  6  0.000  0.013  0.002  0.000  0.000  0.000  0.000  0.000  0.000  0.015
  7  0.083  0.001  0.000  0.001  0.000  0.000  0.000  0.000  0.000  0.085
  8  0.083  0.001  0.000  0.001  0.000  0.000  0.000  0.000  0.000  0.085
  9  0.023  0.003  0.001  0.004  0.000  0.000  0.000  0.000  0.000  0.031
 10  0.023  0.003  0.001  0.004  0.000  0.000  0.000  0.000  0.000  0.031
tot  0.422  0.043  0.009  0.020  0.000  0.000  0.000  0.000  0.000  0.494
 
band   5 # energy   -4.19771781 # occ.  2.00000000
 
ion      s     py     pz     px    dxy    dyz    dz2    dxz    dx2    tot
  1  0.066  0.000  0.000  0.000  0.000  0.000  0.000  0.000  0.000  0.066
  2  0.066  0.000  0.000  0.000  0.000  0.000  0.000  0.000  0.000  0.066
  3  0.000  0.001  0.015  0.000  0.000  0.000  0.000  0.000  0.000  0.016
  4  0.000  0.001  0.015  0.000  0.000  0.000  0.000  0.000  0.000  0.016
  5  0.064  0.000  0.000  0.000  0.000  0.000  0.000  0.000  0.000  0.064
  6  0.064  0.000  0.000  0.000  0.000  0.000  0.000  0.000  0.000  0.064
  7  0.000  0.001  0.015  0.000  0.000  0.000  0.000  0.000  0.000  0.016
  8  0.000  0.001  0.015  0.000  0.000  0.000  0.000  0.000  0.000  0.016
  9  0.066  0.000  0.000  0.000  0.000  0.000  0.000  0.000  0.000  0.066
 10  0.066  0.000  0.000  0.000  0.000  0.000  0.000  0.000  0.000  0.066
tot  0.393  0.004  0.059  0.000  0.000  0.000  0.000  0.000  0.000  0.456
 
band   6 # energy   -3.96377853 # occ.  2.00000000
 
ion      s     py     pz     px    dxy    dyz    dz2    dxz    dx2    tot
  1  0.050  0.000  0.001  0.000  0.000  0.000  0.000  0.000  0.000  0.052
  2  0.050  0.000  0.001  0.000  0.000  0.000  0.000  0.000  0.000  0.052
  3  0.006  0.017  0.001  0.000  0.000  0.000  0.000  0.000  0.000  0.025
  4  0.006  0.017  0.001  0.000  0.000  0.000  0.000  0.000  0.000  0.025
  5  0.088  0.000  0.000  0.002  0.000  0.000  0.000  0.000  0.000  0.090