Starting job 28277451 ("jobname") on c16-3 at Fri Oct 4 09:41:00 CEST 2019
 running on    4 total cores
 distrk:  each k-point on    4 cores,    1 groups
 distr:  one band on    2 cores,    2 groups
 using from now: INCAR     
 vasp.5.4.1 05Feb16 (build Mar 02 2016 14:09:44) complex                        
  
 POSCAR found type information on POSCAR  Si
 POSCAR found :  1 types and      10 ions
 LDA part: xc-table for Pade appr. of Perdew
 POSCAR, INCAR and KPOINTS ok, starting setup
 WARNING: small aliasing (wrap around) errors must be expected
 FFT: planning ...
 WAVECAR not read
 entering main loop
       N       E                     dE             d eps       ncg     rms          rms(c)
DAV:   1     0.642943269472E+02    0.64294E+02   -0.96696E+03   312   0.679E+02
DAV:   2    -0.419465684429E+02   -0.10624E+03   -0.10383E+03   386   0.131E+02
DAV:   3    -0.486020807200E+02   -0.66555E+01   -0.65411E+01   414   0.322E+01
DAV:   4    -0.487504046412E+02   -0.14832E+00   -0.14784E+00   416   0.583E+00
DAV:   5    -0.487544346191E+02   -0.40300E-02   -0.40277E-02   424   0.861E-01    0.607E+00
RMM:   6    -0.478459254398E+02    0.90851E+00   -0.18683E+00   326   0.330E+00    0.341E+00
RMM:   7    -0.476633106680E+02    0.18261E+00   -0.10949E+00   342   0.293E+00    0.998E-01
RMM:   8    -0.476492258027E+02    0.14085E-01   -0.12205E-01   336   0.128E+00    0.195E-01
RMM:   9    -0.476507885336E+02   -0.15627E-02   -0.16836E-02   372   0.428E-01    0.107E-01
RMM:  10    -0.476502790767E+02    0.50946E-03   -0.20804E-03   355   0.154E-01    0.403E-02
RMM:  11    -0.476505218431E+02   -0.24277E-03   -0.18070E-03   359   0.115E-01    0.222E-02
RMM:  12    -0.476504562694E+02    0.65574E-04   -0.11331E-04   357   0.388E-02    0.862E-03
RMM:  13    -0.476504632079E+02   -0.69385E-05   -0.13206E-04   355   0.292E-02    0.422E-03
RMM:  14    -0.476504612335E+02    0.19744E-05   -0.46189E-06   299   0.837E-03    0.172E-03
RMM:  15    -0.476504618384E+02   -0.60490E-06   -0.27513E-06   246   0.584E-03
   1 F= -.47650462E+02 E0= -.47639092E+02  d E =-.227388E-01

Currently Loaded Modulefiles:
  1) Anaconda3/5.1.0       3) vesta/3.3.8           5) intel/2016.1
  2) gnuplot/5.0.4         4) imagemagick/6.7.9-0   6) vasp/5.4.1.Feb16

Job script resource usage:
       JobID  MaxVMSize     MaxRSS 
------------ ---------- ---------- 
28277451.ba+    216884K      2375K 

Job step resource usage:
       JobID    JobName  AllocCPUS  MaxVMSize     MaxRSS    Elapsed ExitCode 
------------ ---------- ---------- ---------- ---------- ---------- -------- 
28277451        jobname          4                         00:00:08      0:0 
28277451.0    pmi_proxy          1    279832K       518K   00:00:07      0:0 

Job 28277451 ("jobname") completed on c16-3 at Fri Oct 4 09:41:07 CEST 2019
