<?xml version="1.0" encoding="ISO-8859-1"?>
<modeling>
 <generator>
  <i name="program" type="string">vasp </i>
  <i name="version" type="string">5.4.1  </i>
  <i name="subversion" type="string">05Feb16 (build Mar 02 2016 14:09:44) complex                          parallel </i>
  <i name="platform" type="string">Abel-impi-ifc-cuda </i>
  <i name="date" type="string">2019 10 04 </i>
  <i name="time" type="string">09:41:01 </i>
 </generator>
 <incar>
  <i type="string" name="PREC">normal    ! low/normal/accurate</i>
  <i type="string" name="ALGO"> Fast      ! Algorithm for electronic re</i>
  <i type="int" name="ISPIN">     1</i>
  <i type="int" name="NELMIN">     4</i>
  <i name="EDIFF">      0.00000100</i>
  <i type="int" name="NSW">     0</i>
  <i name="ENCUT">    250.00000000</i>
  <i type="int" name="NEDOS">  2401</i>
  <i type="string" name="LREAL"> Auto      ! Projection in reciprocal sp</i>
  <i name="EMIN">    -17.00000000</i>
  <i name="EMAX">      7.00000000</i>
  <i type="int" name="ISMEAR">     0</i>
  <i name="SIGMA">      0.10000000</i>
  <i type="logical" name="LWAVE"> F  </i>
  <i type="logical" name="LORBIT"> F  </i>
  <i type="logical" name="LELF"> T  </i>
  <v type="int" name="KPOINT_BSE">    -1     0     0     0</v>
 </incar>
 <kpoints>
  <generation param="Gamma">
   <v type="int" name="divisions">       5        5        1 </v>
   <v name="usershift">      0.00000000       0.00000000       0.00000000 </v>
   <v name="genvec1">      0.20000000       0.00000000       0.00000000 </v>
   <v name="genvec2">      0.00000000       0.20000000       0.00000000 </v>
   <v name="genvec3">      0.00000000       0.00000000       1.00000000 </v>
   <v name="shift">      0.00000000       0.00000000       0.00000000 </v>
  </generation>
  <varray name="kpointlist" >
   <v>       0.00000000       0.00000000       0.00000000 </v>
   <v>       0.20000000       0.00000000       0.00000000 </v>
   <v>       0.40000000       0.00000000       0.00000000 </v>
   <v>       0.20000000       0.20000000       0.00000000 </v>
   <v>       0.40000000       0.20000000       0.00000000 </v>
   <v>       0.40000000       0.40000000       0.00000000 </v>
  </varray>
  <varray name="weights" >
   <v>       0.04000000 </v>
   <v>       0.16000000 </v>
   <v>       0.16000000 </v>
   <v>       0.16000000 </v>
   <v>       0.32000000 </v>
   <v>       0.16000000 </v>
  </varray>
 </kpoints>
 <parameters>
  <separator name="general" >
   <i type="string" name="SYSTEM">unknown system</i>
   <i type="logical" name="LCOMPAT"> F  </i>
  </separator>
  <separator name="electronic" >
   <i type="string" name="PREC">normal</i>
   <i name="ENMAX">    250.00000000</i>
   <i name="ENAUG">    322.06900000</i>
   <i name="EDIFF">      0.00000100</i>
   <i type="int" name="IALGO">    68</i>
   <i type="int" name="IWAVPR">    10</i>
   <i type="int" name="NBANDS">    26</i>
   <i name="NELECT">     40.00000000</i>
   <i type="int" name="TURBO">     0</i>
   <i type="int" name="IRESTART">     0</i>
   <i type="int" name="NREBOOT">     0</i>
   <i type="int" name="NMIN">     0</i>
   <i name="EREF">      0.00000000</i>
   <separator name="electronic smearing" >
    <i type="int" name="ISMEAR">     0</i>
    <i name="SIGMA">      0.10000000</i>
    <i name="KSPACING">      0.50000000</i>
    <i type="logical" name="KGAMMA"> T  </i>
   </separator>
   <separator name="electronic projectors" >
    <i type="logical" name="LREAL"> T  </i>
    <v name="ROPT">     -0.00050000</v>
    <i type="int" name="LMAXPAW">  -100</i>
    <i type="int" name="LMAXMIX">     2</i>
    <i type="logical" name="NLSPLINE"> F  </i>
   </separator>
   <separator name="electronic startup" >
    <i type="int" name="ISTART">     0</i>
    <i type="int" name="ICHARG">     2</i>
    <i type="int" name="INIWAV">     1</i>
   </separator>
   <separator name="electronic spin" >
    <i type="int" name="ISPIN">     1</i>
    <i type="logical" name="LNONCOLLINEAR"> F  </i>
    <v name="MAGMOM">      1.00000000      1.00000000      1.00000000      1.00000000      1.00000000      1.00000000      1.00000000      1.00000000      1.00000000      1.00000000</v>
    <i name="NUPDOWN">     -1.00000000</i>
    <i type="logical" name="LSORBIT"> F  </i>
    <v name="SAXIS">      0.00000000      0.00000000      1.00000000</v>
    <i type="logical" name="LSPIRAL"> F  </i>
    <v name="QSPIRAL">      0.00000000      0.00000000      0.00000000</v>
    <i type="logical" name="LZEROZ"> F  </i>
   </separator>
   <separator name="electronic exchange-correlation" >
    <i type="logical" name="LASPH"> F  </i>
    <i type="logical" name="LMETAGGA"> F  </i>
   </separator>
   <separator name="electronic convergence" >
    <i type="int" name="NELM">    60</i>
    <i type="int" name="NELMDL">    -5</i>
    <i type="int" name="NELMIN">     4</i>
    <i name="ENINI">    250.00000000</i>
    <separator name="electronic convergence detail" >
     <i type="logical" name="LDIAG"> T  </i>
     <i type="logical" name="LSUBROT"> F  </i>
     <i name="WEIMIN">      0.00000000</i>
     <i name="EBREAK">      0.00000001</i>
     <i name="DEPER">      0.30000000</i>
     <i type="int" name="NRMM">     4</i>
     <i name="TIME">      0.40000000</i>
    </separator>
   </separator>
   <separator name="electronic mixer" >
    <i name="AMIX">      0.40000000</i>
    <i name="BMIX">      1.00000000</i>
    <i name="AMIN">      0.10000000</i>
    <i name="AMIX_MAG">      1.60000000</i>
    <i name="BMIX_MAG">      1.00000000</i>
    <separator name="electronic mixer details" >
     <i type="int" name="IMIX">     4</i>
     <i type="logical" name="MIXFIRST"> F  </i>
     <i type="int" name="MAXMIX">   -45</i>
     <i name="WC">    100.00000000</i>
     <i type="int" name="INIMIX">     1</i>
     <i type="int" name="MIXPRE">     1</i>
     <i type="int" name="MREMOVE">     5</i>
    </separator>
   </separator>
   <separator name="electronic dipolcorrection" >
    <i type="logical" name="LDIPOL"> F  </i>
    <i type="logical" name="LMONO"> F  </i>
    <i type="int" name="IDIPOL">     0</i>
    <i name="EPSILON">      1.00000000</i>
    <v name="DIPOL">   -100.00000000   -100.00000000   -100.00000000</v>
    <i name="EFIELD">      0.00000000</i>
   </separator>
  </separator>
  <separator name="grids" >
   <i type="int" name="NGX">    24</i>
   <i type="int" name="NGY">    24</i>
   <i type="int" name="NGZ">    36</i>
   <i type="int" name="NGXF">    48</i>
   <i type="int" name="NGYF">    48</i>
   <i type="int" name="NGZF">    72</i>
   <i type="logical" name="ADDGRID"> F  </i>
  </separator>
  <separator name="ionic" >
   <i type="int" name="NSW">     0</i>
   <i type="int" name="IBRION">    -1</i>
   <i type="int" name="ISIF">     2</i>
   <i name="PSTRESS">      0.00000000</i>
   <i name="EDIFFG">      0.00001000</i>
   <i type="int" name="NFREE">     0</i>
   <i name="POTIM">      0.50000000</i>
   <i name="SMASS">     -3.00000000</i>
   <i name="SCALEE">      1.00000000</i>
  </separator>
  <separator name="ionic md" >
   <i name="TEBEG">      0.00010000</i>
   <i name="TEEND">      0.00010000</i>
   <i type="int" name="NBLOCK">     1</i>
   <i type="int" name="KBLOCK">     1</i>
   <i type="int" name="NPACO">   256</i>
   <i name="APACO">     16.00000000</i>
  </separator>
  <separator name="symmetry" >
   <i type="int" name="ISYM">     2</i>
   <i name="SYMPREC">      0.00001000</i>
  </separator>
  <separator name="dos" >
   <i type="logical" name="LORBIT"> F  </i>
   <v name="RWIGS">     -1.00000000</v>
   <i type="int" name="NEDOS">  2401</i>
   <i name="EMIN">    -17.00000000</i>
   <i name="EMAX">      7.00000000</i>
   <i name="EFERMI">      0.00000000</i>
  </separator>
  <separator name="writing" >
   <i type="int" name="NWRITE">     2</i>
   <i type="logical" name="LWAVE"> F  </i>
   <i type="logical" name="LCHARG"> T  </i>
   <i type="logical" name="LPARD"> F  </i>
   <i type="logical" name="LVTOT"> F  </i>
   <i type="logical" name="LVHAR"> F  </i>
   <i type="logical" name="LELF"> T  </i>
   <i type="logical" name="LOPTICS"> F  </i>
   <v name="STM">      0.00000000      0.00000000      0.00000000      0.00000000      0.00000000      0.00000000      0.00000000</v>
  </separator>
  <separator name="performance" >
   <i type="int" name="NPAR">     2</i>
   <i type="int" name="NSIM">     4</i>
   <i type="int" name="NBLK">    -1</i>
   <i type="logical" name="LPLANE"> T  </i>
   <i type="logical" name="LSCALAPACK"> F  </i>
   <i type="logical" name="LSCAAWARE"> F  </i>
   <i type="logical" name="LSCALU"> F  </i>
   <i type="logical" name="LASYNC"> F  </i>
   <i type="logical" name="LORBITALREAL"> F  </i>
  </separator>
  <separator name="miscellaneous" >
   <i type="int" name="IDIOT">     3</i>
   <i type="logical" name="LMUSIC"> F  </i>
   <v name="POMASS">     28.08500000</v>
   <v name="DARWINR">      0.00000000</v>
   <v name="DARWINV">      1.00000000</v>
   <i type="logical" name="LCORR"> T  </i>
  </separator>
  <i type="logical" name="GGA_COMPAT"> T  </i>
  <i type="logical" name="LBERRY"> F  </i>
  <i type="int" name="ICORELEVEL">     0</i>
  <i type="logical" name="LDAU"> F  </i>
  <i type="int" name="I_CONSTRAINED_M">     0</i>
  <separator name="electronic exchange-correlation" >
   <i type="string" name="GGA">--</i>
   <i type="int" name="VOSKOWN">     0</i>
   <i type="logical" name="LHFCALC"> F  </i>
   <i type="string" name="PRECFOCK"></i>
   <i type="logical" name="LSYMGRAD"> F  </i>
   <i type="logical" name="LHFONE"> F  </i>
   <i type="logical" name="LRHFCALC"> F  </i>
   <i type="logical" name="LTHOMAS"> F  </i>
   <i type="logical" name="LMODELHF"> F  </i>
   <i name="ENCUT4O">     -1.00000000</i>
   <i type="int" name="EXXOEP">     0</i>
   <i type="int" name="FOURORBIT">     0</i>
   <i name="AEXX">      0.00000000</i>
   <i name="HFALPHA">      0.00000000</i>
   <i name="MCALPHA">      0.00000000</i>
   <i name="ALDAX">      1.00000000</i>
   <i name="AGGAX">      1.00000000</i>
   <i name="ALDAC">      1.00000000</i>
   <i name="AGGAC">      1.00000000</i>
   <i type="int" name="NKREDX">     1</i>
   <i type="int" name="NKREDY">     1</i>
   <i type="int" name="NKREDZ">     1</i>
   <i type="logical" name="SHIFTRED"> F  </i>
   <i type="logical" name="ODDONLY"> F  </i>
   <i type="logical" name="EVENONLY"> F  </i>
   <i type="int" name="LMAXFOCK">     0</i>
   <i type="int" name="NMAXFOCKAE">     0</i>
   <i type="logical" name="LFOCKAEDFT"> F  </i>
   <i name="HFSCREEN">      0.00000000</i>
   <i name="HFSCREENC">      0.00000000</i>
   <i type="int" name="NBANDSGWLOW">     0</i>
  </separator>
  <separator name="vdW DFT" >
   <i type="logical" name="LUSE_VDW"> F  </i>
   <i name="Zab_VDW">     -0.84910000</i>
   <i name="PARAM1">      0.12340000</i>
   <i name="PARAM2">      1.00000000</i>
   <i name="PARAM3">      0.00000000</i>
  </separator>
  <separator name="model GW" >
   <i type="int" name="MODEL_GW">     0</i>
   <i name="MODEL_EPS0">     15.55790909</i>
   <i name="MODEL_ALPHA">      1.00000000</i>
  </separator>
  <separator name="linear response parameters" >
   <i type="logical" name="LEPSILON"> F  </i>
   <i type="logical" name="LRPA"> F  </i>
   <i type="logical" name="LNABLA"> F  </i>
   <i type="logical" name="LVEL"> F  </i>
   <i type="int" name="KINTER">     0</i>
   <i name="CSHIFT">      0.10000000</i>
   <i name="OMEGAMAX">     -1.00000000</i>
   <i name="DEG_THRESHOLD">      0.00200000</i>
  </separator>
  <separator name="orbital magnetization" >
   <i type="logical" name="NUCIND"> F  </i>
   <v name="MAGPOS">      0.00000000      0.00000000      0.00000000</v>
   <i type="logical" name="LNICSALL"> T  </i>
   <i type="logical" name="ORBITALMAG"> F  </i>
   <i type="logical" name="LMAGBLOCH"> F  </i>
   <i type="logical" name="LCHIMAG"> F  </i>
   <i type="logical" name="LGAUGE"> T  </i>
   <i type="int" name="MAGATOM">     0</i>
   <v name="MAGDIPOL">      0.00000000      0.00000000      0.00000000</v>
   <v name="AVECCONST">      0.00000000      0.00000000      0.00000000</v>
  </separator>
  <separator name="response functions" >
   <i type="logical" name="LADDER"> F  </i>
   <i type="logical" name="LFXC"> F  </i>
   <i type="logical" name="LHARTREE"> T  </i>
   <i type="int" name="IBSE">     0</i>
   <v type="int" name="KPOINT">    -1     0     0     0</v>
   <i type="logical" name="LTCTE"> F  </i>
   <i type="logical" name="LTETE"> F  </i>
   <i type="logical" name="LTRIPLET"> F  </i>
   <i type="logical" name="LFXCEPS"> F  </i>
   <i type="logical" name="LFXHEG"> F  </i>
   <i type="int" name="NATURALO">     0</i>
   <i type="logical" name="L2ORDER"> F  </i>
   <i type="logical" name="LUSEW"> F  </i>
   <i name="ENCUTGW">     -2.00000000</i>
   <i name="ENCUTGWSOFT">     -2.00000000</i>
   <i name="ENCUTLF">     -1.00000000</i>
   <i type="int" name="LMAXMP2">    -1</i>
   <i name="SCISSOR">      0.00000000</i>
   <i type="int" name="NOMEGA">     0</i>
   <i type="int" name="NOMEGAR">     0</i>
   <i type="int" name="NBANDSGW">    -1</i>
   <i type="int" name="NBANDSO">    -1</i>
   <i type="int" name="NBANDSV">    -1</i>
   <i type="int" name="NELM">     1</i>
   <i type="int" name="NELMHF">     1</i>
   <i type="int" name="DIM">     3</i>
   <i type="int" name="ANTIRES">     0</i>
   <i name="OMEGAMAX">    -30.00000000</i>
   <i name="OMEGAMIN">    -30.00000000</i>
   <i name="OMEGATL">   -200.00000000</i>
   <i type="int" name="OMEGAGRID">     0</i>
   <i name="CSHIFT">     -0.10000000</i>
   <i type="logical" name="SELFENERGY"> F  </i>
   <i type="logical" name="LSPECTRAL"> F  </i>
   <i type="logical" name="LSPECTRALGW"> F  </i>
   <i type="logical" name="LSINGLES"> F  </i>
   <i type="logical" name="LFERMIGW"> F  </i>
   <i type="logical" name="ODDONLYGW"> F  </i>
   <i type="logical" name="EVENONLYGW"> F  </i>
   <i type="int" name="NKREDLFX">     1</i>
   <i type="int" name="NKREDLFY">     1</i>
   <i type="int" name="NKREDLFZ">     1</i>
   <i type="int" name="MAXMEM">  1800</i>
   <i type="int" name="TELESCOPE">     0</i>
   <i type="int" name="TAUPAR">     1</i>
   <i type="int" name="OMEGAPAR">    -1</i>
   <i name="LAMBDA">      1.00000000</i>
  </separator>
  <separator name="External order field" >
   <i name="OFIELD_KAPPA">      0.00000000</i>
   <v name="OFIELD_K">      0.00000000      0.00000000      0.00000000</v>
   <i name="OFIELD_Q6_NEAR">      0.00000000</i>
   <i name="OFIELD_Q6_FAR">      0.00000000</i>
   <i name="OFIELD_A">      0.00000000</i>
  </separator>
 </parameters>
 <atominfo>
  <atoms>      10 </atoms>
  <types>       1 </types>
  <array name="atoms" >
   <dimension dim="1">ion</dimension>
   <field type="string">element</field>
   <field type="int">atomtype</field>
   <set>
    <rc><c>Si</c><c>   1</c></rc>
    <rc><c>Si</c><c>   1</c></rc>
    <rc><c>Si</c><c>   1</c></rc>
    <rc><c>Si</c><c>   1</c></rc>
    <rc><c>Si</c><c>   1</c></rc>
    <rc><c>Si</c><c>   1</c></rc>
    <rc><c>Si</c><c>   1</c></rc>
    <rc><c>Si</c><c>   1</c></rc>
    <rc><c>Si</c><c>   1</c></rc>
    <rc><c>Si</c><c>   1</c></rc>
   </set>
  </array>
  <array name="atomtypes" >
   <dimension dim="1">type</dimension>
   <field type="int">atomspertype</field>
   <field type="string">element</field>
   <field>mass</field>
   <field>valence</field>
   <field type="string">pseudopotential</field>
   <set>
    <rc><c>  10</c><c>Si</c><c>     28.08500000</c><c>      4.00000000</c><c> PAW_PBE Si 05Jan2001                   </c></rc>
   </set>
  </array>
 </atominfo>
 <structure name="initialpos" >
  <crystal>
   <varray name="basis" >
    <v>       5.43101000       0.00000000       0.00000000 </v>
    <v>       0.00000000       5.43101000       0.00000000 </v>
    <v>       0.00000000       0.00000000       8.79101000 </v>
   </varray>
   <i name="volume">    259.29848479 </i>
   <varray name="rec_basis" >
    <v>       0.18412781       0.00000000       0.00000000 </v>
    <v>       0.00000000       0.18412781       0.00000000 </v>
    <v>       0.00000000       0.00000000       0.11375257 </v>
   </varray>
  </crystal>
  <varray name="positions" >
   <v>       0.00000000       0.00000000       0.00000000 </v>
   <v>       0.49999908       0.49999908       0.00000000 </v>
   <v>       0.24999954       0.24999954       0.15444755 </v>
   <v>       0.75000046       0.75000046       0.15444755 </v>
   <v>       0.00000000       0.49999908       0.30889511 </v>
   <v>       0.49999908       0.00000000       0.30889511 </v>
   <v>       0.24999954       0.75000046       0.46334380 </v>
   <v>       0.75000046       0.24999954       0.46334380 </v>
   <v>       0.00000000       0.00000000       0.61779136 </v>
   <v>       0.49999908       0.49999908       0.61779136 </v>
  </varray>
 </structure>
 <calculation>
  <scstep>
   <time name="dav">    0.15    0.15</time>
   <time name="total">    0.18    0.19</time>
   <energy>
    <i name="alphaZ">     12.98236603 </i>
    <i name="ewald">   -907.16826902 </i>
    <i name="hartreedc">   -196.40229194 </i>
    <i name="XCdc">    -96.09492001 </i>
    <i name="pawpsdc">    329.77604058 </i>
    <i name="pawaedc">   -153.84263392 </i>
    <i name="eentropy">     -0.01318648 </i>
    <i name="bandstr">     44.43972557 </i>
    <i name="atom">   1030.61749613 </i>
    <i name="e_fr_energy">     64.29432695 </i>
    <i name="e_wo_entrp">     64.30751342 </i>
    <i name="e_0_energy">     64.30092019 </i>
   </energy>
  </scstep>
  <scstep>
   <time name="dav">    0.17    0.18</time>
   <time name="total">    0.18    0.18</time>
   <energy>
    <i name="e_fr_energy">    -41.94656844 </i>
    <i name="e_wo_entrp">    -41.90749024 </i>
    <i name="e_0_energy">    -41.92702934 </i>
   </energy>
  </scstep>
  <scstep>
   <time name="dav">    0.19    0.19</time>
   <time name="total">    0.19    0.20</time>
   <energy>
    <i name="e_fr_energy">    -48.60208072 </i>
    <i name="e_wo_entrp">    -48.57454072 </i>
    <i name="e_0_energy">    -48.58831072 </i>
   </energy>
  </scstep>
  <scstep>
   <time name="dav">    0.19    0.19</time>
   <time name="total">    0.19    0.19</time>
   <energy>
    <i name="e_fr_energy">    -48.75040464 </i>
    <i name="e_wo_entrp">    -48.72322240 </i>
    <i name="e_0_energy">    -48.73681352 </i>
   </energy>
  </scstep>
  <scstep>
   <time name="dav">    0.19    0.19</time>
   <time name="total">    0.21    0.21</time>
   <energy>
    <i name="e_fr_energy">    -48.75443462 </i>
    <i name="e_wo_entrp">    -48.72725091 </i>
    <i name="e_0_energy">    -48.74084277 </i>
   </energy>
  </scstep>
  <scstep>
   <time name="diag">    0.03    0.03</time>
   <time name="diis">    0.10    0.10</time>
   <time name="orth">    0.00    0.00</time>
   <time name="total">    0.17    0.17</time>
   <energy>
    <i name="e_fr_energy">    -47.84592544 </i>
    <i name="e_wo_entrp">    -47.82130300 </i>
    <i name="e_0_energy">    -47.83361422 </i>
   </energy>
  </scstep>
  <scstep>
   <time name="diag">    0.03    0.03</time>
   <time name="diis">    0.10    0.10</time>
   <time name="orth">    0.00    0.00</time>
   <time name="total">    0.17    0.18</time>
   <energy>
    <i name="e_fr_energy">    -47.66331067 </i>
    <i name="e_wo_entrp">    -47.64092266 </i>
    <i name="e_0_energy">    -47.65211666 </i>
   </energy>
  </scstep>
  <scstep>
   <time name="diag">    0.03    0.03</time>
   <time name="diis">    0.10    0.10</time>
   <time name="orth">    0.00    0.00</time>
   <time name="total">    0.17    0.18</time>
   <energy>
    <i name="e_fr_energy">    -47.64922580 </i>
    <i name="e_wo_entrp">    -47.62636848 </i>
    <i name="e_0_energy">    -47.63779714 </i>
   </energy>
  </scstep>
  <scstep>
   <time name="diag">    0.03    0.03</time>
   <time name="diis">    0.11    0.11</time>
   <time name="orth">    0.00    0.00</time>
   <time name="total">    0.18    0.18</time>
   <energy>
    <i name="e_fr_energy">    -47.65078853 </i>
    <i name="e_wo_entrp">    -47.62827108 </i>
    <i name="e_0_energy">    -47.63952981 </i>
   </energy>
  </scstep>
  <scstep>
   <time name="diag">    0.03    0.03</time>
   <time name="diis">    0.10    0.10</time>
   <time name="orth">    0.00    0.00</time>
   <time name="total">    0.17    0.18</time>
   <energy>
    <i name="e_fr_energy">    -47.65027908 </i>
    <i name="e_wo_entrp">    -47.62760625 </i>
    <i name="e_0_energy">    -47.63894266 </i>
   </energy>
  </scstep>
  <scstep>
   <time name="diag">    0.03    0.03</time>
   <time name="diis">    0.10    0.10</time>
   <time name="orth">    0.00    0.00</time>
   <time name="total">    0.18    0.18</time>
   <energy>
    <i name="e_fr_energy">    -47.65052184 </i>
    <i name="e_wo_entrp">    -47.62773586 </i>
    <i name="e_0_energy">    -47.63912885 </i>
   </energy>
  </scstep>
  <scstep>
   <time name="diag">    0.03    0.03</time>
   <time name="diis">    0.10    0.11</time>
   <time name="orth">    0.00    0.00</time>
   <time name="total">    0.18    0.18</time>
   <energy>
    <i name="e_fr_energy">    -47.65045627 </i>
    <i name="e_wo_entrp">    -47.62770576 </i>
    <i name="e_0_energy">    -47.63908102 </i>
   </energy>
  </scstep>
  <scstep>
   <time name="diag">    0.03    0.03</time>
   <time name="diis">    0.10    0.10</time>
   <time name="orth">    0.00    0.00</time>
   <time name="total">    0.18    0.18</time>
   <energy>
    <i name="e_fr_energy">    -47.65046321 </i>
    <i name="e_wo_entrp">    -47.62772752 </i>
    <i name="e_0_energy">    -47.63909536 </i>
   </energy>
  </scstep>
  <scstep>
   <time name="diag">    0.03    0.03</time>
   <time name="diis">    0.09    0.09</time>
   <time name="orth">    0.00    0.00</time>
   <time name="total">    0.16    0.16</time>
   <energy>
    <i name="e_fr_energy">    -47.65046123 </i>
    <i name="e_wo_entrp">    -47.62772196 </i>
    <i name="e_0_energy">    -47.63909160 </i>
   </energy>
  </scstep>
  <scstep>
   <time name="diag">    0.03    0.03</time>
   <time name="diis">    0.07    0.07</time>
   <time name="orth">    0.00    0.00</time>
   <time name="total">    0.13    0.14</time>
   <energy>
    <i name="alphaZ">     12.98236603 </i>
    <i name="ewald">   -907.16826902 </i>
    <i name="hartreedc">   -215.67436076 </i>
    <i name="XCdc">    -93.71814759 </i>
    <i name="pawpsdc">    360.99939130 </i>
    <i name="pawaedc">   -185.82823990 </i>
    <i name="eentropy">     -0.02273884 </i>
    <i name="bandstr">    -49.83795918 </i>
    <i name="atom">   1030.61749613 </i>
    <i name="e_fr_energy">    -47.65046184 </i>
    <i name="e_wo_entrp">    -47.62772300 </i>
    <i name="e_0_energy">    -47.63909242 </i>
   </energy>
  </scstep>
  <structure>
   <crystal>
    <varray name="basis" >
     <v>       5.43101000       0.00000000       0.00000000 </v>
     <v>       0.00000000       5.43101000       0.00000000 </v>
     <v>       0.00000000       0.00000000       8.79101000 </v>
    </varray>
    <i name="volume">    259.29848479 </i>
    <varray name="rec_basis" >
     <v>       0.18412781       0.00000000       0.00000000 </v>
     <v>       0.00000000       0.18412781       0.00000000 </v>
     <v>       0.00000000       0.00000000       0.11375257 </v>
    </varray>
   </crystal>
   <varray name="positions" >
    <v>       0.00000000       0.00000000       0.00000000 </v>
    <v>       0.49999908       0.49999908       0.00000000 </v>
    <v>       0.24999954       0.24999954       0.15444755 </v>
    <v>       0.75000046       0.75000046       0.15444755 </v>
    <v>       0.00000000       0.49999908       0.30889511 </v>
    <v>       0.49999908       0.00000000       0.30889511 </v>
    <v>       0.24999954       0.75000046       0.46334380 </v>
    <v>       0.75000046       0.24999954       0.46334380 </v>
    <v>       0.00000000       0.00000000       0.61779136 </v>
    <v>       0.49999908       0.49999908       0.61779136 </v>
   </varray>
  </structure>
  <varray name="forces" >
   <v>       0.00000000       0.00000000      -0.92218139 </v>
   <v>      -0.00000000      -0.00000000      -0.92218139 </v>
   <v>       0.00000000       0.00000000      -0.43532402 </v>
   <v>       0.00000000       0.00000000      -0.43532402 </v>
   <v>       0.00000000       0.00000000       0.00000000 </v>
   <v>       0.00000000       0.00000000       0.00000000 </v>
   <v>       0.00000000       0.00000000       0.43532402 </v>
   <v>       0.00000000       0.00000000       0.43532402 </v>
   <v>       0.00000000       0.00000000       0.92218139 </v>
   <v>      -0.00000000       0.00000000       0.92218139 </v>
  </varray>
  <varray name="stress" >
   <v>     -17.60476022       0.00000000       0.00000000 </v>
   <v>      -0.00000000     -17.60476022       0.00000000 </v>
   <v>       0.00000000       0.00000000     -36.52253246 </v>
  </varray>
  <energy>
   <i name="e_fr_energy">    -47.65046184 </i>
   <i name="e_wo_entrp">    -47.63909242 </i>
   <i name="e_0_energy">     -0.02273884 </i>
  </energy>
  <time name="totalsc">    3.08    3.40</time>
  <eigenvalues>
   <array>
    <dimension dim="1">band</dimension>
    <dimension dim="2">kpoint</dimension>
    <dimension dim="3">spin</dimension>
    <field>eigene</field>
    <field>occ</field>
    <set>
     <set comment="spin 1">
      <set comment="kpoint 1">
       <r>   -8.0355    1.0000 </r>
       <r>   -6.3612    1.0000 </r>
       <r>   -4.3766    1.0000 </r>
       <r>   -4.2881    1.0000 </r>
       <r>   -4.2880    1.0000 </r>
       <r>   -4.2691    1.0000 </r>
       <r>   -3.6688    1.0000 </r>
       <r>   -3.2054    1.0000 </r>
       <r>   -0.7187    1.0000 </r>
       <r>    0.0865    1.0000 </r>
       <r>    0.1716    1.0000 </r>
       <r>    0.1717    1.0000 </r>
       <r>    1.0251    1.0000 </r>
       <r>    1.0251    1.0000 </r>
       <r>    1.0570    1.0000 </r>
       <r>    1.2592    1.0000 </r>
       <r>    2.3995    1.0000 </r>
       <r>    2.3995    1.0000 </r>
       <r>    2.5033    1.0000 </r>
       <r>    2.5033    1.0000 </r>
       <r>    4.0276    0.0000 </r>
       <r>    4.5828    0.0000 </r>
       <r>    4.6890    0.0000 </r>
       <r>    4.8895    0.0000 </r>
       <r>    5.2228    0.0000 </r>
       <r>    5.3065    0.0000 </r>
      </set>
      <set comment="kpoint 2">
       <r>   -7.8682    1.0000 </r>
       <r>   -6.2225    1.0000 </r>
       <r>   -5.5048    1.0000 </r>
       <r>   -4.6155    1.0000 </r>
       <r>   -4.1977    1.0000 </r>
       <r>   -3.9638    1.0000 </r>
       <r>   -2.9382    1.0000 </r>
       <r>   -2.7461    1.0000 </r>
       <r>   -0.9859    1.0000 </r>
       <r>   -0.2020    1.0000 </r>
       <r>   -0.1040    1.0000 </r>
       <r>    0.3421    1.0000 </r>
       <r>    0.7036    1.0000 </r>
       <r>    0.8104    1.0000 </r>
       <r>    1.0298    1.0000 </r>
       <r>    1.6069    1.0000 </r>
       <r>    1.9740    1.0000 </r>
       <r>    2.1685    1.0000 </r>
       <r>    2.5850    1.0000 </r>
       <r>    2.9446    1.0000 </r>
       <r>    3.7802    0.0000 </r>
       <r>    4.1926    0.0000 </r>
       <r>    4.6952    0.0000 </r>
       <r>    5.4273    0.0000 </r>
       <r>    5.4526    0.0000 </r>
       <r>    5.6339    0.0000 </r>
      </set>
      <set comment="kpoint 3">
       <r>   -7.3724    1.0000 </r>
       <r>   -6.5690    1.0000 </r>
       <r>   -5.8256    1.0000 </r>
       <r>   -5.2384    1.0000 </r>
       <r>   -4.0396    1.0000 </r>
       <r>   -3.9368    1.0000 </r>
       <r>   -2.3699    1.0000 </r>
       <r>   -1.6520    1.0000 </r>
       <r>   -1.4488    1.0000 </r>
       <r>   -0.4291    1.0000 </r>
       <r>   -0.3373    1.0000 </r>
       <r>   -0.0805    1.0000 </r>
       <r>    0.1297    1.0000 </r>
       <r>    0.3677    1.0000 </r>
       <r>    1.2031    1.0000 </r>
       <r>    1.5295    1.0000 </r>
       <r>    2.1461    1.0000 </r>
       <r>    2.2267    1.0000 </r>
       <r>    2.9180    1.0000 </r>
       <r>    3.3588    0.2737 </r>
       <r>    3.4692    0.0153 </r>
       <r>    3.7243    0.0000 </r>
       <r>    4.0848    0.0000 </r>
       <r>    5.2145    0.0000 </r>
       <r>    5.9759    0.0000 </r>
       <r>    6.6982    0.0000 </r>
      </set>
      <set comment="kpoint 4">
       <r>   -7.7050    1.0000 </r>
       <r>   -6.1034    1.0000 </r>
       <r>   -5.5985    1.0000 </r>
       <r>   -5.3017    1.0000 </r>
       <r>   -4.1569    1.0000 </r>
       <r>   -3.6522    1.0000 </r>
       <r>   -3.0650    1.0000 </r>
       <r>   -2.3084    1.0000 </r>
       <r>   -1.4373    1.0000 </r>
       <r>   -0.2464    1.0000 </r>
       <r>   -0.0945    1.0000 </r>
       <r>    0.1220    1.0000 </r>
       <r>    0.6165    1.0000 </r>
       <r>    0.7785    1.0000 </r>
       <r>    1.2677    1.0000 </r>
       <r>    1.8535    1.0000 </r>
       <r>    1.8697    1.0000 </r>
       <r>    2.4815    1.0000 </r>
       <r>    2.7044    1.0000 </r>
       <r>    3.2950    0.6184 </r>
       <r>    3.4008    0.1159 </r>
       <r>    3.7023    0.0000 </r>
       <r>    4.9175    0.0000 </r>
       <r>    5.2711    0.0000 </r>
       <r>    5.3672    0.0000 </r>
       <r>    5.9480    0.0000 </r>
      </set>
      <set comment="kpoint 5">
       <r>   -7.2239    1.0000 </r>
       <r>   -6.4595    1.0000 </r>
       <r>   -5.7942    1.0000 </r>
       <r>   -5.4869    1.0000 </r>
       <r>   -4.0889    1.0000 </r>
       <r>   -3.9720    1.0000 </r>
       <r>   -2.5448    1.0000 </r>
       <r>   -2.0780    1.0000 </r>
       <r>   -1.8004    1.0000 </r>
       <r>   -1.1162    1.0000 </r>
       <r>    0.2512    1.0000 </r>
       <r>    0.3848    1.0000 </r>
       <r>    0.5040    1.0000 </r>
       <r>    0.9957    1.0000 </r>
       <r>    1.1107    1.0000 </r>
       <r>    1.9328    1.0000 </r>
       <r>    2.2076    1.0000 </r>
       <r>    2.2299    1.0000 </r>
       <r>    2.8301    1.0000 </r>
       <r>    2.8419    1.0000 </r>
       <r>    3.5793    0.0001 </r>
       <r>    4.2880    0.0000 </r>
       <r>    4.3140    0.0000 </r>
       <r>    5.1910    0.0000 </r>
       <r>    6.0941    0.0000 </r>
       <r>    6.2861    0.0000 </r>
      </set>
      <set comment="kpoint 6">
       <r>   -6.8007    1.0000 </r>
       <r>   -6.2869    1.0000 </r>
       <r>   -5.9932    1.0000 </r>
       <r>   -5.8364    1.0000 </r>
       <r>   -4.1273    1.0000 </r>
       <r>   -3.9959    1.0000 </r>
       <r>   -2.8102    1.0000 </r>
       <r>   -2.5436    1.0000 </r>
       <r>   -1.9516    1.0000 </r>
       <r>   -1.8087    1.0000 </r>
       <r>    0.3350    1.0000 </r>
       <r>    0.4371    1.0000 </r>
       <r>    1.5541    1.0000 </r>
       <r>    1.5954    1.0000 </r>
       <r>    1.8749    1.0000 </r>
       <r>    2.1152    1.0000 </r>
       <r>    2.3653    1.0000 </r>
       <r>    2.4465    1.0000 </r>
       <r>    2.7338    1.0000 </r>
       <r>    3.0908    0.9993 </r>
       <r>    3.1748    0.9773 </r>
       <r>    3.7196    0.0000 </r>
       <r>    5.1745    0.0000 </r>
       <r>    5.6097    0.0000 </r>
       <r>    5.6847    0.0000 </r>
       <r>    6.0744    0.0000 </r>
      </set>
     </set>
    </set>
   </array>
  </eigenvalues>
  <separator name="orbital magnetization" >
   <v name="MAGDIPOLOUT">      0.00000000      0.00000000      0.00000000</v>
  </separator>
  <dos>
   <i name="efermi">      3.31628108 </i>
   <total>
    <array>
     <dimension dim="1">gridpoints</dimension>
     <dimension dim="2">spin</dimension>
     <field>energy</field>
     <field>total</field>
     <field>integrated</field>
     <set>
      <set comment="spin 1">
       <r>   -17.0000     0.0000     0.0000 </r>
       <r>   -16.9900     0.0000     0.0000 </r>
       <r>   -16.9800     0.0000     0.0000 </r>
       <r>   -16.9700     0.0000     0.0000 </r>
       <r>   -16.9600     0.0000     0.0000 </r>
       <r>   -16.9500     0.0000     0.0000 </r>
       <r>   -16.9400     0.0000     0.0000 </r>
       <r>   -16.9300     0.0000     0.0000 </r>
       <r>   -16.9200     0.0000     0.0000 </r>
       <r>   -16.9100     0.0000     0.0000 </r>
       <r>   -16.9000     0.0000     0.0000 </r>
       <r>   -16.8900     0.0000     0.0000 </r>
       <r>   -16.8800     0.0000     0.0000 </r>
       <r>   -16.8700     0.0000     0.0000 </r>
       <r>   -16.8600     0.0000     0.0000 </r>
       <r>   -16.8500     0.0000     0.0000 </r>
       <r>   -16.8400     0.0000     0.0000 </r>
       <r>   -16.8300     0.0000     0.0000 </r>
       <r>   -16.8200     0.0000     0.0000 </r>
       <r>   -16.8100     0.0000     0.0000 </r>
       <r>   -16.8000     0.0000     0.0000 </r>
       <r>   -16.7900     0.0000     0.0000 </r>
       <r>   -16.7800     0.0000     0.0000 </r>
       <r>   -16.7700     0.0000     0.0000 </r>
       <r>   -16.7600     0.0000     0.0000 </r>
       <r>   -16.7500     0.0000     0.0000 </r>
       <r>   -16.7400     0.0000     0.0000 </r>
       <r>   -16.7300     0.0000     0.0000 </r>
       <r>   -16.7200     0.0000     0.0000 </r>
       <r>   -16.7100     0.0000     0.0000 </r>
       <r>   -16.7000     0.0000     0.0000 </r>
       <r>   -16.6900     0.0000     0.0000 </r>
       <r>   -16.6800     0.0000     0.0000 </r>
       <r>   -16.6700     0.0000     0.0000 </r>
       <r>   -16.6600     0.0000     0.0000 </r>
       <r>   -16.6500     0.0000     0.0000 </r>
       <r>   -16.6400     0.0000     0.0000 </r>
       <r>   -16.6300     0.0000     0.0000 </r>
       <r>   -16.6200     0.0000     0.0000 </r>
       <r>   -16.6100     0.0000     0.0000 </r>
       <r>   -16.6000     0.0000     0.0000 </r>
       <r>   -16.5900     0.0000     0.0000 </r>
       <r>   -16.5800     0.0000     0.0000 </r>
       <r>   -16.5700     0.0000     0.0000 </r>
       <r>   -16.5600     0.0000     0.0000 </r>
       <r>   -16.5500     0.0000     0.0000 </r>
       <r>   -16.5400     0.0000     0.0000 </r>
       <r>   -16.5300     0.0000     0.0000 </r>
       <r>   -16.5200     0.0000     0.0000 </r>
       <r>   -16.5100     0.0000     0.0000 </r>
       <r>   -16.5000     0.0000     0.0000 </r>
       <r>   -16.4900     0.0000     0.0000 </r>
       <r>   -16.4800     0.0000     0.0000 </r>
       <r>   -16.4700     0.0000     0.0000 </r>
       <r>   -16.4600     0.0000     0.0000 </r>
       <r>   -16.4500     0.0000     0.0000 </r>
       <r>   -16.4400     0.0000     0.0000 </r>
       <r>   -16.4300     0.0000     0.0000 </r>
       <r>   -16.4200     0.0000     0.0000 </r>
       <r>   -16.4100     0.0000     0.0000 </r>
       <r>   -16.4000     0.0000     0.0000 </r>
       <r>   -16.3900     0.0000     0.0000 </r>
       <r>   -16.3800     0.0000     0.0000 </r>
       <r>   -16.3700     0.0000     0.0000 </r>
       <r>   -16.3600     0.0000     0.0000 </r>
       <r>   -16.3500     0.0000     0.0000 </r>
       <r>   -16.3400     0.0000     0.0000 </r>
       <r>   -16.3300     0.0000     0.0000 </r>
       <r>   -16.3200     0.0000     0.0000 </r>
       <r>   -16.3100     0.0000     0.0000 </r>
       <r>   -16.3000     0.0000     0.0000 </r>
       <r>   -16.2900     0.0000     0.0000 </r>
       <r>   -16.2800     0.0000     0.0000 </r>
       <r>   -16.2700     0.0000     0.0000 </r>
       <r>   -16.2600     0.0000     0.0000 </r>
       <r>   -16.2500     0.0000     0.0000 </r>
       <r>   -16.2400     0.0000     0.0000 </r>
       <r>   -16.2300     0.0000     0.0000 </r>
       <r>   -16.2200     0.0000     0.0000 </r>
       <r>   -16.2100     0.0000     0.0000 </r>
       <r>   -16.2000     0.0000     0.0000 </r>
       <r>   -16.1900     0.0000     0.0000 </r>
       <r>   -16.1800     0.0000     0.0000 </r>
       <r>   -16.1700     0.0000     0.0000 </r>
       <r>   -16.1600     0.0000     0.0000 </r>
       <r>   -16.1500     0.0000     0.0000 </r>
       <r>   -16.1400     0.0000     0.0000 </r>
       <r>   -16.1300     0.0000     0.0000 </r>
       <r>   -16.1200     0.0000     0.0000 </r>
       <r>   -16.1100     0.0000     0.0000 </r>
       <r>   -16.1000     0.0000     0.0000 </r>
       <r>   -16.0900     0.0000     0.0000 </r>
       <r>   -16.0800     0.0000     0.0000 </r>
       <r>   -16.0700     0.0000     0.0000 </r>
       <r>   -16.0600     0.0000     0.0000 </r>
       <r>   -16.0500     0.0000     0.0000 </r>
       <r>   -16.0400     0.0000     0.0000 </r>
       <r>   -16.0300     0.0000     0.0000 </r>
       <r>   -16.0200     0.0000     0.0000 </r>
       <r>   -16.0100     0.0000     0.0000 </r>
       <r>   -16.0000     0.0000     0.0000 </r>
       <r>   -15.9900     0.0000     0.0000 </r>
       <r>   -15.9800     0.0000     0.0000 </r>
       <r>   -15.9700     0.0000     0.0000 </r>
       <r>   -15.9600     0.0000     0.0000 </r>
       <r>   -15.9500     0.0000     0.0000 </r>
       <r>   -15.9400     0.0000     0.0000 </r>
       <r>   -15.9300     0.0000     0.0000 </r>
       <r>   -15.9200     0.0000     0.0000 </r>
       <r>   -15.9100     0.0000     0.0000 </r>
       <r>   -15.9000     0.0000     0.0000 </r>
       <r>   -15.8900     0.0000     0.0000 </r>
       <r>   -15.8800     0.0000     0.0000 </r>
       <r>   -15.8700     0.0000     0.0000 </r>
       <r>   -15.8600     0.0000     0.0000 </r>
       <r>   -15.8500     0.0000     0.0000 </r>
       <r>   -15.8400     0.0000     0.0000 </r>
       <r>   -15.8300     0.0000     0.0000 </r>
       <r>   -15.8200     0.0000     0.0000 </r>
       <r>   -15.8100     0.0000     0.0000 </r>
       <r>   -15.8000     0.0000     0.0000 </r>
       <r>   -15.7900     0.0000     0.0000 </r>
       <r>   -15.7800     0.0000     0.0000 </r>
       <r>   -15.7700     0.0000     0.0000 </r>
       <r>   -15.7600     0.0000     0.0000 </r>
       <r>   -15.7500     0.0000     0.0000 </r>
       <r>   -15.7400     0.0000     0.0000 </r>
       <r>   -15.7300     0.0000     0.0000 </r>
       <r>   -15.7200     0.0000     0.0000 </r>
       <r>   -15.7100     0.0000     0.0000 </r>
       <r>   -15.7000     0.0000     0.0000 </r>
       <r>   -15.6900     0.0000     0.0000 </r>
       <r>   -15.6800     0.0000     0.0000 </r>
       <r>   -15.6700     0.0000     0.0000 </r>
       <r>   -15.6600     0.0000     0.0000 </r>
       <r>   -15.6500     0.0000     0.0000 </r>
       <r>   -15.6400     0.0000     0.0000 </r>
       <r>   -15.6300     0.0000     0.0000 </r>
       <r>   -15.6200     0.0000     0.0000 </r>
       <r>   -15.6100     0.0000     0.0000 </r>
       <r>   -15.6000     0.0000     0.0000 </r>
       <r>   -15.5900     0.0000     0.0000 </r>
       <r>   -15.5800     0.0000     0.0000 </r>
       <r>   -15.5700     0.0000     0.0000 </r>
       <r>   -15.5600     0.0000     0.0000 </r>
       <r>   -15.5500     0.0000     0.0000 </r>
       <r>   -15.5400     0.0000     0.0000 </r>
       <r>   -15.5300     0.0000     0.0000 </r>
       <r>   -15.5200     0.0000     0.0000 </r>
       <r>   -15.5100     0.0000     0.0000 </r>
       <r>   -15.5000     0.0000     0.0000 </r>
       <r>   -15.4900     0.0000     0.0000 </r>
       <r>   -15.4800     0.0000     0.0000 </r>
       <r>   -15.4700     0.0000     0.0000 </r>
       <r>   -15.4600     0.0000     0.0000 </r>
       <r>   -15.4500     0.0000     0.0000 </r>
       <r>   -15.4400     0.0000     0.0000 </r>
       <r>   -15.4300     0.0000     0.0000 </r>
       <r>   -15.4200     0.0000     0.0000 </r>
       <r>   -15.4100     0.0000     0.0000 </r>
       <r>   -15.4000     0.0000     0.0000 </r>
       <r>   -15.3900     0.0000     0.0000 </r>
       <r>   -15.3800     0.0000     0.0000 </r>
       <r>   -15.3700     0.0000     0.0000 </r>
       <r>   -15.3600     0.0000     0.0000 </r>
       <r>   -15.3500     0.0000     0.0000 </r>
       <r>   -15.3400     0.0000     0.0000 </r>
       <r>   -15.3300     0.0000     0.0000 </r>
       <r>   -15.3200     0.0000     0.0000 </r>
       <r>   -15.3100     0.0000     0.0000 </r>
       <r>   -15.3000     0.0000     0.0000 </r>
       <r>   -15.2900     0.0000     0.0000 </r>
       <r>   -15.2800     0.0000     0.0000 </r>
       <r>   -15.2700     0.0000     0.0000 </r>
       <r>   -15.2600     0.0000     0.0000 </r>
       <r>   -15.2500     0.0000     0.0000 </r>
       <r>   -15.2400     0.0000     0.0000 </r>
       <r>   -15.2300     0.0000     0.0000 </r>
       <r>   -15.2200     0.0000     0.0000 </r>
       <r>   -15.2100     0.0000     0.0000 </r>
       <r>   -15.2000     0.0000     0.0000 </r>
       <r>   -15.1900     0.0000     0.0000 </r>
       <r>   -15.1800     0.0000     0.0000 </r>
       <r>   -15.1700     0.0000     0.0000 </r>
       <r>   -15.1600     0.0000     0.0000 </r>
       <r>   -15.1500     0.0000     0.0000 </r>
       <r>   -15.1400     0.0000     0.0000 </r>
       <r>   -15.1300     0.0000     0.0000 </r>
       <r>   -15.1200     0.0000     0.0000 </r>
       <r>   -15.1100     0.0000     0.0000 </r>
       <r>   -15.1000     0.0000     0.0000 </r>
       <r>   -15.0900     0.0000     0.0000 </r>
       <r>   -15.0800     0.0000     0.0000 </r>
       <r>   -15.0700     0.0000     0.0000 </r>
       <r>   -15.0600     0.0000     0.0000 </r>
       <r>   -15.0500     0.0000     0.0000 </r>
       <r>   -15.0400     0.0000     0.0000 </r>
       <r>   -15.0300     0.0000     0.0000 </r>
       <r>   -15.0200     0.0000     0.0000 </r>
       <r>   -15.0100     0.0000     0.0000 </r>
       <r>   -15.0000     0.0000     0.0000 </r>
       <r>   -14.9900     0.0000     0.0000 </r>
       <r>   -14.9800     0.0000     0.0000 </r>
       <r>   -14.9700     0.0000     0.0000 </r>
       <r>   -14.9600     0.0000     0.0000 </r>
       <r>   -14.9500     0.0000     0.0000 </r>
       <r>   -14.9400     0.0000     0.0000 </r>
       <r>   -14.9300     0.0000     0.0000 </r>
       <r>   -14.9200     0.0000     0.0000 </r>
       <r>   -14.9100     0.0000     0.0000 </r>
       <r>   -14.9000     0.0000     0.0000 </r>
       <r>   -14.8900     0.0000     0.0000 </r>
       <r>   -14.8800     0.0000     0.0000 </r>
       <r>   -14.8700     0.0000     0.0000 </r>
       <r>   -14.8600     0.0000     0.0000 </r>
       <r>   -14.8500     0.0000     0.0000 </r>
       <r>   -14.8400     0.0000     0.0000 </r>
       <r>   -14.8300     0.0000     0.0000 </r>
       <r>   -14.8200     0.0000     0.0000 </r>
       <r>   -14.8100     0.0000     0.0000 </r>
       <r>   -14.8000     0.0000     0.0000 </r>
       <r>   -14.7900     0.0000     0.0000 </r>
       <r>   -14.7800     0.0000     0.0000 </r>
       <r>   -14.7700     0.0000     0.0000 </r>
       <r>   -14.7600     0.0000     0.0000 </r>
       <r>   -14.7500     0.0000     0.0000 </r>
       <r>   -14.7400     0.0000     0.0000 </r>
       <r>   -14.7300     0.0000     0.0000 </r>
       <r>   -14.7200     0.0000     0.0000 </r>
       <r>   -14.7100     0.0000     0.0000 </r>
       <r>   -14.7000     0.0000     0.0000 </r>
       <r>   -14.6900     0.0000     0.0000 </r>
       <r>   -14.6800     0.0000     0.0000 </r>
       <r>   -14.6700     0.0000     0.0000 </r>
       <r>   -14.6600     0.0000     0.0000 </r>
       <r>   -14.6500     0.0000     0.0000 </r>
       <r>   -14.6400     0.0000     0.0000 </r>
       <r>   -14.6300     0.0000     0.0000 </r>
       <r>   -14.6200     0.0000     0.0000 </r>
       <r>   -14.6100     0.0000     0.0000 </r>
       <r>   -14.6000     0.0000     0.0000 </r>
       <r>   -14.5900     0.0000     0.0000 </r>
       <r>   -14.5800     0.0000     0.0000 </r>
       <r>   -14.5700     0.0000     0.0000 </r>
       <r>   -14.5600     0.0000     0.0000 </r>
       <r>   -14.5500     0.0000     0.0000 </r>
       <r>   -14.5400     0.0000     0.0000 </r>
       <r>   -14.5300     0.0000     0.0000 </r>
       <r>   -14.5200     0.0000     0.0000 </r>
       <r>   -14.5100     0.0000     0.0000 </r>
       <r>   -14.5000     0.0000     0.0000 </r>
       <r>   -14.4900     0.0000     0.0000 </r>
       <r>   -14.4800     0.0000     0.0000 </r>
       <r>   -14.4700     0.0000     0.0000 </r>
       <r>   -14.4600     0.0000     0.0000 </r>
       <r>   -14.4500     0.0000     0.0000 </r>
       <r>   -14.4400     0.0000     0.0000 </r>
       <r>   -14.4300     0.0000     0.0000 </r>
       <r>   -14.4200     0.0000     0.0000 </r>
       <r>   -14.4100     0.0000     0.0000 </r>
       <r>   -14.4000     0.0000     0.0000 </r>
       <r>   -14.3900     0.0000     0.0000 </r>
       <r>   -14.3800     0.0000     0.0000 </r>
       <r>   -14.3700     0.0000     0.0000 </r>
       <r>   -14.3600     0.0000     0.0000 </r>
       <r>   -14.3500     0.0000     0.0000 </r>
       <r>   -14.3400     0.0000     0.0000 </r>
       <r>   -14.3300     0.0000     0.0000 </r>
       <r>   -14.3200     0.0000     0.0000 </r>
       <r>   -14.3100     0.0000     0.0000 </r>
       <r>   -14.3000     0.0000     0.0000 </r>
       <r>   -14.2900     0.0000     0.0000 </r>
       <r>   -14.2800     0.0000     0.0000 </r>
       <r>   -14.2700     0.0000     0.0000 </r>
       <r>   -14.2600     0.0000     0.0000 </r>
       <r>   -14.2500     0.0000     0.0000 </r>
       <r>   -14.2400     0.0000     0.0000 </r>
       <r>   -14.2300     0.0000     0.0000 </r>
       <r>   -14.2200     0.0000     0.0000 </r>
       <r>   -14.2100     0.0000     0.0000 </r>
       <r>   -14.2000     0.0000     0.0000 </r>
       <r>   -14.1900     0.0000     0.0000 </r>
       <r>   -14.1800     0.0000     0.0000 </r>
       <r>   -14.1700     0.0000     0.0000 </r>
       <r>   -14.1600     0.0000     0.0000 </r>
       <r>   -14.1500     0.0000     0.0000 </r>
       <r>   -14.1400     0.0000     0.0000 </r>
       <r>   -14.1300     0.0000     0.0000 </r>
       <r>   -14.1200     0.0000     0.0000 </r>
       <r>   -14.1100     0.0000     0.0000 </r>
       <r>   -14.1000     0.0000     0.0000 </r>
       <r>   -14.0900     0.0000     0.0000 </r>
       <r>   -14.0800     0.0000     0.0000 </r>
       <r>   -14.0700     0.0000     0.0000 </r>
       <r>   -14.0600     0.0000     0.0000 </r>
       <r>   -14.0500     0.0000     0.0000 </r>
       <r>   -14.0400     0.0000     0.0000 </r>
       <r>   -14.0300     0.0000     0.0000 </r>
       <r>   -14.0200     0.0000     0.0000 </r>
       <r>   -14.0100     0.0000     0.0000 </r>
       <r>   -14.0000     0.0000     0.0000 </r>
       <r>   -13.9900     0.0000     0.0000 </r>
       <r>   -13.9800     0.0000     0.0000 </r>
       <r>   -13.9700     0.0000     0.0000 </r>
       <r>   -13.9600     0.0000     0.0000 </r>
       <r>   -13.9500     0.0000     0.0000 </r>
       <r>   -13.9400     0.0000     0.0000 </r>
       <r>   -13.9300     0.0000     0.0000 </r>
       <r>   -13.9200     0.0000     0.0000 </r>
       <r>   -13.9100     0.0000     0.0000 </r>
       <r>   -13.9000     0.0000     0.0000 </r>
       <r>   -13.8900     0.0000     0.0000 </r>
       <r>   -13.8800     0.0000     0.0000 </r>
       <r>   -13.8700     0.0000     0.0000 </r>
       <r>   -13.8600     0.0000     0.0000 </r>
       <r>   -13.8500     0.0000     0.0000 </r>
       <r>   -13.8400     0.0000     0.0000 </r>
       <r>   -13.8300     0.0000     0.0000 </r>
       <r>   -13.8200     0.0000     0.0000 </r>
       <r>   -13.8100     0.0000     0.0000 </r>
       <r>   -13.8000     0.0000     0.0000 </r>
       <r>   -13.7900     0.0000     0.0000 </r>
       <r>   -13.7800     0.0000     0.0000 </r>
       <r>   -13.7700     0.0000     0.0000 </r>
       <r>   -13.7600     0.0000     0.0000 </r>
       <r>   -13.7500     0.0000     0.0000 </r>
       <r>   -13.7400     0.0000     0.0000 </r>
       <r>   -13.7300     0.0000     0.0000 </r>
       <r>   -13.7200     0.0000     0.0000 </r>
       <r>   -13.7100     0.0000     0.0000 </r>
       <r>   -13.7000     0.0000     0.0000 </r>
       <r>   -13.6900     0.0000     0.0000 </r>
       <r>   -13.6800     0.0000     0.0000 </r>
       <r>   -13.6700     0.0000     0.0000 </r>
       <r>   -13.6600     0.0000     0.0000 </r>
       <r>   -13.6500     0.0000     0.0000 </r>
       <r>   -13.6400     0.0000     0.0000 </r>
       <r>   -13.6300     0.0000     0.0000 </r>
       <r>   -13.6200     0.0000     0.0000 </r>
       <r>   -13.6100     0.0000     0.0000 </r>
       <r>   -13.6000     0.0000     0.0000 </r>
       <r>   -13.5900     0.0000     0.0000 </r>
       <r>   -13.5800     0.0000     0.0000 </r>
       <r>   -13.5700     0.0000     0.0000 </r>
       <r>   -13.5600     0.0000     0.0000 </r>
       <r>   -13.5500     0.0000     0.0000 </r>
       <r>   -13.5400     0.0000     0.0000 </r>
       <r>   -13.5300     0.0000     0.0000 </r>
       <r>   -13.5200     0.0000     0.0000 </r>
       <r>   -13.5100     0.0000     0.0000 </r>
       <r>   -13.5000     0.0000     0.0000 </r>
       <r>   -13.4900     0.0000     0.0000 </r>
       <r>   -13.4800     0.0000     0.0000 </r>
       <r>   -13.4700     0.0000     0.0000 </r>
       <r>   -13.4600     0.0000     0.0000 </r>
       <r>   -13.4500     0.0000     0.0000 </r>
       <r>   -13.4400     0.0000     0.0000 </r>
       <r>   -13.4300     0.0000     0.0000 </r>
       <r>   -13.4200     0.0000     0.0000 </r>
       <r>   -13.4100     0.0000     0.0000 </r>
       <r>   -13.4000     0.0000     0.0000 </r>
       <r>   -13.3900     0.0000     0.0000 </r>
       <r>   -13.3800     0.0000     0.0000 </r>
       <r>   -13.3700     0.0000     0.0000 </r>
       <r>   -13.3600     0.0000     0.0000 </r>
       <r>   -13.3500     0.0000     0.0000 </r>
       <r>   -13.3400     0.0000     0.0000 </r>
       <r>   -13.3300     0.0000     0.0000 </r>
       <r>   -13.3200     0.0000     0.0000 </r>
       <r>   -13.3100     0.0000     0.0000 </r>
       <r>   -13.3000     0.0000     0.0000 </r>
       <r>   -13.2900     0.0000     0.0000 </r>
       <r>   -13.2800     0.0000     0.0000 </r>
       <r>   -13.2700     0.0000     0.0000 </r>
       <r>   -13.2600     0.0000     0.0000 </r>
       <r>   -13.2500     0.0000     0.0000 </r>
       <r>   -13.2400     0.0000     0.0000 </r>
       <r>   -13.2300     0.0000     0.0000 </r>
       <r>   -13.2200     0.0000     0.0000 </r>
       <r>   -13.2100     0.0000     0.0000 </r>
       <r>   -13.2000     0.0000     0.0000 </r>
       <r>   -13.1900     0.0000     0.0000 </r>
       <r>   -13.1800     0.0000     0.0000 </r>
       <r>   -13.1700     0.0000     0.0000 </r>
       <r>   -13.1600     0.0000     0.0000 </r>
       <r>   -13.1500     0.0000     0.0000 </r>
       <r>   -13.1400     0.0000     0.0000 </r>
       <r>   -13.1300     0.0000     0.0000 </r>
       <r>   -13.1200     0.0000     0.0000 </r>
       <r>   -13.1100     0.0000     0.0000 </r>
       <r>   -13.1000     0.0000     0.0000 </r>
       <r>   -13.0900     0.0000     0.0000 </r>
       <r>   -13.0800     0.0000     0.0000 </r>
       <r>   -13.0700     0.0000     0.0000 </r>
       <r>   -13.0600     0.0000     0.0000 </r>
       <r>   -13.0500     0.0000     0.0000 </r>
       <r>   -13.0400     0.0000     0.0000 </r>
       <r>   -13.0300     0.0000     0.0000 </r>
       <r>   -13.0200     0.0000     0.0000 </r>
       <r>   -13.0100     0.0000     0.0000 </r>
       <r>   -13.0000     0.0000     0.0000 </r>
       <r>   -12.9900     0.0000     0.0000 </r>
       <r>   -12.9800     0.0000     0.0000 </r>
       <r>   -12.9700     0.0000     0.0000 </r>
       <r>   -12.9600     0.0000     0.0000 </r>
       <r>   -12.9500     0.0000     0.0000 </r>
       <r>   -12.9400     0.0000     0.0000 </r>
       <r>   -12.9300     0.0000     0.0000 </r>
       <r>   -12.9200     0.0000     0.0000 </r>
       <r>   -12.9100     0.0000     0.0000 </r>
       <r>   -12.9000     0.0000     0.0000 </r>
       <r>   -12.8900     0.0000     0.0000 </r>
       <r>   -12.8800     0.0000     0.0000 </r>
       <r>   -12.8700     0.0000     0.0000 </r>
       <r>   -12.8600     0.0000     0.0000 </r>
       <r>   -12.8500     0.0000     0.0000 </r>
       <r>   -12.8400     0.0000     0.0000 </r>
       <r>   -12.8300     0.0000     0.0000 </r>
       <r>   -12.8200     0.0000     0.0000 </r>
       <r>   -12.8100     0.0000     0.0000 </r>
       <r>   -12.8000     0.0000     0.0000 </r>
       <r>   -12.7900     0.0000     0.0000 </r>
       <r>   -12.7800     0.0000     0.0000 </r>
       <r>   -12.7700     0.0000     0.0000 </r>
       <r>   -12.7600     0.0000     0.0000 </r>
       <r>   -12.7500     0.0000     0.0000 </r>
       <r>   -12.7400     0.0000     0.0000 </r>
       <r>   -12.7300     0.0000     0.0000 </r>
       <r>   -12.7200     0.0000     0.0000 </r>
       <r>   -12.7100     0.0000     0.0000 </r>
       <r>   -12.7000     0.0000     0.0000 </r>
       <r>   -12.6900     0.0000     0.0000 </r>
       <r>   -12.6800     0.0000     0.0000 </r>
       <r>   -12.6700     0.0000     0.0000 </r>
       <r>   -12.6600     0.0000     0.0000 </r>
       <r>   -12.6500     0.0000     0.0000 </r>
       <r>   -12.6400     0.0000     0.0000 </r>
       <r>   -12.6300     0.0000     0.0000 </r>
       <r>   -12.6200     0.0000     0.0000 </r>
       <r>   -12.6100     0.0000     0.0000 </r>
       <r>   -12.6000     0.0000     0.0000 </r>
       <r>   -12.5900     0.0000     0.0000 </r>
       <r>   -12.5800     0.0000     0.0000 </r>
       <r>   -12.5700     0.0000     0.0000 </r>
       <r>   -12.5600     0.0000     0.0000 </r>
       <r>   -12.5500     0.0000     0.0000 </r>
       <r>   -12.5400     0.0000     0.0000 </r>
       <r>   -12.5300     0.0000     0.0000 </r>
       <r>   -12.5200     0.0000     0.0000 </r>
       <r>   -12.5100     0.0000     0.0000 </r>
       <r>   -12.5000     0.0000     0.0000 </r>
       <r>   -12.4900     0.0000     0.0000 </r>
       <r>   -12.4800     0.0000     0.0000 </r>
       <r>   -12.4700     0.0000     0.0000 </r>
       <r>   -12.4600     0.0000     0.0000 </r>
       <r>   -12.4500     0.0000     0.0000 </r>
       <r>   -12.4400     0.0000     0.0000 </r>
       <r>   -12.4300     0.0000     0.0000 </r>
       <r>   -12.4200     0.0000     0.0000 </r>
       <r>   -12.4100     0.0000     0.0000 </r>
       <r>   -12.4000     0.0000     0.0000 </r>
       <r>   -12.3900     0.0000     0.0000 </r>
       <r>   -12.3800     0.0000     0.0000 </r>
       <r>   -12.3700     0.0000     0.0000 </r>
       <r>   -12.3600     0.0000     0.0000 </r>
       <r>   -12.3500     0.0000     0.0000 </r>
       <r>   -12.3400     0.0000     0.0000 </r>
       <r>   -12.3300     0.0000     0.0000 </r>
       <r>   -12.3200     0.0000     0.0000 </r>
       <r>   -12.3100     0.0000     0.0000 </r>
       <r>   -12.3000     0.0000     0.0000 </r>
       <r>   -12.2900     0.0000     0.0000 </r>
       <r>   -12.2800     0.0000     0.0000 </r>
       <r>   -12.2700     0.0000     0.0000 </r>
       <r>   -12.2600     0.0000     0.0000 </r>
       <r>   -12.2500     0.0000     0.0000 </r>
       <r>   -12.2400     0.0000     0.0000 </r>
       <r>   -12.2300     0.0000     0.0000 </r>
       <r>   -12.2200     0.0000     0.0000 </r>
       <r>   -12.2100     0.0000     0.0000 </r>
       <r>   -12.2000     0.0000     0.0000 </r>
       <r>   -12.1900     0.0000     0.0000 </r>
       <r>   -12.1800     0.0000     0.0000 </r>
       <r>   -12.1700     0.0000     0.0000 </r>
       <r>   -12.1600     0.0000     0.0000 </r>
       <r>   -12.1500     0.0000     0.0000 </r>
       <r>   -12.1400     0.0000     0.0000 </r>
       <r>   -12.1300     0.0000     0.0000 </r>
       <r>   -12.1200     0.0000     0.0000 </r>
       <r>   -12.1100     0.0000     0.0000 </r>
       <r>   -12.1000     0.0000     0.0000 </r>
       <r>   -12.0900     0.0000     0.0000 </r>
       <r>   -12.0800     0.0000     0.0000 </r>
       <r>   -12.0700     0.0000     0.0000 </r>
       <r>   -12.0600     0.0000     0.0000 </r>
       <r>   -12.0500     0.0000     0.0000 </r>
       <r>   -12.0400     0.0000     0.0000 </r>
       <r>   -12.0300     0.0000     0.0000 </r>
       <r>   -12.0200     0.0000     0.0000 </r>
       <r>   -12.0100     0.0000     0.0000 </r>
       <r>   -12.0000     0.0000     0.0000 </r>
       <r>   -11.9900     0.0000     0.0000 </r>
       <r>   -11.9800     0.0000     0.0000 </r>
       <r>   -11.9700     0.0000     0.0000 </r>
       <r>   -11.9600     0.0000     0.0000 </r>
       <r>   -11.9500     0.0000     0.0000 </r>
       <r>   -11.9400     0.0000     0.0000 </r>
       <r>   -11.9300     0.0000     0.0000 </r>
       <r>   -11.9200     0.0000     0.0000 </r>
       <r>   -11.9100     0.0000     0.0000 </r>
       <r>   -11.9000     0.0000     0.0000 </r>
       <r>   -11.8900     0.0000     0.0000 </r>
       <r>   -11.8800     0.0000     0.0000 </r>
       <r>   -11.8700     0.0000     0.0000 </r>
       <r>   -11.8600     0.0000     0.0000 </r>
       <r>   -11.8500     0.0000     0.0000 </r>
       <r>   -11.8400     0.0000     0.0000 </r>
       <r>   -11.8300     0.0000     0.0000 </r>
       <r>   -11.8200     0.0000     0.0000 </r>
       <r>   -11.8100     0.0000     0.0000 </r>
       <r>   -11.8000     0.0000     0.0000 </r>
       <r>   -11.7900     0.0000     0.0000 </r>
       <r>   -11.7800     0.0000     0.0000 </r>
       <r>   -11.7700     0.0000     0.0000 </r>
       <r>   -11.7600     0.0000     0.0000 </r>
       <r>   -11.7500     0.0000     0.0000 </r>
       <r>   -11.7400     0.0000     0.0000 </r>
       <r>   -11.7300     0.0000     0.0000 </r>
       <r>   -11.7200     0.0000     0.0000 </r>
       <r>   -11.7100     0.0000     0.0000 </r>
       <r>   -11.7000     0.0000     0.0000 </r>
       <r>   -11.6900     0.0000     0.0000 </r>
       <r>   -11.6800     0.0000     0.0000 </r>
       <r>   -11.6700     0.0000     0.0000 </r>
       <r>   -11.6600     0.0000     0.0000 </r>
       <r>   -11.6500     0.0000     0.0000 </r>
       <r>   -11.6400     0.0000     0.0000 </r>
       <r>   -11.6300     0.0000     0.0000 </r>
       <r>   -11.6200     0.0000     0.0000 </r>
       <r>   -11.6100     0.0000     0.0000 </r>
       <r>   -11.6000     0.0000     0.0000 </r>
       <r>   -11.5900     0.0000     0.0000 </r>
       <r>   -11.5800     0.0000     0.0000 </r>
       <r>   -11.5700     0.0000     0.0000 </r>
       <r>   -11.5600     0.0000     0.0000 </r>
       <r>   -11.5500     0.0000     0.0000 </r>
       <r>   -11.5400     0.0000     0.0000 </r>
       <r>   -11.5300     0.0000     0.0000 </r>
       <r>   -11.5200     0.0000     0.0000 </r>
       <r>   -11.5100     0.0000     0.0000 </r>
       <r>   -11.5000     0.0000     0.0000 </r>
       <r>   -11.4900     0.0000     0.0000 </r>
       <r>   -11.4800     0.0000     0.0000 </r>
       <r>   -11.4700     0.0000     0.0000 </r>
       <r>   -11.4600     0.0000     0.0000 </r>
       <r>   -11.4500     0.0000     0.0000 </r>
       <r>   -11.4400     0.0000     0.0000 </r>
       <r>   -11.4300     0.0000     0.0000 </r>
       <r>   -11.4200     0.0000     0.0000 </r>
       <r>   -11.4100     0.0000     0.0000 </r>
       <r>   -11.4000     0.0000     0.0000 </r>
       <r>   -11.3900     0.0000     0.0000 </r>
       <r>   -11.3800     0.0000     0.0000 </r>
       <r>   -11.3700     0.0000     0.0000 </r>
       <r>   -11.3600     0.0000     0.0000 </r>
       <r>   -11.3500     0.0000     0.0000 </r>
       <r>   -11.3400     0.0000     0.0000 </r>
       <r>   -11.3300     0.0000     0.0000 </r>
       <r>   -11.3200     0.0000     0.0000 </r>
       <r>   -11.3100     0.0000     0.0000 </r>
       <r>   -11.3000     0.0000     0.0000 </r>
       <r>   -11.2900     0.0000     0.0000 </r>
       <r>   -11.2800     0.0000     0.0000 </r>
       <r>   -11.2700     0.0000     0.0000 </r>
       <r>   -11.2600     0.0000     0.0000 </r>
       <r>   -11.2500     0.0000     0.0000 </r>
       <r>   -11.2400     0.0000     0.0000 </r>
       <r>   -11.2300     0.0000     0.0000 </r>
       <r>   -11.2200     0.0000     0.0000 </r>
       <r>   -11.2100     0.0000     0.0000 </r>
       <r>   -11.2000     0.0000     0.0000 </r>
       <r>   -11.1900     0.0000     0.0000 </r>
       <r>   -11.1800     0.0000     0.0000 </r>
       <r>   -11.1700     0.0000     0.0000 </r>
       <r>   -11.1600     0.0000     0.0000 </r>
       <r>   -11.1500     0.0000     0.0000 </r>
       <r>   -11.1400     0.0000     0.0000 </r>
       <r>   -11.1300     0.0000     0.0000 </r>
       <r>   -11.1200     0.0000     0.0000 </r>
       <r>   -11.1100     0.0000     0.0000 </r>
       <r>   -11.1000     0.0000     0.0000 </r>
       <r>   -11.0900     0.0000     0.0000 </r>
       <r>   -11.0800     0.0000     0.0000 </r>
       <r>   -11.0700     0.0000     0.0000 </r>
       <r>   -11.0600     0.0000     0.0000 </r>
       <r>   -11.0500     0.0000     0.0000 </r>
       <r>   -11.0400     0.0000     0.0000 </r>
       <r>   -11.0300     0.0000     0.0000 </r>
       <r>   -11.0200     0.0000     0.0000 </r>
       <r>   -11.0100     0.0000     0.0000 </r>
       <r>   -11.0000     0.0000     0.0000 </r>
       <r>   -10.9900     0.0000     0.0000 </r>
       <r>   -10.9800     0.0000     0.0000 </r>
       <r>   -10.9700     0.0000     0.0000 </r>
       <r>   -10.9600     0.0000     0.0000 </r>
       <r>   -10.9500     0.0000     0.0000 </r>
       <r>   -10.9400     0.0000     0.0000 </r>
       <r>   -10.9300     0.0000     0.0000 </r>
       <r>   -10.9200     0.0000     0.0000 </r>
       <r>   -10.9100     0.0000     0.0000 </r>
       <r>   -10.9000     0.0000     0.0000 </r>
       <r>   -10.8900     0.0000     0.0000 </r>
       <r>   -10.8800     0.0000     0.0000 </r>
       <r>   -10.8700     0.0000     0.0000 </r>
       <r>   -10.8600     0.0000     0.0000 </r>
       <r>   -10.8500     0.0000     0.0000 </r>
       <r>   -10.8400     0.0000     0.0000 </r>
       <r>   -10.8300     0.0000     0.0000 </r>
       <r>   -10.8200     0.0000     0.0000 </r>
       <r>   -10.8100     0.0000     0.0000 </r>
       <r>   -10.8000     0.0000     0.0000 </r>
       <r>   -10.7900     0.0000     0.0000 </r>
       <r>   -10.7800     0.0000     0.0000 </r>
       <r>   -10.7700     0.0000     0.0000 </r>
       <r>   -10.7600     0.0000     0.0000 </r>
       <r>   -10.7500     0.0000     0.0000 </r>
       <r>   -10.7400     0.0000     0.0000 </r>
       <r>   -10.7300     0.0000     0.0000 </r>
       <r>   -10.7200     0.0000     0.0000 </r>
       <r>   -10.7100     0.0000     0.0000 </r>
       <r>   -10.7000     0.0000     0.0000 </r>
       <r>   -10.6900     0.0000     0.0000 </r>
       <r>   -10.6800     0.0000     0.0000 </r>
       <r>   -10.6700     0.0000     0.0000 </r>
       <r>   -10.6600     0.0000     0.0000 </r>
       <r>   -10.6500     0.0000     0.0000 </r>
       <r>   -10.6400     0.0000     0.0000 </r>
       <r>   -10.6300     0.0000     0.0000 </r>
       <r>   -10.6200     0.0000     0.0000 </r>
       <r>   -10.6100     0.0000     0.0000 </r>
       <r>   -10.6000     0.0000     0.0000 </r>
       <r>   -10.5900     0.0000     0.0000 </r>
       <r>   -10.5800     0.0000     0.0000 </r>
       <r>   -10.5700     0.0000     0.0000 </r>
       <r>   -10.5600     0.0000     0.0000 </r>
       <r>   -10.5500     0.0000     0.0000 </r>
       <r>   -10.5400     0.0000     0.0000 </r>
       <r>   -10.5300     0.0000     0.0000 </r>
       <r>   -10.5200     0.0000     0.0000 </r>
       <r>   -10.5100     0.0000     0.0000 </r>
       <r>   -10.5000     0.0000     0.0000 </r>
       <r>   -10.4900     0.0000     0.0000 </r>
       <r>   -10.4800     0.0000     0.0000 </r>
       <r>   -10.4700     0.0000     0.0000 </r>
       <r>   -10.4600     0.0000     0.0000 </r>
       <r>   -10.4500     0.0000     0.0000 </r>
       <r>   -10.4400     0.0000     0.0000 </r>
       <r>   -10.4300     0.0000     0.0000 </r>
       <r>   -10.4200     0.0000     0.0000 </r>
       <r>   -10.4100     0.0000     0.0000 </r>
       <r>   -10.4000     0.0000     0.0000 </r>
       <r>   -10.3900     0.0000     0.0000 </r>
       <r>   -10.3800     0.0000     0.0000 </r>
       <r>   -10.3700     0.0000     0.0000 </r>
       <r>   -10.3600     0.0000     0.0000 </r>
       <r>   -10.3500     0.0000     0.0000 </r>
       <r>   -10.3400     0.0000     0.0000 </r>
       <r>   -10.3300     0.0000     0.0000 </r>
       <r>   -10.3200     0.0000     0.0000 </r>
       <r>   -10.3100     0.0000     0.0000 </r>
       <r>   -10.3000     0.0000     0.0000 </r>
       <r>   -10.2900     0.0000     0.0000 </r>
       <r>   -10.2800     0.0000     0.0000 </r>
       <r>   -10.2700     0.0000     0.0000 </r>
       <r>   -10.2600     0.0000     0.0000 </r>
       <r>   -10.2500     0.0000     0.0000 </r>
       <r>   -10.2400     0.0000     0.0000 </r>
       <r>   -10.2300     0.0000     0.0000 </r>
       <r>   -10.2200     0.0000     0.0000 </r>
       <r>   -10.2100     0.0000     0.0000 </r>
       <r>   -10.2000     0.0000     0.0000 </r>
       <r>   -10.1900     0.0000     0.0000 </r>
       <r>   -10.1800     0.0000     0.0000 </r>
       <r>   -10.1700     0.0000     0.0000 </r>
       <r>   -10.1600     0.0000     0.0000 </r>
       <r>   -10.1500     0.0000     0.0000 </r>
       <r>   -10.1400     0.0000     0.0000 </r>
       <r>   -10.1300     0.0000     0.0000 </r>
       <r>   -10.1200     0.0000     0.0000 </r>
       <r>   -10.1100     0.0000     0.0000 </r>
       <r>   -10.1000     0.0000     0.0000 </r>
       <r>   -10.0900     0.0000     0.0000 </r>
       <r>   -10.0800     0.0000     0.0000 </r>
       <r>   -10.0700     0.0000     0.0000 </r>
       <r>   -10.0600     0.0000     0.0000 </r>
       <r>   -10.0500     0.0000     0.0000 </r>
       <r>   -10.0400     0.0000     0.0000 </r>
       <r>   -10.0300     0.0000     0.0000 </r>
       <r>   -10.0200     0.0000     0.0000 </r>
       <r>   -10.0100     0.0000     0.0000 </r>
       <r>   -10.0000     0.0000     0.0000 </r>
       <r>    -9.9900     0.0000     0.0000 </r>
       <r>    -9.9800     0.0000     0.0000 </r>
       <r>    -9.9700     0.0000     0.0000 </r>
       <r>    -9.9600     0.0000     0.0000 </r>
       <r>    -9.9500     0.0000     0.0000 </r>
       <r>    -9.9400     0.0000     0.0000 </r>
       <r>    -9.9300     0.0000     0.0000 </r>
       <r>    -9.9200     0.0000     0.0000 </r>
       <r>    -9.9100     0.0000     0.0000 </r>
       <r>    -9.9000     0.0000     0.0000 </r>
       <r>    -9.8900     0.0000     0.0000 </r>
       <r>    -9.8800     0.0000     0.0000 </r>
       <r>    -9.8700     0.0000     0.0000 </r>
       <r>    -9.8600     0.0000     0.0000 </r>
       <r>    -9.8500     0.0000     0.0000 </r>
       <r>    -9.8400     0.0000     0.0000 </r>
       <r>    -9.8300     0.0000     0.0000 </r>
       <r>    -9.8200     0.0000     0.0000 </r>
       <r>    -9.8100     0.0000     0.0000 </r>
       <r>    -9.8000     0.0000     0.0000 </r>
       <r>    -9.7900     0.0000     0.0000 </r>
       <r>    -9.7800     0.0000     0.0000 </r>
       <r>    -9.7700     0.0000     0.0000 </r>
       <r>    -9.7600     0.0000     0.0000 </r>
       <r>    -9.7500     0.0000     0.0000 </r>
       <r>    -9.7400     0.0000     0.0000 </r>
       <r>    -9.7300     0.0000     0.0000 </r>
       <r>    -9.7200     0.0000     0.0000 </r>
       <r>    -9.7100     0.0000     0.0000 </r>
       <r>    -9.7000     0.0000     0.0000 </r>
       <r>    -9.6900     0.0000     0.0000 </r>
       <r>    -9.6800     0.0000     0.0000 </r>
       <r>    -9.6700     0.0000     0.0000 </r>
       <r>    -9.6600     0.0000     0.0000 </r>
       <r>    -9.6500     0.0000     0.0000 </r>
       <r>    -9.6400     0.0000     0.0000 </r>
       <r>    -9.6300     0.0000     0.0000 </r>
       <r>    -9.6200     0.0000     0.0000 </r>
       <r>    -9.6100     0.0000     0.0000 </r>
       <r>    -9.6000     0.0000     0.0000 </r>
       <r>    -9.5900     0.0000     0.0000 </r>
       <r>    -9.5800     0.0000     0.0000 </r>
       <r>    -9.5700     0.0000     0.0000 </r>
       <r>    -9.5600     0.0000     0.0000 </r>
       <r>    -9.5500     0.0000     0.0000 </r>
       <r>    -9.5400     0.0000     0.0000 </r>
       <r>    -9.5300     0.0000     0.0000 </r>
       <r>    -9.5200     0.0000     0.0000 </r>
       <r>    -9.5100     0.0000     0.0000 </r>
       <r>    -9.5000     0.0000     0.0000 </r>
       <r>    -9.4900     0.0000     0.0000 </r>
       <r>    -9.4800     0.0000     0.0000 </r>
       <r>    -9.4700     0.0000     0.0000 </r>
       <r>    -9.4600     0.0000     0.0000 </r>
       <r>    -9.4500     0.0000     0.0000 </r>
       <r>    -9.4400     0.0000     0.0000 </r>
       <r>    -9.4300     0.0000     0.0000 </r>
       <r>    -9.4200     0.0000     0.0000 </r>
       <r>    -9.4100     0.0000     0.0000 </r>
       <r>    -9.4000     0.0000     0.0000 </r>
       <r>    -9.3900     0.0000     0.0000 </r>
       <r>    -9.3800     0.0000     0.0000 </r>
       <r>    -9.3700     0.0000     0.0000 </r>
       <r>    -9.3600     0.0000     0.0000 </r>
       <r>    -9.3500     0.0000     0.0000 </r>
       <r>    -9.3400     0.0000     0.0000 </r>
       <r>    -9.3300     0.0000     0.0000 </r>
       <r>    -9.3200     0.0000     0.0000 </r>
       <r>    -9.3100     0.0000     0.0000 </r>
       <r>    -9.3000     0.0000     0.0000 </r>
       <r>    -9.2900     0.0000     0.0000 </r>
       <r>    -9.2800     0.0000     0.0000 </r>
       <r>    -9.2700     0.0000     0.0000 </r>
       <r>    -9.2600     0.0000     0.0000 </r>
       <r>    -9.2500     0.0000     0.0000 </r>
       <r>    -9.2400     0.0000     0.0000 </r>
       <r>    -9.2300     0.0000     0.0000 </r>
       <r>    -9.2200     0.0000     0.0000 </r>
       <r>    -9.2100     0.0000     0.0000 </r>
       <r>    -9.2000     0.0000     0.0000 </r>
       <r>    -9.1900     0.0000     0.0000 </r>
       <r>    -9.1800     0.0000     0.0000 </r>
       <r>    -9.1700     0.0000     0.0000 </r>
       <r>    -9.1600     0.0000     0.0000 </r>
       <r>    -9.1500     0.0000     0.0000 </r>
       <r>    -9.1400     0.0000     0.0000 </r>
       <r>    -9.1300     0.0000     0.0000 </r>
       <r>    -9.1200     0.0000     0.0000 </r>
       <r>    -9.1100     0.0000     0.0000 </r>
       <r>    -9.1000     0.0000     0.0000 </r>
       <r>    -9.0900     0.0000     0.0000 </r>
       <r>    -9.0800     0.0000     0.0000 </r>
       <r>    -9.0700     0.0000     0.0000 </r>
       <r>    -9.0600     0.0000     0.0000 </r>
       <r>    -9.0500     0.0000     0.0000 </r>
       <r>    -9.0400     0.0000     0.0000 </r>
       <r>    -9.0300     0.0000     0.0000 </r>
       <r>    -9.0200     0.0000     0.0000 </r>
       <r>    -9.0100     0.0000     0.0000 </r>
       <r>    -9.0000     0.0000     0.0000 </r>
       <r>    -8.9900     0.0000     0.0000 </r>
       <r>    -8.9800     0.0000     0.0000 </r>
       <r>    -8.9700     0.0000     0.0000 </r>
       <r>    -8.9600     0.0000     0.0000 </r>
       <r>    -8.9500     0.0000     0.0000 </r>
       <r>    -8.9400     0.0000     0.0000 </r>
       <r>    -8.9300     0.0000     0.0000 </r>
       <r>    -8.9200     0.0000     0.0000 </r>
       <r>    -8.9100     0.0000     0.0000 </r>
       <r>    -8.9000     0.0000     0.0000 </r>
       <r>    -8.8900     0.0000     0.0000 </r>
       <r>    -8.8800     0.0000     0.0000 </r>
       <r>    -8.8700     0.0000     0.0000 </r>
       <r>    -8.8600     0.0000     0.0000 </r>
       <r>    -8.8500     0.0000     0.0000 </r>
       <r>    -8.8400     0.0000     0.0000 </r>
       <r>    -8.8300     0.0000     0.0000 </r>
       <r>    -8.8200     0.0000     0.0000 </r>
       <r>    -8.8100     0.0000     0.0000 </r>
       <r>    -8.8000     0.0000     0.0000 </r>
       <r>    -8.7900     0.0000     0.0000 </r>
       <r>    -8.7800     0.0000     0.0000 </r>
       <r>    -8.7700     0.0000     0.0000 </r>
       <r>    -8.7600     0.0000     0.0000 </r>
       <r>    -8.7500     0.0000     0.0000 </r>
       <r>    -8.7400     0.0000     0.0000 </r>
       <r>    -8.7300     0.0000     0.0000 </r>
       <r>    -8.7200     0.0000     0.0000 </r>
       <r>    -8.7100     0.0000     0.0000 </r>
       <r>    -8.7000     0.0000     0.0000 </r>
       <r>    -8.6900     0.0000     0.0000 </r>
       <r>    -8.6800     0.0000     0.0000 </r>
       <r>    -8.6700     0.0000     0.0000 </r>
       <r>    -8.6600     0.0000     0.0000 </r>
       <r>    -8.6500     0.0000     0.0000 </r>
       <r>    -8.6400     0.0000     0.0000 </r>
       <r>    -8.6300     0.0000     0.0000 </r>
       <r>    -8.6200     0.0000     0.0000 </r>
       <r>    -8.6100     0.0000     0.0000 </r>
       <r>    -8.6000     0.0000     0.0000 </r>
       <r>    -8.5900     0.0000     0.0000 </r>
       <r>    -8.5800     0.0000     0.0000 </r>
       <r>    -8.5700     0.0000     0.0000 </r>
       <r>    -8.5600     0.0000     0.0000 </r>
       <r>    -8.5500     0.0000     0.0000 </r>
       <r>    -8.5400     0.0000     0.0000 </r>
       <r>    -8.5300     0.0000     0.0000 </r>
       <r>    -8.5200     0.0000     0.0000 </r>
       <r>    -8.5100     0.0000     0.0000 </r>
       <r>    -8.5000     0.0000     0.0000 </r>
       <r>    -8.4900     0.0000     0.0000 </r>
       <r>    -8.4800     0.0000     0.0000 </r>
       <r>    -8.4700     0.0000     0.0000 </r>
       <r>    -8.4600     0.0000     0.0000 </r>
       <r>    -8.4500     0.0000     0.0000 </r>
       <r>    -8.4400     0.0000     0.0000 </r>
       <r>    -8.4300     0.0000     0.0000 </r>
       <r>    -8.4200     0.0000     0.0000 </r>
       <r>    -8.4100     0.0000     0.0000 </r>
       <r>    -8.4000     0.0000     0.0000 </r>
       <r>    -8.3900     0.0000     0.0000 </r>
       <r>    -8.3800     0.0000     0.0000 </r>
       <r>    -8.3700     0.0000     0.0000 </r>
       <r>    -8.3600     0.0000     0.0000 </r>
       <r>    -8.3500     0.0000     0.0000 </r>
       <r>    -8.3400     0.0000     0.0000 </r>
       <r>    -8.3300     0.0001     0.0000 </r>
       <r>    -8.3200     0.0001     0.0000 </r>
       <r>    -8.3100     0.0002     0.0000 </r>
       <r>    -8.3000     0.0003     0.0000 </r>
       <r>    -8.2900     0.0005     0.0000 </r>
       <r>    -8.2800     0.0009     0.0000 </r>
       <r>    -8.2700     0.0015     0.0000 </r>
       <r>    -8.2600     0.0024     0.0001 </r>
       <r>    -8.2500     0.0037     0.0001 </r>
       <r>    -8.2400     0.0056     0.0002 </r>
       <r>    -8.2300     0.0085     0.0002 </r>
       <r>    -8.2200     0.0125     0.0004 </r>
       <r>    -8.2100     0.0181     0.0005 </r>
       <r>    -8.2000     0.0257     0.0008 </r>
       <r>    -8.1900     0.0357     0.0012 </r>
       <r>    -8.1800     0.0486     0.0016 </r>
       <r>    -8.1700     0.0648     0.0023 </r>
       <r>    -8.1600     0.0849     0.0031 </r>
       <r>    -8.1500     0.1090     0.0042 </r>
       <r>    -8.1400     0.1372     0.0056 </r>
       <r>    -8.1300     0.1694     0.0073 </r>
       <r>    -8.1200     0.2053     0.0093 </r>
       <r>    -8.1100     0.2442     0.0118 </r>
       <r>    -8.1000     0.2852     0.0146 </r>
       <r>    -8.0900     0.3274     0.0179 </r>
       <r>    -8.0800     0.3698     0.0216 </r>
       <r>    -8.0700     0.4113     0.0257 </r>
       <r>    -8.0600     0.4513     0.0302 </r>
       <r>    -8.0500     0.4896     0.0351 </r>
       <r>    -8.0400     0.5266     0.0404 </r>
       <r>    -8.0300     0.5632     0.0460 </r>
       <r>    -8.0200     0.6011     0.0520 </r>
       <r>    -8.0100     0.6424     0.0585 </r>
       <r>    -8.0000     0.6897     0.0654 </r>
       <r>    -7.9900     0.7456     0.0728 </r>
       <r>    -7.9800     0.8124     0.0809 </r>
       <r>    -7.9700     0.8919     0.0899 </r>
       <r>    -7.9600     0.9846     0.0997 </r>
       <r>    -7.9500     1.0900     0.1106 </r>
       <r>    -7.9400     1.2060     0.1227 </r>
       <r>    -7.9300     1.3292     0.1360 </r>
       <r>    -7.9200     1.4549     0.1505 </r>
       <r>    -7.9100     1.5776     0.1663 </r>
       <r>    -7.9000     1.6914     0.1832 </r>
       <r>    -7.8900     1.7910     0.2011 </r>
       <r>    -7.8800     1.8717     0.2198 </r>
       <r>    -7.8700     1.9307     0.2391 </r>
       <r>    -7.8600     1.9667     0.2588 </r>
       <r>    -7.8500     1.9808     0.2786 </r>
       <r>    -7.8400     1.9761     0.2984 </r>
       <r>    -7.8300     1.9574     0.3179 </r>
       <r>    -7.8200     1.9306     0.3373 </r>
       <r>    -7.8100     1.9018     0.3563 </r>
       <r>    -7.8000     1.8770     0.3750 </r>
       <r>    -7.7900     1.8608     0.3936 </r>
       <r>    -7.7800     1.8562     0.4122 </r>
       <r>    -7.7700     1.8637     0.4308 </r>
       <r>    -7.7600     1.8818     0.4497 </r>
       <r>    -7.7500     1.9069     0.4687 </r>
       <r>    -7.7400     1.9335     0.4881 </r>
       <r>    -7.7300     1.9554     0.5076 </r>
       <r>    -7.7200     1.9659     0.5273 </r>
       <r>    -7.7100     1.9590     0.5469 </r>
       <r>    -7.7000     1.9302     0.5662 </r>
       <r>    -7.6900     1.8764     0.5849 </r>
       <r>    -7.6800     1.7969     0.6029 </r>
       <r>    -7.6700     1.6929     0.6198 </r>
       <r>    -7.6600     1.5676     0.6355 </r>
       <r>    -7.6500     1.4259     0.6498 </r>
       <r>    -7.6400     1.2734     0.6625 </r>
       <r>    -7.6300     1.1163     0.6737 </r>
       <r>    -7.6200     0.9608     0.6833 </r>
       <r>    -7.6100     0.8121     0.6914 </r>
       <r>    -7.6000     0.6751     0.6981 </r>
       <r>    -7.5900     0.5533     0.7037 </r>
       <r>    -7.5800     0.4492     0.7082 </r>
       <r>    -7.5700     0.3644     0.7118 </r>
       <r>    -7.5600     0.2998     0.7148 </r>
       <r>    -7.5500     0.2558     0.7174 </r>
       <r>    -7.5400     0.2324     0.7197 </r>
       <r>    -7.5300     0.2297     0.7220 </r>
       <r>    -7.5200     0.2477     0.7245 </r>
       <r>    -7.5100     0.2865     0.7273 </r>
       <r>    -7.5000     0.3461     0.7308 </r>
       <r>    -7.4900     0.4263     0.7351 </r>
       <r>    -7.4800     0.5266     0.7403 </r>
       <r>    -7.4700     0.6459     0.7468 </r>
       <r>    -7.4600     0.7823     0.7546 </r>
       <r>    -7.4500     0.9331     0.7639 </r>
       <r>    -7.4400     1.0946     0.7749 </r>
       <r>    -7.4300     1.2626     0.7875 </r>
       <r>    -7.4200     1.4323     0.8018 </r>
       <r>    -7.4100     1.5990     0.8178 </r>
       <r>    -7.4000     1.7587     0.8354 </r>
       <r>    -7.3900     1.9082     0.8545 </r>
       <r>    -7.3800     2.0460     0.8750 </r>
       <r>    -7.3700     2.1722     0.8967 </r>
       <r>    -7.3600     2.2889     0.9196 </r>
       <r>    -7.3500     2.3996     0.9436 </r>
       <r>    -7.3400     2.5090     0.9687 </r>
       <r>    -7.3300     2.6221     0.9949 </r>
       <r>    -7.3200     2.7432     1.0223 </r>
       <r>    -7.3100     2.8752     1.0511 </r>
       <r>    -7.3000     3.0187     1.0812 </r>
       <r>    -7.2900     3.1714     1.1130 </r>
       <r>    -7.2800     3.3282     1.1462 </r>
       <r>    -7.2700     3.4809     1.1810 </r>
       <r>    -7.2600     3.6194     1.2172 </r>
       <r>    -7.2500     3.7324     1.2546 </r>
       <r>    -7.2400     3.8086     1.2927 </r>
       <r>    -7.2300     3.8382     1.3310 </r>
       <r>    -7.2200     3.8138     1.3692 </r>
       <r>    -7.2100     3.7315     1.4065 </r>
       <r>    -7.2000     3.5912     1.4424 </r>
       <r>    -7.1900     3.3968     1.4764 </r>
       <r>    -7.1800     3.1556     1.5079 </r>
       <r>    -7.1700     2.8779     1.5367 </r>
       <r>    -7.1600     2.5756     1.5625 </r>
       <r>    -7.1500     2.2614     1.5851 </r>
       <r>    -7.1400     1.9475     1.6045 </r>
[...]
        <r>  0.0000  0.0012  0.0000  0.0012  0.0000  0.0000  0.0000  0.0000  0.0000 </r>
        <r>  0.0000  0.0149  0.0000  0.0149  0.0000  0.0000  0.0000  0.0000  0.0000 </r>
        <r>  0.0000  0.0149  0.0000  0.0149  0.0000  0.0000  0.0000  0.0000  0.0000 </r>
        <r>  0.0568  0.0002  0.0193  0.0002  0.0000  0.0000  0.0000  0.0000  0.0000 </r>
        <r>  0.0568  0.0002  0.0193  0.0002  0.0000  0.0000  0.0000  0.0000  0.0000 </r>
        <r>  0.0709  0.0001  0.0136  0.0001  0.0000  0.0000  0.0000  0.0000  0.0000 </r>
        <r>  0.0709  0.0001  0.0136  0.0001  0.0000  0.0000  0.0000  0.0000  0.0000 </r>
        <r>  0.0000  0.0122  0.0000  0.0122  0.0000  0.0000  0.0000  0.0000  0.0000 </r>
        <r>  0.0000  0.0122  0.0000  0.0122  0.0000  0.0000  0.0000  0.0000  0.0000 </r>
       </set>
       <set comment="band 8">
        <r>  0.0116  0.0106  0.0014  0.0106  0.0000  0.0000  0.0000  0.0000  0.0000 </r>
        <r>  0.0116  0.0106  0.0014  0.0106  0.0000  0.0000  0.0000  0.0000  0.0000 </r>
        <r>  0.0549  0.0055  0.0084  0.0055  0.0000  0.0000  0.0000  0.0000  0.0000 </r>
        <r>  0.0549  0.0055  0.0084  0.0055  0.0000  0.0000  0.0000  0.0000  0.0000 </r>
        <r>  0.0280  0.0030  0.0142  0.0030  0.0000  0.0000  0.0000  0.0000  0.0000 </r>
        <r>  0.0280  0.0030  0.0142  0.0030  0.0000  0.0000  0.0000  0.0000  0.0000 </r>
        <r>  0.0016  0.0068  0.0124  0.0068  0.0000  0.0000  0.0000  0.0000  0.0000 </r>
        <r>  0.0016  0.0068  0.0124  0.0068  0.0000  0.0000  0.0000  0.0000  0.0000 </r>
        <r>  0.0335  0.0004  0.0000  0.0004  0.0000  0.0000  0.0000  0.0000  0.0000 </r>
        <r>  0.0335  0.0004  0.0000  0.0004  0.0000  0.0000  0.0000  0.0000  0.0000 </r>
       </set>
       <set comment="band 9">
        <r>  0.0890  0.0000  0.0022  0.0000  0.0000  0.0000  0.0000  0.0000  0.0000 </r>
        <r>  0.0889  0.0000  0.0022  0.0000  0.0000  0.0000  0.0000  0.0000  0.0000 </r>
        <r>  0.0324  0.0005  0.0350  0.0005  0.0000  0.0000  0.0000  0.0000  0.0000 </r>
        <r>  0.0324  0.0005  0.0350  0.0005  0.0000  0.0000  0.0000  0.0000  0.0000 </r>
        <r>  0.0000  0.0190  0.0000  0.0190  0.0000  0.0000  0.0000  0.0000  0.0000 </r>
        <r>  0.0000  0.0190  0.0000  0.0190  0.0000  0.0000  0.0000  0.0000  0.0000 </r>
        <r>  0.0000  0.0006  0.0000  0.0006  0.0000  0.0000  0.0000  0.0000  0.0000 </r>
        <r>  0.0000  0.0006  0.0000  0.0006  0.0000  0.0000  0.0000  0.0000  0.0000 </r>
        <r>  0.0126  0.0000  0.0025  0.0000  0.0000  0.0000  0.0000  0.0000  0.0000 </r>
        <r>  0.0125  0.0000  0.0025  0.0000  0.0000  0.0000  0.0000  0.0000  0.0000 </r>
       </set>
       <set comment="band 10">
        <r>  0.0191  0.0012  0.0021  0.0012  0.0000  0.0000  0.0000  0.0000  0.0000 </r>
        <r>  0.0191  0.0012  0.0021  0.0012  0.0000  0.0000  0.0000  0.0000  0.0000 </r>
        <r>  0.0077  0.0001  0.0009  0.0001  0.0000  0.0000  0.0000  0.0000  0.0000 </r>
        <r>  0.0077  0.0001  0.0009  0.0001  0.0000  0.0000  0.0000  0.0000  0.0000 </r>
        <r>  0.0084  0.0166  0.0052  0.0166  0.0000  0.0000  0.0000  0.0000  0.0000 </r>
        <r>  0.0084  0.0166  0.0052  0.0166  0.0000  0.0000  0.0000  0.0000  0.0000 </r>
        <r>  0.0301  0.0081  0.0227  0.0081  0.0000  0.0000  0.0000  0.0000  0.0000 </r>
        <r>  0.0301  0.0081  0.0227  0.0081  0.0000  0.0000  0.0000  0.0000  0.0000 </r>
        <r>  0.0471  0.0016  0.0034  0.0016  0.0000  0.0000  0.0000  0.0000  0.0000 </r>
        <r>  0.0471  0.0016  0.0034  0.0016  0.0000  0.0000  0.0000  0.0000  0.0000 </r>
       </set>
       <set comment="band 11">
        <r>  0.0000  0.0122  0.0000  0.0122  0.0000  0.0000  0.0000  0.0000  0.0000 </r>
        <r>  0.0000  0.0122  0.0000  0.0122  0.0000  0.0000  0.0000  0.0000  0.0000 </r>
        <r>  0.0000  0.0128  0.0000  0.0128  0.0000  0.0000  0.0000  0.0000  0.0000 </r>
        <r>  0.0000  0.0127  0.0000  0.0127  0.0000  0.0000  0.0000  0.0000  0.0000 </r>
        <r>  0.0110  0.0000  0.0304  0.0000  0.0000  0.0000  0.0000  0.0000  0.0000 </r>
        <r>  0.0110  0.0000  0.0304  0.0000  0.0000  0.0000  0.0000  0.0000  0.0000 </r>
        <r>  0.0001  0.0014  0.0388  0.0014  0.0000  0.0000  0.0000  0.0000  0.0000 </r>
        <r>  0.0001  0.0014  0.0388  0.0014  0.0000  0.0000  0.0000  0.0000  0.0000 </r>
        <r>  0.0000  0.0153  0.0000  0.0153  0.0000  0.0000  0.0000  0.0000  0.0000 </r>
        <r>  0.0000  0.0153  0.0000  0.0153  0.0000  0.0000  0.0000  0.0000  0.0000 </r>
       </set>
       <set comment="band 12">
        <r>  0.0001  0.0171  0.0003  0.0171  0.0000  0.0000  0.0000  0.0000  0.0000 </r>
        <r>  0.0001  0.0171  0.0003  0.0171  0.0000  0.0000  0.0000  0.0000  0.0000 </r>
        <r>  0.0000  0.0011  0.0440  0.0011  0.0000  0.0000  0.0000  0.0000  0.0000 </r>
        <r>  0.0000  0.0011  0.0440  0.0011  0.0000  0.0000  0.0000  0.0000  0.0000 </r>
        <r>  0.0086  0.0001  0.0289  0.0001  0.0000  0.0000  0.0000  0.0000  0.0000 </r>
        <r>  0.0086  0.0001  0.0289  0.0001  0.0000  0.0000  0.0000  0.0000  0.0000 </r>
        <r>  0.0044  0.0107  0.0017  0.0107  0.0000  0.0000  0.0000  0.0000  0.0000 </r>
        <r>  0.0044  0.0107  0.0017  0.0107  0.0000  0.0000  0.0000  0.0000  0.0000 </r>
        <r>  0.0106  0.0092  0.0006  0.0092  0.0000  0.0000  0.0000  0.0000  0.0000 </r>
        <r>  0.0106  0.0092  0.0006  0.0092  0.0000  0.0000  0.0000  0.0000  0.0000 </r>
       </set>
       <set comment="band 13">
        <r>  0.0000  0.0005  0.0000  0.0005  0.0000  0.0000  0.0000  0.0000  0.0000 </r>
        <r>  0.0000  0.0005  0.0000  0.0005  0.0000  0.0000  0.0000  0.0000  0.0000 </r>
        <r>  0.0000  0.0001  0.0000  0.0001  0.0000  0.0000  0.0000  0.0000  0.0000 </r>
        <r>  0.0000  0.0001  0.0000  0.0001  0.0000  0.0000  0.0000  0.0000  0.0000 </r>
        <r>  0.0073  0.0460  0.0011  0.0460  0.0000  0.0000  0.0000  0.0000  0.0000 </r>
        <r>  0.0073  0.0460  0.0011  0.0460  0.0000  0.0000  0.0000  0.0000  0.0000 </r>
        <r>  0.0077  0.0404  0.0145  0.0404  0.0000  0.0000  0.0000  0.0000  0.0000 </r>
        <r>  0.0077  0.0404  0.0145  0.0404  0.0000  0.0000  0.0000  0.0000  0.0000 </r>
        <r>  0.0000  0.0015  0.0000  0.0015  0.0000  0.0000  0.0000  0.0000  0.0000 </r>
        <r>  0.0000  0.0015  0.0000  0.0015  0.0000  0.0000  0.0000  0.0000  0.0000 </r>
       </set>
       <set comment="band 14">
        <r>  0.0142  0.0333  0.0039  0.0333  0.0000  0.0000  0.0000  0.0000  0.0000 </r>
        <r>  0.0142  0.0333  0.0039  0.0333  0.0000  0.0000  0.0000  0.0000  0.0000 </r>
        <r>  0.0177  0.0387  0.0024  0.0387  0.0000  0.0000  0.0000  0.0000  0.0000 </r>
        <r>  0.0177  0.0387  0.0024  0.0387  0.0000  0.0000  0.0000  0.0000  0.0000 </r>
        <r>  0.0000  0.0001  0.0000  0.0001  0.0000  0.0000  0.0000  0.0000  0.0000 </r>
        <r>  0.0000  0.0001  0.0000  0.0001  0.0000  0.0000  0.0000  0.0000  0.0000 </r>
        <r>  0.0000  0.0039  0.0000  0.0039  0.0000  0.0000  0.0000  0.0000  0.0000 </r>
        <r>  0.0000  0.0039  0.0000  0.0039  0.0000  0.0000  0.0000  0.0000  0.0000 </r>
        <r>  0.0078  0.0001  0.0112  0.0001  0.0000  0.0000  0.0000  0.0000  0.0000 </r>
        <r>  0.0078  0.0001  0.0112  0.0001  0.0000  0.0000  0.0000  0.0000  0.0000 </r>
       </set>
       <set comment="band 15">
        <r>  0.0000  0.0009  0.0000  0.0009  0.0000  0.0000  0.0000  0.0000  0.0000 </r>
        <r>  0.0000  0.0009  0.0000  0.0009  0.0000  0.0000  0.0000  0.0000  0.0000 </r>
        <r>  0.0000  0.0339  0.0000  0.0339  0.0000  0.0000  0.0000  0.0000  0.0000 </r>
        <r>  0.0000  0.0339  0.0000  0.0339  0.0000  0.0000  0.0000  0.0000  0.0000 </r>
        <r>  0.0000  0.0387  0.0000  0.0387  0.0000  0.0000  0.0000  0.0000  0.0000 </r>
        <r>  0.0000  0.0387  0.0000  0.0387  0.0000  0.0000  0.0000  0.0000  0.0000 </r>
        <r>  0.0000  0.0198  0.0000  0.0198  0.0000  0.0000  0.0000  0.0000  0.0000 </r>
        <r>  0.0000  0.0198  0.0000  0.0198  0.0000  0.0000  0.0000  0.0000  0.0000 </r>
        <r>  0.0000  0.0138  0.0000  0.0138  0.0000  0.0000  0.0000  0.0000  0.0000 </r>
        <r>  0.0000  0.0138  0.0000  0.0138  0.0000  0.0000  0.0000  0.0000  0.0000 </r>
       </set>
       <set comment="band 16">
        <r>  0.0167  0.0004  0.0712  0.0004  0.0000  0.0000  0.0000  0.0000  0.0000 </r>
        <r>  0.0167  0.0004  0.0711  0.0004  0.0000  0.0000  0.0000  0.0000  0.0000 </r>
        <r>  0.0036  0.0161  0.0001  0.0161  0.0000  0.0000  0.0000  0.0000  0.0000 </r>
        <r>  0.0036  0.0161  0.0001  0.0161  0.0000  0.0000  0.0000  0.0000  0.0000 </r>
        <r>  0.0065  0.0012  0.0003  0.0012  0.0000  0.0000  0.0000  0.0000  0.0000 </r>
        <r>  0.0065  0.0012  0.0003  0.0012  0.0000  0.0000  0.0000  0.0000  0.0000 </r>
        <r>  0.0077  0.0006  0.0127  0.0006  0.0000  0.0000  0.0000  0.0000  0.0000 </r>
        <r>  0.0077  0.0006  0.0127  0.0006  0.0000  0.0000  0.0000  0.0000  0.0000 </r>
        <r>  0.0053  0.0050  0.0084  0.0050  0.0000  0.0000  0.0000  0.0000  0.0000 </r>
        <r>  0.0053  0.0050  0.0084  0.0050  0.0000  0.0000  0.0000  0.0000  0.0000 </r>
       </set>
       <set comment="band 17">
        <r>  0.0000  0.0091  0.0152  0.0091  0.0000  0.0000  0.0000  0.0000  0.0000 </r>
        <r>  0.0000  0.0091  0.0152  0.0091  0.0000  0.0000  0.0000  0.0000  0.0000 </r>
        <r>  0.0001  0.0042  0.0348  0.0042  0.0000  0.0000  0.0000  0.0000  0.0000 </r>
        <r>  0.0001  0.0042  0.0348  0.0042  0.0000  0.0000  0.0000  0.0000  0.0000 </r>
        <r>  0.0000  0.0061  0.0000  0.0061  0.0000  0.0000  0.0000  0.0000  0.0000 </r>
        <r>  0.0000  0.0061  0.0000  0.0061  0.0000  0.0000  0.0000  0.0000  0.0000 </r>
        <r>  0.0000  0.0129  0.0000  0.0129  0.0000  0.0000  0.0000  0.0000  0.0000 </r>
        <r>  0.0000  0.0129  0.0000  0.0129  0.0000  0.0000  0.0000  0.0000  0.0000 </r>
        <r>  0.0067  0.0001  0.0672  0.0001  0.0000  0.0000  0.0000  0.0000  0.0000 </r>
        <r>  0.0067  0.0001  0.0672  0.0001  0.0000  0.0000  0.0000  0.0000  0.0000 </r>
       </set>
       <set comment="band 18">
        <r>  0.0000  0.0002  0.0000  0.0002  0.0000  0.0000  0.0000  0.0000  0.0000 </r>
        <r>  0.0000  0.0002  0.0000  0.0002  0.0000  0.0000  0.0000  0.0000  0.0000 </r>
        <r>  0.0000  0.0198  0.0000  0.0198  0.0000  0.0000  0.0000  0.0000  0.0000 </r>
        <r>  0.0000  0.0198  0.0000  0.0198  0.0000  0.0000  0.0000  0.0000  0.0000 </r>
        <r>  0.0000  0.0151  0.0000  0.0151  0.0000  0.0000  0.0000  0.0000  0.0000 </r>
        <r>  0.0000  0.0151  0.0000  0.0151  0.0000  0.0000  0.0000  0.0000  0.0000 </r>
        <r>  0.0000  0.0384  0.0000  0.0384  0.0000  0.0000  0.0000  0.0000  0.0000 </r>
        <r>  0.0000  0.0384  0.0000  0.0384  0.0000  0.0000  0.0000  0.0000  0.0000 </r>
        <r>  0.0000  0.0380  0.0000  0.0380  0.0000  0.0000  0.0000  0.0000  0.0000 </r>
        <r>  0.0000  0.0380  0.0000  0.0380  0.0000  0.0000  0.0000  0.0000  0.0000 </r>
       </set>
       <set comment="band 19">
        <r>  0.0122  0.0001  0.0025  0.0001  0.0000  0.0000  0.0000  0.0000  0.0000 </r>
        <r>  0.0122  0.0001  0.0025  0.0001  0.0000  0.0000  0.0000  0.0000  0.0000 </r>
        <r>  0.0002  0.0003  0.0023  0.0003  0.0000  0.0000  0.0000  0.0000  0.0000 </r>
        <r>  0.0002  0.0003  0.0023  0.0003  0.0000  0.0000  0.0000  0.0000  0.0000 </r>
        <r>  0.0014  0.0130  0.0055  0.0130  0.0000  0.0000  0.0000  0.0000  0.0000 </r>
        <r>  0.0014  0.0130  0.0055  0.0130  0.0000  0.0000  0.0000  0.0000  0.0000 </r>
        <r>  0.0167  0.0004  0.0203  0.0004  0.0000  0.0000  0.0000  0.0000  0.0000 </r>
        <r>  0.0167  0.0004  0.0203  0.0004  0.0000  0.0000  0.0000  0.0000  0.0000 </r>
        <r>  0.0152  0.0120  0.0476  0.0120  0.0000  0.0000  0.0000  0.0000  0.0000 </r>
        <r>  0.0152  0.0120  0.0476  0.0120  0.0000  0.0000  0.0000  0.0000  0.0000 </r>
       </set>
       <set comment="band 20">
        <r>  0.0311  0.0023  0.0615  0.0023  0.0000  0.0000  0.0000  0.0000  0.0000 </r>
        <r>  0.0311  0.0023  0.0615  0.0023  0.0000  0.0000  0.0000  0.0000  0.0000 </r>
        <r>  0.0235  0.0068  0.0057  0.0068  0.0000  0.0000  0.0000  0.0000  0.0000 </r>
        <r>  0.0235  0.0068  0.0057  0.0068  0.0000  0.0000  0.0000  0.0000  0.0000 </r>
        <r>  0.0000  0.0086  0.0000  0.0086  0.0000  0.0000  0.0000  0.0000  0.0000 </r>
        <r>  0.0000  0.0086  0.0000  0.0086  0.0000  0.0000  0.0000  0.0000  0.0000 </r>
        <r>  0.0000  0.0045  0.0000  0.0045  0.0000  0.0000  0.0000  0.0000  0.0000 </r>
        <r>  0.0000  0.0045  0.0000  0.0045  0.0000  0.0000  0.0000  0.0000  0.0000 </r>
        <r>  0.0287  0.0002  0.0039  0.0002  0.0000  0.0000  0.0000  0.0000  0.0000 </r>
        <r>  0.0287  0.0002  0.0039  0.0002  0.0000  0.0000  0.0000  0.0000  0.0000 </r>
       </set>
       <set comment="band 21">
        <r>  0.0000  0.0383  0.0000  0.0383  0.0000  0.0000  0.0000  0.0000  0.0000 </r>
        <r>  0.0000  0.0383  0.0000  0.0383  0.0000  0.0000  0.0000  0.0000  0.0000 </r>
        <r>  0.0000  0.0030  0.0000  0.0030  0.0000  0.0000  0.0000  0.0000  0.0000 </r>
        <r>  0.0000  0.0030  0.0000  0.0030  0.0000  0.0000  0.0000  0.0000  0.0000 </r>
        <r>  0.0080  0.0004  0.0378  0.0004  0.0000  0.0000  0.0000  0.0000  0.0000 </r>
        <r>  0.0080  0.0004  0.0378  0.0004  0.0000  0.0000  0.0000  0.0000  0.0000 </r>
        <r>  0.0017  0.0053  0.0154  0.0053  0.0000  0.0000  0.0000  0.0000  0.0000 </r>
        <r>  0.0017  0.0053  0.0154  0.0053  0.0000  0.0000  0.0000  0.0000  0.0000 </r>
        <r>  0.0000  0.0051  0.0000  0.0051  0.0000  0.0000  0.0000  0.0000  0.0000 </r>
        <r>  0.0000  0.0051  0.0000  0.0051  0.0000  0.0000  0.0000  0.0000  0.0000 </r>
       </set>
       <set comment="band 22">
        <r>  0.0108  0.0057  0.0080  0.0057  0.0000  0.0000  0.0000  0.0000  0.0000 </r>
        <r>  0.0108  0.0057  0.0080  0.0057  0.0000  0.0000  0.0000  0.0000  0.0000 </r>
        <r>  0.0040  0.0032  0.0201  0.0032  0.0000  0.0000  0.0000  0.0000  0.0000 </r>
        <r>  0.0040  0.0032  0.0201  0.0032  0.0000  0.0000  0.0000  0.0000  0.0000 </r>
        <r>  0.0092  0.0007  0.0238  0.0007  0.0000  0.0000  0.0000  0.0000  0.0000 </r>
        <r>  0.0092  0.0007  0.0238  0.0007  0.0000  0.0000  0.0000  0.0000  0.0000 </r>
        <r>  0.0106  0.0029  0.0014  0.0029  0.0000  0.0000  0.0000  0.0000  0.0000 </r>
        <r>  0.0106  0.0029  0.0014  0.0029  0.0000  0.0000  0.0000  0.0000  0.0000 </r>
        <r>  0.0178  0.0242  0.0166  0.0242  0.0000  0.0000  0.0000  0.0000  0.0000 </r>
        <r>  0.0178  0.0242  0.0166  0.0242  0.0000  0.0000  0.0000  0.0000  0.0000 </r>
       </set>
       <set comment="band 23">
        <r>  0.0000  0.0001  0.0038  0.0001  0.0000  0.0000  0.0000  0.0000  0.0000 </r>
        <r>  0.0000  0.0001  0.0038  0.0001  0.0000  0.0000  0.0000  0.0000  0.0000 </r>
        <r>  0.0006  0.0002  0.0008  0.0002  0.0000  0.0000  0.0000  0.0000  0.0000 </r>
        <r>  0.0006  0.0002  0.0008  0.0002  0.0000  0.0000  0.0000  0.0000  0.0000 </r>
        <r>  0.0000  0.0000  0.0000  0.0000  0.0000  0.0000  0.0000  0.0000  0.0000 </r>
        <r>  0.0000  0.0000  0.0000  0.0000  0.0000  0.0000  0.0000  0.0000  0.0000 </r>
        <r>  0.0000  0.0007  0.0000  0.0007  0.0000  0.0000  0.0000  0.0000  0.0000 </r>
        <r>  0.0000  0.0007  0.0000  0.0007  0.0000  0.0000  0.0000  0.0000  0.0000 </r>
        <r>  0.0018  0.0778  0.0000  0.0777  0.0000  0.0000  0.0000  0.0000  0.0000 </r>
        <r>  0.0018  0.0778  0.0000  0.0777  0.0000  0.0000  0.0000  0.0000  0.0000 </r>
       </set>
       <set comment="band 24">
        <r>  0.0000  0.0848  0.0000  0.0850  0.0000  0.0000  0.0000  0.0000  0.0000 </r>
        <r>  0.0000  0.0852  0.0000  0.0854  0.0000  0.0000  0.0000  0.0000  0.0000 </r>
        <r>  0.0000  0.0003  0.0000  0.0003  0.0000  0.0000  0.0000  0.0000  0.0000 </r>
        <r>  0.0000  0.0003  0.0000  0.0003  0.0000  0.0000  0.0000  0.0000  0.0000 </r>
        <r>  0.0000  0.0057  0.0000  0.0051  0.0000  0.0000  0.0000  0.0000  0.0000 </r>
        <r>  0.0000  0.0051  0.0000  0.0057  0.0000  0.0000  0.0000  0.0000  0.0000 </r>
        <r>  0.0000  0.0001  0.0000  0.0001  0.0000  0.0000  0.0000  0.0000  0.0000 </r>
        <r>  0.0000  0.0001  0.0000  0.0001  0.0000  0.0000  0.0000  0.0000  0.0000 </r>
        <r>  0.0000  0.0000  0.0000  0.0000  0.0000  0.0000  0.0000  0.0000  0.0000 </r>
        <r>  0.0000  0.0000  0.0000  0.0000  0.0000  0.0000  0.0000  0.0000  0.0000 </r>
       </set>
       <set comment="band 25">
        <r>  0.0005  0.0001  0.0019  0.0001  0.0000  0.0000  0.0000  0.0000  0.0000 </r>
        <r>  0.0005  0.0001  0.0019  0.0001  0.0000  0.0000  0.0000  0.0000  0.0000 </r>
        <r>  0.0359  0.0002  0.0130  0.0002  0.0000  0.0000  0.0000  0.0000  0.0000 </r>
        <r>  0.0359  0.0002  0.0130  0.0002  0.0000  0.0000  0.0000  0.0000  0.0000 </r>
        <r>  0.0344  0.0000  0.0298  0.0000  0.0000  0.0000  0.0000  0.0000  0.0000 </r>
        <r>  0.0338  0.0000  0.0301  0.0000  0.0000  0.0000  0.0000  0.0000  0.0000 </r>
        <r>  0.0080  0.0000  0.0083  0.0000  0.0000  0.0000  0.0000  0.0000  0.0000 </r>
        <r>  0.0080  0.0000  0.0083  0.0000  0.0000  0.0000  0.0000  0.0000  0.0000 </r>
        <r>  0.0056  0.0008  0.0017  0.0008  0.0000  0.0000  0.0000  0.0000  0.0000 </r>
        <r>  0.0056  0.0008  0.0017  0.0008  0.0000  0.0000  0.0000  0.0000  0.0000 </r>
       </set>
       <set comment="band 26">
        <r>  0.0001  0.0007  0.0023  0.0009  0.0000  0.0000  0.0000  0.0000  0.0000 </r>
        <r>  0.0001  0.0010  0.0022  0.0006  0.0000  0.0000  0.0000  0.0000  0.0000 </r>
        <r>  0.0205  0.0001  0.0017  0.0001  0.0000  0.0000  0.0000  0.0000  0.0000 </r>
        <r>  0.0200  0.0001  0.0018  0.0001  0.0000  0.0000  0.0000  0.0000  0.0000 </r>
        <r>  0.0050  0.0001  0.0104  0.0001  0.0000  0.0000  0.0000  0.0000  0.0000 </r>
        <r>  0.0220  0.0020  0.0032  0.0020  0.0000  0.0000  0.0000  0.0000  0.0000 </r>
        <r>  0.0273  0.0005  0.0160  0.0005  0.0000  0.0000  0.0000  0.0000  0.0000 </r>
        <r>  0.0426  0.0002  0.0138  0.0002  0.0000  0.0000  0.0000  0.0000  0.0000 </r>
        <r>  0.0246  0.0000  0.0386  0.0004  0.0000  0.0000  0.0000  0.0000  0.0000 </r>
        <r>  0.0246  0.0004  0.0386  0.0000  0.0000  0.0000  0.0000  0.0000  0.0000 </r>
       </set>
      </set>
     </set>
    </set>
   </array>
  </projected>
 </calculation>
 <structure name="finalpos" >
  <crystal>
   <varray name="basis" >
    <v>       5.43101000       0.00000000       0.00000000 </v>
    <v>       0.00000000       5.43101000       0.00000000 </v>
    <v>       0.00000000       0.00000000       8.79101000 </v>
   </varray>
   <i name="volume">    259.29848479 </i>
   <varray name="rec_basis" >
    <v>       0.18412781       0.00000000       0.00000000 </v>
    <v>       0.00000000       0.18412781       0.00000000 </v>
    <v>       0.00000000       0.00000000       0.11375257 </v>
   </varray>
  </crystal>
  <varray name="positions" >
   <v>       0.00000000       0.00000000       0.00000000 </v>
   <v>       0.49999908       0.49999908       0.00000000 </v>
   <v>       0.24999954       0.24999954       0.15444755 </v>
   <v>       0.75000046       0.75000046       0.15444755 </v>
   <v>       0.00000000       0.49999908       0.30889511 </v>
   <v>       0.49999908       0.00000000       0.30889511 </v>
   <v>       0.24999954       0.75000046       0.46334380 </v>
   <v>       0.75000046       0.24999954       0.46334380 </v>
   <v>       0.00000000       0.00000000       0.61779136 </v>
   <v>       0.49999908       0.49999908       0.61779136 </v>
  </varray>
 </structure>
</modeling>
