unknown system                          
           1
     5.431010    0.000000    0.000000
     0.000000    5.431010    0.000000
     0.000000    0.000000    8.791010
   Si
  10
Direct configuration=     1
   0.00000000  0.00000000  0.00000000
   0.49999908  0.49999908  0.00000000
   0.24999954  0.24999954  0.15444755
   0.75000046  0.75000046  0.15444755
   0.00000000  0.49999908  0.30889511
   0.49999908  0.00000000  0.30889511
   0.24999954  0.75000046  0.46334380
   0.75000046  0.24999954  0.46334380
   0.00000000  0.00000000  0.61779136
   0.49999908  0.49999908  0.61779136
