  20  20   0   0
  0.1699045E+02  0.3946846E-09  0.3946846E-09  0.2181396E-08  0.5000000E-15
  1.000000000000000E-004
  CAR 
 unknown system                          
     10.23270430    -35.20886716  301      1.06865405      1.00000000
    -35.209  0.0000E+00  0.0000E+00
    -35.057  0.0000E+00  0.0000E+00
    -34.906  0.0000E+00  0.0000E+00
    -34.754  0.0000E+00  0.0000E+00
    -34.603  0.0000E+00  0.0000E+00
    -34.452  0.0000E+00  0.0000E+00
    -34.300  0.0000E+00  0.0000E+00
    -34.149  0.0000E+00  0.0000E+00
    -33.997  0.0000E+00  0.0000E+00
    -33.846  0.0000E+00  0.0000E+00
    -33.694  0.0000E+00  0.0000E+00
    -33.543  0.0000E+00  0.0000E+00
    -33.391  0.0000E+00  0.0000E+00
    -33.240  0.0000E+00  0.0000E+00
    -33.088  0.0000E+00  0.2000E+01
    -32.937  0.0000E+00  0.2000E+01
    -32.785  0.0000E+00  0.2000E+01
    -32.634  0.0000E+00  0.2000E+01
    -32.482  0.0000E+00  0.2000E+01
    -32.331  0.0000E+00  0.2000E+01
    -32.179  0.0000E+00  0.6000E+01
    -32.028  0.0000E+00  0.8000E+01
    -31.876  0.0000E+00  0.8000E+01
    -31.725  0.0000E+00  0.8000E+01
    -31.574  0.0000E+00  0.8000E+01
    -31.422  0.0000E+00  0.8000E+01
    -31.271  0.0000E+00  0.8000E+01
    -31.119  0.0000E+00  0.8000E+01
    -30.968  0.0000E+00  0.8000E+01
    -30.816  0.0000E+00  0.8000E+01
    -30.665  0.0000E+00  0.8000E+01
    -30.513  0.0000E+00  0.8000E+01
    -30.362  0.0000E+00  0.8000E+01
    -30.210  0.0000E+00  0.8000E+01
    -30.059  0.0000E+00  0.8000E+01
    -29.907  0.0000E+00  0.8000E+01
    -29.756  0.0000E+00  0.8000E+01
    -29.604  0.0000E+00  0.8000E+01
    -29.453  0.0000E+00  0.8000E+01
    -29.301  0.0000E+00  0.8000E+01
    -29.150  0.0000E+00  0.8000E+01
    -28.999  0.0000E+00  0.8000E+01
    -28.847  0.0000E+00  0.8000E+01
    -28.696  0.0000E+00  0.8000E+01
    -28.544  0.0000E+00  0.8000E+01
    -28.393  0.0000E+00  0.8000E+01
    -28.241  0.0000E+00  0.8000E+01
    -28.090  0.0000E+00  0.8000E+01
    -27.938  0.0000E+00  0.8000E+01
    -27.787  0.0000E+00  0.8000E+01
    -27.635  0.0000E+00  0.8000E+01
    -27.484  0.0000E+00  0.8000E+01
    -27.332  0.0000E+00  0.8000E+01
    -27.181  0.0000E+00  0.8000E+01
    -27.029  0.0000E+00  0.8000E+01
    -26.878  0.0000E+00  0.8000E+01
    -26.726  0.0000E+00  0.8000E+01
    -26.575  0.0000E+00  0.8000E+01
    -26.423  0.0000E+00  0.8000E+01
    -26.272  0.0000E+00  0.8000E+01
    -26.121  0.0000E+00  0.8000E+01
    -25.969  0.0000E+00  0.8000E+01
    -25.818  0.0000E+00  0.8000E+01
    -25.666  0.0000E+00  0.8000E+01
    -25.515  0.0000E+00  0.8000E+01
    -25.363  0.0000E+00  0.8000E+01
    -25.212  0.0000E+00  0.8000E+01
    -25.060  0.0000E+00  0.8000E+01
    -24.909  0.0000E+00  0.8000E+01
    -24.757  0.0000E+00  0.8000E+01
    -24.606  0.0000E+00  0.8000E+01
    -24.454  0.0000E+00  0.8000E+01
    -24.303  0.0000E+00  0.8000E+01
    -24.151  0.0000E+00  0.8000E+01
    -24.000  0.0000E+00  0.8000E+01
    -23.848  0.0000E+00  0.8000E+01
    -23.697  0.0000E+00  0.8000E+01
    -23.546  0.0000E+00  0.8000E+01
    -23.394  0.0000E+00  0.8000E+01
    -23.243  0.0000E+00  0.8000E+01
    -23.091  0.0000E+00  0.8000E+01
    -22.940  0.0000E+00  0.8000E+01
    -22.788  0.0000E+00  0.8000E+01
    -22.637  0.0000E+00  0.8000E+01
    -22.485  0.0000E+00  0.8000E+01
    -22.334  0.0000E+00  0.8000E+01
    -22.182  0.0000E+00  0.8000E+01
    -22.031  0.0000E+00  0.8000E+01
    -21.879  0.0000E+00  0.8000E+01
    -21.728  0.0000E+00  0.8000E+01
    -21.576  0.0000E+00  0.8000E+01
    -21.425  0.0000E+00  0.8000E+01
    -21.273  0.0000E+00  0.8000E+01
    -21.122  0.0000E+00  0.8000E+01
    -20.971  0.0000E+00  0.8000E+01
    -20.819  0.0000E+00  0.8000E+01
    -20.668  0.0000E+00  0.8000E+01
    -20.516  0.0000E+00  0.8000E+01
    -20.365  0.0000E+00  0.8000E+01
    -20.213  0.0000E+00  0.8000E+01
    -20.062  0.0000E+00  0.8000E+01
    -19.910  0.0000E+00  0.8000E+01
    -19.759  0.0000E+00  0.8000E+01
    -19.607  0.0000E+00  0.8000E+01
    -19.456  0.0000E+00  0.8000E+01
    -19.304  0.0000E+00  0.8000E+01
    -19.153  0.0000E+00  0.8000E+01
    -19.001  0.0000E+00  0.8000E+01
    -18.850  0.0000E+00  0.8000E+01
    -18.698  0.0000E+00  0.8000E+01
    -18.547  0.0000E+00  0.8000E+01
    -18.395  0.0000E+00  0.8000E+01
    -18.244  0.0000E+00  0.8000E+01
    -18.093  0.0000E+00  0.8000E+01
    -17.941  0.0000E+00  0.8000E+01
    -17.790  0.0000E+00  0.8000E+01
    -17.638  0.0000E+00  0.8000E+01
    -17.487  0.0000E+00  0.8000E+01
    -17.335  0.0000E+00  0.8000E+01
    -17.184  0.0000E+00  0.8000E+01
    -17.032  0.0000E+00  0.8000E+01
    -16.881  0.1118E+02  0.8750E+01
    -16.729  0.5899E+01  0.9674E+01
    -16.578  0.7529E+01  0.1131E+02
    -16.426  0.1824E+02  0.1266E+02
    -16.275  0.6998E+01  0.1421E+02
    -16.123  0.4691E+01  0.1532E+02
    -15.972  0.3316E+02  0.1698E+02
    -15.820  0.3053E+02  0.2139E+02
    -15.669  0.2585E+02  0.2601E+02
    -15.518  0.3076E+01  0.2763E+02
    -15.366  0.4685E+02  0.3116E+02
    -15.215  0.5166E+00  0.3197E+02
    -15.063  0.1538E+02  0.3342E+02
    -14.912  0.0000E+00  0.3600E+02
    -14.760  0.1296E+00  0.3600E+02
    -14.609  0.1359E+01  0.3612E+02
    -14.457  0.3060E+01  0.3645E+02
    -14.306  0.3906E+02  0.3956E+02
    -14.154  0.3782E+02  0.4500E+02
    -14.003  0.3833E+02  0.5055E+02
    -13.851  0.2029E+02  0.5491E+02
    -13.700  0.0000E+00  0.5600E+02
    -13.548  0.0000E+00  0.5600E+02
    -13.397  0.0000E+00  0.5600E+02
    -13.245  0.0000E+00  0.5600E+02
    -13.094  0.0000E+00  0.5600E+02
    -12.942  0.0000E+00  0.5600E+02
    -12.791  0.0000E+00  0.5600E+02
    -12.640  0.0000E+00  0.5600E+02
    -12.488  0.0000E+00  0.5600E+02
    -12.337  0.0000E+00  0.5600E+02
    -12.185  0.0000E+00  0.5600E+02
    -12.034  0.0000E+00  0.5600E+02
    -11.882  0.0000E+00  0.5600E+02
    -11.731  0.0000E+00  0.5600E+02
    -11.579  0.0000E+00  0.5600E+02
    -11.428  0.0000E+00  0.5600E+02
    -11.276  0.0000E+00  0.5600E+02
    -11.125  0.0000E+00  0.5600E+02
    -10.973  0.0000E+00  0.5600E+02
    -10.822  0.0000E+00  0.5600E+02
    -10.670  0.0000E+00  0.5600E+02
    -10.519  0.0000E+00  0.5600E+02
    -10.367  0.0000E+00  0.5600E+02
    -10.216  0.0000E+00  0.5600E+02
    -10.065  0.0000E+00  0.5600E+02
     -9.913  0.0000E+00  0.5600E+02
     -9.762  0.0000E+00  0.5600E+02
     -9.610  0.0000E+00  0.5600E+02
     -9.459  0.0000E+00  0.5600E+02
     -9.307  0.0000E+00  0.5600E+02
     -9.156  0.0000E+00  0.5600E+02
     -9.004  0.0000E+00  0.5600E+02
     -8.853  0.0000E+00  0.5600E+02
     -8.701  0.0000E+00  0.5600E+02
     -8.550  0.0000E+00  0.5600E+02
     -8.398  0.0000E+00  0.5600E+02
     -8.247  0.0000E+00  0.5600E+02
     -8.095  0.0000E+00  0.5600E+02
     -7.944  0.0000E+00  0.5600E+02
     -7.792  0.0000E+00  0.5600E+02
     -7.641  0.0000E+00  0.5600E+02
     -7.490  0.0000E+00  0.5600E+02
     -7.338  0.0000E+00  0.5600E+02
     -7.187  0.0000E+00  0.5600E+02
     -7.035  0.0000E+00  0.5600E+02
     -6.884  0.0000E+00  0.5600E+02
     -6.732  0.0000E+00  0.5600E+02
     -6.581  0.0000E+00  0.5600E+02
     -6.429  0.0000E+00  0.5600E+02
     -6.278  0.0000E+00  0.5600E+02
     -6.126  0.0000E+00  0.5600E+02
     -5.975  0.0000E+00  0.5600E+02
     -5.823  0.0000E+00  0.5600E+02
     -5.672  0.0000E+00  0.5600E+02
     -5.520  0.0000E+00  0.5600E+02
     -5.369  0.0000E+00  0.5600E+02
     -5.217  0.0000E+00  0.5600E+02
     -5.066  0.0000E+00  0.5600E+02
     -4.914  0.0000E+00  0.5600E+02
     -4.763  0.0000E+00  0.5600E+02
     -4.612  0.0000E+00  0.5600E+02
     -4.460  0.0000E+00  0.5600E+02
     -4.309  0.0000E+00  0.5600E+02
     -4.157  0.0000E+00  0.5600E+02
     -4.006  0.0000E+00  0.5600E+02
     -3.854  0.2463E+01  0.5624E+02
     -3.703  0.9088E+01  0.5754E+02
     -3.551  0.1018E+02  0.5984E+02
     -3.400  0.1930E+02  0.6233E+02
     -3.248  0.1627E+02  0.6490E+02
     -3.097  0.1452E+02  0.6716E+02
     -2.945  0.1523E+02  0.6963E+02
     -2.794  0.1889E+02  0.7208E+02
     -2.642  0.2108E+02  0.7545E+02
     -2.491  0.2340E+02  0.7872E+02
     -2.339  0.2145E+02  0.8246E+02
     -2.188  0.1850E+02  0.8557E+02
     -2.037  0.1554E+02  0.8825E+02
     -1.885  0.1201E+02  0.9050E+02
     -1.734  0.1284E+02  0.9235E+02
     -1.582  0.1363E+02  0.9430E+02
     -1.431  0.1171E+02  0.9626E+02
     -1.279  0.1370E+02  0.9821E+02
     -1.128  0.7314E+01  0.9958E+02
     -0.976  0.1250E+02  0.1013E+03
     -0.825  0.1746E+02  0.1033E+03
     -0.673  0.1919E+02  0.1063E+03
     -0.522  0.1758E+02  0.1098E+03
     -0.370  0.2398E+02  0.1130E+03
     -0.219  0.1560E+02  0.1168E+03
     -0.067  0.1973E+02  0.1186E+03
      0.084  0.2357E+02  0.1217E+03
      0.236  0.1410E+02  0.1245E+03
      0.387  0.7767E+01  0.1261E+03
      0.539  0.4293E+01  0.1273E+03
      0.690  0.1551E+01  0.1277E+03
      0.841  0.8196E+00  0.1278E+03
      0.993  0.5499E+00  0.1279E+03
      1.144  0.0000E+00  0.1280E+03
      1.296  0.0000E+00  0.1280E+03
      1.447  0.0000E+00  0.1280E+03
      1.599  0.0000E+00  0.1280E+03
      1.750  0.0000E+00  0.1280E+03
      1.902  0.0000E+00  0.1280E+03
      2.053  0.0000E+00  0.1280E+03
      2.205  0.9062E+00  0.1281E+03
      2.356  0.3617E+01  0.1285E+03
      2.508  0.4080E+01  0.1291E+03
      2.659  0.3598E+01  0.1297E+03
      2.811  0.4404E+01  0.1303E+03
      2.962  0.8023E+01  0.1313E+03
      3.114  0.6960E+01  0.1325E+03
      3.265  0.8667E+01  0.1337E+03
      3.416  0.9280E+01  0.1350E+03
      3.568  0.1110E+02  0.1367E+03
      3.719  0.1404E+02  0.1385E+03
      3.871  0.1395E+02  0.1412E+03
      4.022  0.2661E+02  0.1436E+03
      4.174  0.1434E+02  0.1459E+03
      4.325  0.8189E+01  0.1476E+03
      4.477  0.4177E+01  0.1486E+03
      4.628  0.9678E+00  0.1489E+03
      4.780  0.4740E+00  0.1490E+03
      4.931  0.4744E+00  0.1491E+03
      5.083  0.4749E+00  0.1491E+03
      5.234  0.4753E+00  0.1492E+03
      5.386  0.4758E+00  0.1493E+03
      5.537  0.4762E+00  0.1494E+03
      5.689  0.4767E+00  0.1494E+03
      5.840  0.4771E+00  0.1495E+03
      5.991  0.4775E+00  0.1496E+03
      6.143  0.9389E+00  0.1497E+03
      6.294  0.9599E+00  0.1498E+03
      6.446  0.9809E+00  0.1500E+03
      6.597  0.8487E+00  0.1501E+03
      6.749  0.7750E+00  0.1503E+03
      6.900  0.7834E+00  0.1504E+03
      7.052  0.8008E+00  0.1505E+03
      7.203  0.8183E+00  0.1506E+03
      7.355  0.8564E+00  0.1507E+03
      7.506  0.9178E+00  0.1509E+03
      7.658  0.8327E+00  0.1510E+03
      7.809  0.1239E+01  0.1513E+03
      7.961  0.1370E+01  0.1515E+03
      8.112  0.2574E+01  0.1519E+03
      8.264  0.0000E+00  0.1520E+03
      8.415  0.0000E+00  0.1520E+03
      8.567  0.0000E+00  0.1520E+03
      8.718  0.0000E+00  0.1520E+03
      8.869  0.0000E+00  0.1520E+03
      9.021  0.0000E+00  0.1520E+03
      9.172  0.0000E+00  0.1520E+03
      9.324  0.0000E+00  0.1520E+03
      9.475  0.0000E+00  0.1520E+03
      9.627  0.0000E+00  0.1520E+03
      9.778  0.0000E+00  0.1520E+03
      9.930  0.0000E+00  0.1520E+03
     10.081  0.0000E+00  0.1520E+03
     10.233  0.0000E+00  0.1520E+03
