 vasp.5.4.4.18Apr17-6-g9f103f2a35 (build Jun 30 2017 11:15:00) complex          
  
 executed on    STALLO_VASP_5.4.4 date 2019.11.08  10:20:03
 running on    4 total cores
 distrk:  each k-point on    4 cores,    1 groups
 distr:  one band on NCORES_PER_BAND=   2 cores,    2 groups


--------------------------------------------------------------------------------------------------------


 INCAR:
 POTCAR:   PAW_PBE O 08Apr2002                    
 POTCAR:   PAW_PBE Sr_sv 07Sep2000                
 POTCAR:   PAW_PBE Ti 08Apr2002                   
 POTCAR:   PAW_PBE O 08Apr2002                    
   VRHFIN =O: s2p4                                                              
   LEXCH  = PE                                                                  
   EATOM  =   432.3788 eV,   31.7789 Ry                                         
                                                                                
   TITEL  = PAW_PBE O 08Apr2002                                                 
   LULTRA =        F    use ultrasoft PP ?                                      
   IUNSCR =        0    unscreen: 0-lin 1-nonlin 2-no                           
   RPACOR =     .000    partial core radius                                     
   POMASS =   16.000; ZVAL   =    6.000    mass and valenz                      
   RCORE  =    1.520    outmost cutoff radius                                   
   RWIGS  =    1.550; RWIGS  =     .820    wigner-seitz radius (au A)           
   ENMAX  =  400.000; ENMIN  =  300.000 eV                                      
   ICORE  =        2    local potential                                         
   LCOR   =        T    correct aug charges                                     
   LPAW   =        T    paw PP                                                  
   EAUG   =  605.392                                                            
   DEXC   =     .000                                                            
   RMAX   =    2.264    core radius for proj-oper                               
   RAUG   =    1.300    factor for augmentation sphere                          
   RDEP   =    1.550    radius for radial grids                                 
   QCUT   =   -5.520; QGAM   =   11.041    optimization parameters              
                                                                                
   Description                                                                  
     l     E      TYP  RCUT    TYP  RCUT                                        
     0   .000     23  1.200                                                     
     0  -.700     23  1.200                                                     
     1   .000     23  1.520                                                     
     1   .600     23  1.520                                                     
     2   .000      7  1.500                                                     
  local pseudopotential read in
  atomic valenz-charges read in
  non local Contribution for L=           0  read in
    real space projection operators read in
  non local Contribution for L=           0  read in
    real space projection operators read in
  non local Contribution for L=           1  read in
    real space projection operators read in
  non local Contribution for L=           1  read in
    real space projection operators read in
    PAW grid and wavefunctions read in
 
   number of l-projection  operators is LMAX  =           4
   number of lm-projection operators is LMMAX =           8
 
 POTCAR:   PAW_PBE Sr_sv 07Sep2000                
   VRHFIN =Sr: 4s4p5s                                                           
   LEXCH  = PE                                                                  
   EATOM  =   842.4562 eV,   61.9188 Ry                                         
                                                                                
   TITEL  = PAW_PBE Sr_sv 07Sep2000                                             
   LULTRA =        F    use ultrasoft PP ?                                      
   IUNSCR =        1    unscreen: 0-lin 1-nonlin 2-no                           
   RPACOR =    2.200    partial core radius                                     
   POMASS =   87.620; ZVAL   =   10.000    mass and valenz                      
   RCORE  =    2.500    outmost cutoff radius                                   
   RWIGS  =    4.040; RWIGS  =    2.138    wigner-seitz radius (au A)           
   ENMAX  =  229.282; ENMIN  =  171.961 eV                                      
   RCLOC  =    2.201    cutoff for local pot                                    
   LCOR   =        T    correct aug charges                                     
   LPAW   =        T    paw PP                                                  
   EAUG   =  366.804                                                            
   DEXC   =     .000                                                            
   RMAX   =    3.045    core radius for proj-oper                               
   RAUG   =    1.300    factor for augmentation sphere                          
   RDEP   =    2.562    radius for radial grids                                 
   QCUT   =   -4.105; QGAM   =    8.210    optimization parameters              
                                                                                
   Description                                                                  
     l     E      TYP  RCUT    TYP  RCUT                                        
     0   .000     23  2.480                                                     
     0   .000     23  2.480                                                     
     1   .000     23  2.500                                                     
     1   .000     23  2.500                                                     
     2   .000     23  2.500                                                     
     2   .000     23  2.500                                                     
  local pseudopotential read in
  partial core-charges read in
  atomic valenz-charges read in
  non local Contribution for L=           0  read in
    real space projection operators read in
  non local Contribution for L=           0  read in
    real space projection operators read in
  non local Contribution for L=           1  read in
    real space projection operators read in
  non local Contribution for L=           1  read in
    real space projection operators read in
  non local Contribution for L=           2  read in
    real space projection operators read in
  non local Contribution for L=           2  read in
    real space projection operators read in
    PAW grid and wavefunctions read in
 
   number of l-projection  operators is LMAX  =           6
   number of lm-projection operators is LMMAX =          18
 
 POTCAR:   PAW_PBE Ti 08Apr2002                   
   VRHFIN =Ti: d3 s1                                                            
   LEXCH  = PE                                                                  
   EATOM  =    94.7929 eV,    6.9671 Ry                                         
                                                                                
   TITEL  = PAW_PBE Ti 08Apr2002                                                
   LULTRA =        F    use ultrasoft PP ?                                      
   IUNSCR =        1    unscreen: 0-lin 1-nonlin 2-no                           
   RPACOR =    2.200    partial core radius                                     
   POMASS =   47.880; ZVAL   =    4.000    mass and valenz                      
   RCORE  =    2.800    outmost cutoff radius                                   
   RWIGS  =    2.500; RWIGS  =    1.323    wigner-seitz radius (au A)           
   ENMAX  =  178.330; ENMIN  =  133.747 eV                                      
   RCLOC  =    2.215    cutoff for local pot                                    
   LCOR   =        T    correct aug charges                                     
   LPAW   =        T    paw PP                                                  
   EAUG   =  328.883                                                            
   DEXC   =    -.043                                                            
   RMAX   =    3.453    core radius for proj-oper                               
   RAUG   =    1.300    factor for augmentation sphere                          
   RDEP   =    2.885    radius for radial grids                                 
   QCUT   =   -3.620; QGAM   =    7.241    optimization parameters              
                                                                                
   Description                                                                  
     l     E      TYP  RCUT    TYP  RCUT                                        
     2   .000     23  2.800                                                     
     2   .000     23  2.800                                                     
     0   .000     23  2.800                                                     
     0  1.500     23  2.800                                                     
     1  -.400     23  2.800                                                     
     3   .000      7   .000                                                     
  local pseudopotential read in
  partial core-charges read in
  atomic valenz-charges read in
  non local Contribution for L=           2  read in
    real space projection operators read in
  non local Contribution for L=           2  read in
    real space projection operators read in
  non local Contribution for L=           0  read in
    real space projection operators read in
  non local Contribution for L=           0  read in
    real space projection operators read in
  non local Contribution for L=           1  read in
    real space projection operators read in
    PAW grid and wavefunctions read in
 
   number of l-projection  operators is LMAX  =           5
   number of lm-projection operators is LMMAX =          15
 

 ----------------------------------------------------------------------------- 
|                                                                             |
|  ADVICE TO THIS USER RUNNING 'VASP/VAMP'   (HEAR YOUR MASTER'S VOICE ...):  |
|                                                                             |
|      You have a (more or less) 'large supercell' and for larger cells       |
|      it might be more efficient to use real space projection operators      |
|      So try LREAL= Auto  in the INCAR   file.                               |
|      Mind: If you want to do a very accurate calculations keep the          |
|      reciprocal projection scheme          (i.e. LREAL=.FALSE.)             |
|                                                                             |
 ----------------------------------------------------------------------------- 

 PAW_PBE O 08Apr2002                    :
 energy of atom  1       EATOM= -432.3788
 kinetic energy error for atom=    0.0224 (will be added to EATOM!!)
 PAW_PBE Sr_sv 07Sep2000                :
 energy of atom  2       EATOM= -842.4562
 kinetic energy error for atom=    0.0012 (will be added to EATOM!!)
 PAW_PBE Ti 08Apr2002                   :
 energy of atom  3       EATOM=  -94.7929
 kinetic energy error for atom=    0.0002 (will be added to EATOM!!)
 
 
 POSCAR:  O Sr Ti                                
  positions in direct lattice
  No initial velocities read in
 exchange correlation table for  LEXCH =        8
   RHO(1)=    0.500       N(1)  =     2000
   RHO(2)=  100.500       N(2)  =     4000
 


--------------------------------------------------------------------------------------------------------


 ion  position               nearest neighbor table
   1  0.500  0.500  0.183-  17 1.97  13 2.79  13 2.79  13 2.79  13 2.79
   2  0.500  0.000  0.274-  17 1.97  17 1.97  13 2.79  13 2.79  14 2.79  14 2.79
   3  0.000  0.500  0.274-  17 1.97  17 1.97  13 2.79  13 2.79  14 2.79  14 2.79
   4  0.500  0.500  0.364-  17 1.97  18 1.97  14 2.79  14 2.79  14 2.79  14 2.79
   5  0.500  0.000  0.455-  18 1.97  18 1.97  15 2.79  15 2.79  14 2.79  14 2.79
   6  0.000  0.500  0.455-  18 1.97  18 1.97  15 2.79  15 2.79  14 2.79  14 2.79
   7  0.500  0.500  0.545-  18 1.97  19 1.97  15 2.79  15 2.79  15 2.79  15 2.79
   8  0.500  0.000  0.636-  19 1.97  19 1.97  15 2.79  16 2.79  15 2.79  16 2.79
   9  0.000  0.500  0.636-  19 1.97  19 1.97  15 2.79  15 2.79  16 2.79  16 2.79
  10  0.500  0.500  0.726-  20 1.97  19 1.97  16 2.79  16 2.79  16 2.79  16 2.79
  11  0.500  0.000  0.817-  20 1.97  20 1.97  16 2.79  16 2.79
  12  0.000  0.500  0.817-  20 1.97  20 1.97  16 2.79  16 2.79
  13  0.000  0.000  0.183-   2 2.79   3 2.79   3 2.79   2 2.79   1 2.79   1 2.79   1 2.79   1 2.79
                            17 3.42  17 3.42  17 3.42  17 3.42  14 3.95
  14  0.000  0.000  0.364-   4 2.79   4 2.79   4 2.79   4 2.79   6 2.79   3 2.79   3 2.79   6 2.79
                             2 2.79   2 2.79   5 2.79   5 2.79  18 3.42  17 3.42  17 3.42  17 3.42
  15  0.000  0.000  0.545-   5 2.79   6 2.79   6 2.79   5 2.79   7 2.79   7 2.79   7 2.79   7 2.79
                             8 2.79   9 2.79   8 2.79   9 2.79  18 3.42  18 3.42  18 3.42  18 3.42
  16  0.000  0.000  0.726-  11 2.79  12 2.79  12 2.79  11 2.79  10 2.79  10 2.79  10 2.79  10 2.79
                             8 2.79   9 2.79   9 2.79   8 2.79  20 3.42  20 3.42  20 3.42  20 3.42
  17  0.500  0.500  0.274-   1 1.97   2 1.97   3 1.97   2 1.97   3 1.97   4 1.97  13 3.42  13 3.42
                            13 3.42  13 3.42  14 3.42  14 3.42  14 3.42  14 3.42
  18  0.500  0.500  0.455-   7 1.97   6 1.97   5 1.97   5 1.97   6 1.97   4 1.97  15 3.42  15 3.42
                            15 3.42  15 3.42  14 3.42  14 3.42  14 3.42  14 3.42
  19  0.500  0.500  0.636-   8 1.97   9 1.97   8 1.97   9 1.97   7 1.97  10 1.97  15 3.42  15 3.42
                            16 3.42  16 3.42  15 3.42  16 3.42  15 3.42  16 3.42
  20  0.500  0.500  0.817-  10 1.97  11 1.97  12 1.97  11 1.97  12 1.97  16 3.42  16 3.42  16 3.42
                            16 3.42
 
  LATTYP: Found a simple tetragonal cell.
 ALAT       =     3.9468463416
 C/A-ratio  =     5.5269347493
  
  Lattice vectors:
  
 A1 = (   3.9468463416,   0.0000000000,   0.0000000000)
 A2 = (   0.0000000000,   3.9468463416,   0.0000000000)
 A3 = (   0.0000000000,   0.0000000000,  21.8139621957)


Analysis of symmetry for initial positions (statically):
=====================================================================
 Subroutine PRICEL returns:
 Original cell was already a primitive cell.
 

 Routine SETGRP: Setting up the symmetry group for a 
 simple tetragonal supercell.


 Subroutine GETGRP returns: Found  8 space group operations
 (whereof  8 operations were pure point group operations)
 out of a pool of 16 trial point group operations.


The static configuration has the point symmetry C_4v.


Analysis of symmetry for dynamics (positions and initial velocities):
=====================================================================
 Subroutine PRICEL returns:
 Original cell was already a primitive cell.
 

 Routine SETGRP: Setting up the symmetry group for a 
 simple tetragonal supercell.


 Subroutine GETGRP returns: Found  8 space group operations
 (whereof  8 operations were pure point group operations)
 out of a pool of 16 trial point group operations.


The dynamic configuration has the point symmetry C_4v.


 Subroutine INISYM returns: Found  8 space group operations
 (whereof  8 operations are pure point group operations),
 and found     1 'primitive' translations

 
 
 KPOINTS: k-density: 4.0                          

Automatic generation of k-mesh.
Space group operators:
 irot       det(A)        alpha          n_x          n_y          n_z        tau_x        tau_y        tau_z
    1     1.000000     0.000000     1.000000     0.000000     0.000000     0.000000     0.000000     0.000000
    2     1.000000    90.000000     0.000000     0.000000    -1.000000     0.000000     0.000000     0.000000
    3     1.000000   180.000000     0.000000     0.000000     1.000000     0.000000     0.000000     0.000000
    4     1.000000    90.000000     0.000000     0.000000     1.000000     0.000000     0.000000     0.000000
    5    -1.000000   180.000000     0.000000     1.000000     0.000000     0.000000     0.000000     0.000000
    6    -1.000000   180.000000     0.707107     0.707107     0.000000     0.000000     0.000000     0.000000
    7    -1.000000   180.000000     1.000000     0.000000     0.000000     0.000000     0.000000     0.000000
    8    -1.000000   180.000000     0.707107    -0.707107     0.000000     0.000000     0.000000     0.000000
 
 Subroutine IBZKPT returns following result:
 ===========================================
 
 Found     10 irreducible k-points:
 
 Following reciprocal coordinates:
            Coordinates               Weight
  0.000000  0.000000  0.000000      1.000000
  0.142857  0.000000  0.000000      4.000000
  0.285714  0.000000  0.000000      4.000000
  0.428571  0.000000  0.000000      4.000000
  0.142857  0.142857  0.000000      4.000000
  0.285714  0.142857  0.000000      8.000000
  0.428571  0.142857  0.000000      8.000000
  0.285714  0.285714  0.000000      4.000000
  0.428571  0.285714  0.000000      8.000000
  0.428571  0.428571  0.000000      4.000000
 
 Following cartesian coordinates:
            Coordinates               Weight
  0.000000  0.000000  0.000000      1.000000
  0.036195  0.000000  0.000000      4.000000
  0.072391  0.000000  0.000000      4.000000
  0.108586  0.000000  0.000000      4.000000
  0.036195  0.036195  0.000000      4.000000
  0.072391  0.036195  0.000000      8.000000
  0.108586  0.036195  0.000000      8.000000
  0.072391  0.072391  0.000000      4.000000
  0.108586  0.072391  0.000000      8.000000
  0.108586  0.108586  0.000000      4.000000
 
 TETIRR: Found     65 inequivalent tetrahedra from      294


--------------------------------------------------------------------------------------------------------




 Dimension of arrays:
   k-points           NKPTS =     10   k-points in BZ     NKDIM =     10   number of bands    NBANDS=     76
   number of dos      NEDOS =    301   number of ions     NIONS =     20
   non local maximal  LDIM  =      6   non local SUM 2l+1 LMDIM =     18
   total plane-waves  NPLWV =  69120
   max r-space proj   IRMAX =      1   max aug-charges    IRDMAX=  14246
   dimension x,y,z NGX =    24 NGY =   24 NGZ =  120
   dimension x,y,z NGXF=    48 NGYF=   48 NGZF=  240
   support grid    NGXF=    48 NGYF=   48 NGZF=  240
   ions per type =              12   4   4
   NGX,Y,Z   is equivalent  to a cutoff of  10.11, 10.11,  9.15 a.u.
   NGXF,Y,Z  is equivalent  to a cutoff of  20.22, 20.22, 18.29 a.u.

 SYSTEM =  unknown system                          
 POSCAR =   O Sr Ti                                

 Startparameter for this run:
   NWRITE =      2    write-flag & timer
   PREC   = normal    normal or accurate (medium, high low for compatibility)
   ISTART =      0    job   : 0-new  1-cont  2-samecut
   ICHARG =      2    charge: 1-file 2-atom 10-const
   ISPIN  =      1    spin polarized calculation?
   LNONCOLLINEAR =      F non collinear calculations
   LSORBIT =      F    spin-orbit coupling
   INIWAV =      1    electr: 0-lowe 1-rand  2-diag
   LASPH  =      F    aspherical Exc in radial PAW
   METAGGA=      F    non-selfconsistent MetaGGA calc.

 Electronic Relaxation 1
   ENCUT  =  500.0 eV  36.75 Ry    6.06 a.u.   7.20  7.20 39.77*2*pi/ulx,y,z
   ENINI  =  500.0     initial cutoff
   ENAUG  =  605.4 eV  augmentation charge cutoff
   NELM   =     60;   NELMIN=  4; NELMDL= -5     # of ELM steps 
   EDIFF  = 0.1E-04   stopping-criterion for ELM
   LREAL  =      F    real-space projection
   NLSPLINE    = F    spline interpolate recip. space projectors
   LCOMPAT=      F    compatible to vasp.4.4
   GGA_COMPAT  = T    GGA compatible to vasp.4.4-vasp.4.6
   LMAXPAW     = -100 max onsite density
   LMAXMIX     =    2 max onsite mixed and CHGCAR
   VOSKOWN=      0    Vosko Wilk Nusair interpolation
   ROPT   =    0.00000   0.00000   0.00000
 Ionic relaxation
   EDIFFG = 0.1E-03   stopping-criterion for IOM
   NSW    =      0    number of steps for IOM
   NBLOCK =      1;   KBLOCK =      1    inner block; outer block 
   IBRION =     -1    ionic relax: 0-MD 1-quasi-New 2-CG
   NFREE  =      0    steps in history (QN), initial steepest desc. (CG)
   ISIF   =      2    stress and relaxation
   IWAVPR =     10    prediction:  0-non 1-charg 2-wave 3-comb
   ISYM   =      2    0-nonsym 1-usesym 2-fastsym
   LCORR  =      T    Harris-Foulkes like correction to forces

   POTIM  = 0.5000    time-step for ionic-motion
   TEIN   =    0.0    initial temperature
   TEBEG  =    0.0;   TEEND  =   0.0 temperature during run
   SMASS  =  -3.00    Nose mass-parameter (am)
   estimated Nose-frequenzy (Omega)   =  0.10E-29 period in steps =****** mass=  -0.356E-27a.u.
   SCALEE = 1.0000    scale energy and forces
   NPACO  =    256;   APACO  = 16.0  distance and # of slots for P.C.
   PSTRESS=    0.0 pullay stress

  Mass of Ions in am
   POMASS =  16.00 87.62 47.88
  Ionic Valenz
   ZVAL   =   6.00 10.00  4.00
  Atomic Wigner-Seitz radii
   RWIGS  =  -1.00 -1.00 -1.00
  virtual crystal weights 
   VCA    =   1.00  1.00  1.00
   NELECT =     128.0000    total number of electrons
   NUPDOWN=      -1.0000    fix difference up-down

 DOS related values:
   EMIN   =  10.00;   EMAX   =-10.00  energy-range for DOS
   EFERMI =   0.00
   ISMEAR =    -5;   SIGMA  =   0.20  broadening in eV -4-tet -1-fermi 0-gaus

 Electronic relaxation 2 (details)
   IALGO  =     68    algorithm
   LDIAG  =      T    sub-space diagonalisation (order eigenvalues)
   LSUBROT=      F    optimize rotation matrix (better conditioning)
   TURBO    =      0    0=normal 1=particle mesh
   IRESTART =      0    0=no restart 2=restart with 2 vectors
   NREBOOT  =      0    no. of reboots
   NMIN     =      0    reboot dimension
   EREF     =   0.00    reference energy to select bands
   IMIX   =      4    mixing-type and parameters
     AMIX     =   0.40;   BMIX     =  1.00
     AMIX_MAG =   1.60;   BMIX_MAG =  1.00
     AMIN     =   0.10
     WC   =   100.;   INIMIX=   1;  MIXPRE=   1;  MAXMIX= -45

 Intra band minimization:
   WEIMIN = 0.0000     energy-eigenvalue tresh-hold
   EBREAK =  0.33E-07  absolut break condition
   DEPER  =   0.30     relativ break condition  

   TIME   =   0.40     timestep for ELM

  volume/ion in A,a.u.               =      16.99       114.66
  Fermi-wavevector in a.u.,A,eV,Ry     =   1.182315  2.234251 19.019155  1.397868
  Thomas-Fermi vector in A             =   2.318571
 
 Write flags
   LWAVE        =      F    write WAVECAR
   LDOWNSAMPLE  =      F    k-point downsampling of WAVECAR
   LCHARG       =      T    write CHGCAR
   LVTOT        =      F    write LOCPOT, total local potential
   LVHAR        =      F    write LOCPOT, Hartree potential only
   LELF         =      F    write electronic localiz. function (ELF)
   LORBIT       =      0    0 simple, 1 ext, 2 COOP (PROOUT), +10 PAW based schemes


 Dipole corrections
   LMONO  =      F    monopole corrections only (constant potential shift)
   LDIPOL =      F    correct potential (dipole corrections)
   IDIPOL =      0    1-x, 2-y, 3-z, 4-all directions 
   EPSILON=  1.0000000 bulk dielectric constant

 Exchange correlation treatment:
   GGA     =    --    GGA type
   LEXCH   =     8    internal setting for exchange type
   VOSKOWN=      0    Vosko Wilk Nusair interpolation
   LHFCALC =     F    Hartree Fock is set to
   LHFONE  =     F    Hartree Fock one center treatment
   AEXX    =    0.0000 exact exchange contribution

 Linear response parameters
   LEPSILON=     F    determine dielectric tensor
   LRPA    =     F    only Hartree local field effects (RPA)
   LNABLA  =     F    use nabla operator in PAW spheres
   LVEL    =     F    velocity operator in full k-point grid
   LINTERFAST=   F  fast interpolation
   KINTER  =     0    interpolate to denser k-point grid
   CSHIFT  =0.1000    complex shift for real part using Kramers Kronig
   OMEGAMAX=  -1.0    maximum frequency
   DEG_THRESHOLD= 0.2000000E-02 threshold for treating states as degnerate
   RTIME   =   -0.100 relaxation time in fs
  (WPLASMAI=    0.000 imaginary part of plasma frequency in eV, 0.658/RTIME)
   DFIELD  = 0.0000000 0.0000000 0.0000000 field for delta impulse in time
 
 Orbital magnetization related:
   ORBITALMAG=     F  switch on orbital magnetization
   LCHIMAG   =     F  perturbation theory with respect to B field
   DQ        =  0.001000  dq finite difference perturbation B field
   LLRAUG    =     F  two centre corrections for induced B field



--------------------------------------------------------------------------------------------------------


 Static calculation
 charge density and potential will be updated during run
 non-spin polarized calculation
 RMM-DIIS sequential band-by-band and
  variant of blocked Davidson during initial phase
 perform sub-space diagonalisation
    before iterative eigenvector-optimisation
 modified Broyden-mixing scheme, WC =      100.0
 initial mixing is a Kerker type mixing with AMIX =  0.4000 and BMIX =      1.0000
 Hartree-type preconditioning will be used
 using additional bands           12
 reciprocal scheme for non local part
 use partial core corrections
 calculate Harris-corrections to forces 
   (improved forces if not selfconsistent)
 use gradient corrections 
 use of overlap-Matrix (Vanderbilt PP)
 Fermi weights with tetrahedron method with Bloechl corrections


--------------------------------------------------------------------------------------------------------


  energy-cutoff  :      500.00
  volume of cell :      339.81
      direct lattice vectors                 reciprocal lattice vectors
     3.946846342  0.000000000  0.000000000     0.253366844  0.000000000  0.000000000
     0.000000000  3.946846342  0.000000000     0.000000000  0.253366844  0.000000000
     0.000000000  0.000000000 21.813962196     0.000000000  0.000000000  0.045842199

  length of vectors
     3.946846342  3.946846342 21.813962196     0.253366844  0.253366844  0.045842199


 
 k-points in units of 2pi/SCALE and weight: k-density: 4.0                          
   0.00000000  0.00000000  0.00000000       0.020
   0.03619526  0.00000000  0.00000000       0.082
   0.07239053  0.00000000  0.00000000       0.082
   0.10858579  0.00000000  0.00000000       0.082
   0.03619526  0.03619526  0.00000000       0.082
   0.07239053  0.03619526  0.00000000       0.163
   0.10858579  0.03619526  0.00000000       0.163
   0.07239053  0.07239053  0.00000000       0.082
   0.10858579  0.07239053  0.00000000       0.163
   0.10858579  0.10858579  0.00000000       0.082
 
 k-points in reciprocal lattice and weights: k-density: 4.0                          
   0.00000000  0.00000000  0.00000000       0.020
   0.14285714  0.00000000  0.00000000       0.082
   0.28571429  0.00000000  0.00000000       0.082
   0.42857143  0.00000000  0.00000000       0.082
   0.14285714  0.14285714  0.00000000       0.082
   0.28571429  0.14285714  0.00000000       0.163
   0.42857143  0.14285714  0.00000000       0.163
   0.28571429  0.28571429  0.00000000       0.082
   0.42857143  0.28571429  0.00000000       0.163
   0.42857143  0.42857143  0.00000000       0.082
 
 position of ions in fractional coordinates (direct lattice) 
   0.50000000  0.50000000  0.18336880
   0.50000000  0.00000000  0.27383485
   0.00000000  0.50000000  0.27383485
   0.50000000  0.50000000  0.36430091
   0.50000000  0.00000000  0.45476697
   0.00000000  0.50000000  0.45476697
   0.50000000  0.50000000  0.54523303
   0.50000000  0.00000000  0.63569909
   0.00000000  0.50000000  0.63569909
   0.50000000  0.50000000  0.72616515
   0.50000000  0.00000000  0.81663120
   0.00000000  0.50000000  0.81663120
   0.00000000  0.00000000  0.18336880
   0.00000000  0.00000000  0.36430091
   0.00000000  0.00000000  0.54523303
   0.00000000  0.00000000  0.72616515
   0.50000000  0.50000000  0.27383485
   0.50000000  0.50000000  0.45476697
   0.50000000  0.50000000  0.63569909
   0.50000000  0.50000000  0.81663120
 
 position of ions in cartesian coordinates  (Angst):
   1.97342317  1.97342317  4.00000000
   1.97342317  0.00000000  5.97342317
   0.00000000  1.97342317  5.97342317
   1.97342317  1.97342317  7.94684634
   1.97342317  0.00000000  9.92026951
   0.00000000  1.97342317  9.92026951
   1.97342317  1.97342317 11.89369268
   1.97342317  0.00000000 13.86711585
   0.00000000  1.97342317 13.86711585
   1.97342317  1.97342317 15.84053902
   1.97342317  0.00000000 17.81396220
   0.00000000  1.97342317 17.81396220
   0.00000000  0.00000000  4.00000000
   0.00000000  0.00000000  7.94684634
   0.00000000  0.00000000 11.89369268
   0.00000000  0.00000000 15.84053902
   1.97342317  1.97342317  5.97342317
   1.97342317  1.97342317  9.92026951
   1.97342317  1.97342317 13.86711585
   1.97342317  1.97342317 17.81396220
 


--------------------------------------------------------------------------------------------------------


 k-point  1 :   0.0000 0.0000 0.0000  plane waves:    8599
 k-point  2 :   0.1429 0.0000 0.0000  plane waves:    8623
 k-point  3 :   0.2857 0.0000 0.0000  plane waves:    8628
 k-point  4 :   0.4286 0.0000 0.0000  plane waves:    8654
 k-point  5 :   0.1429 0.1429 0.0000  plane waves:    8596
 k-point  6 :   0.2857 0.1429 0.0000  plane waves:    8625
 k-point  7 :   0.4286 0.1429 0.0000  plane waves:    8641
 k-point  8 :   0.2857 0.2857 0.0000  plane waves:    8628
 k-point  9 :   0.4286 0.2857 0.0000  plane waves:    8604
 k-point 10 :   0.4286 0.4286 0.0000  plane waves:    8634

 maximum and minimum number of plane-waves per node :      4346     4287

 maximum number of plane-waves:      8654
 maximum index in each direction: 
   IXMAX=    7   IYMAX=    7   IZMAX=   39
   IXMIN=   -7   IYMIN=   -7   IZMIN=  -39


 parallel 3D FFT for wavefunctions:
    minimum data exchange during FFTs selected (reduces bandwidth)
 parallel 3D FFT for charge:
    minimum data exchange during FFTs selected (reduces bandwidth)


 total amount of memory used by VASP MPI-rank0    93149. kBytes
=======================================================================

   base      :      30000. kBytes
   nonl-proj :      20035. kBytes
   fftplans  :       5724. kBytes
   grid      :      10289. kBytes
   one-center:        155. kBytes
   wavefun   :      26946. kBytes
 
     INWAV:  cpu time    0.0000: real time    0.0000
 Broyden mixing: mesh for mixing (old mesh)
   NGX = 15   NGY = 15   NGZ = 79
  (NGX  = 48   NGY  = 48   NGZ  =240)
  gives a total of  17775 points

 initial charge density was supplied:
 charge density of overlapping atoms calculated
 number of electron     128.0000000 magnetization 
 keeping initial charge density in first step


--------------------------------------------------------------------------------------------------------


 Maximum index for augmentation-charges         3410 (set IRDMAX)


--------------------------------------------------------------------------------------------------------


 First call to EWALD:  gamma=   0.254
 Maximum number of real-space cells 4x 4x 1
 Maximum number of reciprocal cells 2x 2x 8

    FEWALD:  cpu time    0.0010: real time    0.0018


--------------------------------------- Iteration      1(   1)  ---------------------------------------


    POTLOK:  cpu time    0.0840: real time    0.0898
    SETDIJ:  cpu time    0.0120: real time    0.0119
     EDDAV:  cpu time    4.0274: real time    4.0304
 BZINTS: Fermi energy: 17.070528;128.000000 electrons
         Band energy: 321.824340;  BLOECHL correction: -0.071780
       DOS:  cpu time    0.0070: real time    0.0074
    --------------------------------------------
      LOOP:  cpu time    4.1304: real time    4.1396

 eigenvalue-minimisations  :  1536
 total energy-change (2. order) : 0.1601841E+04  (-0.5596716E+04)
 number of electron     128.0000000 magnetization 
 augmentation part      128.0000000 magnetization 

 Free energy of the ion-electron system (eV)
  ---------------------------------------------------
  alpha Z        PSCENC =       519.93243791
  Ewald energy   TEWEN  =      6109.79305022
  -Hartree energ DENC   =    -14807.81936888
  -exchange      EXHF   =         0.00000000
  -V(xc)+E(xc)   XCENC  =       325.52799531
  PAW double counting   =      5334.45189010    -5139.13784255
  entropy T*S    EENTRO =         0.00000000
  eigenvalues    EBANDS =       321.82433990
  atomic energy  EATOM  =      8937.26825017
  Solvation  Ediel_sol  =         0.00000000
  ---------------------------------------------------
  free energy    TOTEN  =      1601.84075219 eV

  energy without entropy =     1601.84075219  energy(sigma->0) =     1601.84075219


--------------------------------------------------------------------------------------------------------




--------------------------------------- Iteration      1(   2)  ---------------------------------------


     EDDAV:  cpu time    4.4653: real time    4.4682
 BZINTS: Fermi energy:  6.453879;128.000000 electrons
         Band energy:***********;  BLOECHL correction: -0.102196
       DOS:  cpu time    0.0070: real time    0.0066
    --------------------------------------------
      LOOP:  cpu time    4.4723: real time    4.4749

 eigenvalue-minimisations  :  1752
 total energy-change (2. order) :-0.1421721E+04  (-0.1362582E+04)
 number of electron     128.0000000 magnetization 
 augmentation part      128.0000000 magnetization 

 Free energy of the ion-electron system (eV)
  ---------------------------------------------------
  alpha Z        PSCENC =       519.93243791
  Ewald energy   TEWEN  =      6109.79305022
  -Hartree energ DENC   =    -14807.81936888
  -exchange      EXHF   =         0.00000000
  -V(xc)+E(xc)   XCENC  =       325.52799531
  PAW double counting   =      5334.45189010    -5139.13784255
  entropy T*S    EENTRO =         0.00000000
  eigenvalues    EBANDS =     -1099.89705117
  atomic energy  EATOM  =      8937.26825017
  Solvation  Ediel_sol  =         0.00000000
  ---------------------------------------------------
  free energy    TOTEN  =       180.11936111 eV

  energy without entropy =      180.11936111  energy(sigma->0) =      180.11936111


--------------------------------------------------------------------------------------------------------




--------------------------------------- Iteration      1(   3)  ---------------------------------------


     EDDAV:  cpu time    4.8043: real time    4.8066
 BZINTS: Fermi energy: -1.283895;128.000000 electrons
         Band energy:***********;  BLOECHL correction:  0.000000
       DOS:  cpu time    0.0010: real time    0.0011
    --------------------------------------------
      LOOP:  cpu time    4.8053: real time    4.8077

 eigenvalue-minimisations  :  2032
 total energy-change (2. order) :-0.3545568E+03  (-0.3443484E+03)
 number of electron     128.0000000 magnetization 
 augmentation part      128.0000000 magnetization 

 Free energy of the ion-electron system (eV)
  ---------------------------------------------------
  alpha Z        PSCENC =       519.93243791
  Ewald energy   TEWEN  =      6109.79305022
  -Hartree energ DENC   =    -14807.81936888
  -exchange      EXHF   =         0.00000000
  -V(xc)+E(xc)   XCENC  =       325.52799531
  PAW double counting   =      5334.45189010    -5139.13784255
  entropy T*S    EENTRO =         0.00000000
  eigenvalues    EBANDS =     -1454.45381917
  atomic energy  EATOM  =      8937.26825017
  Solvation  Ediel_sol  =         0.00000000
  ---------------------------------------------------
  free energy    TOTEN  =      -174.43740689 eV

  energy without entropy =     -174.43740689  energy(sigma->0) =     -174.43740689


--------------------------------------------------------------------------------------------------------




--------------------------------------- Iteration      1(   4)  ---------------------------------------


     EDDAV:  cpu time    4.6583: real time    4.6603
 BZINTS: Fermi energy: -2.816772;128.000000 electrons
         Band energy:***********;  BLOECHL correction:  0.000000
       DOS:  cpu time    0.0010: real time    0.0013
    --------------------------------------------
      LOOP:  cpu time    4.6593: real time    4.6616

 eigenvalue-minimisations  :  1960
 total energy-change (2. order) :-0.2627224E+02  (-0.2616952E+02)
 number of electron     128.0000000 magnetization 
 augmentation part      128.0000000 magnetization 

 Free energy of the ion-electron system (eV)
  ---------------------------------------------------
  alpha Z        PSCENC =       519.93243791
  Ewald energy   TEWEN  =      6109.79305022
  -Hartree energ DENC   =    -14807.81936888
  -exchange      EXHF   =         0.00000000
  -V(xc)+E(xc)   XCENC  =       325.52799531
  PAW double counting   =      5334.45189010    -5139.13784255
  entropy T*S    EENTRO =         0.00000000
  eigenvalues    EBANDS =     -1480.72605922
  atomic energy  EATOM  =      8937.26825017
  Solvation  Ediel_sol  =         0.00000000
  ---------------------------------------------------
  free energy    TOTEN  =      -200.70964694 eV

  energy without entropy =     -200.70964694  energy(sigma->0) =     -200.70964694


--------------------------------------------------------------------------------------------------------




--------------------------------------- Iteration      1(   5)  ---------------------------------------


     EDDAV:  cpu time    5.8461: real time    5.8462
 BZINTS: Fermi energy: -2.885118;128.000000 electrons
         Band energy:***********;  BLOECHL correction:  0.000000
       DOS:  cpu time    0.0000: real time    0.0013
    CHARGE:  cpu time    0.1550: real time    0.1547
    MIXING:  cpu time    0.0030: real time    0.0026
    --------------------------------------------
      LOOP:  cpu time    6.0041: real time    6.0048

 eigenvalue-minimisations  :  2592
 total energy-change (2. order) :-0.1579355E+01  (-0.1578385E+01)
 number of electron     127.9999683 magnetization 
 augmentation part       13.6340937 magnetization 

 Broyden mixing:
  rms(total) = 0.37099E+01    rms(broyden)= 0.37093E+01
  rms(prec ) = 0.40580E+01
  weight for this iteration     100.00

 Free energy of the ion-electron system (eV)
  ---------------------------------------------------
  alpha Z        PSCENC =       519.93243791
  Ewald energy   TEWEN  =      6109.79305022
  -Hartree energ DENC   =    -14807.81936888
  -exchange      EXHF   =         0.00000000
  -V(xc)+E(xc)   XCENC  =       325.52799531
  PAW double counting   =      5334.45189010    -5139.13784255
  entropy T*S    EENTRO =         0.00000000
  eigenvalues    EBANDS =     -1482.30541401
  atomic energy  EATOM  =      8937.26825017
  Solvation  Ediel_sol  =         0.00000000
  ---------------------------------------------------
  free energy    TOTEN  =      -202.28900172 eV

  energy without entropy =     -202.28900172  energy(sigma->0) =     -202.28900172


--------------------------------------------------------------------------------------------------------




--------------------------------------- Iteration      1(   6)  ---------------------------------------


    POTLOK:  cpu time    0.0770: real time    0.0791
    SETDIJ:  cpu time    0.0110: real time    0.0110
    EDDIAG:  cpu time    0.4499: real time    0.4498
  RMM-DIIS:  cpu time    3.0565: real time    3.0568
    ORTHCH:  cpu time    0.0880: real time    0.0888
 BZINTS: Fermi energy:  1.095780;128.000000 electrons
         Band energy:***********;  BLOECHL correction: -0.049755
       DOS:  cpu time    0.0070: real time    0.0064
    CHARGE:  cpu time    0.1570: real time    0.1577
    MIXING:  cpu time    0.0030: real time    0.0022
    --------------------------------------------
      LOOP:  cpu time    3.8494: real time    3.8519

 eigenvalue-minimisations  :  1679
 total energy-change (2. order) : 0.4053390E+02  (-0.2949658E+02)
 number of electron     127.9999790 magnetization 
 augmentation part       14.3054062 magnetization 

 Broyden mixing:
  rms(total) = 0.14541E+01    rms(broyden)= 0.14530E+01
  rms(prec ) = 0.15602E+01
  weight for this iteration     100.00

 eigenvalues of (default mixing * dielectric matrix)
  average eigenvalue GAMMA=   0.7537
  0.7537

 Free energy of the ion-electron system (eV)
  ---------------------------------------------------
  alpha Z        PSCENC =       519.93243791
  Ewald energy   TEWEN  =      6109.79305022
  -Hartree energ DENC   =    -15072.74249316
  -exchange      EXHF   =         0.00000000
  -V(xc)+E(xc)   XCENC  =       345.39673638
  PAW double counting   =      5936.91584675    -5754.59072611
  entropy T*S    EENTRO =         0.00000000
  eigenvalues    EBANDS =     -1183.72820716
  atomic energy  EATOM  =      8937.26825017
  Solvation  Ediel_sol  =         0.00000000
  ---------------------------------------------------
  free energy    TOTEN  =      -161.75510498 eV

  energy without entropy =     -161.75510498  energy(sigma->0) =     -161.75510498


--------------------------------------------------------------------------------------------------------




--------------------------------------- Iteration      1(   7)  ---------------------------------------


    POTLOK:  cpu time    0.0770: real time    0.0806
    SETDIJ:  cpu time    0.0120: real time    0.0112
    EDDIAG:  cpu time    0.4479: real time    0.4479
  RMM-DIIS:  cpu time    3.2055: real time    3.2055
    ORTHCH:  cpu time    0.0890: real time    0.0885
 BZINTS: Fermi energy:  0.171863;128.000000 electrons
         Band energy:***********;  BLOECHL correction:  0.000000
       DOS:  cpu time    0.0010: real time    0.0013
    CHARGE:  cpu time    0.1540: real time    0.1545
    MIXING:  cpu time    0.0030: real time    0.0023
    --------------------------------------------
      LOOP:  cpu time    3.9894: real time    3.9919

 eigenvalue-minimisations  :  1795
 total energy-change (2. order) : 0.3987735E+01  (-0.1461449E+01)
 number of electron     127.9999769 magnetization 
 augmentation part       13.4724994 magnetization 

 Broyden mixing:
  rms(total) = 0.72272E+00    rms(broyden)= 0.72265E+00
  rms(prec ) = 0.76645E+00
  weight for this iteration     100.00

 eigenvalues of (default mixing * dielectric matrix)
  average eigenvalue GAMMA=   0.9589
  0.9660  0.9518

 Free energy of the ion-electron system (eV)
  ---------------------------------------------------
  alpha Z        PSCENC =       519.93243791
  Ewald energy   TEWEN  =      6109.79305022
  -Hartree energ DENC   =    -15058.02716085
  -exchange      EXHF   =         0.00000000
  -V(xc)+E(xc)   XCENC  =       341.32573842
  PAW double counting   =      5941.31683240    -5763.78899924
  entropy T*S    EENTRO =         0.00000000
  eigenvalues    EBANDS =     -1185.58751857
  atomic energy  EATOM  =      8937.26825017
  Solvation  Ediel_sol  =         0.00000000
  ---------------------------------------------------
  free energy    TOTEN  =      -157.76736953 eV

  energy without entropy =     -157.76736953  energy(sigma->0) =     -157.76736953


--------------------------------------------------------------------------------------------------------




--------------------------------------- Iteration      1(   8)  ---------------------------------------


    POTLOK:  cpu time    0.0750: real time    0.0784
    SETDIJ:  cpu time    0.0120: real time    0.0109
    EDDIAG:  cpu time    0.4459: real time    0.4465
  RMM-DIIS:  cpu time    3.7124: real time    3.7111
    ORTHCH:  cpu time    0.0890: real time    0.0887
 BZINTS: Fermi energy:  0.209692;128.000000 electrons
         Band energy:***********;  BLOECHL correction:  0.000000
       DOS:  cpu time    0.0010: real time    0.0013
    CHARGE:  cpu time    0.1550: real time    0.1557
    MIXING:  cpu time    0.0030: real time    0.0024
    --------------------------------------------
      LOOP:  cpu time    4.4933: real time    4.4951

 eigenvalue-minimisations  :  2052
 total energy-change (2. order) : 0.7388722E+00  (-0.3044035E+00)
 number of electron     127.9999771 magnetization 
 augmentation part       13.7007768 magnetization 

 Broyden mixing:
  rms(total) = 0.36097E+00    rms(broyden)= 0.36095E+00
  rms(prec ) = 0.38996E+00
  weight for this iteration     100.00

 eigenvalues of (default mixing * dielectric matrix)
  average eigenvalue GAMMA=   1.2545
  2.1540  0.9246  0.6848

 Free energy of the ion-electron system (eV)
  ---------------------------------------------------
  alpha Z        PSCENC =       519.93243791
  Ewald energy   TEWEN  =      6109.79305022
  -Hartree energ DENC   =    -15063.05127825
  -exchange      EXHF   =         0.00000000
  -V(xc)+E(xc)   XCENC  =       341.15298894
  PAW double counting   =      6016.24938155    -5842.25831966
  entropy T*S    EENTRO =         0.00000000
  eigenvalues    EBANDS =     -1176.11500816
  atomic energy  EATOM  =      8937.26825017
  Solvation  Ediel_sol  =         0.00000000
  ---------------------------------------------------
  free energy    TOTEN  =      -157.02849729 eV

  energy without entropy =     -157.02849729  energy(sigma->0) =     -157.02849729


--------------------------------------------------------------------------------------------------------




--------------------------------------- Iteration      1(   9)  ---------------------------------------


    POTLOK:  cpu time    0.0750: real time    0.0782
    SETDIJ:  cpu time    0.0110: real time    0.0110
    EDDIAG:  cpu time    0.4469: real time    0.4462
  RMM-DIIS:  cpu time    3.6674: real time    3.6669
    ORTHCH:  cpu time    0.0890: real time    0.0886
 BZINTS: Fermi energy:  0.471091;128.000000 electrons
         Band energy:***********;  BLOECHL correction:  0.000000
       DOS:  cpu time    0.0000: real time    0.0011
    CHARGE:  cpu time    0.1550: real time    0.1546
    MIXING:  cpu time    0.0030: real time    0.0031
    --------------------------------------------
      LOOP:  cpu time    4.4473: real time    4.4495

 eigenvalue-minimisations  :  2034
 total energy-change (2. order) : 0.2559508E+00  (-0.1473471E+00)
 number of electron     127.9999769 magnetization 
 augmentation part       13.7583188 magnetization 

 Broyden mixing:
  rms(total) = 0.10198E+00    rms(broyden)= 0.10189E+00
  rms(prec ) = 0.13312E+00
  weight for this iteration     100.00

 eigenvalues of (default mixing * dielectric matrix)
  average eigenvalue GAMMA=   1.1765
  2.2475  0.8677  0.8677  0.7229

 Free energy of the ion-electron system (eV)
  ---------------------------------------------------
  alpha Z        PSCENC =       519.93243791
  Ewald energy   TEWEN  =      6109.79305022
  -Hartree energ DENC   =    -15073.70466702
  -exchange      EXHF   =         0.00000000
  -V(xc)+E(xc)   XCENC  =       340.74928490
  PAW double counting   =      6110.12995609    -5940.11672590
  entropy T*S    EENTRO =         0.00000000
  eigenvalues    EBANDS =     -1160.82413282
  atomic energy  EATOM  =      8937.26825017
  Solvation  Ediel_sol  =         0.00000000
  ---------------------------------------------------
  free energy    TOTEN  =      -156.77254644 eV

  energy without entropy =     -156.77254644  energy(sigma->0) =     -156.77254644


--------------------------------------------------------------------------------------------------------




--------------------------------------- Iteration      1(  10)  ---------------------------------------


    POTLOK:  cpu time    0.0770: real time    0.0795
    SETDIJ:  cpu time    0.0110: real time    0.0110
    EDDIAG:  cpu time    0.4469: real time    0.4470
  RMM-DIIS:  cpu time    4.6053: real time    4.6402
    ORTHCH:  cpu time    0.1030: real time    0.1039
 BZINTS: Fermi energy:  0.577165;128.000000 electrons
         Band energy:***********;  BLOECHL correction:  0.000000
       DOS:  cpu time    0.0020: real time    0.0016
    CHARGE:  cpu time    0.1690: real time    0.1693
    MIXING:  cpu time    0.0030: real time    0.0040
    --------------------------------------------
      LOOP:  cpu time    5.4172: real time    5.4564

 eigenvalue-minimisations  :  2344
 total energy-change (2. order) : 0.5359524E-01  (-0.2553137E-01)
 number of electron     127.9999769 magnetization 
 augmentation part       13.7129954 magnetization 

 Broyden mixing:
  rms(total) = 0.70803E-01    rms(broyden)= 0.70793E-01
  rms(prec ) = 0.94150E-01
  weight for this iteration     100.00

 eigenvalues of (default mixing * dielectric matrix)
  average eigenvalue GAMMA=   1.1876
  2.2144  1.1780  1.1780  0.7182  0.6493

 Free energy of the ion-electron system (eV)
  ---------------------------------------------------
  alpha Z        PSCENC =       519.93243791
  Ewald energy   TEWEN  =      6109.79305022
  -Hartree energ DENC   =    -15088.09948395
  -exchange      EXHF   =         0.00000000
  -V(xc)+E(xc)   XCENC  =       341.07294695
  PAW double counting   =      6134.40510561    -5965.02439448
  entropy T*S    EENTRO =         0.00000000
  eigenvalues    EBANDS =     -1146.06686362
  atomic energy  EATOM  =      8937.26825017
  Solvation  Ediel_sol  =         0.00000000
  ---------------------------------------------------
  free energy    TOTEN  =      -156.71895120 eV

  energy without entropy =     -156.71895120  energy(sigma->0) =     -156.71895120


--------------------------------------------------------------------------------------------------------




--------------------------------------- Iteration      1(  11)  ---------------------------------------


    POTLOK:  cpu time    0.0890: real time    0.0897
    SETDIJ:  cpu time    0.0130: real time    0.0122
    EDDIAG:  cpu time    0.5209: real time    0.5214
  RMM-DIIS:  cpu time    4.8573: real time    4.8565
    ORTHCH:  cpu time    0.1020: real time    0.1028
 BZINTS: Fermi energy:  0.659474;128.000000 electrons
         Band energy:***********;  BLOECHL correction:  0.000000
       DOS:  cpu time    0.0010: real time    0.0012
    CHARGE:  cpu time    0.1680: real time    0.1677
    MIXING:  cpu time    0.0040: real time    0.0031
    --------------------------------------------
      LOOP:  cpu time    5.7551: real time    5.7546

 eigenvalue-minimisations  :  2232
 total energy-change (2. order) : 0.3133152E-01  (-0.1879859E-01)
 number of electron     127.9999769 magnetization 
 augmentation part       13.6366785 magnetization 

 Broyden mixing:
  rms(total) = 0.42270E-01    rms(broyden)= 0.42253E-01
  rms(prec ) = 0.60732E-01
  weight for this iteration     100.00

 eigenvalues of (default mixing * dielectric matrix)
  average eigenvalue GAMMA=   1.2778
  2.2436  2.2436  0.8993  0.8993  0.6237  0.7572

 Free energy of the ion-electron system (eV)
  ---------------------------------------------------
  alpha Z        PSCENC =       519.93243791
  Ewald energy   TEWEN  =      6109.79305022
  -Hartree energ DENC   =    -15104.02633257
  -exchange      EXHF   =         0.00000000
  -V(xc)+E(xc)   XCENC  =       341.45405280
  PAW double counting   =      6150.16478401    -5980.88528082
  entropy T*S    EENTRO =         0.00000000
  eigenvalues    EBANDS =     -1130.38858141
  atomic energy  EATOM  =      8937.26825017
  Solvation  Ediel_sol  =         0.00000000
  ---------------------------------------------------
  free energy    TOTEN  =      -156.68761967 eV

  energy without entropy =     -156.68761967  energy(sigma->0) =     -156.68761967


--------------------------------------------------------------------------------------------------------




--------------------------------------- Iteration      1(  12)  ---------------------------------------


    POTLOK:  cpu time    0.0900: real time    0.0938
    SETDIJ:  cpu time    0.0120: real time    0.0121
    EDDIAG:  cpu time    0.5189: real time    0.5185
  RMM-DIIS:  cpu time    4.9802: real time    4.9820
    ORTHCH:  cpu time    0.1030: real time    0.1035
 BZINTS: Fermi energy:  0.881668;128.000000 electrons
         Band energy:***********;  BLOECHL correction:  0.000000
       DOS:  cpu time    0.0010: real time    0.0012
    CHARGE:  cpu time    0.1680: real time    0.1679
    MIXING:  cpu time    0.0040: real time    0.0034
    --------------------------------------------
      LOOP:  cpu time    5.8771: real time    5.8824

 eigenvalue-minimisations  :  2323
 total energy-change (2. order) : 0.1207005E-01  (-0.7266162E-02)
 number of electron     127.9999769 magnetization 
 augmentation part       13.5880571 magnetization 

 Broyden mixing:
  rms(total) = 0.38481E-01    rms(broyden)= 0.38474E-01
  rms(prec ) = 0.49519E-01
  weight for this iteration     100.00

 eigenvalues of (default mixing * dielectric matrix)
  average eigenvalue GAMMA=   1.2194
  2.3277  2.3277  0.9477  0.9477  0.7726  0.6352  0.5771

 Free energy of the ion-electron system (eV)
  ---------------------------------------------------
  alpha Z        PSCENC =       519.93243791
  Ewald energy   TEWEN  =      6109.79305022
  -Hartree energ DENC   =    -15114.68051747
  -exchange      EXHF   =         0.00000000
  -V(xc)+E(xc)   XCENC  =       341.58590286
  PAW double counting   =      6152.72132325    -5983.14782953
  entropy T*S    EENTRO =         0.00000000
  eigenvalues    EBANDS =     -1120.14816703
  atomic energy  EATOM  =      8937.26825017
  Solvation  Ediel_sol  =         0.00000000
  ---------------------------------------------------
  free energy    TOTEN  =      -156.67554962 eV

  energy without entropy =     -156.67554962  energy(sigma->0) =     -156.67554962


--------------------------------------------------------------------------------------------------------




--------------------------------------- Iteration      1(  13)  ---------------------------------------


    POTLOK:  cpu time    0.0910: real time    0.0942
    SETDIJ:  cpu time    0.0120: real time    0.0120
    EDDIAG:  cpu time    0.5199: real time    0.5196
  RMM-DIIS:  cpu time    5.4592: real time    5.4578
    ORTHCH:  cpu time    0.1030: real time    0.1031
 BZINTS: Fermi energy:  0.919304;128.000000 electrons
         Band energy:***********;  BLOECHL correction:  0.000000
       DOS:  cpu time    0.0020: real time    0.0012
    CHARGE:  cpu time    0.1670: real time    0.1676
    MIXING:  cpu time    0.0040: real time    0.0035
    --------------------------------------------
      LOOP:  cpu time    6.3580: real time    6.3591

 eigenvalue-minimisations  :  2552
 total energy-change (2. order) : 0.6171199E-02  (-0.2529940E-02)
 number of electron     127.9999769 magnetization 
 augmentation part       13.6005737 magnetization 

 Broyden mixing:
  rms(total) = 0.24462E-01    rms(broyden)= 0.24459E-01
  rms(prec ) = 0.33135E-01
  weight for this iteration     100.00

 eigenvalues of (default mixing * dielectric matrix)
  average eigenvalue GAMMA=   1.3784
  2.7551  2.7551  1.2064  1.2064  0.9026  0.9026  0.6758  0.6233

 Free energy of the ion-electron system (eV)
  ---------------------------------------------------
  alpha Z        PSCENC =       519.93243791
  Ewald energy   TEWEN  =      6109.79305022
  -Hartree energ DENC   =    -15118.41380720
  -exchange      EXHF   =         0.00000000
  -V(xc)+E(xc)   XCENC  =       341.60034526
  PAW double counting   =      6153.99390492    -5984.36198089
  entropy T*S    EENTRO =         0.00000000
  eigenvalues    EBANDS =     -1116.48157882
  atomic energy  EATOM  =      8937.26825017
  Solvation  Ediel_sol  =         0.00000000
  ---------------------------------------------------
  free energy    TOTEN  =      -156.66937842 eV

  energy without entropy =     -156.66937842  energy(sigma->0) =     -156.66937842


--------------------------------------------------------------------------------------------------------




--------------------------------------- Iteration      1(  14)  ---------------------------------------


    POTLOK:  cpu time    0.0890: real time    0.0915
    SETDIJ:  cpu time    0.0120: real time    0.0122
    EDDIAG:  cpu time    0.5199: real time    0.5200
  RMM-DIIS:  cpu time    4.5363: real time    4.5348
    ORTHCH:  cpu time    0.1030: real time    0.1034
 BZINTS: Fermi energy:  0.991915;128.000000 electrons
         Band energy:***********;  BLOECHL correction:  0.000000
       DOS:  cpu time    0.0010: real time    0.0012
    CHARGE:  cpu time    0.1680: real time    0.1677
    MIXING:  cpu time    0.0040: real time    0.0037
    --------------------------------------------
      LOOP:  cpu time    5.4332: real time    5.4344

 eigenvalue-minimisations  :  2122
 total energy-change (2. order) :-0.1740602E-02  (-0.3585996E-02)
 number of electron     127.9999769 magnetization 
 augmentation part       13.6141825 magnetization 

 Broyden mixing:
  rms(total) = 0.17488E-01    rms(broyden)= 0.17478E-01
  rms(prec ) = 0.20637E-01
  weight for this iteration     100.00

 eigenvalues of (default mixing * dielectric matrix)
  average eigenvalue GAMMA=   1.4368
  3.7686  2.5828  1.5455  1.0029  1.0029  0.8888  0.8888  0.6481  0.6023

 Free energy of the ion-electron system (eV)
  ---------------------------------------------------
  alpha Z        PSCENC =       519.93243791
  Ewald energy   TEWEN  =      6109.79305022
  -Hartree energ DENC   =    -15124.17395619
  -exchange      EXHF   =         0.00000000
  -V(xc)+E(xc)   XCENC  =       341.48459383
  PAW double counting   =      6145.47200559    -5975.42557918
  entropy T*S    EENTRO =         0.00000000
  eigenvalues    EBANDS =     -1111.02192137
  atomic energy  EATOM  =      8937.26825017
  Solvation  Ediel_sol  =         0.00000000
  ---------------------------------------------------
  free energy    TOTEN  =      -156.67111902 eV

  energy without entropy =     -156.67111902  energy(sigma->0) =     -156.67111902


--------------------------------------------------------------------------------------------------------




--------------------------------------- Iteration      1(  15)  ---------------------------------------


    POTLOK:  cpu time    0.0890: real time    0.0908
    SETDIJ:  cpu time    0.0120: real time    0.0122
    EDDIAG:  cpu time    0.5179: real time    0.5174
  RMM-DIIS:  cpu time    5.1082: real time    5.1073
    ORTHCH:  cpu time    0.1030: real time    0.1028
 BZINTS: Fermi energy:  1.043764;128.000000 electrons
         Band energy:***********;  BLOECHL correction:  0.000000
       DOS:  cpu time    0.0010: real time    0.0012
    CHARGE:  cpu time    0.1670: real time    0.1677
    MIXING:  cpu time    0.0050: real time    0.0038
    --------------------------------------------
      LOOP:  cpu time    6.0031: real time    6.0031

 eigenvalue-minimisations  :  2386
 total energy-change (2. order) :-0.2220397E-02  (-0.8736250E-03)
 number of electron     127.9999769 magnetization 
 augmentation part       13.6179959 magnetization 

 Broyden mixing:
  rms(total) = 0.10873E-01    rms(broyden)= 0.10868E-01
  rms(prec ) = 0.12616E-01
  weight for this iteration     100.00

 eigenvalues of (default mixing * dielectric matrix)
  average eigenvalue GAMMA=   1.4961
  4.4825  2.3084  1.6016  1.6016  1.1045  0.9194  0.9194  0.7886  0.6177  0.6177

 Free energy of the ion-electron system (eV)
  ---------------------------------------------------
  alpha Z        PSCENC =       519.93243791
  Ewald energy   TEWEN  =      6109.79305022
  -Hartree energ DENC   =    -15127.93952141
  -exchange      EXHF   =         0.00000000
  -V(xc)+E(xc)   XCENC  =       341.53533475
  PAW double counting   =      6145.19454527    -5975.09980908
  entropy T*S    EENTRO =         0.00000000
  eigenvalues    EBANDS =     -1107.35762725
  atomic energy  EATOM  =      8937.26825017
  Solvation  Ediel_sol  =         0.00000000
  ---------------------------------------------------
  free energy    TOTEN  =      -156.67333942 eV

  energy without entropy =     -156.67333942  energy(sigma->0) =     -156.67333942


--------------------------------------------------------------------------------------------------------




--------------------------------------- Iteration      1(  16)  ---------------------------------------


    POTLOK:  cpu time    0.0880: real time    0.0912
    SETDIJ:  cpu time    0.0120: real time    0.0120
    EDDIAG:  cpu time    0.5199: real time    0.5184
  RMM-DIIS:  cpu time    4.7553: real time    4.7546
    ORTHCH:  cpu time    0.1020: real time    0.1027
 BZINTS: Fermi energy:  1.071241;128.000000 electrons
         Band energy:***********;  BLOECHL correction:  0.000000
       DOS:  cpu time    0.0020: real time    0.0014
    CHARGE:  cpu time    0.1690: real time    0.1681
    MIXING:  cpu time    0.0040: real time    0.0043
    --------------------------------------------
      LOOP:  cpu time    5.6521: real time    5.6528

 eigenvalue-minimisations  :  2244
 total energy-change (2. order) :-0.2260872E-02  (-0.8160503E-03)
 number of electron     127.9999769 magnetization 
 augmentation part       13.6068776 magnetization 

 Broyden mixing:
  rms(total) = 0.91614E-02    rms(broyden)= 0.91572E-02
  rms(prec ) = 0.10095E-01
  weight for this iteration     100.00

 eigenvalues of (default mixing * dielectric matrix)
  average eigenvalue GAMMA=   1.6624
  5.9414  2.7066  2.2657  1.3989  1.1167  1.1167  0.8823  0.8823  0.7368  0.6198
  0.6198

 Free energy of the ion-electron system (eV)
  ---------------------------------------------------
  alpha Z        PSCENC =       519.93243791
  Ewald energy   TEWEN  =      6109.79305022
  -Hartree energ DENC   =    -15130.88216592
  -exchange      EXHF   =         0.00000000
  -V(xc)+E(xc)   XCENC  =       341.59166950
  PAW double counting   =      6147.21972710    -5977.25364491
  entropy T*S    EENTRO =         0.00000000
  eigenvalues    EBANDS =     -1104.34492436
  atomic energy  EATOM  =      8937.26825017
  Solvation  Ediel_sol  =         0.00000000
  ---------------------------------------------------
  free energy    TOTEN  =      -156.67560029 eV

  energy without entropy =     -156.67560029  energy(sigma->0) =     -156.67560029


--------------------------------------------------------------------------------------------------------




--------------------------------------- Iteration      1(  17)  ---------------------------------------


    POTLOK:  cpu time    0.0900: real time    0.0912
    SETDIJ:  cpu time    0.0120: real time    0.0121
    EDDIAG:  cpu time    0.5189: real time    0.5185
  RMM-DIIS:  cpu time    4.7373: real time    4.7374
    ORTHCH:  cpu time    0.1030: real time    0.1031
 BZINTS: Fermi energy:  1.037837;128.000000 electrons
         Band energy:***********;  BLOECHL correction:  0.000000
       DOS:  cpu time    0.0000: real time    0.0013
    CHARGE:  cpu time    0.1700: real time    0.1695
    MIXING:  cpu time    0.0050: real time    0.0044
    --------------------------------------------
      LOOP:  cpu time    5.6361: real time    5.6375

 eigenvalue-minimisations  :  2204
 total energy-change (2. order) :-0.9796268E-03  (-0.2194131E-03)
 number of electron     127.9999769 magnetization 
 augmentation part       13.6023999 magnetization 

 Broyden mixing:
  rms(total) = 0.34036E-02    rms(broyden)= 0.34020E-02
  rms(prec ) = 0.39612E-02
  weight for this iteration     100.00

 eigenvalues of (default mixing * dielectric matrix)
  average eigenvalue GAMMA=   1.6161
  6.3556  2.7575  2.3263  1.1403  1.1403  1.2156  0.9531  0.8274  0.8274  0.6316
  0.6316  0.5861

 Free energy of the ion-electron system (eV)
  ---------------------------------------------------
  alpha Z        PSCENC =       519.93243791
  Ewald energy   TEWEN  =      6109.79305022
  -Hartree energ DENC   =    -15130.80509289
  -exchange      EXHF   =         0.00000000
  -V(xc)+E(xc)   XCENC  =       341.54416540
  PAW double counting   =      6145.00010162    -5975.00843001
  entropy T*S    EENTRO =         0.00000000
  eigenvalues    EBANDS =     -1104.40106234
  atomic energy  EATOM  =      8937.26825017
  Solvation  Ediel_sol  =         0.00000000
  ---------------------------------------------------
  free energy    TOTEN  =      -156.67657992 eV

  energy without entropy =     -156.67657992  energy(sigma->0) =     -156.67657992


--------------------------------------------------------------------------------------------------------




--------------------------------------- Iteration      1(  18)  ---------------------------------------


    POTLOK:  cpu time    0.0910: real time    0.0915
    SETDIJ:  cpu time    0.0120: real time    0.0120
    EDDIAG:  cpu time    0.5059: real time    0.5076
  RMM-DIIS:  cpu time    4.7673: real time    4.7662
    ORTHCH:  cpu time    0.1030: real time    0.1028
 BZINTS: Fermi energy:  1.097489;128.000000 electrons
         Band energy:***********;  BLOECHL correction:  0.000000
       DOS:  cpu time    0.0010: real time    0.0012
    CHARGE:  cpu time    0.1680: real time    0.1676
    MIXING:  cpu time    0.0050: real time    0.0047
    --------------------------------------------
      LOOP:  cpu time    5.6531: real time    5.6536

 eigenvalue-minimisations  :  2229
 total energy-change (2. order) :-0.1290170E-03  (-0.6801921E-04)
 number of electron     127.9999769 magnetization 
 augmentation part       13.6045059 magnetization 

 Broyden mixing:
  rms(total) = 0.13145E-02    rms(broyden)= 0.13125E-02
  rms(prec ) = 0.16756E-02
  weight for this iteration     100.00

 eigenvalues of (default mixing * dielectric matrix)
  average eigenvalue GAMMA=   1.5763
  6.4830  2.8370  2.1066  1.4088  1.1670  1.1670  0.8742  0.8742  0.8672  0.8184
  0.6438  0.6438  0.6006

 Free energy of the ion-electron system (eV)
  ---------------------------------------------------
  alpha Z        PSCENC =       519.93243791
  Ewald energy   TEWEN  =      6109.79305022
  -Hartree energ DENC   =    -15130.84307583
  -exchange      EXHF   =         0.00000000
  -V(xc)+E(xc)   XCENC  =       341.54445923
  PAW double counting   =      6144.87795287    -5974.87146305
  entropy T*S    EENTRO =         0.00000000
  eigenvalues    EBANDS =     -1104.37832046
  atomic energy  EATOM  =      8937.26825017
  Solvation  Ediel_sol  =         0.00000000
  ---------------------------------------------------
  free energy    TOTEN  =      -156.67670894 eV

  energy without entropy =     -156.67670894  energy(sigma->0) =     -156.67670894


--------------------------------------------------------------------------------------------------------




--------------------------------------- Iteration      1(  19)  ---------------------------------------


    POTLOK:  cpu time    0.0910: real time    0.0916
    SETDIJ:  cpu time    0.0120: real time    0.0121
    EDDIAG:  cpu time    0.5089: real time    0.5090
  RMM-DIIS:  cpu time    4.1624: real time    4.1614
    ORTHCH:  cpu time    0.1040: real time    0.1031
 BZINTS: Fermi energy:  1.103280;128.000000 electrons
         Band energy:***********;  BLOECHL correction:  0.000000
       DOS:  cpu time    0.0010: real time    0.0014
    CHARGE:  cpu time    0.1670: real time    0.1677
    MIXING:  cpu time    0.0050: real time    0.0047
    --------------------------------------------
      LOOP:  cpu time    5.0512: real time    5.0510

 eigenvalue-minimisations  :  1927
 total energy-change (2. order) :-0.5003280E-04  (-0.2281173E-04)
 number of electron     127.9999769 magnetization 
 augmentation part       13.6042807 magnetization 

 Broyden mixing:
  rms(total) = 0.91578E-03    rms(broyden)= 0.91546E-03
  rms(prec ) = 0.11187E-02
  weight for this iteration     100.00

 eigenvalues of (default mixing * dielectric matrix)
  average eigenvalue GAMMA=   1.6144
  6.2988  2.9210  2.2624  1.5911  1.5911  1.1660  1.1660  1.0284  1.0284  0.8351
  0.8351  0.6386  0.6386  0.6009

 Free energy of the ion-electron system (eV)
  ---------------------------------------------------
  alpha Z        PSCENC =       519.93243791
  Ewald energy   TEWEN  =      6109.79305022
  -Hartree energ DENC   =    -15130.69628515
  -exchange      EXHF   =         0.00000000
  -V(xc)+E(xc)   XCENC  =       341.54418306
  PAW double counting   =      6144.82193014    -5974.79159681
  entropy T*S    EENTRO =         0.00000000
  eigenvalues    EBANDS =     -1104.54872850
  atomic energy  EATOM  =      8937.26825017
  Solvation  Ediel_sol  =         0.00000000
  ---------------------------------------------------
  free energy    TOTEN  =      -156.67675897 eV

  energy without entropy =     -156.67675897  energy(sigma->0) =     -156.67675897


--------------------------------------------------------------------------------------------------------




--------------------------------------- Iteration      1(  20)  ---------------------------------------


    POTLOK:  cpu time    0.0920: real time    0.0919
    SETDIJ:  cpu time    0.0120: real time    0.0120
    EDDIAG:  cpu time    0.5229: real time    0.5222
  RMM-DIIS:  cpu time    3.6584: real time    3.6576
    ORTHCH:  cpu time    0.1030: real time    0.1030
 BZINTS: Fermi energy:  1.136302;128.000000 electrons
         Band energy:***********;  BLOECHL correction:  0.000000
       DOS:  cpu time    0.0010: real time    0.0014
    CHARGE:  cpu time    0.1690: real time    0.1683
    MIXING:  cpu time    0.0050: real time    0.0049
    --------------------------------------------
      LOOP:  cpu time    4.5633: real time    4.5615

 eigenvalue-minimisations  :  1711
 total energy-change (2. order) :-0.3237369E-04  (-0.1190559E-04)
 number of electron     127.9999769 magnetization 
 augmentation part       13.6045404 magnetization 

 Broyden mixing:
  rms(total) = 0.58711E-03    rms(broyden)= 0.58705E-03
  rms(prec ) = 0.70251E-03
  weight for this iteration     100.00

 eigenvalues of (default mixing * dielectric matrix)
  average eigenvalue GAMMA=   1.6476
  6.1712  3.4452  2.2782  1.9470  1.9470  1.2193  1.2193  1.2850  0.8846  0.8846
  0.7721  0.7721  0.6051  0.6280  0.6551

 Free energy of the ion-electron system (eV)
  ---------------------------------------------------
  alpha Z        PSCENC =       519.93243791
  Ewald energy   TEWEN  =      6109.79305022
  -Hartree energ DENC   =    -15130.63231499
  -exchange      EXHF   =         0.00000000
  -V(xc)+E(xc)   XCENC  =       341.54509385
  PAW double counting   =      6145.12342606    -5975.08634291
  entropy T*S    EENTRO =         0.00000000
  eigenvalues    EBANDS =     -1104.62039166
  atomic energy  EATOM  =      8937.26825017
  Solvation  Ediel_sol  =         0.00000000
  ---------------------------------------------------
  free energy    TOTEN  =      -156.67679134 eV

  energy without entropy =     -156.67679134  energy(sigma->0) =     -156.67679134


--------------------------------------------------------------------------------------------------------




--------------------------------------- Iteration      1(  21)  ---------------------------------------


    POTLOK:  cpu time    0.0920: real time    0.0945
    SETDIJ:  cpu time    0.0130: real time    0.0132
    EDDIAG:  cpu time    0.5229: real time    0.5225
  RMM-DIIS:  cpu time    3.5835: real time    3.5833
    ORTHCH:  cpu time    0.1010: real time    0.1000
 BZINTS: Fermi energy:  1.048194;128.000000 electrons
         Band energy:***********;  BLOECHL correction:  0.000000
       DOS:  cpu time    0.0000: real time    0.0012
    CHARGE:  cpu time    0.1680: real time    0.1675
    MIXING:  cpu time    0.0050: real time    0.0051
    --------------------------------------------
      LOOP:  cpu time    4.4853: real time    4.4874

 eigenvalue-minimisations  :  1665
 total energy-change (2. order) :-0.1041598E-04  (-0.7577329E-05)
 number of electron     127.9999769 magnetization 
 augmentation part       13.6030881 magnetization 

 Broyden mixing:
  rms(total) = 0.73940E-03    rms(broyden)= 0.73932E-03
  rms(prec ) = 0.82805E-03
  weight for this iteration     100.00

 eigenvalues of (default mixing * dielectric matrix)
  average eigenvalue GAMMA=   1.6302
  6.1550  3.6339  2.5888  2.0901  2.0901  1.2029  1.2029  1.1990  0.8777  0.8777
  0.8122  0.8122  0.7191  0.6220  0.6220  0.5779

 Free energy of the ion-electron system (eV)
  ---------------------------------------------------
  alpha Z        PSCENC =       519.93243791
  Ewald energy   TEWEN  =      6109.79305022
  -Hartree energ DENC   =    -15130.57444883
  -exchange      EXHF   =         0.00000000
  -V(xc)+E(xc)   XCENC  =       341.54309453
  PAW double counting   =      6145.17926478    -5975.13868650
  entropy T*S    EENTRO =         0.00000000
  eigenvalues    EBANDS =     -1104.67976404
  atomic energy  EATOM  =      8937.26825017
  Solvation  Ediel_sol  =         0.00000000
  ---------------------------------------------------
  free energy    TOTEN  =      -156.67680176 eV

  energy without entropy =     -156.67680176  energy(sigma->0) =     -156.67680176


--------------------------------------------------------------------------------------------------------




--------------------------------------- Iteration      1(  22)  ---------------------------------------


    POTLOK:  cpu time    0.0930: real time    0.0929
    SETDIJ:  cpu time    0.0130: real time    0.0132
    EDDIAG:  cpu time    0.5239: real time    0.5238
  RMM-DIIS:  cpu time    2.9146: real time    2.9138
    ORTHCH:  cpu time    0.1030: real time    0.1027
 BZINTS: Fermi energy:  1.068654;128.000000 electrons
         Band energy:***********;  BLOECHL correction:  0.000000
       DOS:  cpu time    0.0010: real time    0.0012
    --------------------------------------------
      LOOP:  cpu time    3.6484: real time    3.6476

 eigenvalue-minimisations  :  1317
 total energy-change (2. order) :-0.2289571E-05  (-0.3028779E-05)
 number of electron     127.9999769 magnetization 
 augmentation part       13.6030881 magnetization 

 Free energy of the ion-electron system (eV)
  ---------------------------------------------------
  alpha Z        PSCENC =       519.93243791
  Ewald energy   TEWEN  =      6109.79305022
  -Hartree energ DENC   =    -15130.62343997
  -exchange      EXHF   =         0.00000000
  -V(xc)+E(xc)   XCENC  =       341.54561087
  PAW double counting   =      6145.27975063    -5975.23726973
  entropy T*S    EENTRO =         0.00000000
  eigenvalues    EBANDS =     -1104.63519415
  atomic energy  EATOM  =      8937.26825017
  Solvation  Ediel_sol  =         0.00000000
  ---------------------------------------------------
  free energy    TOTEN  =      -156.67680405 eV

  energy without entropy =     -156.67680405  energy(sigma->0) =     -156.67680405


--------------------------------------------------------------------------------------------------------




 average (electrostatic) potential at core
  the test charge radii are     0.7215  1.1929  1.2598
  (the norm of the test charge is              1.0000)
       1 -72.4034       2 -72.9455       3 -72.9455       4 -72.9487       5 -73.0710
       6 -73.0710       7 -73.1917       8 -73.2534       9 -73.2534      10 -73.5207
      11 -72.9606      12 -72.9606      13 -39.2701      14 -38.2055      15 -38.3744
      16 -38.3278      17 -28.6916      18 -28.9523      19 -29.1811      20 -29.2926
 
 
 
 E-fermi :   1.0687     XC(G=0):  -8.5798     alpha+bet : -8.8586


 k-point     1 :       0.0000    0.0000    0.0000
  band No.  band energies     occupation 
      1     -33.1433      2.00000
      2     -32.2902      2.00000
      3     -32.2403      2.00000
      4     -32.1204      2.00000
      5     -16.9985      2.00000
      6     -16.8302      2.00000
      7     -16.7195      2.00000
      8     -16.4428      2.00000
      9     -15.9134      2.00000
     10     -15.9029      2.00000
     11     -15.8271      2.00000
     12     -15.7309      2.00000
     13     -15.6356      2.00000
     14     -15.6067      2.00000
     15     -15.4014      2.00000
     16     -15.0803      2.00000
     17     -15.0572      2.00000
     18     -15.0572      2.00000
     19     -14.8075      2.00000
     20     -14.3359      2.00000
     21     -14.3359      2.00000
     22     -14.2980      2.00000
     23     -14.2980      2.00000
     24     -14.1838      2.00000
     25     -14.1592      2.00000
     26     -14.1592      2.00000
     27     -13.9106      2.00000
     28     -13.7809      2.00000
     29      -3.5882      2.00000
     30      -3.0358      2.00000
     31      -2.5078      2.00000
     32      -2.3985      2.00000
     33      -2.3985      2.00000
     34      -2.2169      2.00000
     35      -2.2169      2.00000
     36      -2.0731      2.00000
     37      -2.0731      2.00000
     38      -1.9536      2.00000
     39      -1.9536      2.00000
     40      -1.7720      2.00000
     41      -1.6055      2.00000
     42      -1.4948      2.00000
     43      -1.4948      2.00000
     44      -1.2527      2.00000
     45      -1.2320      2.00000
     46      -1.1292      2.00000
     47      -1.1292      2.00000
     48      -0.9652      2.00000
     49      -0.7968      2.00000
     50      -0.7968      2.00000
     51      -0.7061      2.00000
     52      -0.6392      2.00000
     53      -0.3245      2.00000
     54      -0.2996      2.00000
     55      -0.2996      2.00000
     56      -0.1657      2.00000
     57      -0.1657      2.00000
     58       0.0411      2.00000
     59       0.0437      2.00000
     60       0.0437      2.00000
     61       0.3268      2.00000
     62       0.3268      2.00000
     63       0.4097      2.00000
     64       0.4097      2.00000
     65       2.1104      0.00000
     66       2.1877      0.00000
     67       2.1877      0.00000
     68       2.3275      0.00000
     69       2.4029      0.00000
     70       2.5341      0.00000
     71       2.7997      0.00000
     72       2.8259      0.00000
     73       3.0975      0.00000
     74       3.3945      0.00000
     75       6.0925      0.00000
     76       6.1375      0.00000

 k-point     2 :       0.1429    0.0000    0.0000
  band No.  band energies     occupation 
      1     -33.1404      2.00000
      2     -32.2867      2.00000
      3     -32.2368      2.00000
      4     -32.1170      2.00000
      5     -16.9400      2.00000
      6     -16.7726      2.00000
      7     -16.6870      2.00000
      8     -16.4351      2.00000
      9     -15.9245      2.00000
     10     -15.8877      2.00000
     11     -15.8571      2.00000
     12     -15.7495      2.00000
     13     -15.7005      2.00000
     14     -15.6279      2.00000
     15     -15.3968      2.00000
     16     -15.3076      2.00000
     17     -15.0513      2.00000
     18     -15.0503      2.00000
     19     -14.5382      2.00000
     20     -14.3276      2.00000
     21     -14.2891      2.00000
     22     -14.2371      2.00000
     23     -14.2258      2.00000
     24     -14.1746      2.00000
     25     -14.1507      2.00000
     26     -14.0518      2.00000
     27     -13.9280      2.00000
     28     -13.8148      2.00000
     29      -3.5996      2.00000
     30      -3.0827      2.00000
     31      -2.7072      2.00000
     32      -2.6042      2.00000
     33      -2.5391      2.00000
     34      -2.4168      2.00000
     35      -2.4032      2.00000
     36      -2.2455      2.00000
     37      -2.2230      2.00000
     38      -2.1227      2.00000
     39      -2.0746      2.00000
     40      -1.9983      2.00000
     41      -1.8664      2.00000
     42      -1.6026      2.00000
     43      -1.5661      2.00000
     44      -1.3810      2.00000
     45      -1.3209      2.00000
     46      -1.2122      2.00000
[...]
     43      -2.3269      2.00000
     44      -2.2419      2.00000
     45      -1.9621      2.00000
     46      -1.8527      2.00000
     47      -1.8421      2.00000
     48      -1.6832      2.00000
     49      -1.5491      2.00000
     50      -1.3312      2.00000
     51      -1.0966      2.00000
     52      -1.0130      2.00000
     53      -0.7571      2.00000
     54      -0.6991      2.00000
     55      -0.6054      2.00000
     56      -0.5611      2.00000
     57      -0.5211      2.00000
     58      -0.4911      2.00000
     59      -0.3639      2.00000
     60      -0.3129      2.00000
     61      -0.0096      2.00000
     62       0.0128      2.00000
     63       0.1440      2.00000
     64       0.4545      2.00000
     65       2.5907      0.00000
     66       3.0940      0.00000
     67       3.5563      0.00000
     68       3.8180      0.00000
     69       3.8390      0.00000
     70       4.0180      0.00000
     71       4.0233      0.00000
     72       4.0492      0.00000
     73       4.1193      0.00000
     74       4.2198      0.00000
     75       4.3700      0.00000
     76       8.0730      0.00000

 k-point     8 :       0.2857    0.2857    0.0000
  band No.  band energies     occupation 
      1     -33.1248      2.00000
      2     -32.2683      2.00000
      3     -32.2185      2.00000
      4     -32.0987      2.00000
      5     -16.7085      2.00000
      6     -16.4603      2.00000
      7     -16.3076      2.00000
      8     -16.2058      2.00000
      9     -15.9955      2.00000
     10     -15.8425      2.00000
     11     -15.8255      2.00000
     12     -15.7041      2.00000
     13     -15.6973      2.00000
     14     -15.6054      2.00000
     15     -15.5139      2.00000
     16     -15.3792      2.00000
     17     -15.0812      2.00000
     18     -14.9950      2.00000
     19     -14.3642      2.00000
     20     -14.3236      2.00000
     21     -14.2837      2.00000
     22     -14.1984      2.00000
     23     -14.1816      2.00000
     24     -14.0796      2.00000
     25     -14.0563      2.00000
     26     -14.0323      2.00000
     27     -13.9693      2.00000
     28     -13.8748      2.00000
     29      -3.6585      2.00000
     30      -3.4594      2.00000
     31      -3.3788      2.00000
     32      -3.2521      2.00000
     33      -3.0422      2.00000
     34      -3.0129      2.00000
     35      -2.8854      2.00000
     36      -2.8526      2.00000
     37      -2.8197      2.00000
     38      -2.7955      2.00000
     39      -2.7653      2.00000
     40      -2.6887      2.00000
     41      -2.6321      2.00000
     42      -2.5954      2.00000
     43      -2.5535      2.00000
     44      -2.4283      2.00000
     45      -2.3964      2.00000
     46      -2.3563      2.00000
     47      -2.1434      2.00000
     48      -2.0171      2.00000
     49      -1.9970      2.00000
     50      -1.6348      2.00000
     51      -1.4178      2.00000
     52      -0.8549      2.00000
     53      -0.7976      2.00000
     54      -0.5765      2.00000
     55      -0.3803      2.00000
     56      -0.3224      2.00000
     57      -0.1744      2.00000
     58      -0.1330      2.00000
     59      -0.1060      2.00000
     60       0.0265      2.00000
     61       0.0766      2.00000
     62       0.1638      2.00000
     63       0.3308      2.00000
     64       0.5371      2.00000
     65       3.1010      0.00000
     66       3.3662      0.00000
     67       3.5333      0.00000
     68       3.6332      0.00000
     69       3.6856      0.00000
     70       3.8462      0.00000
     71       3.9011      0.00000
     72       3.9061      0.00000
     73       4.0530      0.00000
     74       4.1524      0.00000
     75       4.2112      0.00000
     76       4.3056      0.00000

 k-point     9 :       0.4286    0.2857    0.0000
  band No.  band energies     occupation 
      1     -33.1198      2.00000
      2     -32.2624      2.00000
      3     -32.2126      2.00000
      4     -32.0929      2.00000
      5     -16.6384      2.00000
      6     -16.3754      2.00000
      7     -16.1763      2.00000
      8     -16.0143      2.00000
      9     -15.9748      2.00000
     10     -15.8656      2.00000
     11     -15.8034      2.00000
     12     -15.7742      2.00000
     13     -15.6519      2.00000
     14     -15.4872      2.00000
     15     -15.3819      2.00000
     16     -15.3674      2.00000
     17     -15.1846      2.00000
     18     -14.9581      2.00000
     19     -14.4038      2.00000
     20     -14.3791      2.00000
     21     -14.3418      2.00000
     22     -14.2303      2.00000
     23     -14.1582      2.00000
     24     -14.1259      2.00000
     25     -14.0823      2.00000
     26     -14.0213      2.00000
     27     -14.0039      2.00000
     28     -13.8866      2.00000
     29      -3.8382      2.00000
     30      -3.6669      2.00000
     31      -3.5156      2.00000
     32      -3.4679      2.00000
     33      -3.3974      2.00000
     34      -3.3723      2.00000
     35      -3.2985      2.00000
     36      -3.1946      2.00000
     37      -3.0765      2.00000
     38      -2.9996      2.00000
     39      -2.9071      2.00000
     40      -2.8618      2.00000
     41      -2.8142      2.00000
     42      -2.7925      2.00000
     43      -2.6897      2.00000
     44      -2.6057      2.00000
     45      -2.4798      2.00000
     46      -2.4575      2.00000
     47      -2.4101      2.00000
     48      -2.2350      2.00000
     49      -2.0076      2.00000
     50      -1.9118      2.00000
     51      -1.4849      2.00000
     52      -0.8705      2.00000
     53      -0.7244      2.00000
     54      -0.6190      2.00000
     55      -0.3593      2.00000
     56      -0.3026      2.00000
     57      -0.1112      2.00000
     58      -0.0463      2.00000
     59       0.0257      2.00000
     60       0.1629      2.00000
     61       0.1907      2.00000
     62       0.1955      2.00000
     63       0.4756      2.00000
     64       0.6941      2.00000
     65       3.2290      0.00000
     66       3.6149      0.00000
     67       3.7937      0.00000
     68       3.9304      0.00000
     69       4.0101      0.00000
     70       4.0343      0.00000
     71       4.2274      0.00000
     72       4.2473      0.00000
     73       4.2979      0.00000
     74       4.3808      0.00000
     75       4.4917      0.00000
     76       8.1672      0.00000

 k-point    10 :       0.4286    0.4286    0.0000
  band No.  band energies     occupation 
      1     -33.1149      2.00000
      2     -32.2568      2.00000
      3     -32.2070      2.00000
      4     -32.0873      2.00000
      5     -16.3858      2.00000
      6     -16.1292      2.00000
      7     -16.0488      2.00000
      8     -15.9862      2.00000
      9     -15.9078      2.00000
     10     -15.8895      2.00000
     11     -15.7513      2.00000
     12     -15.7175      2.00000
     13     -15.6479      2.00000
     14     -15.3903      2.00000
     15     -15.3587      2.00000
     16     -15.3420      2.00000
     17     -15.0865      2.00000
     18     -14.9837      2.00000
     19     -14.6489      2.00000
     20     -14.4394      2.00000
     21     -14.3893      2.00000
     22     -14.3873      2.00000
     23     -14.2400      2.00000
     24     -14.2007      2.00000
     25     -14.1227      2.00000
     26     -14.0793      2.00000
     27     -13.9668      2.00000
     28     -13.9434      2.00000
     29      -3.9558      2.00000
     30      -3.7847      2.00000
     31      -3.7244      2.00000
     32      -3.5995      2.00000
     33      -3.5918      2.00000
     34      -3.5355      2.00000
     35      -3.4531      2.00000
     36      -3.3979      2.00000
     37      -3.3971      2.00000
     38      -3.2621      2.00000
     39      -3.2355      2.00000
     40      -3.1664      2.00000
     41      -3.0743      2.00000
     42      -3.0459      2.00000
     43      -2.7942      2.00000
     44      -2.7841      2.00000
     45      -2.7529      2.00000
     46      -2.7250      2.00000
     47      -2.3810      2.00000
     48      -2.3489      2.00000
     49      -2.1263      2.00000
     50      -2.0281      2.00000
     51      -1.7532      2.00000
     52      -0.7582      2.00000
     53      -0.6901      2.00000
     54      -0.5895      2.00000
     55      -0.2859      2.00000
     56      -0.2401      2.00000
     57       0.0912      2.00000
     58       0.1350      2.00000
     59       0.2863      2.00000
     60       0.4358      2.00000
     61       0.4510      2.00000
     62       0.4954      2.00000
     63       0.5679      2.00000
     64       1.0225      2.00000
     65       3.8018      0.00000
     66       3.8622      0.00000
     67       4.1490      0.00000
     68       4.1722      0.00000
     69       4.2733      0.00000
     70       4.3963      0.00000
     71       4.4834      0.00000
     72       4.5737      0.00000
     73       4.6293      0.00000
     74       7.7467      0.00000
     75       7.7806      0.00000
     76       7.8045      0.00000


--------------------------------------------------------------------------------------------------------


 soft charge-density along one line, spin component           1
         0         1         2         3         4         5         6         7         8         9
 total charge-density along one line
 
 pseudopotential strength for first ion, spin component:           1
 12.538  -0.323   0.000  -0.021   0.000  -0.000   0.001  -0.000
 -0.323   0.079  -0.000   0.002  -0.000   0.000  -0.000   0.000
  0.000  -0.000  -8.793   0.000   0.000  -0.130  -0.000  -0.000
 -0.021   0.002   0.000  -8.813   0.000  -0.000  -0.127  -0.000
  0.000  -0.000   0.000   0.000  -8.793  -0.000  -0.000  -0.130
 -0.000   0.000  -0.130  -0.000  -0.000   0.259   0.000   0.000
  0.001  -0.000  -0.000  -0.127  -0.000   0.000   0.258   0.000
 -0.000   0.000  -0.000  -0.000  -0.130   0.000   0.000   0.259
 total augmentation occupancy for first ion, spin component:           1
  1.866   0.123   0.000  -0.010  -0.000   0.000   0.012   0.000
  0.123   0.012   0.000   0.027   0.000  -0.000   0.005   0.000
  0.000   0.000   1.515   0.000   0.000   0.121  -0.000   0.000
 -0.010   0.027   0.000   1.515  -0.000   0.000   0.131   0.000
 -0.000   0.000   0.000  -0.000   1.515   0.000   0.000   0.121
  0.000   0.000   0.121   0.000   0.000   0.011   0.000   0.000
  0.012   0.005   0.000   0.131   0.000   0.000   0.012  -0.000
  0.000   0.000   0.000  -0.000   0.121   0.000  -0.000   0.011


------------------------ aborting loop because EDIFF is reached ----------------------------------------


    CHARGE:  cpu time    0.1690: real time    0.1691
    FORLOC:  cpu time    0.0190: real time    0.0188
    FORNL :  cpu time    1.7557: real time    1.7548
    STRESS:  cpu time    3.8614: real time    3.8611
    FORCOR:  cpu time    0.0990: real time    0.0990
    FORHAR:  cpu time    0.0340: real time    0.0339
    MIXING:  cpu time    0.0050: real time    0.0052
    OFIELD:  cpu time    0.0000: real time    0.0000

  FORCE on cell =-STRESS in cart. coord.  units (eV):
  Direction    XX          YY          ZZ          XY          YZ          ZX
  --------------------------------------------------------------------------------------
  Alpha Z   519.93244   519.93244   519.93244
  Ewald   11167.56133 11167.56133-16225.34664    -0.00000    -0.00000    -0.00000
  Hartree 13906.45140 13906.45140-12682.16191    -0.00000    -0.00000    -0.00000
  E(xc)    -577.80412  -577.80412  -577.36189     0.00000     0.00000     0.00000
  Local  -26886.29324-26886.29324 27103.55772    -0.00000     0.00000     0.00000
  n-local  -488.64327  -466.91561  -479.75391    -1.62236     0.00001     0.00009
  augment   116.03580   116.03580   115.02560     0.00000    -0.00000     0.00000
  Kinetic  2204.19440  2248.35728  2222.58625    -9.23134    -0.00005    -0.00019
  Fock        0.00000     0.00000     0.00000     0.00000     0.00000     0.00000
  -------------------------------------------------------------------------------------
  Total      -5.61998    -5.61998    -3.52235     0.00000    -0.00000     0.00000
  in kB     -26.49782   -26.49782   -16.60765     0.00000    -0.00000     0.00000
  external pressure =      -23.20 kB  Pullay stress =        0.00 kB


 VOLUME and BASIS-vectors are now :
 -----------------------------------------------------------------------------
  energy-cutoff  :      500.00
  volume of cell :      339.81
      direct lattice vectors                 reciprocal lattice vectors
     3.946846342  0.000000000  0.000000000     0.253366844  0.000000000  0.000000000
     0.000000000  3.946846342  0.000000000     0.000000000  0.253366844  0.000000000
     0.000000000  0.000000000 21.813962196     0.000000000  0.000000000  0.045842199

  length of vectors
     3.946846342  3.946846342 21.813962196     0.253366844  0.253366844  0.045842199


 FORCES acting on ions
    electron-ion (+dipol)            ewald-force                    non-local-force                 convergence-correction
 -----------------------------------------------------------------------------------------------
   0.175E-12 -.360E-12 0.109E+04   -.135E-14 -.307E-14 -.109E+04   0.000E+00 0.000E+00 0.821E+01   0.769E-14 -.122E-13 0.129E-02
   0.152E-12 -.157E-12 0.771E+03   -.146E-13 0.687E-14 -.770E+03   -.424E-21 0.000E+00 -.122E+00   -.531E-14 0.584E-14 0.119E-04
   -.314E-14 -.110E-12 0.771E+03   0.426E-14 0.112E-14 -.770E+03   -.847E-21 0.847E-21 -.122E+00   0.158E-13 -.329E-14 0.119E-04
   0.165E-12 0.450E-13 0.462E+03   0.373E-14 -.232E-14 -.462E+03   -.847E-21 0.000E+00 0.886E+00   0.836E-14 -.534E-15 -.459E-03
   0.164E-12 0.261E-13 0.154E+03   -.156E-13 0.632E-14 -.154E+03   0.000E+00 0.106E-21 0.346E+00   0.138E-13 0.101E-13 -.435E-03
   -.911E-14 0.208E-12 0.154E+03   0.365E-14 0.831E-15 -.154E+03   0.000E+00 -.106E-21 0.346E+00   0.135E-13 0.359E-14 -.435E-03
   0.161E-12 -.320E-12 -.154E+03   0.481E-15 -.412E-14 0.154E+03   0.000E+00 0.000E+00 0.744E+00   0.156E-13 0.104E-13 0.471E-03
   0.177E-12 0.864E-13 -.462E+03   -.146E-13 0.740E-14 0.462E+03   0.000E+00 0.000E+00 0.184E+00   0.124E-13 0.782E-14 0.182E-02
   -.747E-14 0.115E-12 -.462E+03   0.363E-14 -.694E-14 0.462E+03   0.000E+00 0.000E+00 0.184E+00   0.610E-14 0.207E-13 0.182E-02
   0.156E-12 0.286E-12 -.771E+03   0.357E-16 -.420E-14 0.770E+03   -.106E-21 0.000E+00 0.278E+01   0.532E-14 0.270E-13 0.509E-02
   0.201E-12 -.720E-12 -.105E+04   -.950E-14 0.642E-14 0.106E+04   0.000E+00 0.000E+00 -.199E+01   -.111E-13 0.739E-14 0.803E-02
   0.107E-15 -.252E-12 -.105E+04   0.244E-14 -.111E-15 0.106E+04   0.265E-22 0.212E-21 -.199E+01   -.945E-14 0.353E-13 0.803E-02
   -.103E-13 0.151E-12 0.175E+04   -.280E-14 0.673E-15 -.174E+04   -.847E-21 0.000E+00 -.486E+01   0.278E-13 -.377E-14 -.427E-03
   -.282E-14 0.234E-13 0.770E+03   -.149E-14 -.421E-14 -.770E+03   -.424E-21 0.000E+00 0.103E+00   0.157E-13 0.951E-14 -.445E-03
   -.536E-14 0.452E-13 -.257E+03   0.791E-15 0.613E-14 0.257E+03   0.000E+00 -.847E-21 0.191E+00   0.674E-14 0.193E-13 -.456E-04
   -.373E-15 0.143E-13 -.128E+04   0.119E-14 -.181E-14 0.129E+04   0.847E-21 0.000E+00 -.693E+00   0.257E-14 0.234E-13 0.904E-02
   -.319E-14 -.198E-12 0.513E+03   0.239E-14 -.419E-14 -.514E+03   0.000E+00 0.212E-21 -.390E+00   -.161E-14 0.334E-14 0.231E-03
   0.273E-14 -.134E-12 0.102E+03   0.556E-14 -.430E-14 -.103E+03   -.106E-21 0.000E+00 -.130E+00   -.534E-15 0.185E-14 -.137E-03
   0.753E-16 0.862E-13 -.309E+03   0.267E-14 -.457E-14 0.308E+03   0.265E-22 0.000E+00 -.590E-01   -.353E-14 -.220E-14 0.146E-02
   -.600E-14 -.378E-13 -.727E+03   0.464E-14 -.472E-14 0.723E+03   0.000E+00 0.000E+00 0.131E+01   0.438E-15 -.173E-14 0.477E-02
 -----------------------------------------------------------------------------------------------
   0.131E-11 -.120E-11 -.496E+01   -.245E-13 -.882E-14 -.341E-12   -.270E-20 0.424E-21 0.492E+01   0.120E-12 0.162E-12 0.397E-01
 
 
 POSITION                                       TOTAL-FORCE (eV/Angst)
 -----------------------------------------------------------------------------------
      1.97342      1.97342      4.00000        -0.000000     -0.000000     -0.570645
      1.97342      0.00000      5.97342        -0.000000      0.000000      0.028298
      0.00000      1.97342      5.97342         0.000000     -0.000000      0.028298
      1.97342      1.97342      7.94685        -0.000000     -0.000000      0.501478
      1.97342      0.00000      9.92027         0.000000     -0.000000      0.107979
      0.00000      1.97342      9.92027         0.000000     -0.000000      0.107979
      1.97342      1.97342     11.89369         0.000000     -0.000000      0.425614
      1.97342      0.00000     13.86712         0.000000     -0.000000      0.065216
      0.00000      1.97342     13.86712         0.000000      0.000000      0.065216
      1.97342      1.97342     15.84054         0.000000     -0.000000      1.119930
      1.97342      0.00000     17.81396         0.000000      0.000000      0.429883
      0.00000      1.97342     17.81396         0.000000     -0.000000      0.429883
      0.00000      0.00000      4.00000         0.000000     -0.000000      1.277537
      0.00000      0.00000      7.94685         0.000000      0.000000     -0.057443
      0.00000      0.00000     11.89369         0.000000     -0.000000     -0.109330
      0.00000      0.00000     15.84054         0.000000     -0.000000      0.581634
      1.97342      1.97342      5.97342         0.000000      0.000000     -1.143005
      1.97342      1.97342      9.92027         0.000000     -0.000000     -0.465367
      1.97342      1.97342     13.86712         0.000000     -0.000000     -0.524051
      1.97342      1.97342     17.81396         0.000000      0.000000     -2.299105
 -----------------------------------------------------------------------------------
    total drift:                                0.000000     -0.000000     -0.001685


--------------------------------------------------------------------------------------------------------



  FREE ENERGIE OF THE ION-ELECTRON SYSTEM (eV)
  ---------------------------------------------------
  free  energy   TOTEN  =      -156.67680405 eV

  energy  without entropy=     -156.67680405  energy(sigma->0) =     -156.67680405
 


--------------------------------------------------------------------------------------------------------


    POTLOK:  cpu time    0.1050: real time    0.1048


--------------------------------------------------------------------------------------------------------


     LOOP+:  cpu time  117.0572: real time  117.2812
    4ORBIT:  cpu time    0.0000: real time    0.0000
 BZINTS: Fermi energy:  1.068654;128.000000 electrons
         Band energy:***********;  BLOECHL correction:  0.000000

 total amount of memory used by VASP MPI-rank0    93149. kBytes
=======================================================================

   base      :      30000. kBytes
   nonl-proj :      20035. kBytes
   fftplans  :       5724. kBytes
   grid      :      10289. kBytes
   one-center:        155. kBytes
   wavefun   :      26946. kBytes
 
  
  
 General timing and accounting informations for this job:
 ========================================================
  
                  Total CPU time used (sec):      119.129
                            User time (sec):      117.311
                          System time (sec):        1.818
                         Elapsed time (sec):      119.877
  
                   Maximum memory used (kb):      104928.
                   Average memory used (kb):           0.
  
                          Minor page faults:        32842
                          Major page faults:          359
                 Voluntary context switches:         3816
