<?xml version="1.0" encoding="ISO-8859-1"?>
<modeling>
 <generator>
  <i name="program" type="string">vasp </i>
  <i name="version" type="string">5.4.4.18Apr17-6-g9f103f2a35  </i>
  <i name="subversion" type="string">(build Jun 30 2017 11:15:00) complex            parallel </i>
  <i name="platform" type="string">STALLO_VASP_5.4.4 </i>
  <i name="date" type="string">2019 11 08 </i>
  <i name="time" type="string">10:20:03 </i>
 </generator>
 <incar>
  <i type="string" name="PREC">normal    ! low/normal/accurate</i>
  <i type="string" name="ALGO"> Fast      ! Algorithm for electronic re</i>
  <i type="int" name="ISPIN">     1</i>
  <i type="int" name="NELMIN">     4</i>
  <i name="EDIFF">      0.00001000</i>
  <i type="int" name="NSW">     0</i>
  <i name="ENCUT">    500.00000000</i>
  <i type="logical" name="LREAL"> F  </i>
  <i type="int" name="ISMEAR">    -5</i>
  <i name="SIGMA">      0.20000000</i>
  <i type="logical" name="LWAVE"> F  </i>
  <v type="int" name="KPOINT_BSE">    -1     0     0     0</v>
 </incar>
 <structure name="primitive_cell" >
  <crystal>
   <varray name="basis" >
    <v>       3.94684634       0.00000000       0.00000000 </v>
    <v>       0.00000000       3.94684634       0.00000000 </v>
    <v>       0.00000000       0.00000000      21.81396220 </v>
   </varray>
   <i name="volume">    339.80909121 </i>
   <varray name="rec_basis" >
    <v>       0.25336684       0.00000000       0.00000000 </v>
    <v>       0.00000000       0.25336684       0.00000000 </v>
    <v>       0.00000000       0.00000000       0.04584220 </v>
   </varray>
  </crystal>
  <varray name="positions" >
   <v>      -0.50000000      -0.50000000       0.18336880 </v>
   <v>      -0.50000000      -0.50000000       0.27383485 </v>
   <v>      -0.50000000       0.00000000       0.27383485 </v>
   <v>       0.00000000      -0.50000000       0.27383485 </v>
   <v>       0.00000000       0.00000000       0.18336880 </v>
   <v>      -0.50000000      -0.50000000       0.36430091 </v>
   <v>       0.00000000       0.00000000       0.36430091 </v>
   <v>      -0.50000000      -0.50000000       0.45476697 </v>
   <v>      -0.50000000       0.00000000       0.45476697 </v>
   <v>       0.00000000      -0.50000000       0.45476697 </v>
   <v>      -0.50000000      -0.50000000      -0.45476697 </v>
   <v>      -0.50000000      -0.50000000      -0.18336880 </v>
   <v>      -0.50000000       0.00000000      -0.18336880 </v>
   <v>       0.00000000      -0.50000000      -0.18336880 </v>
   <v>       0.00000000       0.00000000      -0.45476697 </v>
   <v>      -0.50000000      -0.50000000      -0.36430091 </v>
   <v>      -0.50000000      -0.50000000      -0.27383485 </v>
   <v>      -0.50000000       0.00000000      -0.36430091 </v>
   <v>       0.00000000      -0.50000000      -0.36430091 </v>
   <v>       0.00000000       0.00000000      -0.27383485 </v>
  </varray>
 </structure>
 <varray name="primitive_index" >
  <v type="int" >        1 </v>
  <v type="int" >       17 </v>
  <v type="int" >        2 </v>
  <v type="int" >        3 </v>
  <v type="int" >       13 </v>
  <v type="int" >        4 </v>
  <v type="int" >       14 </v>
  <v type="int" >       18 </v>
  <v type="int" >        5 </v>
  <v type="int" >        6 </v>
  <v type="int" >        7 </v>
  <v type="int" >       20 </v>
  <v type="int" >       11 </v>
  <v type="int" >       12 </v>
  <v type="int" >       15 </v>
  <v type="int" >       19 </v>
  <v type="int" >       10 </v>
  <v type="int" >        8 </v>
  <v type="int" >        9 </v>
  <v type="int" >       16 </v>
 </varray>
 <kpoints>
  <generation param="Gamma">
   <v type="int" name="divisions">       7        7        1 </v>
   <v name="usershift">      0.00000000       0.00000000       0.00000000 </v>
   <v name="genvec1">      0.14285714       0.00000000       0.00000000 </v>
   <v name="genvec2">      0.00000000       0.14285714       0.00000000 </v>
   <v name="genvec3">      0.00000000       0.00000000       1.00000000 </v>
   <v name="shift">      0.00000000       0.00000000       0.00000000 </v>
  </generation>
  <varray name="kpointlist" >
   <v>       0.00000000       0.00000000       0.00000000 </v>
   <v>       0.14285714       0.00000000       0.00000000 </v>
   <v>       0.28571429       0.00000000       0.00000000 </v>
   <v>       0.42857143       0.00000000       0.00000000 </v>
   <v>       0.14285714       0.14285714       0.00000000 </v>
   <v>       0.28571429       0.14285714       0.00000000 </v>
   <v>       0.42857143       0.14285714       0.00000000 </v>
   <v>       0.28571429       0.28571429       0.00000000 </v>
   <v>       0.42857143       0.28571429       0.00000000 </v>
   <v>       0.42857143       0.42857143       0.00000000 </v>
  </varray>
  <varray name="weights" >
   <v>       0.02040816 </v>
   <v>       0.08163265 </v>
   <v>       0.08163265 </v>
   <v>       0.08163265 </v>
   <v>       0.08163265 </v>
   <v>       0.16326531 </v>
   <v>       0.16326531 </v>
   <v>       0.08163265 </v>
   <v>       0.16326531 </v>
   <v>       0.08163265 </v>
  </varray>
  <varray name="tetrahedronlist"  type="int" >
   <v type="int" >        4        1        1        2        5 </v>
   <v type="int" >        4        1        2        2        5 </v>
   <v type="int" >        4        1        2        5        5 </v>
   <v type="int" >        4        2        2        3        6 </v>
   <v type="int" >        4        2        2        5        6 </v>
   <v type="int" >        4        2        5        5        6 </v>
   <v type="int" >        4        2        3        3        6 </v>
   <v type="int" >        4        2        3        6        6 </v>
   <v type="int" >        4        2        5        6        6 </v>
   <v type="int" >        4        3        3        4        7 </v>
   <v type="int" >        4        3        3        6        7 </v>
   <v type="int" >        4        3        6        6        7 </v>
   <v type="int" >        4        3        4        4        7 </v>
   <v type="int" >        4        3        4        7        7 </v>
   <v type="int" >        4        3        6        7        7 </v>
   <v type="int" >        8        4        4        4        7 </v>
   <v type="int" >        8        4        4        7        7 </v>
   <v type="int" >        8        4        7        7        7 </v>
   <v type="int" >        4        3        4        4        6 </v>
   <v type="int" >        4        4        4        6        7 </v>
   <v type="int" >        4        4        6        7        7 </v>
   <v type="int" >        4        3        3        4        6 </v>
   <v type="int" >        4        3        4        6        6 </v>
   <v type="int" >        4        4        6        6        7 </v>
   <v type="int" >        4        2        3        3        5 </v>
   <v type="int" >        4        3        3        5        6 </v>
   <v type="int" >        4        3        5        6        6 </v>
   <v type="int" >        4        2        2        3        5 </v>
   <v type="int" >        4        2        3        5        5 </v>
   <v type="int" >        4        3        5        5        6 </v>
   <v type="int" >        4        1        2        2        2 </v>
   <v type="int" >        4        2        2        2        5 </v>
   <v type="int" >        2        2        2        5        5 </v>
   <v type="int" >        2        1        1        2        2 </v>
   <v type="int" >        4        5        5        6        8 </v>
   <v type="int" >        4        5        6        6        8 </v>
   <v type="int" >        4        5        6        8        8 </v>
   <v type="int" >        4        6        6        7        9 </v>
   <v type="int" >        4        6        6        8        9 </v>
   <v type="int" >        4        6        8        8        9 </v>
   <v type="int" >        4        6        7        7        9 </v>
   <v type="int" >        4        6        7        9        9 </v>
   <v type="int" >        4        6        8        9        9 </v>
   <v type="int" >        8        7        7        7        9 </v>
   <v type="int" >        8        7        7        9        9 </v>
   <v type="int" >        8        7        9        9        9 </v>
   <v type="int" >        4        6        7        7        8 </v>
   <v type="int" >        4        7        7        8        9 </v>
   <v type="int" >        4        7        8        9        9 </v>
   <v type="int" >        4        6        6        7        8 </v>
   <v type="int" >        4        6        7        8        8 </v>
   <v type="int" >        4        7        8        8        9 </v>
   <v type="int" >        4        5        6        6        6 </v>
   <v type="int" >        4        6        6        6        8 </v>
   <v type="int" >        2        6        6        8        8 </v>
   <v type="int" >        2        5        5        6        6 </v>
   <v type="int" >        4        8        8        9       10 </v>
   <v type="int" >        4        8        9        9       10 </v>
   <v type="int" >        4        8        9       10       10 </v>
   <v type="int" >       12        9        9        9       10 </v>
   <v type="int" >       10        9        9       10       10 </v>
   <v type="int" >        8        9       10       10       10 </v>
   <v type="int" >        4        8        9        9        9 </v>
   <v type="int" >        2        8        8        9        9 </v>
   <v type="int" >        6       10       10       10       10 </v>
  </varray>
  <i name="volumeweight">      0.00340136 </i>
 </kpoints>
 <parameters>
  <separator name="general" >
   <i type="string" name="SYSTEM">unknown system</i>
   <i type="logical" name="LCOMPAT"> F  </i>
  </separator>
  <separator name="electronic" >
   <i type="string" name="PREC">normal</i>
   <i name="ENMAX">    500.00000000</i>
   <i name="ENAUG">    605.39200000</i>
   <i name="EDIFF">      0.00001000</i>
   <i type="int" name="IALGO">    68</i>
   <i type="int" name="IWAVPR">    10</i>
   <i type="int" name="NBANDS">    76</i>
   <i name="NELECT">    128.00000000</i>
   <i type="int" name="TURBO">     0</i>
   <i type="int" name="IRESTART">     0</i>
   <i type="int" name="NREBOOT">     0</i>
   <i type="int" name="NMIN">     0</i>
   <i name="EREF">      0.00000000</i>
   <separator name="electronic smearing" >
    <i type="int" name="ISMEAR">    -5</i>
    <i name="SIGMA">      0.20000000</i>
    <i name="KSPACING">      0.50000000</i>
    <i type="logical" name="KGAMMA"> T  </i>
   </separator>
   <separator name="electronic projectors" >
    <i type="logical" name="LREAL"> F  </i>
    <v name="ROPT">      0.00000000      0.00000000      0.00000000</v>
    <i type="int" name="LMAXPAW">  -100</i>
    <i type="int" name="LMAXMIX">     2</i>
    <i type="logical" name="NLSPLINE"> F  </i>
   </separator>
   <separator name="electronic startup" >
    <i type="int" name="ISTART">     0</i>
    <i type="int" name="ICHARG">     2</i>
    <i type="int" name="INIWAV">     1</i>
   </separator>
   <separator name="electronic spin" >
    <i type="int" name="ISPIN">     1</i>
    <i type="logical" name="LNONCOLLINEAR"> F  </i>
    <v name="MAGMOM">      1.00000000      1.00000000      1.00000000      1.00000000      1.00000000      1.00000000      1.00000000      1.00000000      1.00000000      1.00000000      1.00000000      1.00000000      1.00000000      1.00000000      1.00000000      1.00000000      1.00000000      1.00000000      1.00000000      1.00000000
</v>
    <i name="NUPDOWN">     -1.00000000</i>
    <i type="logical" name="LSORBIT"> F  </i>
    <v name="SAXIS">      0.00000000      0.00000000      1.00000000</v>
    <i type="logical" name="LSPIRAL"> F  </i>
    <v name="QSPIRAL">      0.00000000      0.00000000      0.00000000</v>
    <i type="logical" name="LZEROZ"> F  </i>
   </separator>
   <separator name="electronic exchange-correlation" >
    <i type="logical" name="LASPH"> F  </i>
    <i type="logical" name="LMETAGGA"> F  </i>
   </separator>
   <separator name="electronic convergence" >
    <i type="int" name="NELM">    60</i>
    <i type="int" name="NELMDL">    -5</i>
    <i type="int" name="NELMIN">     4</i>
    <i name="ENINI">    500.00000000</i>
    <separator name="electronic convergence detail" >
     <i type="logical" name="LDIAG"> T  </i>
     <i type="logical" name="LSUBROT"> F  </i>
     <i name="WEIMIN">      0.00000000</i>
     <i name="EBREAK">      0.00000003</i>
     <i name="DEPER">      0.30000000</i>
     <i type="int" name="NRMM">     4</i>
     <i name="TIME">      0.40000000</i>
    </separator>
   </separator>
   <separator name="electronic mixer" >
    <i name="AMIX">      0.40000000</i>
    <i name="BMIX">      1.00000000</i>
    <i name="AMIN">      0.10000000</i>
    <i name="AMIX_MAG">      1.60000000</i>
    <i name="BMIX_MAG">      1.00000000</i>
    <separator name="electronic mixer details" >
     <i type="int" name="IMIX">     4</i>
     <i type="logical" name="MIXFIRST"> F  </i>
     <i type="int" name="MAXMIX">   -45</i>
     <i name="WC">    100.00000000</i>
     <i type="int" name="INIMIX">     1</i>
     <i type="int" name="MIXPRE">     1</i>
     <i type="int" name="MREMOVE">     5</i>
    </separator>
   </separator>
   <separator name="electronic dipolcorrection" >
    <i type="logical" name="LDIPOL"> F  </i>
    <i type="logical" name="LMONO"> F  </i>
    <i type="int" name="IDIPOL">     0</i>
    <i name="EPSILON">      1.00000000</i>
    <v name="DIPOL">   -100.00000000   -100.00000000   -100.00000000</v>
    <i name="EFIELD">      0.00000000</i>
   </separator>
  </separator>
  <separator name="grids" >
   <i type="int" name="NGX">    24</i>
   <i type="int" name="NGY">    24</i>
   <i type="int" name="NGZ">   120</i>
   <i type="int" name="NGXF">    48</i>
   <i type="int" name="NGYF">    48</i>
   <i type="int" name="NGZF">   240</i>
   <i type="logical" name="ADDGRID"> F  </i>
  </separator>
  <separator name="ionic" >
   <i type="int" name="NSW">     0</i>
   <i type="int" name="IBRION">    -1</i>
   <i type="int" name="MDALGO">     0</i>
   <i type="int" name="ISIF">     2</i>
   <i name="PSTRESS">      0.00000000</i>
   <i name="EDIFFG">      0.00010000</i>
   <i type="int" name="NFREE">     0</i>
   <i name="POTIM">      0.50000000</i>
   <i name="SMASS">     -3.00000000</i>
   <i name="SCALEE">      1.00000000</i>
  </separator>
  <separator name="ionic md" >
   <i name="TEBEG">      0.00010000</i>
   <i name="TEEND">      0.00010000</i>
   <i type="int" name="NBLOCK">     1</i>
   <i type="int" name="KBLOCK">     1</i>
   <i type="int" name="NPACO">   256</i>
   <i name="APACO">     16.00000000</i>
  </separator>
  <separator name="symmetry" >
   <i type="int" name="ISYM">     2</i>
   <i name="SYMPREC">      0.00001000</i>
  </separator>
  <separator name="dos" >
   <i type="int" name="LORBIT">     0</i>
   <v name="RWIGS">     -1.00000000     -1.00000000     -1.00000000</v>
   <i type="int" name="NEDOS">   301</i>
   <i name="EMIN">     10.00000000</i>
   <i name="EMAX">    -10.00000000</i>
   <i name="EFERMI">      0.00000000</i>
  </separator>
  <separator name="writing" >
   <i type="int" name="NWRITE">     2</i>
   <i type="logical" name="LWAVE"> F  </i>
   <i type="logical" name="LDOWNSAMPLE"> F  </i>
   <i type="logical" name="LCHARG"> T  </i>
   <i type="logical" name="LPARD"> F  </i>
   <i type="logical" name="LVTOT"> F  </i>
   <i type="logical" name="LVHAR"> F  </i>
   <i type="logical" name="LELF"> F  </i>
   <i type="logical" name="LOPTICS"> F  </i>
   <v name="STM">      0.00000000      0.00000000      0.00000000      0.00000000      0.00000000      0.00000000      0.00000000</v>
  </separator>
  <separator name="performance" >
   <i type="int" name="NPAR">     2</i>
   <i type="int" name="NSIM">     4</i>
   <i type="int" name="NBLK">    -1</i>
   <i type="logical" name="LPLANE"> T  </i>
   <i type="logical" name="LSCALAPACK"> T  </i>
   <i type="logical" name="LSCAAWARE"> F  </i>
   <i type="logical" name="LSCALU"> F  </i>
   <i type="logical" name="LASYNC"> F  </i>
   <i type="logical" name="LORBITALREAL"> F  </i>
  </separator>
  <separator name="miscellaneous" >
   <i type="int" name="IDIOT">     3</i>
   <i type="int" name="ISPECIAL">     0</i>
   <i type="logical" name="LMUSIC"> F  </i>
   <v name="POMASS">     16.00000000     87.62000000     47.88000000</v>
   <v name="DARWINR">      0.00000000      0.00000000      0.00000000</v>
   <v name="DARWINV">      1.00000000      1.00000000      1.00000000</v>
   <i type="logical" name="LCORR"> T  </i>
  </separator>
  <i type="logical" name="GGA_COMPAT"> T  </i>
  <i type="logical" name="LBERRY"> F  </i>
  <i type="int" name="ICORELEVEL">     0</i>
  <i type="logical" name="LDAU"> F  </i>
  <i type="int" name="I_CONSTRAINED_M">     0</i>
  <separator name="electronic exchange-correlation" >
   <i type="string" name="GGA">--</i>
   <i type="int" name="VOSKOWN">     0</i>
   <i type="logical" name="LHFCALC"> F  </i>
   <i type="string" name="PRECFOCK"></i>
   <i type="logical" name="LSYMGRAD"> F  </i>
   <i type="logical" name="LHFONE"> F  </i>
   <i type="logical" name="LRHFCALC"> F  </i>
   <i type="logical" name="LTHOMAS"> F  </i>
   <i type="logical" name="LMODELHF"> F  </i>
   <i name="ENCUT4O">     -1.00000000</i>
   <i type="int" name="EXXOEP">     0</i>
   <i type="int" name="FOURORBIT">     0</i>
   <i name="AEXX">      0.00000000</i>
   <i name="HFALPHA">      0.00000000</i>
   <i name="MCALPHA">      0.00000000</i>
   <i name="ALDAX">      1.00000000</i>
   <i name="AGGAX">      1.00000000</i>
   <i name="ALDAC">      1.00000000</i>
   <i name="AGGAC">      1.00000000</i>
   <i type="int" name="NKREDX">     1</i>
   <i type="int" name="NKREDY">     1</i>
   <i type="int" name="NKREDZ">     1</i>
   <i type="logical" name="SHIFTRED"> F  </i>
   <i type="logical" name="ODDONLY"> F  </i>
   <i type="logical" name="EVENONLY"> F  </i>
   <i type="int" name="LMAXFOCK">     0</i>
   <i type="int" name="NMAXFOCKAE">     0</i>
   <i type="logical" name="LFOCKAEDFT"> F  </i>
   <i name="HFSCREEN">      0.00000000</i>
   <i name="HFSCREENC">      0.00000000</i>
   <i type="int" name="NBANDSGWLOW">     0</i>
  </separator>
  <separator name="vdW DFT" >
   <i type="logical" name="LUSE_VDW"> F  </i>
   <i name="Zab_VDW">     -0.84910000</i>
   <i name="PARAM1">      0.12340000</i>
   <i name="PARAM2">      1.00000000</i>
   <i name="PARAM3">      0.00000000</i>
  </separator>
  <separator name="model GW" >
   <i type="int" name="MODEL_GW">     0</i>
   <i name="MODEL_EPS0">     10.19427274</i>
   <i name="MODEL_ALPHA">      1.00000000</i>
  </separator>
  <separator name="linear response parameters" >
   <i type="logical" name="LEPSILON"> F  </i>
   <i type="logical" name="LRPA"> F  </i>
   <i type="logical" name="LNABLA"> F  </i>
   <i type="logical" name="LVEL"> F  </i>
   <i type="int" name="KINTER">     0</i>
   <i name="CSHIFT">      0.10000000</i>
   <i name="OMEGAMAX">     -1.00000000</i>
   <i name="DEG_THRESHOLD">      0.00200000</i>
   <i name="RTIME">     -0.10000000</i>
   <i name="WPLASMAI">      0.00000000</i>
   <v name="DFIELD">      0.00000000      0.00000000      0.00000000</v>
   <v name="WPLASMA">      0.00000000      0.00000000      0.00000000      0.00000000      0.00000000      0.00000000      0.00000000      0.00000000      0.00000000</v>
  </separator>
  <separator name="orbital magnetization" >
   <i type="logical" name="NUCIND"> F  </i>
   <v name="MAGPOS">      0.00000000      0.00000000      0.00000000</v>
   <i type="logical" name="LNICSALL"> T  </i>
   <i type="logical" name="ORBITALMAG"> F  </i>
   <i type="logical" name="LMAGBLOCH"> F  </i>
   <i type="logical" name="LCHIMAG"> F  </i>
   <i type="logical" name="LGAUGE"> T  </i>
   <i type="int" name="MAGATOM">     0</i>
   <v name="MAGDIPOL">      0.00000000      0.00000000      0.00000000</v>
   <v name="AVECCONST">      0.00000000      0.00000000      0.00000000</v>
  </separator>
  <separator name="response functions" >
   <i type="logical" name="LADDER"> F  </i>
   <i type="logical" name="LRPAFORCE"> F  </i>
   <i type="logical" name="LFXC"> F  </i>
   <i type="logical" name="LHARTREE"> T  </i>
   <i type="int" name="IBSE">     0</i>
   <v type="int" name="KPOINT">    -1     0     0     0</v>
   <i type="logical" name="LTCTE"> F  </i>
   <i type="logical" name="LTETE"> F  </i>
   <i type="logical" name="LTRIPLET"> F  </i>
   <i type="logical" name="LFXCEPS"> F  </i>
   <i type="logical" name="LFXHEG"> F  </i>
   <i type="int" name="NATURALO">     2</i>
   <i type="logical" name="L2ORDER"> F  </i>
   <i type="logical" name="LMP2LT"> F  </i>
   <i type="logical" name="LUSEW"> F  </i>
   <i name="ENCUTGW">     -2.00000000</i>
   <i name="ENCUTGWSOFT">     -2.00000000</i>
   <i name="ENCUTLF">     -1.00000000</i>
   <i type="int" name="LMAXMP2">    -1</i>
   <i name="SCISSOR">      0.00000000</i>
   <i type="int" name="NOMEGA">     0</i>
   <i type="int" name="NOMEGAR">     0</i>
   <i type="int" name="NBANDSGW">    -1</i>
   <i type="int" name="NBANDSO">    -1</i>
   <i type="int" name="NBANDSV">    -1</i>
   <i type="int" name="NELM">     1</i>
   <i type="int" name="NELMHF">     1</i>
   <i type="int" name="DIM">     3</i>
   <i type="int" name="ANTIRES">     0</i>
   <i name="OMEGAMAX">    -30.00000000</i>
   <i name="OMEGAMIN">    -30.00000000</i>
   <i name="OMEGATL">   -200.00000000</i>
   <i type="int" name="OMEGAGRID">   140</i>
   <i name="CSHIFT">     -0.10000000</i>
   <i type="logical" name="SELFENERGY"> F  </i>
   <i type="logical" name="LSPECTRAL"> F  </i>
   <i type="logical" name="LSPECTRALGW"> F  </i>
   <i type="logical" name="LSINGLES"> F  </i>
   <i type="logical" name="LFERMIGW"> F  </i>
   <i type="logical" name="ODDONLYGW"> F  </i>
   <i type="logical" name="EVENONLYGW"> F  </i>
   <i type="int" name="NKREDLFX">     1</i>
   <i type="int" name="NKREDLFY">     1</i>
   <i type="int" name="NKREDLFZ">     1</i>
   <i type="int" name="MAXMEM">  2800</i>
   <i type="int" name="TELESCOPE">     0</i>
   <i type="int" name="TAUPAR">     1</i>
   <i type="int" name="OMEGAPAR">    -1</i>
   <i name="LAMBDA">      1.00000000</i>
  </separator>
  <separator name="External order field" >
   <i name="OFIELD_KAPPA">      0.00000000</i>
   <v name="OFIELD_K">      0.00000000      0.00000000      0.00000000</v>
   <i name="OFIELD_Q6_NEAR">      0.00000000</i>
   <i name="OFIELD_Q6_FAR">      0.00000000</i>
   <i name="OFIELD_A">      0.00000000</i>
  </separator>
 </parameters>
 <atominfo>
  <atoms>      20 </atoms>
  <types>       3 </types>
  <array name="atoms" >
   <dimension dim="1">ion</dimension>
   <field type="string">element</field>
   <field type="int">atomtype</field>
   <set>
    <rc><c>O </c><c>   1</c></rc>
    <rc><c>O </c><c>   1</c></rc>
    <rc><c>O </c><c>   1</c></rc>
    <rc><c>O </c><c>   1</c></rc>
    <rc><c>O </c><c>   1</c></rc>
    <rc><c>O </c><c>   1</c></rc>
    <rc><c>O </c><c>   1</c></rc>
    <rc><c>O </c><c>   1</c></rc>
    <rc><c>O </c><c>   1</c></rc>
    <rc><c>O </c><c>   1</c></rc>
    <rc><c>O </c><c>   1</c></rc>
    <rc><c>O </c><c>   1</c></rc>
    <rc><c>Sr</c><c>   2</c></rc>
    <rc><c>Sr</c><c>   2</c></rc>
    <rc><c>Sr</c><c>   2</c></rc>
    <rc><c>Sr</c><c>   2</c></rc>
    <rc><c>Ti</c><c>   3</c></rc>
    <rc><c>Ti</c><c>   3</c></rc>
    <rc><c>Ti</c><c>   3</c></rc>
    <rc><c>Ti</c><c>   3</c></rc>
   </set>
  </array>
  <array name="atomtypes" >
   <dimension dim="1">type</dimension>
   <field type="int">atomspertype</field>
   <field type="string">element</field>
   <field>mass</field>
   <field>valence</field>
   <field type="string">pseudopotential</field>
   <set>
    <rc><c>  12</c><c>O </c><c>     16.00000000</c><c>      6.00000000</c><c> PAW_PBE O 08Apr2002                    </c></rc>
    <rc><c>   4</c><c>Sr</c><c>     87.62000000</c><c>     10.00000000</c><c> PAW_PBE Sr_sv 07Sep2000                </c></rc>
    <rc><c>   4</c><c>Ti</c><c>     47.88000000</c><c>      4.00000000</c><c> PAW_PBE Ti 08Apr2002                   </c></rc>
   </set>
  </array>
 </atominfo>
 <structure name="initialpos" >
  <crystal>
   <varray name="basis" >
    <v>       3.94684634       0.00000000       0.00000000 </v>
    <v>       0.00000000       3.94684634       0.00000000 </v>
    <v>       0.00000000       0.00000000      21.81396220 </v>
   </varray>
   <i name="volume">    339.80909121 </i>
   <varray name="rec_basis" >
    <v>       0.25336684       0.00000000       0.00000000 </v>
    <v>       0.00000000       0.25336684       0.00000000 </v>
    <v>       0.00000000       0.00000000       0.04584220 </v>
   </varray>
  </crystal>
  <varray name="positions" >
   <v>       0.50000000       0.50000000       0.18336880 </v>
   <v>       0.50000000       0.00000000       0.27383485 </v>
   <v>       0.00000000       0.50000000       0.27383485 </v>
   <v>       0.50000000       0.50000000       0.36430091 </v>
   <v>       0.50000000       0.00000000       0.45476697 </v>
   <v>       0.00000000       0.50000000       0.45476697 </v>
   <v>       0.50000000       0.50000000       0.54523303 </v>
   <v>       0.50000000       0.00000000       0.63569909 </v>
   <v>       0.00000000       0.50000000       0.63569909 </v>
   <v>       0.50000000       0.50000000       0.72616515 </v>
   <v>       0.50000000       0.00000000       0.81663120 </v>
   <v>       0.00000000       0.50000000       0.81663120 </v>
   <v>       0.00000000       0.00000000       0.18336880 </v>
   <v>       0.00000000       0.00000000       0.36430091 </v>
   <v>       0.00000000       0.00000000       0.54523303 </v>
   <v>       0.00000000       0.00000000       0.72616515 </v>
   <v>       0.50000000       0.50000000       0.27383485 </v>
   <v>       0.50000000       0.50000000       0.45476697 </v>
   <v>       0.50000000       0.50000000       0.63569909 </v>
   <v>       0.50000000       0.50000000       0.81663120 </v>
  </varray>
 </structure>
 <calculation>
  <scstep>
   <time name="dav">    4.03    4.03</time>
   <time name="total">    4.13    4.14</time>
   <energy>
    <i name="alphaZ">    519.93243791 </i>
    <i name="ewald">   6109.79305022 </i>
    <i name="hartreedc"> -14807.81936888 </i>
    <i name="XCdc">    325.52799531 </i>
    <i name="pawpsdc">   5334.45189010 </i>
    <i name="pawaedc">  -5139.13784255 </i>
    <i name="eentropy">      0.00000000 </i>
    <i name="bandstr">    321.82433990 </i>
    <i name="atom">   8937.26825017 </i>
    <i name="e_fr_energy">   1601.84075219 </i>
    <i name="e_wo_entrp">   1601.84075219 </i>
    <i name="e_0_energy">   1601.84075219 </i>
   </energy>
  </scstep>
  <scstep>
   <time name="dav">    4.47    4.47</time>
   <time name="total">    4.47    4.47</time>
   <energy>
    <i name="e_fr_energy">    180.11936111 </i>
    <i name="e_wo_entrp">    180.11936111 </i>
    <i name="e_0_energy">    180.11936111 </i>
   </energy>
  </scstep>
  <scstep>
   <time name="dav">    4.80    4.81</time>
   <time name="total">    4.81    4.81</time>
   <energy>
    <i name="e_fr_energy">   -174.43740689 </i>
    <i name="e_wo_entrp">   -174.43740689 </i>
    <i name="e_0_energy">   -174.43740689 </i>
   </energy>
  </scstep>
  <scstep>
   <time name="dav">    4.66    4.66</time>
   <time name="total">    4.66    4.66</time>
   <energy>
    <i name="e_fr_energy">   -200.70964694 </i>
    <i name="e_wo_entrp">   -200.70964694 </i>
    <i name="e_0_energy">   -200.70964694 </i>
   </energy>
  </scstep>
  <scstep>
   <time name="dav">    5.85    5.85</time>
   <time name="total">    6.00    6.00</time>
   <energy>
    <i name="e_fr_energy">   -202.28900172 </i>
    <i name="e_wo_entrp">   -202.28900172 </i>
    <i name="e_0_energy">   -202.28900172 </i>
   </energy>
  </scstep>
  <scstep>
   <time name="diag">    0.45    0.45</time>
   <time name="diis">    3.06    3.06</time>
   <time name="orth">    0.09    0.09</time>
   <time name="total">    3.85    3.85</time>
   <energy>
    <i name="e_fr_energy">   -161.75510498 </i>
    <i name="e_wo_entrp">   -161.75510498 </i>
    <i name="e_0_energy">   -161.75510498 </i>
   </energy>
  </scstep>
  <scstep>
   <time name="diag">    0.45    0.45</time>
   <time name="diis">    3.21    3.21</time>
   <time name="orth">    0.09    0.09</time>
   <time name="total">    3.99    3.99</time>
   <energy>
    <i name="e_fr_energy">   -157.76736953 </i>
    <i name="e_wo_entrp">   -157.76736953 </i>
    <i name="e_0_energy">   -157.76736953 </i>
   </energy>
  </scstep>
  <scstep>
   <time name="diag">    0.45    0.45</time>
   <time name="diis">    3.71    3.71</time>
   <time name="orth">    0.09    0.09</time>
   <time name="total">    4.49    4.50</time>
   <energy>
    <i name="e_fr_energy">   -157.02849729 </i>
    <i name="e_wo_entrp">   -157.02849729 </i>
    <i name="e_0_energy">   -157.02849729 </i>
   </energy>
  </scstep>
  <scstep>
   <time name="diag">    0.45    0.45</time>
   <time name="diis">    3.67    3.67</time>
   <time name="orth">    0.09    0.09</time>
   <time name="total">    4.45    4.45</time>
   <energy>
    <i name="e_fr_energy">   -156.77254644 </i>
    <i name="e_wo_entrp">   -156.77254644 </i>
    <i name="e_0_energy">   -156.77254644 </i>
   </energy>
  </scstep>
  <scstep>
   <time name="diag">    0.45    0.45</time>
   <time name="diis">    4.61    4.64</time>
   <time name="orth">    0.10    0.10</time>
   <time name="total">    5.42    5.46</time>
   <energy>
    <i name="e_fr_energy">   -156.71895120 </i>
    <i name="e_wo_entrp">   -156.71895120 </i>
    <i name="e_0_energy">   -156.71895120 </i>
   </energy>
  </scstep>
  <scstep>
   <time name="diag">    0.52    0.52</time>
   <time name="diis">    4.86    4.86</time>
   <time name="orth">    0.10    0.10</time>
   <time name="total">    5.76    5.75</time>
   <energy>
    <i name="e_fr_energy">   -156.68761967 </i>
    <i name="e_wo_entrp">   -156.68761967 </i>
    <i name="e_0_energy">   -156.68761967 </i>
   </energy>
  </scstep>
  <scstep>
   <time name="diag">    0.52    0.52</time>
   <time name="diis">    4.98    4.98</time>
   <time name="orth">    0.10    0.10</time>
   <time name="total">    5.88    5.88</time>
   <energy>
    <i name="e_fr_energy">   -156.67554962 </i>
    <i name="e_wo_entrp">   -156.67554962 </i>
    <i name="e_0_energy">   -156.67554962 </i>
   </energy>
  </scstep>
  <scstep>
   <time name="diag">    0.52    0.52</time>
   <time name="diis">    5.46    5.46</time>
   <time name="orth">    0.10    0.10</time>
   <time name="total">    6.36    6.36</time>
   <energy>
    <i name="e_fr_energy">   -156.66937842 </i>
    <i name="e_wo_entrp">   -156.66937842 </i>
    <i name="e_0_energy">   -156.66937842 </i>
   </energy>
  </scstep>
  <scstep>
   <time name="diag">    0.52    0.52</time>
   <time name="diis">    4.54    4.53</time>
   <time name="orth">    0.10    0.10</time>
   <time name="total">    5.43    5.43</time>
   <energy>
    <i name="e_fr_energy">   -156.67111902 </i>
    <i name="e_wo_entrp">   -156.67111902 </i>
    <i name="e_0_energy">   -156.67111902 </i>
   </energy>
  </scstep>
  <scstep>
   <time name="diag">    0.52    0.52</time>
   <time name="diis">    5.11    5.11</time>
   <time name="orth">    0.10    0.10</time>
   <time name="total">    6.00    6.00</time>
   <energy>
    <i name="e_fr_energy">   -156.67333942 </i>
    <i name="e_wo_entrp">   -156.67333942 </i>
    <i name="e_0_energy">   -156.67333942 </i>
   </energy>
  </scstep>
  <scstep>
   <time name="diag">    0.52    0.52</time>
   <time name="diis">    4.76    4.75</time>
   <time name="orth">    0.10    0.10</time>
   <time name="total">    5.65    5.65</time>
   <energy>
    <i name="e_fr_energy">   -156.67560029 </i>
    <i name="e_wo_entrp">   -156.67560029 </i>
    <i name="e_0_energy">   -156.67560029 </i>
   </energy>
  </scstep>
  <scstep>
   <time name="diag">    0.52    0.52</time>
   <time name="diis">    4.74    4.74</time>
   <time name="orth">    0.10    0.10</time>
   <time name="total">    5.64    5.64</time>
   <energy>
    <i name="e_fr_energy">   -156.67657992 </i>
    <i name="e_wo_entrp">   -156.67657992 </i>
    <i name="e_0_energy">   -156.67657992 </i>
   </energy>
  </scstep>
  <scstep>
   <time name="diag">    0.51    0.51</time>
   <time name="diis">    4.77    4.77</time>
   <time name="orth">    0.10    0.10</time>
   <time name="total">    5.65    5.65</time>
   <energy>
    <i name="e_fr_energy">   -156.67670894 </i>
    <i name="e_wo_entrp">   -156.67670894 </i>
    <i name="e_0_energy">   -156.67670894 </i>
   </energy>
  </scstep>
  <scstep>
   <time name="diag">    0.51    0.51</time>
   <time name="diis">    4.16    4.16</time>
   <time name="orth">    0.10    0.10</time>
   <time name="total">    5.05    5.05</time>
   <energy>
    <i name="e_fr_energy">   -156.67675897 </i>
    <i name="e_wo_entrp">   -156.67675897 </i>
    <i name="e_0_energy">   -156.67675897 </i>
   </energy>
  </scstep>
  <scstep>
   <time name="diag">    0.52    0.52</time>
   <time name="diis">    3.66    3.66</time>
   <time name="orth">    0.10    0.10</time>
   <time name="total">    4.56    4.56</time>
   <energy>
    <i name="e_fr_energy">   -156.67679134 </i>
    <i name="e_wo_entrp">   -156.67679134 </i>
    <i name="e_0_energy">   -156.67679134 </i>
   </energy>
  </scstep>
  <scstep>
   <time name="diag">    0.52    0.52</time>
   <time name="diis">    3.58    3.58</time>
   <time name="orth">    0.10    0.10</time>
   <time name="total">    4.49    4.49</time>
   <energy>
    <i name="e_fr_energy">   -156.67680176 </i>
    <i name="e_wo_entrp">   -156.67680176 </i>
    <i name="e_0_energy">   -156.67680176 </i>
   </energy>
  </scstep>
  <scstep>
   <time name="diag">    0.52    0.52</time>
   <time name="diis">    2.91    2.91</time>
   <time name="orth">    0.10    0.10</time>
   <time name="total">    3.65    3.65</time>
   <energy>
    <i name="alphaZ">    519.93243791 </i>
    <i name="ewald">   6109.79305022 </i>
    <i name="hartreedc"> -15130.62343997 </i>
    <i name="XCdc">    341.54561087 </i>
    <i name="pawpsdc">   6145.27975063 </i>
    <i name="pawaedc">  -5975.23726973 </i>
    <i name="eentropy">      0.00000000 </i>
    <i name="bandstr">  -1104.63519415 </i>
    <i name="atom">   8937.26825017 </i>
    <i name="e_fr_energy">   -156.67680405 </i>
    <i name="e_wo_entrp">   -156.67680405 </i>
    <i name="e_0_energy">   -156.67680405 </i>
   </energy>
  </scstep>
  <structure>
   <crystal>
    <varray name="basis" >
     <v>       3.94684634       0.00000000       0.00000000 </v>
     <v>       0.00000000       3.94684634       0.00000000 </v>
     <v>       0.00000000       0.00000000      21.81396220 </v>
    </varray>
    <i name="volume">    339.80909121 </i>
    <varray name="rec_basis" >
     <v>       0.25336684       0.00000000       0.00000000 </v>
     <v>       0.00000000       0.25336684       0.00000000 </v>
     <v>       0.00000000       0.00000000       0.04584220 </v>
    </varray>
   </crystal>
   <varray name="positions" >
    <v>       0.50000000       0.50000000       0.18336880 </v>
    <v>       0.50000000       0.00000000       0.27383485 </v>
    <v>       0.00000000       0.50000000       0.27383485 </v>
    <v>       0.50000000       0.50000000       0.36430091 </v>
    <v>       0.50000000       0.00000000       0.45476697 </v>
    <v>       0.00000000       0.50000000       0.45476697 </v>
    <v>       0.50000000       0.50000000       0.54523303 </v>
    <v>       0.50000000       0.00000000       0.63569909 </v>
    <v>       0.00000000       0.50000000       0.63569909 </v>
    <v>       0.50000000       0.50000000       0.72616515 </v>
    <v>       0.50000000       0.00000000       0.81663120 </v>
    <v>       0.00000000       0.50000000       0.81663120 </v>
    <v>       0.00000000       0.00000000       0.18336880 </v>
    <v>       0.00000000       0.00000000       0.36430091 </v>
    <v>       0.00000000       0.00000000       0.54523303 </v>
    <v>       0.00000000       0.00000000       0.72616515 </v>
    <v>       0.50000000       0.50000000       0.27383485 </v>
    <v>       0.50000000       0.50000000       0.45476697 </v>
    <v>       0.50000000       0.50000000       0.63569909 </v>
    <v>       0.50000000       0.50000000       0.81663120 </v>
   </varray>
  </structure>
  <varray name="forces" >
   <v>      -0.00000000      -0.00000000      -0.57064476 </v>
   <v>      -0.00000000       0.00000000       0.02829791 </v>
   <v>       0.00000000      -0.00000000       0.02829791 </v>
   <v>      -0.00000000      -0.00000000       0.50147828 </v>
   <v>       0.00000000      -0.00000000       0.10797923 </v>
   <v>       0.00000000      -0.00000000       0.10797923 </v>
   <v>       0.00000000      -0.00000000       0.42561384 </v>
   <v>       0.00000000      -0.00000000       0.06521632 </v>
   <v>       0.00000000       0.00000000       0.06521632 </v>
   <v>       0.00000000      -0.00000000       1.11993011 </v>
   <v>       0.00000000       0.00000000       0.42988303 </v>
   <v>       0.00000000      -0.00000000       0.42988303 </v>
   <v>       0.00000000      -0.00000000       1.27753741 </v>
   <v>       0.00000000       0.00000000      -0.05744279 </v>
   <v>       0.00000000      -0.00000000      -0.10932989 </v>
   <v>       0.00000000      -0.00000000       0.58163383 </v>
   <v>       0.00000000       0.00000000      -1.14300520 </v>
   <v>       0.00000000      -0.00000000      -0.46536701 </v>
   <v>       0.00000000      -0.00000000      -0.52405147 </v>
   <v>       0.00000000       0.00000000      -2.29910533 </v>
  </varray>
  <varray name="stress" >
   <v>     -26.49781821       0.00000000       0.00000000 </v>
   <v>       0.00000000     -26.49781821       0.00000000 </v>
   <v>       0.00000000      -0.00000000     -16.60764886 </v>
  </varray>
  <energy>
   <i name="e_fr_energy">   -156.67680405 </i>
   <i name="e_wo_entrp">   -156.67680405 </i>
   <i name="e_0_energy">      0.00000000 </i>
  </energy>
  <time name="totalsc">  117.06  117.28</time>
  <eigenvalues>
   <array>
    <dimension dim="1">band</dimension>
    <dimension dim="2">kpoint</dimension>
    <dimension dim="3">spin</dimension>
    <field>eigene</field>
    <field>occ</field>
    <set>
     <set comment="spin 1">
      <set comment="kpoint 1">
       <r>  -33.1433    1.0000 </r>
       <r>  -32.2902    1.0000 </r>
       <r>  -32.2403    1.0000 </r>
       <r>  -32.1204    1.0000 </r>
       <r>  -16.9985    1.0000 </r>
       <r>  -16.8302    1.0000 </r>
       <r>  -16.7195    1.0000 </r>
       <r>  -16.4428    1.0000 </r>
       <r>  -15.9134    1.0000 </r>
       <r>  -15.9029    1.0000 </r>
       <r>  -15.8271    1.0000 </r>
       <r>  -15.7309    1.0000 </r>
       <r>  -15.6356    1.0000 </r>
       <r>  -15.6067    1.0000 </r>
       <r>  -15.4014    1.0000 </r>
       <r>  -15.0803    1.0000 </r>
       <r>  -15.0572    1.0000 </r>
       <r>  -15.0572    1.0000 </r>
       <r>  -14.8075    1.0000 </r>
       <r>  -14.3359    1.0000 </r>
       <r>  -14.3359    1.0000 </r>
       <r>  -14.2980    1.0000 </r>
       <r>  -14.2980    1.0000 </r>
       <r>  -14.1838    1.0000 </r>
       <r>  -14.1592    1.0000 </r>
       <r>  -14.1592    1.0000 </r>
       <r>  -13.9106    1.0000 </r>
       <r>  -13.7809    1.0000 </r>
       <r>   -3.5882    1.0000 </r>
       <r>   -3.0358    1.0000 </r>
       <r>   -2.5078    1.0000 </r>
       <r>   -2.3985    1.0000 </r>
       <r>   -2.3985    1.0000 </r>
       <r>   -2.2169    1.0000 </r>
       <r>   -2.2169    1.0000 </r>
       <r>   -2.0731    1.0000 </r>
       <r>   -2.0731    1.0000 </r>
       <r>   -1.9536    1.0000 </r>
       <r>   -1.9536    1.0000 </r>
       <r>   -1.7720    1.0000 </r>
       <r>   -1.6055    1.0000 </r>
       <r>   -1.4948    1.0000 </r>
       <r>   -1.4948    1.0000 </r>
       <r>   -1.2527    1.0000 </r>
       <r>   -1.2320    1.0000 </r>
       <r>   -1.1292    1.0000 </r>
       <r>   -1.1292    1.0000 </r>
       <r>   -0.9652    1.0000 </r>
       <r>   -0.7968    1.0000 </r>
       <r>   -0.7968    1.0000 </r>
       <r>   -0.7061    1.0000 </r>
       <r>   -0.6392    1.0000 </r>
       <r>   -0.3245    1.0000 </r>
       <r>   -0.2996    1.0000 </r>
       <r>   -0.2996    1.0000 </r>
       <r>   -0.1657    1.0000 </r>
       <r>   -0.1657    1.0000 </r>
       <r>    0.0411    1.0000 </r>
       <r>    0.0437    1.0000 </r>
       <r>    0.0437    1.0000 </r>
       <r>    0.3268    1.0000 </r>
       <r>    0.3268    1.0000 </r>
       <r>    0.4097    1.0000 </r>
       <r>    0.4097    1.0000 </r>
       <r>    2.1104    0.0000 </r>
       <r>    2.1877    0.0000 </r>
       <r>    2.1877    0.0000 </r>
       <r>    2.3275    0.0000 </r>
       <r>    2.4029    0.0000 </r>
       <r>    2.5341    0.0000 </r>
       <r>    2.7997    0.0000 </r>
       <r>    2.8259    0.0000 </r>
       <r>    3.0975    0.0000 </r>
       <r>    3.3945    0.0000 </r>
       <r>    6.0925    0.0000 </r>
       <r>    6.1375    0.0000 </r>
      </set>
      <set comment="kpoint 2">
       <r>  -33.1404    1.0000 </r>
       <r>  -32.2867    1.0000 </r>
       <r>  -32.2368    1.0000 </r>
       <r>  -32.1170    1.0000 </r>
       <r>  -16.9400    1.0000 </r>
       <r>  -16.7726    1.0000 </r>
       <r>  -16.6870    1.0000 </r>
       <r>  -16.4351    1.0000 </r>
       <r>  -15.9245    1.0000 </r>
       <r>  -15.8877    1.0000 </r>
       <r>  -15.8571    1.0000 </r>
       <r>  -15.7495    1.0000 </r>
       <r>  -15.7005    1.0000 </r>
       <r>  -15.6279    1.0000 </r>
       <r>  -15.3968    1.0000 </r>
       <r>  -15.3076    1.0000 </r>
       <r>  -15.0513    1.0000 </r>
       <r>  -15.0503    1.0000 </r>
       <r>  -14.5382    1.0000 </r>
       <r>  -14.3276    1.0000 </r>
       <r>  -14.2891    1.0000 </r>
       <r>  -14.2371    1.0000 </r>
       <r>  -14.2258    1.0000 </r>
       <r>  -14.1746    1.0000 </r>
       <r>  -14.1507    1.0000 </r>
       <r>  -14.0518    1.0000 </r>
       <r>  -13.9280    1.0000 </r>
       <r>  -13.8148    1.0000 </r>
       <r>   -3.5996    1.0000 </r>
       <r>   -3.0827    1.0000 </r>
       <r>   -2.7072    1.0000 </r>
       <r>   -2.6042    1.0000 </r>
       <r>   -2.5391    1.0000 </r>
       <r>   -2.4168    1.0000 </r>
       <r>   -2.4032    1.0000 </r>
       <r>   -2.2455    1.0000 </r>
       <r>   -2.2230    1.0000 </r>
       <r>   -2.1227    1.0000 </r>
       <r>   -2.0746    1.0000 </r>
       <r>   -1.9983    1.0000 </r>
       <r>   -1.8664    1.0000 </r>
       <r>   -1.6026    1.0000 </r>
       <r>   -1.5661    1.0000 </r>
       <r>   -1.3810    1.0000 </r>
       <r>   -1.3209    1.0000 </r>
       <r>   -1.2122    1.0000 </r>
       <r>   -1.0696    1.0000 </r>
       <r>   -0.9681    1.0000 </r>
       <r>   -0.8304    1.0000 </r>
       <r>   -0.7525    1.0000 </r>
       <r>   -0.6514    1.0000 </r>
       <r>   -0.5695    1.0000 </r>
       <r>   -0.5496    1.0000 </r>
       <r>   -0.4833    1.0000 </r>
       <r>   -0.4087    1.0000 </r>
       <r>   -0.4064    1.0000 </r>
       <r>   -0.3315    1.0000 </r>
       <r>   -0.2483    1.0000 </r>
       <r>   -0.2088    1.0000 </r>
       <r>   -0.1662    1.0000 </r>
       <r>    0.0394    1.0000 </r>
       <r>    0.1017    1.0000 </r>
       <r>    0.2096    1.0000 </r>
       <r>    0.2125    1.0000 </r>
       <r>    2.2022    0.0000 </r>
       <r>    2.5163    0.0000 </r>
       <r>    2.5319    0.0000 </r>
       <r>    2.7283    0.0000 </r>
       <r>    2.8143    0.0000 </r>
       <r>    2.8322    0.0000 </r>
       <r>    2.9326    0.0000 </r>
       <r>    3.0429    0.0000 </r>
       <r>    3.2696    0.0000 </r>
       <r>    3.7810    0.0000 </r>
       <r>    6.1169    0.0000 </r>
       <r>    6.4858    0.0000 </r>
      </set>
      <set comment="kpoint 3">
       <r>  -33.1338    1.0000 </r>
       <r>  -32.2789    1.0000 </r>
       <r>  -32.2290    1.0000 </r>
       <r>  -32.1092    1.0000 </r>
       <r>  -16.9037    1.0000 </r>
       <r>  -16.6791    1.0000 </r>
       <r>  -16.5657    1.0000 </r>
       <r>  -16.4136    1.0000 </r>
       <r>  -15.9801    1.0000 </r>
       <r>  -15.8885    1.0000 </r>
       <r>  -15.8378    1.0000 </r>
       <r>  -15.7961    1.0000 </r>
       <r>  -15.7609    1.0000 </r>
       <r>  -15.6869    1.0000 </r>
       <r>  -15.4144    1.0000 </r>
       <r>  -15.3756    1.0000 </r>
       <r>  -15.0429    1.0000 </r>
       <r>  -15.0348    1.0000 </r>
       <r>  -14.3086    1.0000 </r>
       <r>  -14.2688    1.0000 </r>
       <r>  -14.2347    1.0000 </r>
       <r>  -14.1962    1.0000 </r>
       <r>  -14.1313    1.0000 </r>
       <r>  -14.0745    1.0000 </r>
       <r>  -14.0232    1.0000 </r>
       <r>  -13.9533    1.0000 </r>
       <r>  -13.8801    1.0000 </r>
       <r>  -13.8543    1.0000 </r>
       <r>   -3.6389    1.0000 </r>
       <r>   -3.4329    1.0000 </r>
       <r>   -3.2432    1.0000 </r>
       <r>   -3.1187    1.0000 </r>
       <r>   -2.9727    1.0000 </r>
       <r>   -2.8975    1.0000 </r>
       <r>   -2.7976    1.0000 </r>
       <r>   -2.6616    1.0000 </r>
       <r>   -2.4544    1.0000 </r>
       <r>   -2.4082    1.0000 </r>
       <r>   -2.2442    1.0000 </r>
       <r>   -2.1929    1.0000 </r>
       <r>   -2.1196    1.0000 </r>
       <r>   -2.0523    1.0000 </r>
       <r>   -1.7564    1.0000 </r>
       <r>   -1.5663    1.0000 </r>
       <r>   -1.4337    1.0000 </r>
       <r>   -1.4292    1.0000 </r>
       <r>   -1.2716    1.0000 </r>
       <r>   -1.2220    1.0000 </r>
       <r>   -1.1276    1.0000 </r>
       <r>   -1.0391    1.0000 </r>
       <r>   -1.0257    1.0000 </r>
       <r>   -0.8763    1.0000 </r>
       <r>   -0.8409    1.0000 </r>
       <r>   -0.7989    1.0000 </r>
       <r>   -0.7040    1.0000 </r>
       <r>   -0.6641    1.0000 </r>
       <r>   -0.4848    1.0000 </r>
       <r>   -0.3906    1.0000 </r>
       <r>   -0.3157    1.0000 </r>
       <r>   -0.2796    1.0000 </r>
       <r>   -0.0938    1.0000 </r>
       <r>    0.0198    1.0000 </r>
       <r>    0.0366    1.0000 </r>
       <r>    0.3080    1.0000 </r>
       <r>    2.2421    0.0000 </r>
       <r>    2.8373    0.0000 </r>
       <r>    3.1937    0.0000 </r>
       <r>    3.2654    0.0000 </r>
       <r>    3.3953    0.0000 </r>
       <r>    3.4836    0.0000 </r>
       <r>    3.5174    0.0000 </r>
       <r>    3.6129    0.0000 </r>
       <r>    3.6614    0.0000 </r>
       <r>    3.8902    0.0000 </r>
       <r>    4.0978    0.0000 </r>
       <r>    7.2833    0.0000 </r>
      </set>
      <set comment="kpoint 4">
       <r>  -33.1285    1.0000 </r>
       <r>  -32.2725    1.0000 </r>
       <r>  -32.2227    1.0000 </r>
       <r>  -32.1030    1.0000 </r>
       <r>  -16.9604    1.0000 </r>
       <r>  -16.6928    1.0000 </r>
       <r>  -16.4633    1.0000 </r>
       <r>  -16.2521    1.0000 </r>
       <r>  -16.0143    1.0000 </r>
       <r>  -15.9476    1.0000 </r>
       <r>  -15.8957    1.0000 </r>
       <r>  -15.7687    1.0000 </r>
       <r>  -15.7251    1.0000 </r>
       <r>  -15.6659    1.0000 </r>
       <r>  -15.4544    1.0000 </r>
       <r>  -15.3543    1.0000 </r>
       <r>  -15.0223    1.0000 </r>
       <r>  -15.0070    1.0000 </r>
       <r>  -14.2933    1.0000 </r>
       <r>  -14.2525    1.0000 </r>
       <r>  -14.1877    1.0000 </r>
       <r>  -14.1156    1.0000 </r>
       <r>  -14.0652    1.0000 </r>
       <r>  -13.9885    1.0000 </r>
       <r>  -13.9635    1.0000 </r>
       <r>  -13.9076    1.0000 </r>
       <r>  -13.8799    1.0000 </r>
       <r>  -13.7258    1.0000 </r>
       <r>   -3.8320    1.0000 </r>
       <r>   -3.7826    1.0000 </r>
       <r>   -3.6393    1.0000 </r>
       <r>   -3.5041    1.0000 </r>
       <r>   -3.4240    1.0000 </r>
       <r>   -3.3863    1.0000 </r>
       <r>   -3.2817    1.0000 </r>
       <r>   -2.9528    1.0000 </r>
       <r>   -2.6936    1.0000 </r>
       <r>   -2.4233    1.0000 </r>
       <r>   -2.4042    1.0000 </r>
       <r>   -2.2785    1.0000 </r>
       <r>   -2.1628    1.0000 </r>
       <r>   -2.0658    1.0000 </r>
       <r>   -1.9396    1.0000 </r>
       <r>   -1.9302    1.0000 </r>
       <r>   -1.6985    1.0000 </r>
       <r>   -1.5274    1.0000 </r>
       <r>   -1.4758    1.0000 </r>
       <r>   -1.3720    1.0000 </r>
       <r>   -1.3283    1.0000 </r>
       <r>   -1.2718    1.0000 </r>
       <r>   -1.0575    1.0000 </r>
       <r>   -1.0417    1.0000 </r>
       <r>   -0.9972    1.0000 </r>
       <r>   -0.9494    1.0000 </r>
       <r>   -0.7672    1.0000 </r>
       <r>   -0.7247    1.0000 </r>
       <r>   -0.6735    1.0000 </r>
       <r>   -0.5739    1.0000 </r>
       <r>   -0.4848    1.0000 </r>
       <r>   -0.3341    1.0000 </r>
       <r>   -0.0695    1.0000 </r>
       <r>   -0.0254    1.0000 </r>
       <r>    0.1030    1.0000 </r>
       <r>    0.4485    1.0000 </r>
       <r>    2.2752    0.0000 </r>
       <r>    2.8673    0.0000 </r>
       <r>    3.4183    0.0000 </r>
       <r>    3.7798    0.0000 </r>
       <r>    3.8415    0.0000 </r>
       <r>    3.9285    0.0000 </r>
       <r>    3.9571    0.0000 </r>
       <r>    3.9855    0.0000 </r>
       <r>    4.0841    0.0000 </r>
       <r>    4.1714    0.0000 </r>
       <r>    4.2389    0.0000 </r>
       <r>    8.0073    0.0000 </r>
      </set>
      <set comment="kpoint 5">
       <r>  -33.1375    1.0000 </r>
       <r>  -32.2833    1.0000 </r>
       <r>  -32.2334    1.0000 </r>
       <r>  -32.1136    1.0000 </r>
       <r>  -16.8872    1.0000 </r>
       <r>  -16.7101    1.0000 </r>
       <r>  -16.6372    1.0000 </r>
       <r>  -16.4113    1.0000 </r>
       <r>  -15.9348    1.0000 </r>
       <r>  -15.8895    1.0000 </r>
       <r>  -15.8340    1.0000 </r>
       <r>  -15.7533    1.0000 </r>
       <r>  -15.7196    1.0000 </r>
       <r>  -15.6560    1.0000 </r>
       <r>  -15.4268    1.0000 </r>
       <r>  -15.3971    1.0000 </r>
       <r>  -15.0510    1.0000 </r>
       <r>  -15.0294    1.0000 </r>
       <r>  -14.4316    1.0000 </r>
       <r>  -14.3274    1.0000 </r>
       <r>  -14.2686    1.0000 </r>
       <r>  -14.2269    1.0000 </r>
       <r>  -14.1872    1.0000 </r>
       <r>  -14.1410    1.0000 </r>
       <r>  -14.1290    1.0000 </r>
       <r>  -13.9865    1.0000 </r>
       <r>  -13.9404    1.0000 </r>
       <r>  -13.8528    1.0000 </r>
       <r>   -3.6088    1.0000 </r>
       <r>   -3.1405    1.0000 </r>
       <r>   -2.8626    1.0000 </r>
       <r>   -2.7109    1.0000 </r>
       <r>   -2.6565    1.0000 </r>
       <r>   -2.5067    1.0000 </r>
       <r>   -2.4882    1.0000 </r>
       <r>   -2.4048    1.0000 </r>
       <r>   -2.3169    1.0000 </r>
       <r>   -2.2767    1.0000 </r>
       <r>   -2.1980    1.0000 </r>
       <r>   -2.1430    1.0000 </r>
       <r>   -1.9869    1.0000 </r>
       <r>   -1.9065    1.0000 </r>
       <r>   -1.7478    1.0000 </r>
       <r>   -1.6534    1.0000 </r>
       <r>   -1.3721    1.0000 </r>
       <r>   -1.3546    1.0000 </r>
       <r>   -1.2360    1.0000 </r>
       <r>   -1.0164    1.0000 </r>
       <r>   -0.9960    1.0000 </r>
       <r>   -0.9732    1.0000 </r>
       <r>   -0.8380    1.0000 </r>
       <r>   -0.6311    1.0000 </r>
       <r>   -0.5699    1.0000 </r>
       <r>   -0.5155    1.0000 </r>
       <r>   -0.4857    1.0000 </r>
       <r>   -0.4772    1.0000 </r>
       <r>   -0.3614    1.0000 </r>
       <r>   -0.3387    1.0000 </r>
       <r>   -0.3029    1.0000 </r>
       <r>   -0.2828    1.0000 </r>
       <r>   -0.1705    1.0000 </r>
       <r>    0.0826    1.0000 </r>
       <r>    0.1830    1.0000 </r>
       <r>    0.2206    1.0000 </r>
       <r>    2.4603    0.0000 </r>
       <r>    2.6265    0.0000 </r>
       <r>    2.7675    0.0000 </r>
       <r>    2.9754    0.0000 </r>
       <r>    2.9892    0.0000 </r>
       <r>    3.0404    0.0000 </r>
       <r>    3.0732    0.0000 </r>
       <r>    3.1797    0.0000 </r>
       <r>    3.4245    0.0000 </r>
       <r>    3.6681    0.0000 </r>
       <r>    6.6042    0.0000 </r>
       <r>    6.7656    0.0000 </r>
      </set>
      <set comment="kpoint 6">
       <r>  -33.1310    1.0000 </r>
       <r>  -32.2756    1.0000 </r>
       <r>  -32.2258    1.0000 </r>
       <r>  -32.1060    1.0000 </r>
       <r>  -16.8392    1.0000 </r>
       <r>  -16.6083    1.0000 </r>
       <r>  -16.4881    1.0000 </r>
       <r>  -16.3554    1.0000 </r>
       <r>  -15.9598    1.0000 </r>
       <r>  -15.8931    1.0000 </r>
       <r>  -15.8153    1.0000 </r>
       <r>  -15.7604    1.0000 </r>
       <r>  -15.7230    1.0000 </r>
       <r>  -15.7041    1.0000 </r>
       <r>  -15.4675    1.0000 </r>
       <r>  -15.3835    1.0000 </r>
       <r>  -15.0898    1.0000 </r>
       <r>  -14.9879    1.0000 </r>
       <r>  -14.3262    1.0000 </r>
       <r>  -14.2735    1.0000 </r>
       <r>  -14.2530    1.0000 </r>
       <r>  -14.2069    1.0000 </r>
       <r>  -14.1196    1.0000 </r>
       <r>  -14.0916    1.0000 </r>
       <r>  -14.0317    1.0000 </r>
       <r>  -13.9672    1.0000 </r>
       <r>  -13.9233    1.0000 </r>
       <r>  -13.8583    1.0000 </r>
       <r>   -3.6413    1.0000 </r>
       <r>   -3.4103    1.0000 </r>
       <r>   -3.2769    1.0000 </r>
       <r>   -3.1326    1.0000 </r>
       <r>   -2.9794    1.0000 </r>
       <r>   -2.8874    1.0000 </r>
       <r>   -2.7950    1.0000 </r>
       <r>   -2.6586    1.0000 </r>
       <r>   -2.6142    1.0000 </r>
       <r>   -2.5137    1.0000 </r>
       <r>   -2.4426    1.0000 </r>
       <r>   -2.3986    1.0000 </r>
       <r>   -2.2619    1.0000 </r>
       <r>   -2.1871    1.0000 </r>
       <r>   -2.0983    1.0000 </r>
       <r>   -1.9786    1.0000 </r>
       <r>   -1.8325    1.0000 </r>
       <r>   -1.7270    1.0000 </r>
       <r>   -1.5969    1.0000 </r>
       <r>   -1.4862    1.0000 </r>
       <r>   -1.4351    1.0000 </r>
       <r>   -1.2267    1.0000 </r>
       <r>   -1.0803    1.0000 </r>
       <r>   -0.8229    1.0000 </r>
       <r>   -0.7632    1.0000 </r>
       <r>   -0.6407    1.0000 </r>
       <r>   -0.6207    1.0000 </r>
       <r>   -0.4682    1.0000 </r>
       <r>   -0.4374    1.0000 </r>
       <r>   -0.4037    1.0000 </r>
       <r>   -0.2889    1.0000 </r>
       <r>   -0.1959    1.0000 </r>
       <r>   -0.0366    1.0000 </r>
       <r>    0.0590    1.0000 </r>
       <r>    0.1480    1.0000 </r>
       <r>    0.2872    1.0000 </r>
       <r>    2.5564    0.0000 </r>
       <r>    3.0480    0.0000 </r>
       <r>    3.2347    0.0000 </r>
       <r>    3.3633    0.0000 </r>
       <r>    3.5057    0.0000 </r>
       <r>    3.5382    0.0000 </r>
       <r>    3.5821    0.0000 </r>
       <r>    3.6547    0.0000 </r>
       <r>    3.7500    0.0000 </r>
       <r>    3.8330    0.0000 </r>
       <r>    3.9782    0.0000 </r>
       <r>    7.5081    0.0000 </r>
      </set>
      <set comment="kpoint 7">
       <r>  -33.1258    1.0000 </r>
       <r>  -32.2694    1.0000 </r>
       <r>  -32.2196    1.0000 </r>
       <r>  -32.0999    1.0000 </r>
       <r>  -16.8707    1.0000 </r>
       <r>  -16.6041    1.0000 </r>
       <r>  -16.3817    1.0000 </r>
       <r>  -16.1775    1.0000 </r>
       <r>  -15.9801    1.0000 </r>
       <r>  -15.9083    1.0000 </r>
       <r>  -15.8656    1.0000 </r>
       <r>  -15.7848    1.0000 </r>
       <r>  -15.7033    1.0000 </r>
       <r>  -15.6135    1.0000 </r>
       <r>  -15.4165    1.0000 </r>
       <r>  -15.3738    1.0000 </r>
       <r>  -15.1433    1.0000 </r>
       <r>  -14.9460    1.0000 </r>
       <r>  -14.3271    1.0000 </r>
       <r>  -14.2903    1.0000 </r>
       <r>  -14.1814    1.0000 </r>
       <r>  -14.1511    1.0000 </r>
       <r>  -14.0740    1.0000 </r>
       <r>  -14.0466    1.0000 </r>
       <r>  -14.0140    1.0000 </r>
       <r>  -13.9622    1.0000 </r>
       <r>  -13.9252    1.0000 </r>
       <r>  -13.7804    1.0000 </r>
       <r>   -3.8291    1.0000 </r>
       <r>   -3.6736    1.0000 </r>
       <r>   -3.6309    1.0000 </r>
       <r>   -3.4994    1.0000 </r>
       <r>   -3.4227    1.0000 </r>
       <r>   -3.3770    1.0000 </r>
       <r>   -3.2103    1.0000 </r>
       <r>   -2.9530    1.0000 </r>
       <r>   -2.7998    1.0000 </r>
       <r>   -2.5796    1.0000 </r>
       <r>   -2.5313    1.0000 </r>
       <r>   -2.4861    1.0000 </r>
       <r>   -2.4610    1.0000 </r>
       <r>   -2.3754    1.0000 </r>
       <r>   -2.3269    1.0000 </r>
       <r>   -2.2419    1.0000 </r>
       <r>   -1.9621    1.0000 </r>
       <r>   -1.8527    1.0000 </r>
       <r>   -1.8421    1.0000 </r>
       <r>   -1.6832    1.0000 </r>
       <r>   -1.5491    1.0000 </r>
       <r>   -1.3312    1.0000 </r>
       <r>   -1.0966    1.0000 </r>
       <r>   -1.0130    1.0000 </r>
       <r>   -0.7571    1.0000 </r>
       <r>   -0.6991    1.0000 </r>
       <r>   -0.6054    1.0000 </r>
       <r>   -0.5611    1.0000 </r>
       <r>   -0.5211    1.0000 </r>
       <r>   -0.4911    1.0000 </r>
       <r>   -0.3639    1.0000 </r>
       <r>   -0.3129    1.0000 </r>
       <r>   -0.0096    1.0000 </r>
       <r>    0.0128    1.0000 </r>
       <r>    0.1440    1.0000 </r>
       <r>    0.4545    1.0000 </r>
       <r>    2.5907    0.0000 </r>
       <r>    3.0940    0.0000 </r>
       <r>    3.5563    0.0000 </r>
       <r>    3.8180    0.0000 </r>
       <r>    3.8390    0.0000 </r>
       <r>    4.0180    0.0000 </r>
       <r>    4.0233    0.0000 </r>
       <r>    4.0492    0.0000 </r>
       <r>    4.1193    0.0000 </r>
       <r>    4.2198    0.0000 </r>
       <r>    4.3700    0.0000 </r>
       <r>    8.0730    0.0000 </r>
      </set>
      <set comment="kpoint 8">
       <r>  -33.1248    1.0000 </r>
       <r>  -32.2683    1.0000 </r>
       <r>  -32.2185    1.0000 </r>
       <r>  -32.0987    1.0000 </r>
       <r>  -16.7085    1.0000 </r>
       <r>  -16.4603    1.0000 </r>
       <r>  -16.3076    1.0000 </r>
       <r>  -16.2058    1.0000 </r>
       <r>  -15.9955    1.0000 </r>
       <r>  -15.8425    1.0000 </r>
       <r>  -15.8255    1.0000 </r>
       <r>  -15.7041    1.0000 </r>
       <r>  -15.6973    1.0000 </r>
       <r>  -15.6054    1.0000 </r>
       <r>  -15.5139    1.0000 </r>
       <r>  -15.3792    1.0000 </r>
       <r>  -15.0812    1.0000 </r>
       <r>  -14.9950    1.0000 </r>
       <r>  -14.3642    1.0000 </r>
       <r>  -14.3236    1.0000 </r>
       <r>  -14.2837    1.0000 </r>
       <r>  -14.1984    1.0000 </r>
       <r>  -14.1816    1.0000 </r>
       <r>  -14.0796    1.0000 </r>
       <r>  -14.0563    1.0000 </r>
       <r>  -14.0323    1.0000 </r>
       <r>  -13.9693    1.0000 </r>
       <r>  -13.8748    1.0000 </r>
       <r>   -3.6585    1.0000 </r>
       <r>   -3.4594    1.0000 </r>
       <r>   -3.3788    1.0000 </r>
       <r>   -3.2521    1.0000 </r>
       <r>   -3.0422    1.0000 </r>
       <r>   -3.0129    1.0000 </r>
       <r>   -2.8854    1.0000 </r>
       <r>   -2.8526    1.0000 </r>
       <r>   -2.8197    1.0000 </r>
       <r>   -2.7955    1.0000 </r>
       <r>   -2.7653    1.0000 </r>
       <r>   -2.6887    1.0000 </r>
       <r>   -2.6321    1.0000 </r>
       <r>   -2.5954    1.0000 </r>
       <r>   -2.5535    1.0000 </r>
       <r>   -2.4283    1.0000 </r>
       <r>   -2.3964    1.0000 </r>
       <r>   -2.3563    1.0000 </r>
       <r>   -2.1434    1.0000 </r>
       <r>   -2.0171    1.0000 </r>
       <r>   -1.9970    1.0000 </r>
       <r>   -1.6348    1.0000 </r>
       <r>   -1.4178    1.0000 </r>
       <r>   -0.8549    1.0000 </r>
       <r>   -0.7976    1.0000 </r>
       <r>   -0.5765    1.0000 </r>
       <r>   -0.3803    1.0000 </r>
       <r>   -0.3224    1.0000 </r>
       <r>   -0.1744    1.0000 </r>
       <r>   -0.1330    1.0000 </r>
       <r>   -0.1060    1.0000 </r>
       <r>    0.0265    1.0000 </r>
       <r>    0.0766    1.0000 </r>
       <r>    0.1638    1.0000 </r>
       <r>    0.3308    1.0000 </r>
       <r>    0.5371    1.0000 </r>
       <r>    3.1010    0.0000 </r>
       <r>    3.3662    0.0000 </r>
       <r>    3.5333    0.0000 </r>
       <r>    3.6332    0.0000 </r>
       <r>    3.6856    0.0000 </r>
       <r>    3.8462    0.0000 </r>
       <r>    3.9011    0.0000 </r>
       <r>    3.9061    0.0000 </r>
       <r>    4.0530    0.0000 </r>
       <r>    4.1524    0.0000 </r>
       <r>    4.2112    0.0000 </r>
       <r>    4.3056    0.0000 </r>
      </set>
      <set comment="kpoint 9">
       <r>  -33.1198    1.0000 </r>
       <r>  -32.2624    1.0000 </r>
       <r>  -32.2126    1.0000 </r>
       <r>  -32.0929    1.0000 </r>
       <r>  -16.6384    1.0000 </r>
       <r>  -16.3754    1.0000 </r>
       <r>  -16.1763    1.0000 </r>
       <r>  -16.0143    1.0000 </r>
       <r>  -15.9748    1.0000 </r>
       <r>  -15.8656    1.0000 </r>
       <r>  -15.8034    1.0000 </r>
       <r>  -15.7742    1.0000 </r>
       <r>  -15.6519    1.0000 </r>
       <r>  -15.4872    1.0000 </r>
       <r>  -15.3819    1.0000 </r>
       <r>  -15.3674    1.0000 </r>
       <r>  -15.1846    1.0000 </r>
       <r>  -14.9581    1.0000 </r>
       <r>  -14.4038    1.0000 </r>
       <r>  -14.3791    1.0000 </r>
       <r>  -14.3418    1.0000 </r>
       <r>  -14.2303    1.0000 </r>
       <r>  -14.1582    1.0000 </r>
       <r>  -14.1259    1.0000 </r>
       <r>  -14.0823    1.0000 </r>
       <r>  -14.0213    1.0000 </r>
       <r>  -14.0039    1.0000 </r>
       <r>  -13.8866    1.0000 </r>
       <r>   -3.8382    1.0000 </r>
       <r>   -3.6669    1.0000 </r>
       <r>   -3.5156    1.0000 </r>
       <r>   -3.4679    1.0000 </r>
       <r>   -3.3974    1.0000 </r>
       <r>   -3.3723    1.0000 </r>
       <r>   -3.2985    1.0000 </r>
       <r>   -3.1946    1.0000 </r>
       <r>   -3.0765    1.0000 </r>
       <r>   -2.9996    1.0000 </r>
       <r>   -2.9071    1.0000 </r>
       <r>   -2.8618    1.0000 </r>
       <r>   -2.8142    1.0000 </r>
       <r>   -2.7925    1.0000 </r>
       <r>   -2.6897    1.0000 </r>
       <r>   -2.6057    1.0000 </r>
       <r>   -2.4798    1.0000 </r>
       <r>   -2.4575    1.0000 </r>
       <r>   -2.4101    1.0000 </r>
       <r>   -2.2350    1.0000 </r>
       <r>   -2.0076    1.0000 </r>
       <r>   -1.9118    1.0000 </r>
       <r>   -1.4849    1.0000 </r>
       <r>   -0.8705    1.0000 </r>
       <r>   -0.7244    1.0000 </r>
       <r>   -0.6190    1.0000 </r>
       <r>   -0.3593    1.0000 </r>
       <r>   -0.3026    1.0000 </r>
       <r>   -0.1112    1.0000 </r>
       <r>   -0.0463    1.0000 </r>
       <r>    0.0257    1.0000 </r>
       <r>    0.1629    1.0000 </r>
       <r>    0.1907    1.0000 </r>
       <r>    0.1955    1.0000 </r>
       <r>    0.4756    1.0000 </r>
       <r>    0.6941    1.0000 </r>
       <r>    3.2290    0.0000 </r>
       <r>    3.6149    0.0000 </r>
       <r>    3.7937    0.0000 </r>
       <r>    3.9304    0.0000 </r>
       <r>    4.0101    0.0000 </r>
       <r>    4.0343    0.0000 </r>
       <r>    4.2274    0.0000 </r>
       <r>    4.2473    0.0000 </r>
       <r>    4.2979    0.0000 </r>
       <r>    4.3808    0.0000 </r>
       <r>    4.4917    0.0000 </r>
       <r>    8.1672    0.0000 </r>
      </set>
      <set comment="kpoint 10">
       <r>  -33.1149    1.0000 </r>
       <r>  -32.2568    1.0000 </r>
       <r>  -32.2070    1.0000 </r>
       <r>  -32.0873    1.0000 </r>
       <r>  -16.3858    1.0000 </r>
       <r>  -16.1292    1.0000 </r>
       <r>  -16.0488    1.0000 </r>
       <r>  -15.9862    1.0000 </r>
       <r>  -15.9078    1.0000 </r>
       <r>  -15.8895    1.0000 </r>
       <r>  -15.7513    1.0000 </r>
       <r>  -15.7175    1.0000 </r>
       <r>  -15.6479    1.0000 </r>
       <r>  -15.3903    1.0000 </r>
       <r>  -15.3587    1.0000 </r>
       <r>  -15.3420    1.0000 </r>
       <r>  -15.0865    1.0000 </r>
       <r>  -14.9837    1.0000 </r>
       <r>  -14.6489    1.0000 </r>
       <r>  -14.4394    1.0000 </r>
       <r>  -14.3893    1.0000 </r>
       <r>  -14.3873    1.0000 </r>
       <r>  -14.2400    1.0000 </r>
       <r>  -14.2007    1.0000 </r>
       <r>  -14.1227    1.0000 </r>
       <r>  -14.0793    1.0000 </r>
       <r>  -13.9668    1.0000 </r>
       <r>  -13.9434    1.0000 </r>
       <r>   -3.9558    1.0000 </r>
       <r>   -3.7847    1.0000 </r>
       <r>   -3.7244    1.0000 </r>
       <r>   -3.5995    1.0000 </r>
       <r>   -3.5918    1.0000 </r>
       <r>   -3.5355    1.0000 </r>
       <r>   -3.4531    1.0000 </r>
       <r>   -3.3979    1.0000 </r>
       <r>   -3.3971    1.0000 </r>
       <r>   -3.2621    1.0000 </r>
       <r>   -3.2355    1.0000 </r>
       <r>   -3.1664    1.0000 </r>
       <r>   -3.0743    1.0000 </r>
       <r>   -3.0459    1.0000 </r>
       <r>   -2.7942    1.0000 </r>
       <r>   -2.7841    1.0000 </r>
       <r>   -2.7529    1.0000 </r>
       <r>   -2.7250    1.0000 </r>
       <r>   -2.3810    1.0000 </r>
       <r>   -2.3489    1.0000 </r>
       <r>   -2.1263    1.0000 </r>
       <r>   -2.0281    1.0000 </r>
       <r>   -1.7532    1.0000 </r>
       <r>   -0.7582    1.0000 </r>
       <r>   -0.6901    1.0000 </r>
       <r>   -0.5895    1.0000 </r>
       <r>   -0.2859    1.0000 </r>
       <r>   -0.2401    1.0000 </r>
       <r>    0.0912    1.0000 </r>
       <r>    0.1350    1.0000 </r>
       <r>    0.2863    1.0000 </r>
       <r>    0.4358    1.0000 </r>
       <r>    0.4510    1.0000 </r>
       <r>    0.4954    1.0000 </r>
       <r>    0.5679    1.0000 </r>
       <r>    1.0225    1.0000 </r>
       <r>    3.8018    0.0000 </r>
       <r>    3.8622    0.0000 </r>
       <r>    4.1490    0.0000 </r>
       <r>    4.1722    0.0000 </r>
       <r>    4.2733    0.0000 </r>
       <r>    4.3963    0.0000 </r>
       <r>    4.4834    0.0000 </r>
       <r>    4.5737    0.0000 </r>
       <r>    4.6293    0.0000 </r>
       <r>    7.7467    0.0000 </r>
       <r>    7.7806    0.0000 </r>
       <r>    7.8045    0.0000 </r>
      </set>
     </set>
    </set>
   </array>
  </eigenvalues>
  <separator name="orbital magnetization" >
   <v name="MAGDIPOLOUT">      0.00000000      0.00000000      0.00000000</v>
  </separator>
  <dos>
   <i name="efermi">      1.06865405 </i>
   <total>
    <array>
     <dimension dim="1">gridpoints</dimension>
     <dimension dim="2">spin</dimension>
     <field>energy</field>
     <field>total</field>
     <field>integrated</field>
     <set>
      <set comment="spin 1">
       <r>   -35.2089     0.0000     0.0000 </r>
       <r>   -35.0574     0.0000     0.0000 </r>
       <r>   -34.9059     0.0000     0.0000 </r>
       <r>   -34.7545     0.0000     0.0000 </r>
       <r>   -34.6030     0.0000     0.0000 </r>
       <r>   -34.4515     0.0000     0.0000 </r>
       <r>   -34.3000     0.0000     0.0000 </r>
       <r>   -34.1486     0.0000     0.0000 </r>
       <r>   -33.9971     0.0000     0.0000 </r>
       <r>   -33.8456     0.0000     0.0000 </r>
       <r>   -33.6941     0.0000     0.0000 </r>
       <r>   -33.5427     0.0000     0.0000 </r>
       <r>   -33.3912     0.0000     0.0000 </r>
       <r>   -33.2397     0.0000     0.0000 </r>
       <r>   -33.0883     0.0000     2.0000 </r>
       <r>   -32.9368     0.0000     2.0000 </r>
       <r>   -32.7853     0.0000     2.0000 </r>
       <r>   -32.6338     0.0000     2.0000 </r>
       <r>   -32.4824     0.0000     2.0000 </r>
       <r>   -32.3309     0.0000     2.0000 </r>
       <r>   -32.1794     0.0000     6.0000 </r>
       <r>   -32.0280     0.0000     8.0000 </r>
       <r>   -31.8765     0.0000     8.0000 </r>
       <r>   -31.7250     0.0000     8.0000 </r>
       <r>   -31.5735     0.0000     8.0000 </r>
       <r>   -31.4221     0.0000     8.0000 </r>
       <r>   -31.2706     0.0000     8.0000 </r>
       <r>   -31.1191     0.0000     8.0000 </r>
       <r>   -30.9677     0.0000     8.0000 </r>
       <r>   -30.8162     0.0000     8.0000 </r>
       <r>   -30.6647     0.0000     8.0000 </r>
       <r>   -30.5132     0.0000     8.0000 </r>
       <r>   -30.3618     0.0000     8.0000 </r>
       <r>   -30.2103     0.0000     8.0000 </r>
       <r>   -30.0588     0.0000     8.0000 </r>
       <r>   -29.9074     0.0000     8.0000 </r>
       <r>   -29.7559     0.0000     8.0000 </r>
       <r>   -29.6044     0.0000     8.0000 </r>
       <r>   -29.4529     0.0000     8.0000 </r>
       <r>   -29.3015     0.0000     8.0000 </r>
       <r>   -29.1500     0.0000     8.0000 </r>
       <r>   -28.9985     0.0000     8.0000 </r>
       <r>   -28.8470     0.0000     8.0000 </r>
       <r>   -28.6956     0.0000     8.0000 </r>
       <r>   -28.5441     0.0000     8.0000 </r>
       <r>   -28.3926     0.0000     8.0000 </r>
       <r>   -28.2412     0.0000     8.0000 </r>
       <r>   -28.0897     0.0000     8.0000 </r>
       <r>   -27.9382     0.0000     8.0000 </r>
       <r>   -27.7867     0.0000     8.0000 </r>
       <r>   -27.6353     0.0000     8.0000 </r>
       <r>   -27.4838     0.0000     8.0000 </r>
       <r>   -27.3323     0.0000     8.0000 </r>
       <r>   -27.1809     0.0000     8.0000 </r>
       <r>   -27.0294     0.0000     8.0000 </r>
       <r>   -26.8779     0.0000     8.0000 </r>
       <r>   -26.7264     0.0000     8.0000 </r>
       <r>   -26.5750     0.0000     8.0000 </r>
       <r>   -26.4235     0.0000     8.0000 </r>
       <r>   -26.2720     0.0000     8.0000 </r>
       <r>   -26.1206     0.0000     8.0000 </r>
       <r>   -25.9691     0.0000     8.0000 </r>
       <r>   -25.8176     0.0000     8.0000 </r>
       <r>   -25.6661     0.0000     8.0000 </r>
       <r>   -25.5147     0.0000     8.0000 </r>
       <r>   -25.3632     0.0000     8.0000 </r>
       <r>   -25.2117     0.0000     8.0000 </r>
       <r>   -25.0602     0.0000     8.0000 </r>
       <r>   -24.9088     0.0000     8.0000 </r>
       <r>   -24.7573     0.0000     8.0000 </r>
       <r>   -24.6058     0.0000     8.0000 </r>
       <r>   -24.4544     0.0000     8.0000 </r>
       <r>   -24.3029     0.0000     8.0000 </r>
       <r>   -24.1514     0.0000     8.0000 </r>
       <r>   -23.9999     0.0000     8.0000 </r>
       <r>   -23.8485     0.0000     8.0000 </r>
       <r>   -23.6970     0.0000     8.0000 </r>
       <r>   -23.5455     0.0000     8.0000 </r>
       <r>   -23.3941     0.0000     8.0000 </r>
       <r>   -23.2426     0.0000     8.0000 </r>
       <r>   -23.0911     0.0000     8.0000 </r>
       <r>   -22.9396     0.0000     8.0000 </r>
       <r>   -22.7882     0.0000     8.0000 </r>
       <r>   -22.6367     0.0000     8.0000 </r>
       <r>   -22.4852     0.0000     8.0000 </r>
       <r>   -22.3338     0.0000     8.0000 </r>
       <r>   -22.1823     0.0000     8.0000 </r>
       <r>   -22.0308     0.0000     8.0000 </r>
       <r>   -21.8793     0.0000     8.0000 </r>
       <r>   -21.7279     0.0000     8.0000 </r>
       <r>   -21.5764     0.0000     8.0000 </r>
       <r>   -21.4249     0.0000     8.0000 </r>
       <r>   -21.2735     0.0000     8.0000 </r>
       <r>   -21.1220     0.0000     8.0000 </r>
       <r>   -20.9705     0.0000     8.0000 </r>
       <r>   -20.8190     0.0000     8.0000 </r>
       <r>   -20.6676     0.0000     8.0000 </r>
       <r>   -20.5161     0.0000     8.0000 </r>
       <r>   -20.3646     0.0000     8.0000 </r>
       <r>   -20.2131     0.0000     8.0000 </r>
       <r>   -20.0617     0.0000     8.0000 </r>
       <r>   -19.9102     0.0000     8.0000 </r>
       <r>   -19.7587     0.0000     8.0000 </r>
       <r>   -19.6073     0.0000     8.0000 </r>
       <r>   -19.4558     0.0000     8.0000 </r>
       <r>   -19.3043     0.0000     8.0000 </r>
       <r>   -19.1528     0.0000     8.0000 </r>
       <r>   -19.0014     0.0000     8.0000 </r>
       <r>   -18.8499     0.0000     8.0000 </r>
       <r>   -18.6984     0.0000     8.0000 </r>
       <r>   -18.5470     0.0000     8.0000 </r>
       <r>   -18.3955     0.0000     8.0000 </r>
       <r>   -18.2440     0.0000     8.0000 </r>
       <r>   -18.0925     0.0000     8.0000 </r>
       <r>   -17.9411     0.0000     8.0000 </r>
       <r>   -17.7896     0.0000     8.0000 </r>
       <r>   -17.6381     0.0000     8.0000 </r>
       <r>   -17.4867     0.0000     8.0000 </r>
       <r>   -17.3352     0.0000     8.0000 </r>
       <r>   -17.1837     0.0000     8.0000 </r>
       <r>   -17.0322     0.0000     8.0000 </r>
       <r>   -16.8808    11.1807     8.7497 </r>
       <r>   -16.7293     5.8990     9.6742 </r>
       <r>   -16.5778     7.5287    11.3140 </r>
       <r>   -16.4264    18.2358    12.6620 </r>
       <r>   -16.2749     6.9976    14.2082 </r>
       <r>   -16.1234     4.6910    15.3166 </r>
       <r>   -15.9719    33.1574    16.9777 </r>
       <r>   -15.8205    30.5293    21.3931 </r>
       <r>   -15.6690    25.8489    26.0119 </r>
       <r>   -15.5175     3.0761    27.6302 </r>
       <r>   -15.3660    46.8519    31.1604 </r>
       <r>   -15.2146     0.5166    31.9653 </r>
       <r>   -15.0631    15.3816    33.4187 </r>
       <r>   -14.9116     0.0000    36.0000 </r>
       <r>   -14.7602     0.1296    36.0031 </r>
       <r>   -14.6087     1.3593    36.1247 </r>
       <r>   -14.4572     3.0596    36.4526 </r>
       <r>   -14.3057    39.0574    39.5623 </r>
       <r>   -14.1543    37.8168    44.9993 </r>
       <r>   -14.0028    38.3348    50.5523 </r>
       <r>   -13.8513    20.2862    54.9063 </r>
       <r>   -13.6999     0.0000    56.0000 </r>
       <r>   -13.5484     0.0000    56.0000 </r>
       <r>   -13.3969     0.0000    56.0000 </r>
       <r>   -13.2454     0.0000    56.0000 </r>
       <r>   -13.0940     0.0000    56.0000 </r>
       <r>   -12.9425     0.0000    56.0000 </r>
       <r>   -12.7910     0.0000    56.0000 </r>
       <r>   -12.6396     0.0000    56.0000 </r>
       <r>   -12.4881     0.0000    56.0000 </r>
       <r>   -12.3366     0.0000    56.0000 </r>
       <r>   -12.1851     0.0000    56.0000 </r>
       <r>   -12.0337     0.0000    56.0000 </r>
       <r>   -11.8822     0.0000    56.0000 </r>
       <r>   -11.7307     0.0000    56.0000 </r>
       <r>   -11.5793     0.0000    56.0000 </r>
       <r>   -11.4278     0.0000    56.0000 </r>
       <r>   -11.2763     0.0000    56.0000 </r>
       <r>   -11.1248     0.0000    56.0000 </r>
       <r>   -10.9734     0.0000    56.0000 </r>
       <r>   -10.8219     0.0000    56.0000 </r>
       <r>   -10.6704     0.0000    56.0000 </r>
       <r>   -10.5189     0.0000    56.0000 </r>
       <r>   -10.3675     0.0000    56.0000 </r>
       <r>   -10.2160     0.0000    56.0000 </r>
       <r>   -10.0645     0.0000    56.0000 </r>
       <r>    -9.9131     0.0000    56.0000 </r>
       <r>    -9.7616     0.0000    56.0000 </r>
       <r>    -9.6101     0.0000    56.0000 </r>
       <r>    -9.4586     0.0000    56.0000 </r>
       <r>    -9.3072     0.0000    56.0000 </r>
       <r>    -9.1557     0.0000    56.0000 </r>
       <r>    -9.0042     0.0000    56.0000 </r>
       <r>    -8.8528     0.0000    56.0000 </r>
       <r>    -8.7013     0.0000    56.0000 </r>
       <r>    -8.5498     0.0000    56.0000 </r>
       <r>    -8.3983     0.0000    56.0000 </r>
       <r>    -8.2469     0.0000    56.0000 </r>
       <r>    -8.0954     0.0000    56.0000 </r>
       <r>    -7.9439     0.0000    56.0000 </r>
       <r>    -7.7925     0.0000    56.0000 </r>
       <r>    -7.6410     0.0000    56.0000 </r>
       <r>    -7.4895     0.0000    56.0000 </r>
       <r>    -7.3380     0.0000    56.0000 </r>
       <r>    -7.1866     0.0000    56.0000 </r>
       <r>    -7.0351     0.0000    56.0000 </r>
       <r>    -6.8836     0.0000    56.0000 </r>
       <r>    -6.7321     0.0000    56.0000 </r>
       <r>    -6.5807     0.0000    56.0000 </r>
       <r>    -6.4292     0.0000    56.0000 </r>
       <r>    -6.2777     0.0000    56.0000 </r>
       <r>    -6.1263     0.0000    56.0000 </r>
       <r>    -5.9748     0.0000    56.0000 </r>
       <r>    -5.8233     0.0000    56.0000 </r>
       <r>    -5.6718     0.0000    56.0000 </r>
       <r>    -5.5204     0.0000    56.0000 </r>
       <r>    -5.3689     0.0000    56.0000 </r>
       <r>    -5.2174     0.0000    56.0000 </r>
       <r>    -5.0660     0.0000    56.0000 </r>
       <r>    -4.9145     0.0000    56.0000 </r>
       <r>    -4.7630     0.0000    56.0000 </r>
       <r>    -4.6115     0.0000    56.0000 </r>
       <r>    -4.4601     0.0000    56.0000 </r>
       <r>    -4.3086     0.0000    56.0000 </r>
       <r>    -4.1571     0.0000    56.0000 </r>
       <r>    -4.0057     0.0000    56.0000 </r>
       <r>    -3.8542     2.4626    56.2365 </r>
       <r>    -3.7027     9.0875    57.5378 </r>
       <r>    -3.5512    10.1782    59.8395 </r>
       <r>    -3.3998    19.3037    62.3295 </r>
       <r>    -3.2483    16.2748    64.9048 </r>
       <r>    -3.0968    14.5243    67.1612 </r>
       <r>    -2.9454    15.2257    69.6296 </r>
       <r>    -2.7939    18.8895    72.0826 </r>
       <r>    -2.6424    21.0837    75.4486 </r>
       <r>    -2.4909    23.3960    78.7164 </r>
       <r>    -2.3395    21.4538    82.4628 </r>
       <r>    -2.1880    18.4968    85.5663 </r>
       <r>    -2.0365    15.5393    88.2544 </r>
       <r>    -1.8850    12.0113    90.4991 </r>
       <r>    -1.7336    12.8354    92.3480 </r>
       <r>    -1.5821    13.6304    94.3023 </r>
       <r>    -1.4306    11.7092    96.2612 </r>
       <r>    -1.2792    13.6980    98.2082 </r>
       <r>    -1.1277     7.3137    99.5787 </r>
       <r>    -0.9762    12.5019   101.2992 </r>
       <r>    -0.8247    17.4564   103.2992 </r>
       <r>    -0.6733    19.1878   106.3230 </r>
       <r>    -0.5218    17.5767   109.7548 </r>
       <r>    -0.3703    23.9822   113.0024 </r>
       <r>    -0.2189    15.6015   116.8244 </r>
       <r>    -0.0674    19.7314   118.6298 </r>
       <r>     0.0841    23.5690   121.7247 </r>
       <r>     0.2356    14.1006   124.5019 </r>
       <r>     0.3870     7.7666   126.1361 </r>
       <r>     0.5385     4.2931   127.3227 </r>
       <r>     0.6900     1.5506   127.6935 </r>
       <r>     0.8414     0.8196   127.8400 </r>
       <r>     0.9929     0.5499   127.9437 </r>
       <r>     1.1444     0.0000   128.0000 </r>
       <r>     1.2959     0.0000   128.0000 </r>
       <r>     1.4473     0.0000   128.0000 </r>
       <r>     1.5988     0.0000   128.0000 </r>
       <r>     1.7503     0.0000   128.0000 </r>
       <r>     1.9017     0.0000   128.0000 </r>
       <r>     2.0532     0.0000   128.0000 </r>
       <r>     2.2047     0.9062   128.0648 </r>
       <r>     2.3562     3.6172   128.4934 </r>
       <r>     2.5076     4.0798   129.0659 </r>
       <r>     2.6591     3.5985   129.6630 </r>
       <r>     2.8106     4.4039   130.2622 </r>
       <r>     2.9621     8.0227   131.3260 </r>
       <r>     3.1135     6.9605   132.4910 </r>
       <r>     3.2650     8.6666   133.6665 </r>
       <r>     3.4165     9.2797   135.0184 </r>
       <r>     3.5679    11.1037   136.6573 </r>
       <r>     3.7194    14.0409   138.5172 </r>
       <r>     3.8709    13.9461   141.2005 </r>
       <r>     4.0224    26.6144   143.6073 </r>
       <r>     4.1738    14.3449   145.9066 </r>
       <r>     4.3253     8.1893   147.6236 </r>
       <r>     4.4768     4.1772   148.5559 </r>
       <r>     4.6282     0.9678   148.8864 </r>
       <r>     4.7797     0.4740   148.9995 </r>
       <r>     4.9312     0.4744   149.0713 </r>
       <r>     5.0827     0.4749   149.1432 </r>
       <r>     5.2341     0.4753   149.2152 </r>
       <r>     5.3856     0.4758   149.2872 </r>
       <r>     5.5371     0.4762   149.3593 </r>
       <r>     5.6885     0.4767   149.4315 </r>
       <r>     5.8400     0.4771   149.5037 </r>
       <r>     5.9915     0.4775   149.5760 </r>
       <r>     6.1430     0.9389   149.7054 </r>
       <r>     6.2944     0.9599   149.8492 </r>
       <r>     6.4459     0.9809   149.9962 </r>
       <r>     6.5974     0.8487   150.1410 </r>
       <r>     6.7489     0.7750   150.2633 </r>
       <r>     6.9003     0.7834   150.3807 </r>
       <r>     7.0518     0.8008   150.5007 </r>
       <r>     7.2033     0.8183   150.6233 </r>
       <r>     7.3547     0.8564   150.7493 </r>
       <r>     7.5062     0.9178   150.8837 </r>
       <r>     7.6577     0.8327   151.0063 </r>
       <r>     7.8092     1.2390   151.2564 </r>
       <r>     7.9606     1.3701   151.4540 </r>
       <r>     8.1121     2.5744   151.8622 </r>
       <r>     8.2636     0.0000   152.0000 </r>
       <r>     8.4150     0.0000   152.0000 </r>
       <r>     8.5665     0.0000   152.0000 </r>
       <r>     8.7180     0.0000   152.0000 </r>
       <r>     8.8695     0.0000   152.0000 </r>
       <r>     9.0209     0.0000   152.0000 </r>
       <r>     9.1724     0.0000   152.0000 </r>
       <r>     9.3239     0.0000   152.0000 </r>
       <r>     9.4753     0.0000   152.0000 </r>
       <r>     9.6268     0.0000   152.0000 </r>
       <r>     9.7783     0.0000   152.0000 </r>
       <r>     9.9298     0.0000   152.0000 </r>
       <r>    10.0812     0.0000   152.0000 </r>
       <r>    10.2327     0.0000   152.0000 </r>
      </set>
     </set>
    </array>
   </total>
  </dos>
 </calculation>
 <structure name="finalpos" >
  <crystal>
   <varray name="basis" >
    <v>       3.94684634       0.00000000       0.00000000 </v>
    <v>       0.00000000       3.94684634       0.00000000 </v>
    <v>       0.00000000       0.00000000      21.81396220 </v>
   </varray>
   <i name="volume">    339.80909121 </i>
   <varray name="rec_basis" >
    <v>       0.25336684       0.00000000       0.00000000 </v>
    <v>       0.00000000       0.25336684       0.00000000 </v>
    <v>       0.00000000       0.00000000       0.04584220 </v>
   </varray>
  </crystal>
  <varray name="positions" >
   <v>       0.50000000       0.50000000       0.18336880 </v>
   <v>       0.50000000       0.00000000       0.27383485 </v>
   <v>       0.00000000       0.50000000       0.27383485 </v>
   <v>       0.50000000       0.50000000       0.36430091 </v>
   <v>       0.50000000       0.00000000       0.45476697 </v>
   <v>       0.00000000       0.50000000       0.45476697 </v>
   <v>       0.50000000       0.50000000       0.54523303 </v>
   <v>       0.50000000       0.00000000       0.63569909 </v>
   <v>       0.00000000       0.50000000       0.63569909 </v>
   <v>       0.50000000       0.50000000       0.72616515 </v>
   <v>       0.50000000       0.00000000       0.81663120 </v>
   <v>       0.00000000       0.50000000       0.81663120 </v>
   <v>       0.00000000       0.00000000       0.18336880 </v>
   <v>       0.00000000       0.00000000       0.36430091 </v>
   <v>       0.00000000       0.00000000       0.54523303 </v>
   <v>       0.00000000       0.00000000       0.72616515 </v>
   <v>       0.50000000       0.50000000       0.27383485 </v>
   <v>       0.50000000       0.50000000       0.45476697 </v>
   <v>       0.50000000       0.50000000       0.63569909 </v>
   <v>       0.50000000       0.50000000       0.81663120 </v>
  </varray>
 </structure>
</modeling>
