unknown system                          
           1
     3.946846    0.000000    0.000000
     0.000000    3.946846    0.000000
     0.000000    0.000000   21.813962
   O    Sr   Ti
  12   4   4
Direct configuration=     1
   0.50000000  0.50000000  0.18336880
   0.50000000  0.00000000  0.27383485
   0.00000000  0.50000000  0.27383485
   0.50000000  0.50000000  0.36430091
   0.50000000  0.00000000  0.45476697
   0.00000000  0.50000000  0.45476697
   0.50000000  0.50000000  0.54523303
   0.50000000  0.00000000  0.63569909
   0.00000000  0.50000000  0.63569909
   0.50000000  0.50000000  0.72616515
   0.50000000  0.00000000  0.81663120
   0.00000000  0.50000000  0.81663120
   0.00000000  0.00000000  0.18336880
   0.00000000  0.00000000  0.36430091
   0.00000000  0.00000000  0.54523303
   0.00000000  0.00000000  0.72616515
   0.50000000  0.50000000  0.27383485
   0.50000000  0.50000000  0.45476697
   0.50000000  0.50000000  0.63569909
   0.50000000  0.50000000  0.81663120
