  20  20   0   0
  0.1957362E+02  0.3905268E-09  0.3905268E-09  0.2566844E-08  0.5000000E-15
  1.000000000000000E-004
  CAR 
 unknown system                          
     10.00391926    -35.86669722  301      0.71511942      1.00000000
    -35.867  0.0000E+00  0.0000E+00
    -35.714  0.0000E+00  0.0000E+00
    -35.561  0.0000E+00  0.0000E+00
    -35.408  0.0000E+00  0.0000E+00
    -35.255  0.0000E+00  0.0000E+00
    -35.102  0.0000E+00  0.0000E+00
    -34.949  0.0000E+00  0.0000E+00
    -34.796  0.0000E+00  0.0000E+00
    -34.643  0.0000E+00  0.0000E+00
    -34.491  0.0000E+00  0.0000E+00
    -34.338  0.0000E+00  0.0000E+00
    -34.185  0.0000E+00  0.0000E+00
    -34.032  0.0000E+00  0.0000E+00
    -33.879  0.0000E+00  0.0000E+00
    -33.726  0.0000E+00  0.2000E+01
    -33.573  0.0000E+00  0.2000E+01
    -33.420  0.0000E+00  0.2000E+01
    -33.267  0.0000E+00  0.2000E+01
    -33.114  0.0000E+00  0.2000E+01
    -32.962  0.0000E+00  0.2000E+01
    -32.809  0.0000E+00  0.2000E+01
    -32.656  0.3408E+02  0.6163E+01
    -32.503  0.0000E+00  0.8000E+01
    -32.350  0.0000E+00  0.8000E+01
    -32.197  0.0000E+00  0.8000E+01
    -32.044  0.0000E+00  0.8000E+01
    -31.891  0.0000E+00  0.8000E+01
    -31.738  0.0000E+00  0.8000E+01
    -31.585  0.0000E+00  0.8000E+01
    -31.433  0.0000E+00  0.8000E+01
    -31.280  0.0000E+00  0.8000E+01
    -31.127  0.0000E+00  0.8000E+01
    -30.974  0.0000E+00  0.8000E+01
    -30.821  0.0000E+00  0.8000E+01
    -30.668  0.0000E+00  0.8000E+01
    -30.515  0.0000E+00  0.8000E+01
    -30.362  0.0000E+00  0.8000E+01
    -30.209  0.0000E+00  0.8000E+01
    -30.056  0.0000E+00  0.8000E+01
    -29.904  0.0000E+00  0.8000E+01
    -29.751  0.0000E+00  0.8000E+01
    -29.598  0.0000E+00  0.8000E+01
    -29.445  0.0000E+00  0.8000E+01
    -29.292  0.0000E+00  0.8000E+01
    -29.139  0.0000E+00  0.8000E+01
    -28.986  0.0000E+00  0.8000E+01
    -28.833  0.0000E+00  0.8000E+01
    -28.680  0.0000E+00  0.8000E+01
    -28.527  0.0000E+00  0.8000E+01
    -28.374  0.0000E+00  0.8000E+01
    -28.222  0.0000E+00  0.8000E+01
    -28.069  0.0000E+00  0.8000E+01
    -27.916  0.0000E+00  0.8000E+01
    -27.763  0.0000E+00  0.8000E+01
    -27.610  0.0000E+00  0.8000E+01
    -27.457  0.0000E+00  0.8000E+01
    -27.304  0.0000E+00  0.8000E+01
    -27.151  0.0000E+00  0.8000E+01
    -26.998  0.0000E+00  0.8000E+01
    -26.845  0.0000E+00  0.8000E+01
    -26.693  0.0000E+00  0.8000E+01
    -26.540  0.0000E+00  0.8000E+01
    -26.387  0.0000E+00  0.8000E+01
    -26.234  0.0000E+00  0.8000E+01
    -26.081  0.0000E+00  0.8000E+01
    -25.928  0.0000E+00  0.8000E+01
    -25.775  0.0000E+00  0.8000E+01
    -25.622  0.0000E+00  0.8000E+01
    -25.469  0.0000E+00  0.8000E+01
    -25.316  0.0000E+00  0.8000E+01
    -25.164  0.0000E+00  0.8000E+01
    -25.011  0.0000E+00  0.8000E+01
    -24.858  0.0000E+00  0.8000E+01
    -24.705  0.0000E+00  0.8000E+01
    -24.552  0.0000E+00  0.8000E+01
    -24.399  0.0000E+00  0.8000E+01
    -24.246  0.0000E+00  0.8000E+01
    -24.093  0.0000E+00  0.8000E+01
    -23.940  0.0000E+00  0.8000E+01
    -23.787  0.0000E+00  0.8000E+01
    -23.635  0.0000E+00  0.8000E+01
    -23.482  0.0000E+00  0.8000E+01
    -23.329  0.0000E+00  0.8000E+01
    -23.176  0.0000E+00  0.8000E+01
    -23.023  0.0000E+00  0.8000E+01
    -22.870  0.0000E+00  0.8000E+01
    -22.717  0.0000E+00  0.8000E+01
    -22.564  0.0000E+00  0.8000E+01
    -22.411  0.0000E+00  0.8000E+01
    -22.258  0.0000E+00  0.8000E+01
    -22.106  0.0000E+00  0.8000E+01
    -21.953  0.0000E+00  0.8000E+01
    -21.800  0.0000E+00  0.8000E+01
    -21.647  0.0000E+00  0.8000E+01
    -21.494  0.0000E+00  0.8000E+01
    -21.341  0.0000E+00  0.8000E+01
    -21.188  0.0000E+00  0.8000E+01
    -21.035  0.0000E+00  0.8000E+01
    -20.882  0.0000E+00  0.8000E+01
    -20.729  0.0000E+00  0.8000E+01
    -20.576  0.0000E+00  0.8000E+01
    -20.424  0.0000E+00  0.8000E+01
    -20.271  0.0000E+00  0.8000E+01
    -20.118  0.0000E+00  0.8000E+01
    -19.965  0.0000E+00  0.8000E+01
    -19.812  0.0000E+00  0.8000E+01
    -19.659  0.0000E+00  0.8000E+01
    -19.506  0.0000E+00  0.8000E+01
    -19.353  0.0000E+00  0.8000E+01
    -19.200  0.0000E+00  0.8000E+01
    -19.047  0.0000E+00  0.8000E+01
    -18.895  0.0000E+00  0.8000E+01
    -18.742  0.0000E+00  0.8000E+01
    -18.589  0.0000E+00  0.8000E+01
    -18.436  0.0000E+00  0.8000E+01
    -18.283  0.0000E+00  0.8000E+01
    -18.130  0.0000E+00  0.8000E+01
    -17.977  0.0000E+00  0.8000E+01
    -17.824  0.0000E+00  0.8000E+01
    -17.671  0.4120E+01  0.8057E+01
    -17.518  0.8105E+01  0.9321E+01
    -17.366  0.8052E+01  0.1111E+02
    -17.213  0.8199E+01  0.1220E+02
    -17.060  0.4456E+01  0.1311E+02
    -16.907  0.7024E+01  0.1463E+02
    -16.754  0.3773E+01  0.1544E+02
    -16.601  0.3916E+02  0.1866E+02
    -16.448  0.2486E+02  0.2374E+02
    -16.295  0.4394E+01  0.2666E+02
    -16.142  0.9281E+01  0.2871E+02
    -15.989  0.7109E+01  0.2971E+02
    -15.837  0.1304E+02  0.3234E+02
    -15.684  0.1494E+02  0.3414E+02
    -15.531  0.2755E+00  0.3601E+02
    -15.378  0.1051E+01  0.3610E+02
    -15.225  0.1711E+01  0.3631E+02
    -15.072  0.3693E+01  0.3666E+02
    -14.919  0.1439E+02  0.3787E+02
    -14.766  0.2466E+02  0.4149E+02
    -14.613  0.3524E+02  0.4743E+02
    -14.460  0.3058E+02  0.5179E+02
    -14.308  0.8882E+01  0.5572E+02
    -14.155  0.0000E+00  0.5600E+02
    -14.002  0.0000E+00  0.5600E+02
    -13.849  0.0000E+00  0.5600E+02
    -13.696  0.0000E+00  0.5600E+02
    -13.543  0.0000E+00  0.5600E+02
    -13.390  0.0000E+00  0.5600E+02
    -13.237  0.0000E+00  0.5600E+02
    -13.084  0.0000E+00  0.5600E+02
    -12.931  0.0000E+00  0.5600E+02
    -12.778  0.0000E+00  0.5600E+02
    -12.626  0.0000E+00  0.5600E+02
    -12.473  0.0000E+00  0.5600E+02
    -12.320  0.0000E+00  0.5600E+02
    -12.167  0.0000E+00  0.5600E+02
    -12.014  0.0000E+00  0.5600E+02
    -11.861  0.0000E+00  0.5600E+02
    -11.708  0.0000E+00  0.5600E+02
    -11.555  0.0000E+00  0.5600E+02
    -11.402  0.0000E+00  0.5600E+02
    -11.249  0.0000E+00  0.5600E+02
    -11.097  0.0000E+00  0.5600E+02
    -10.944  0.0000E+00  0.5600E+02
    -10.791  0.0000E+00  0.5600E+02
    -10.638  0.0000E+00  0.5600E+02
    -10.485  0.0000E+00  0.5600E+02
    -10.332  0.0000E+00  0.5600E+02
    -10.179  0.0000E+00  0.5600E+02
    -10.026  0.0000E+00  0.5600E+02
     -9.873  0.0000E+00  0.5600E+02
     -9.720  0.0000E+00  0.5600E+02
     -9.568  0.0000E+00  0.5600E+02
     -9.415  0.0000E+00  0.5600E+02
     -9.262  0.0000E+00  0.5600E+02
     -9.109  0.0000E+00  0.5600E+02
     -8.956  0.0000E+00  0.5600E+02
     -8.803  0.0000E+00  0.5600E+02
     -8.650  0.0000E+00  0.5600E+02
     -8.497  0.0000E+00  0.5600E+02
     -8.344  0.0000E+00  0.5600E+02
     -8.191  0.0000E+00  0.5600E+02
     -8.039  0.0000E+00  0.5600E+02
     -7.886  0.0000E+00  0.5600E+02
     -7.733  0.0000E+00  0.5600E+02
     -7.580  0.0000E+00  0.5600E+02
     -7.427  0.0000E+00  0.5600E+02
     -7.274  0.0000E+00  0.5600E+02
     -7.121  0.0000E+00  0.5600E+02
     -6.968  0.0000E+00  0.5600E+02
     -6.815  0.0000E+00  0.5600E+02
     -6.662  0.0000E+00  0.5600E+02
     -6.510  0.0000E+00  0.5600E+02
     -6.357  0.0000E+00  0.5600E+02
     -6.204  0.0000E+00  0.5600E+02
     -6.051  0.0000E+00  0.5600E+02
     -5.898  0.0000E+00  0.5600E+02
     -5.745  0.0000E+00  0.5600E+02
     -5.592  0.0000E+00  0.5600E+02
     -5.439  0.0000E+00  0.5600E+02
     -5.286  0.0000E+00  0.5600E+02
     -5.133  0.0000E+00  0.5600E+02
     -4.980  0.0000E+00  0.5600E+02
     -4.828  0.0000E+00  0.5600E+02
     -4.675  0.3292E+00  0.5600E+02
     -4.522  0.8314E+01  0.5646E+02
     -4.369  0.1230E+02  0.5820E+02
     -4.216  0.1354E+02  0.6082E+02
     -4.063  0.1620E+02  0.6330E+02
     -3.910  0.1371E+02  0.6568E+02
     -3.757  0.1604E+02  0.6795E+02
     -3.604  0.1538E+02  0.7062E+02
     -3.451  0.1813E+02  0.7329E+02
     -3.299  0.1830E+02  0.7615E+02
     -3.146  0.2814E+02  0.7924E+02
     -2.993  0.2650E+02  0.8348E+02
     -2.840  0.1426E+02  0.8669E+02
     -2.687  0.1571E+02  0.8896E+02
     -2.534  0.1220E+02  0.9102E+02
     -2.381  0.1209E+02  0.9283E+02
     -2.228  0.1183E+02  0.9461E+02
     -2.075  0.9054E+01  0.9640E+02
     -1.922  0.9329E+01  0.9792E+02
     -1.770  0.9332E+01  0.9957E+02
     -1.617  0.2069E+02  0.1014E+03
     -1.464  0.1877E+02  0.1037E+03
     -1.311  0.1889E+02  0.1071E+03
     -1.158  0.1916E+02  0.1098E+03
     -1.005  0.2311E+02  0.1130E+03
     -0.852  0.1417E+02  0.1168E+03
     -0.699  0.2112E+02  0.1196E+03
     -0.546  0.1867E+02  0.1223E+03
     -0.393  0.1115E+02  0.1246E+03
     -0.241  0.1399E+02  0.1262E+03
     -0.088  0.1675E+01  0.1274E+03
      0.065  0.9278E+00  0.1276E+03
      0.218  0.8906E+00  0.1277E+03
      0.371  0.8073E+00  0.1278E+03
      0.524  0.8629E+00  0.1279E+03
      0.677  0.0000E+00  0.1280E+03
      0.830  0.0000E+00  0.1280E+03
      0.983  0.0000E+00  0.1280E+03
      1.136  0.0000E+00  0.1280E+03
      1.289  0.0000E+00  0.1280E+03
      1.441  0.0000E+00  0.1280E+03
      1.594  0.0000E+00  0.1280E+03
      1.747  0.1604E+01  0.1281E+03
      1.900  0.4847E+01  0.1287E+03
      2.053  0.3032E+01  0.1292E+03
      2.206  0.3530E+01  0.1297E+03
      2.359  0.8517E+01  0.1305E+03
      2.512  0.6614E+01  0.1318E+03
      2.665  0.6606E+01  0.1328E+03
      2.818  0.6952E+01  0.1339E+03
      2.970  0.1174E+02  0.1352E+03
      3.123  0.1120E+02  0.1369E+03
      3.276  0.1164E+02  0.1387E+03
      3.429  0.1657E+02  0.1408E+03
      3.582  0.1835E+02  0.1437E+03
      3.735  0.1271E+02  0.1460E+03
      3.888  0.7480E+01  0.1476E+03
      4.041  0.3176E+01  0.1483E+03
      4.194  0.5409E+00  0.1486E+03
      4.347  0.5370E+00  0.1487E+03
      4.499  0.5400E+00  0.1488E+03
      4.652  0.5429E+00  0.1488E+03
      4.805  0.5458E+00  0.1489E+03
      4.958  0.5488E+00  0.1490E+03
      5.111  0.5517E+00  0.1491E+03
      5.264  0.5546E+00  0.1492E+03
      5.417  0.5576E+00  0.1493E+03
      5.570  0.1039E+01  0.1494E+03
      5.723  0.1233E+01  0.1496E+03
      5.876  0.1184E+01  0.1498E+03
      6.028  0.1182E+01  0.1499E+03
      6.181  0.1140E+01  0.1501E+03
      6.334  0.9027E+00  0.1503E+03
      6.487  0.8994E+00  0.1504E+03
      6.640  0.9536E+00  0.1505E+03
      6.793  0.9740E+00  0.1507E+03
      6.946  0.1007E+01  0.1508E+03
      7.099  0.1240E+01  0.1510E+03
      7.252  0.1252E+01  0.1512E+03
      7.405  0.1382E+01  0.1514E+03
      7.557  0.1496E+01  0.1517E+03
      7.710  0.1089E+01  0.1519E+03
      7.863  0.2871E+00  0.1520E+03
      8.016  0.0000E+00  0.1520E+03
      8.169  0.0000E+00  0.1520E+03
      8.322  0.0000E+00  0.1520E+03
      8.475  0.0000E+00  0.1520E+03
      8.628  0.0000E+00  0.1520E+03
      8.781  0.0000E+00  0.1520E+03
      8.934  0.0000E+00  0.1520E+03
      9.087  0.0000E+00  0.1520E+03
      9.239  0.0000E+00  0.1520E+03
      9.392  0.0000E+00  0.1520E+03
      9.545  0.0000E+00  0.1520E+03
      9.698  0.0000E+00  0.1520E+03
      9.851  0.0000E+00  0.1520E+03
     10.004  0.0000E+00  0.1520E+03
