Automatically generated mesh
      21
Reciprocal lattice
    0.00000000000000    0.00000000000000    0.00000000000000             1
    0.10000000000000    0.00000000000000    0.00000000000000             4
    0.20000000000000    0.00000000000000    0.00000000000000             4
    0.30000000000000    0.00000000000000    0.00000000000000             4
    0.40000000000000    0.00000000000000    0.00000000000000             4
    0.50000000000000    0.00000000000000    0.00000000000000             2
    0.10000000000000    0.10000000000000    0.00000000000000             4
    0.20000000000000    0.10000000000000    0.00000000000000             8
    0.30000000000000    0.10000000000000    0.00000000000000             8
    0.40000000000000    0.10000000000000    0.00000000000000             8
    0.50000000000000    0.10000000000000    0.00000000000000             4
    0.20000000000000    0.20000000000000    0.00000000000000             4
    0.30000000000000    0.20000000000000    0.00000000000000             8
    0.40000000000000    0.20000000000000    0.00000000000000             8
    0.50000000000000    0.20000000000000    0.00000000000000             4
    0.30000000000000    0.30000000000000    0.00000000000000             4
    0.40000000000000    0.30000000000000    0.00000000000000             8
    0.50000000000000    0.30000000000000    0.00000000000000             4
    0.40000000000000    0.40000000000000    0.00000000000000             4
    0.50000000000000    0.40000000000000    0.00000000000000             4
    0.50000000000000    0.50000000000000    0.00000000000000             1
Tetrahedra
       155    0.00166666666667
         4         1         1         2         7
         4         1         2         2         7
         4         1         2         7         7
         4         2         2         3         8
         4         2         2         7         8
         4         2         7         7         8
         4         2         3         3         8
         4         2         3         8         8
         4         2         7         8         8
         4         3         3         4         9
         4         3         3         8         9
         4         3         8         8         9
         4         3         4         4         9
         4         3         4         9         9
         4         3         8         9         9
         4         4         4         5        10
         4         4         4         9        10
         4         4         9         9        10
         4         4         5         5        10
         4         4         5        10        10
         4         4         9        10        10
         4         5         5         6        11
         4         5         5        10        11
         4         5        10        10        11
         4         5         6         6        11
         4         5         6        11        11
         4         5        10        11        11
         4         5         6         6        10
         4         6         6        10        11
         4         6        10        11        11
         4         5         5         6        10
         4         5         6        10        10
         4         6        10        10        11
         4         4         5         5         9
         4         5         5         9        10
         4         5         9        10        10
         4         4         4         5         9
         4         4         5         9         9
         4         5         9         9        10
         4         3         4         4         8
         4         4         4         8         9
         4         4         8         9         9
         4         3         3         4         8
         4         3         4         8         8
         4         4         8         8         9
         4         2         3         3         7
         4         3         3         7         8
         4         3         7         8         8
         4         2         2         3         7
         4         2         3         7         7
         4         3         7         7         8
         4         1         2         2         2
         4         2         2         2         7
         2         2         2         7         7
         2         1         1         2         2
         4         7         7         8        12
         4         7         8         8        12
         4         7         8        12        12
         4         8         8         9        13
         4         8         8        12        13
         4         8        12        12        13
         4         8         9         9        13
         4         8         9        13        13
         4         8        12        13        13
         4         9         9        10        14
         4         9         9        13        14
         4         9        13        13        14
         4         9        10        10        14
         4         9        10        14        14
         4         9        13        14        14
         4        10        10        11        15
         4        10        10        14        15
         4        10        14        14        15
         4        10        11        11        15
         4        10        11        15        15
         4        10        14        15        15
         4        10        11        11        14
         4        11        11        14        15
         4        11        14        15        15
         4        10        10        11        14
         4        10        11        14        14
         4        11        14        14        15
         4         9        10        10        13
         4        10        10        13        14
         4        10        13        14        14
         4         9         9        10        13
         4         9        10        13        13
         4        10        13        13        14
         4         8         9         9        12
         4         9         9        12        13
         4         9        12        13        13
         4         8         8         9        12
         4         8         9        12        12
         4         9        12        12        13
         4         7         8         8         8
         4         8         8         8        12
         2         8         8        12        12
         2         7         7         8         8
         4        12        12        13        16
         4        12        13        13        16
         4        12        13        16        16
         4        13        13        14        17
         4        13        13        16        17
         4        13        16        16        17
         4        13        14        14        17
         4        13        14        17        17
         4        13        16        17        17
         4        14        14        15        18
         4        14        14        17        18
         4        14        17        17        18
         4        14        15        15        18
         4        14        15        18        18
         4        14        17        18        18
         4        14        15        15        17
         4        15        15        17        18
         4        15        17        18        18
         4        14        14        15        17
         4        14        15        17        17
         4        15        17        17        18
         4        13        14        14        16
         4        14        14        16        17
         4        14        16        17        17
         4        13        13        14        16
         4        13        14        16        16
         4        14        16        16        17
         4        12        13        13        13
         4        13        13        13        16
         2        13        13        16        16
         2        12        12        13        13
         4        16        16        17        19
         4        16        17        17        19
         4        16        17        19        19
         4        17        17        18        20
         4        17        17        19        20
         4        17        19        19        20
         4        17        18        18        20
         4        17        18        20        20
         4        17        19        20        20
         4        17        18        18        19
         4        18        18        19        20
         4        18        19        20        20
         4        17        17        18        19
         4        17        18        19        19
         4        18        19        19        20
         4        16        17        17        17
         4        17        17        17        19
         2        17        17        19        19
         2        16        16        17        17
         4        19        19        20        21
         4        19        20        20        21
         4        19        20        21        21
         4        19        20        20        20
         4        20        20        20        21
         2        20        20        21        21
         2        19        19        20        20
