       N       E                     dE             d eps       ncg     rms          rms(c)
DAV:   1     0.161092408515E+04    0.16109E+04   -0.56161E+04  3224   0.152E+03
DAV:   2     0.179014031688E+03   -0.14319E+04   -0.13746E+04  3860   0.395E+02
DAV:   3    -0.175218101275E+03   -0.35423E+03   -0.34501E+03  4252   0.191E+02
DAV:   4    -0.200337502029E+03   -0.25119E+02   -0.25041E+02  4136   0.584E+01
DAV:   5    -0.201758199757E+03   -0.14207E+01   -0.14200E+01  5528   0.127E+01    0.371E+01
RMM:   6    -0.161219002511E+03    0.40539E+02   -0.28471E+02  3503   0.505E+01    0.137E+01
RMM:   7    -0.157685918921E+03    0.35331E+01   -0.12761E+01  3817   0.135E+01    0.712E+00
RMM:   8    -0.156965536894E+03    0.72038E+00   -0.30797E+00  4335   0.597E+00    0.325E+00
RMM:   9    -0.156753158483E+03    0.21238E+00   -0.13178E+00  4334   0.404E+00    0.991E-01
RMM:  10    -0.156713287976E+03    0.39871E-01   -0.24569E-01  4976   0.141E+00    0.619E-01
RMM:  11    -0.156691899024E+03    0.21389E-01   -0.16310E-01  4757   0.104E+00    0.398E-01
RMM:  12    -0.156679787388E+03    0.12112E-01   -0.50959E-02  5044   0.552E-01    0.301E-01
RMM:  13    -0.156673752681E+03    0.60347E-02   -0.22786E-02  5166   0.411E-01    0.162E-01
RMM:  14    -0.156669691871E+03    0.40608E-02   -0.20600E-02  4740   0.369E-01    0.163E-01
RMM:  15    -0.156669277057E+03    0.41481E-03   -0.98528E-03  4975   0.253E-01    0.770E-02
RMM:  16    -0.156670432765E+03   -0.11557E-02   -0.39432E-03  5017   0.142E-01    0.570E-02
RMM:  17    -0.156670805582E+03   -0.37282E-03   -0.14486E-03  4886   0.827E-02    0.253E-02
RMM:  18    -0.156672077944E+03   -0.12724E-02   -0.81624E-04  4827   0.638E-02    0.257E-02
RMM:  19    -0.156673279883E+03   -0.12019E-02   -0.65777E-04  4293   0.637E-02    0.226E-02
RMM:  20    -0.156673640184E+03   -0.36030E-03   -0.25545E-04  4003   0.399E-02    0.766E-03
RMM:  21    -0.156673855768E+03   -0.21558E-03   -0.10315E-04  3270   0.193E-02    0.547E-03
RMM:  22    -0.156673902665E+03   -0.46897E-04   -0.48143E-05  2917   0.156E-02    0.313E-03
RMM:  23    -0.156673919064E+03   -0.16399E-04   -0.18984E-05  2619   0.115E-02    0.286E-03
RMM:  24    -0.156673925450E+03   -0.63863E-05   -0.13660E-05  2506   0.100E-02
   1 F= -.15667393E+03 E0= -.15667393E+03  d E =0.000000E+00
