<?xml version="1.0" encoding="ISO-8859-1"?>
<modeling>
 <generator>
  <i name="program" type="string">vasp </i>
  <i name="version" type="string">5.4.4.18Apr17-6-g9f103f2a35  </i>
  <i name="subversion" type="string">(build Jun 30 2017 11:15:00) complex            parallel </i>
  <i name="platform" type="string">STALLO_VASP_5.4.4 </i>
  <i name="date" type="string">2019 11 06 </i>
  <i name="time" type="string">14:33:26 </i>
 </generator>
 <incar>
  <i type="string" name="PREC">normal    ! low/normal/accurate</i>
  <i type="string" name="ALGO"> Fast      ! Algorithm for electronic re</i>
  <i type="int" name="ISPIN">     1</i>
  <i type="int" name="NELMIN">     4</i>
  <i name="EDIFF">      0.00001000</i>
  <i type="int" name="NSW">     0</i>
  <i name="ENCUT">    500.00000000</i>
  <i type="logical" name="LREAL"> F  </i>
  <i type="int" name="ISMEAR">    -5</i>
  <i name="SIGMA">      0.20000000</i>
  <i type="logical" name="LWAVE"> F  </i>
  <v type="int" name="KPOINT_BSE">    -1     0     0     0</v>
 </incar>
 <structure name="primitive_cell" >
  <crystal>
   <varray name="basis" >
    <v>       3.90526800       0.00000000       0.00000000 </v>
    <v>       0.00000000       3.90526800       0.00000000 </v>
    <v>       0.00000000       0.00000000      25.66843800 </v>
   </varray>
   <i name="volume">    391.47238071 </i>
   <varray name="rec_basis" >
    <v>       0.25606437       0.00000000       0.00000000 </v>
    <v>       0.00000000       0.25606437       0.00000000 </v>
    <v>       0.00000000       0.00000000       0.03895835 </v>
   </varray>
  </crystal>
  <varray name="positions" >
   <v>      -0.50000000      -0.50000000       0.23375010 </v>
   <v>      -0.50000000      -0.50000000       0.30982150 </v>
   <v>      -0.50000000       0.00000000       0.30982150 </v>
   <v>       0.00000000      -0.50000000       0.30982150 </v>
   <v>       0.00000000       0.00000000       0.23375010 </v>
   <v>      -0.50000000      -0.50000000       0.38589290 </v>
   <v>       0.00000000       0.00000000       0.38589290 </v>
   <v>      -0.50000000      -0.50000000       0.46196430 </v>
   <v>      -0.50000000       0.00000000       0.46196430 </v>
   <v>       0.00000000      -0.50000000       0.46196430 </v>
   <v>      -0.50000000      -0.50000000      -0.46196430 </v>
   <v>       0.00000000       0.00000000      -0.46196430 </v>
   <v>      -0.50000000      -0.50000000      -0.38589290 </v>
   <v>      -0.50000000       0.00000000      -0.38589290 </v>
   <v>       0.00000000      -0.50000000      -0.38589290 </v>
   <v>      -0.50000000      -0.50000000      -0.30982150 </v>
   <v>      -0.50000000      -0.50000000      -0.23375010 </v>
   <v>       0.00000000       0.00000000      -0.30982150 </v>
   <v>      -0.50000000       0.00000000      -0.23375010 </v>
   <v>       0.00000000      -0.50000000      -0.23375010 </v>
  </varray>
 </structure>
 <varray name="primitive_index" >
  <v type="int" >        1 </v>
  <v type="int" >       17 </v>
  <v type="int" >        2 </v>
  <v type="int" >        3 </v>
  <v type="int" >       13 </v>
  <v type="int" >        4 </v>
  <v type="int" >       14 </v>
  <v type="int" >       18 </v>
  <v type="int" >        5 </v>
  <v type="int" >        6 </v>
  <v type="int" >        7 </v>
  <v type="int" >       15 </v>
  <v type="int" >       19 </v>
  <v type="int" >        8 </v>
  <v type="int" >        9 </v>
  <v type="int" >       10 </v>
  <v type="int" >       20 </v>
  <v type="int" >       16 </v>
  <v type="int" >       11 </v>
  <v type="int" >       12 </v>
 </varray>
 <kpoints>
  <generation param="Gamma">
   <v type="int" name="divisions">      10       10        1 </v>
   <v name="usershift">      0.00000000       0.00000000       0.00000000 </v>
   <v name="genvec1">      0.10000000       0.00000000       0.00000000 </v>
   <v name="genvec2">      0.00000000       0.10000000       0.00000000 </v>
   <v name="genvec3">      0.00000000       0.00000000       1.00000000 </v>
   <v name="shift">      0.00000000       0.00000000       0.00000000 </v>
  </generation>
  <varray name="kpointlist" >
   <v>       0.00000000       0.00000000       0.00000000 </v>
   <v>       0.10000000       0.00000000       0.00000000 </v>
   <v>       0.20000000       0.00000000       0.00000000 </v>
   <v>       0.30000000       0.00000000       0.00000000 </v>
   <v>       0.40000000       0.00000000       0.00000000 </v>
   <v>       0.50000000       0.00000000       0.00000000 </v>
   <v>       0.10000000       0.10000000       0.00000000 </v>
   <v>       0.20000000       0.10000000       0.00000000 </v>
   <v>       0.30000000       0.10000000       0.00000000 </v>
   <v>       0.40000000       0.10000000       0.00000000 </v>
   <v>       0.50000000       0.10000000       0.00000000 </v>
   <v>       0.20000000       0.20000000       0.00000000 </v>
   <v>       0.30000000       0.20000000       0.00000000 </v>
   <v>       0.40000000       0.20000000       0.00000000 </v>
   <v>       0.50000000       0.20000000       0.00000000 </v>
   <v>       0.30000000       0.30000000       0.00000000 </v>
   <v>       0.40000000       0.30000000       0.00000000 </v>
   <v>       0.50000000       0.30000000       0.00000000 </v>
   <v>       0.40000000       0.40000000       0.00000000 </v>
   <v>       0.50000000       0.40000000       0.00000000 </v>
   <v>       0.50000000       0.50000000       0.00000000 </v>
  </varray>
  <varray name="weights" >
   <v>       0.01000000 </v>
   <v>       0.04000000 </v>
   <v>       0.04000000 </v>
   <v>       0.04000000 </v>
   <v>       0.04000000 </v>
   <v>       0.02000000 </v>
   <v>       0.04000000 </v>
   <v>       0.08000000 </v>
   <v>       0.08000000 </v>
   <v>       0.08000000 </v>
   <v>       0.04000000 </v>
   <v>       0.04000000 </v>
   <v>       0.08000000 </v>
   <v>       0.08000000 </v>
   <v>       0.04000000 </v>
   <v>       0.04000000 </v>
   <v>       0.08000000 </v>
   <v>       0.04000000 </v>
   <v>       0.04000000 </v>
   <v>       0.04000000 </v>
   <v>       0.01000000 </v>
  </varray>
  <varray name="tetrahedronlist"  type="int" >
   <v type="int" >        4        1        1        2        7 </v>
   <v type="int" >        4        1        2        2        7 </v>
   <v type="int" >        4        1        2        7        7 </v>
   <v type="int" >        4        2        2        3        8 </v>
   <v type="int" >        4        2        2        7        8 </v>
   <v type="int" >        4        2        7        7        8 </v>
   <v type="int" >        4        2        3        3        8 </v>
   <v type="int" >        4        2        3        8        8 </v>
   <v type="int" >        4        2        7        8        8 </v>
   <v type="int" >        4        3        3        4        9 </v>
   <v type="int" >        4        3        3        8        9 </v>
   <v type="int" >        4        3        8        8        9 </v>
   <v type="int" >        4        3        4        4        9 </v>
   <v type="int" >        4        3        4        9        9 </v>
   <v type="int" >        4        3        8        9        9 </v>
   <v type="int" >        4        4        4        5       10 </v>
   <v type="int" >        4        4        4        9       10 </v>
   <v type="int" >        4        4        9        9       10 </v>
   <v type="int" >        4        4        5        5       10 </v>
   <v type="int" >        4        4        5       10       10 </v>
   <v type="int" >        4        4        9       10       10 </v>
   <v type="int" >        4        5        5        6       11 </v>
   <v type="int" >        4        5        5       10       11 </v>
   <v type="int" >        4        5       10       10       11 </v>
   <v type="int" >        4        5        6        6       11 </v>
   <v type="int" >        4        5        6       11       11 </v>
   <v type="int" >        4        5       10       11       11 </v>
   <v type="int" >        4        5        6        6       10 </v>
   <v type="int" >        4        6        6       10       11 </v>
   <v type="int" >        4        6       10       11       11 </v>
   <v type="int" >        4        5        5        6       10 </v>
   <v type="int" >        4        5        6       10       10 </v>
   <v type="int" >        4        6       10       10       11 </v>
   <v type="int" >        4        4        5        5        9 </v>
   <v type="int" >        4        5        5        9       10 </v>
   <v type="int" >        4        5        9       10       10 </v>
   <v type="int" >        4        4        4        5        9 </v>
   <v type="int" >        4        4        5        9        9 </v>
   <v type="int" >        4        5        9        9       10 </v>
   <v type="int" >        4        3        4        4        8 </v>
   <v type="int" >        4        4        4        8        9 </v>
   <v type="int" >        4        4        8        9        9 </v>
   <v type="int" >        4        3        3        4        8 </v>
   <v type="int" >        4        3        4        8        8 </v>
   <v type="int" >        4        4        8        8        9 </v>
   <v type="int" >        4        2        3        3        7 </v>
   <v type="int" >        4        3        3        7        8 </v>
   <v type="int" >        4        3        7        8        8 </v>
   <v type="int" >        4        2        2        3        7 </v>
   <v type="int" >        4        2        3        7        7 </v>
   <v type="int" >        4        3        7        7        8 </v>
   <v type="int" >        4        1        2        2        2 </v>
   <v type="int" >        4        2        2        2        7 </v>
   <v type="int" >        2        2        2        7        7 </v>
   <v type="int" >        2        1        1        2        2 </v>
   <v type="int" >        4        7        7        8       12 </v>
   <v type="int" >        4        7        8        8       12 </v>
   <v type="int" >        4        7        8       12       12 </v>
   <v type="int" >        4        8        8        9       13 </v>
   <v type="int" >        4        8        8       12       13 </v>
   <v type="int" >        4        8       12       12       13 </v>
   <v type="int" >        4        8        9        9       13 </v>
   <v type="int" >        4        8        9       13       13 </v>
   <v type="int" >        4        8       12       13       13 </v>
   <v type="int" >        4        9        9       10       14 </v>
   <v type="int" >        4        9        9       13       14 </v>
   <v type="int" >        4        9       13       13       14 </v>
   <v type="int" >        4        9       10       10       14 </v>
   <v type="int" >        4        9       10       14       14 </v>
   <v type="int" >        4        9       13       14       14 </v>
   <v type="int" >        4       10       10       11       15 </v>
   <v type="int" >        4       10       10       14       15 </v>
   <v type="int" >        4       10       14       14       15 </v>
   <v type="int" >        4       10       11       11       15 </v>
   <v type="int" >        4       10       11       15       15 </v>
   <v type="int" >        4       10       14       15       15 </v>
   <v type="int" >        4       10       11       11       14 </v>
   <v type="int" >        4       11       11       14       15 </v>
   <v type="int" >        4       11       14       15       15 </v>
   <v type="int" >        4       10       10       11       14 </v>
   <v type="int" >        4       10       11       14       14 </v>
   <v type="int" >        4       11       14       14       15 </v>
   <v type="int" >        4        9       10       10       13 </v>
   <v type="int" >        4       10       10       13       14 </v>
   <v type="int" >        4       10       13       14       14 </v>
   <v type="int" >        4        9        9       10       13 </v>
   <v type="int" >        4        9       10       13       13 </v>
   <v type="int" >        4       10       13       13       14 </v>
   <v type="int" >        4        8        9        9       12 </v>
   <v type="int" >        4        9        9       12       13 </v>
   <v type="int" >        4        9       12       13       13 </v>
   <v type="int" >        4        8        8        9       12 </v>
   <v type="int" >        4        8        9       12       12 </v>
   <v type="int" >        4        9       12       12       13 </v>
   <v type="int" >        4        7        8        8        8 </v>
   <v type="int" >        4        8        8        8       12 </v>
   <v type="int" >        2        8        8       12       12 </v>
   <v type="int" >        2        7        7        8        8 </v>
   <v type="int" >        4       12       12       13       16 </v>
   <v type="int" >        4       12       13       13       16 </v>
   <v type="int" >        4       12       13       16       16 </v>
   <v type="int" >        4       13       13       14       17 </v>
   <v type="int" >        4       13       13       16       17 </v>
   <v type="int" >        4       13       16       16       17 </v>
   <v type="int" >        4       13       14       14       17 </v>
   <v type="int" >        4       13       14       17       17 </v>
   <v type="int" >        4       13       16       17       17 </v>
   <v type="int" >        4       14       14       15       18 </v>
   <v type="int" >        4       14       14       17       18 </v>
   <v type="int" >        4       14       17       17       18 </v>
   <v type="int" >        4       14       15       15       18 </v>
   <v type="int" >        4       14       15       18       18 </v>
   <v type="int" >        4       14       17       18       18 </v>
   <v type="int" >        4       14       15       15       17 </v>
   <v type="int" >        4       15       15       17       18 </v>
   <v type="int" >        4       15       17       18       18 </v>
   <v type="int" >        4       14       14       15       17 </v>
   <v type="int" >        4       14       15       17       17 </v>
   <v type="int" >        4       15       17       17       18 </v>
   <v type="int" >        4       13       14       14       16 </v>
   <v type="int" >        4       14       14       16       17 </v>
   <v type="int" >        4       14       16       17       17 </v>
   <v type="int" >        4       13       13       14       16 </v>
   <v type="int" >        4       13       14       16       16 </v>
   <v type="int" >        4       14       16       16       17 </v>
   <v type="int" >        4       12       13       13       13 </v>
   <v type="int" >        4       13       13       13       16 </v>
   <v type="int" >        2       13       13       16       16 </v>
   <v type="int" >        2       12       12       13       13 </v>
   <v type="int" >        4       16       16       17       19 </v>
   <v type="int" >        4       16       17       17       19 </v>
   <v type="int" >        4       16       17       19       19 </v>
   <v type="int" >        4       17       17       18       20 </v>
   <v type="int" >        4       17       17       19       20 </v>
   <v type="int" >        4       17       19       19       20 </v>
   <v type="int" >        4       17       18       18       20 </v>
   <v type="int" >        4       17       18       20       20 </v>
   <v type="int" >        4       17       19       20       20 </v>
   <v type="int" >        4       17       18       18       19 </v>
   <v type="int" >        4       18       18       19       20 </v>
   <v type="int" >        4       18       19       20       20 </v>
   <v type="int" >        4       17       17       18       19 </v>
   <v type="int" >        4       17       18       19       19 </v>
   <v type="int" >        4       18       19       19       20 </v>
   <v type="int" >        4       16       17       17       17 </v>
   <v type="int" >        4       17       17       17       19 </v>
   <v type="int" >        2       17       17       19       19 </v>
   <v type="int" >        2       16       16       17       17 </v>
   <v type="int" >        4       19       19       20       21 </v>
   <v type="int" >        4       19       20       20       21 </v>
   <v type="int" >        4       19       20       21       21 </v>
   <v type="int" >        4       19       20       20       20 </v>
   <v type="int" >        4       20       20       20       21 </v>
   <v type="int" >        2       20       20       21       21 </v>
   <v type="int" >        2       19       19       20       20 </v>
  </varray>
  <i name="volumeweight">      0.00166667 </i>
 </kpoints>
 <parameters>
  <separator name="general" >
   <i type="string" name="SYSTEM">unknown system</i>
   <i type="logical" name="LCOMPAT"> F  </i>
  </separator>
  <separator name="electronic" >
   <i type="string" name="PREC">normal</i>
   <i name="ENMAX">    500.00000000</i>
   <i name="ENAUG">    605.39200000</i>
   <i name="EDIFF">      0.00001000</i>
   <i type="int" name="IALGO">    68</i>
   <i type="int" name="IWAVPR">    10</i>
   <i type="int" name="NBANDS">    76</i>
   <i name="NELECT">    128.00000000</i>
   <i type="int" name="TURBO">     0</i>
   <i type="int" name="IRESTART">     0</i>
   <i type="int" name="NREBOOT">     0</i>
   <i type="int" name="NMIN">     0</i>
   <i name="EREF">      0.00000000</i>
   <separator name="electronic smearing" >
    <i type="int" name="ISMEAR">    -5</i>
    <i name="SIGMA">      0.20000000</i>
    <i name="KSPACING">      0.50000000</i>
    <i type="logical" name="KGAMMA"> T  </i>
   </separator>
   <separator name="electronic projectors" >
    <i type="logical" name="LREAL"> F  </i>
    <v name="ROPT">      0.00000000      0.00000000      0.00000000</v>
    <i type="int" name="LMAXPAW">  -100</i>
    <i type="int" name="LMAXMIX">     2</i>
    <i type="logical" name="NLSPLINE"> F  </i>
   </separator>
   <separator name="electronic startup" >
    <i type="int" name="ISTART">     0</i>
    <i type="int" name="ICHARG">     2</i>
    <i type="int" name="INIWAV">     1</i>
   </separator>
   <separator name="electronic spin" >
    <i type="int" name="ISPIN">     1</i>
    <i type="logical" name="LNONCOLLINEAR"> F  </i>
    <v name="MAGMOM">      1.00000000      1.00000000      1.00000000      1.00000000      1.00000000      1.00000000      1.00000000      1.00000000      1.00000000      1.00000000      1.00000000      1.00000000      1.00000000      1.00000000      1.00000000      1.00000000      1.00000000      1.00000000      1.00000000      1.00000000
</v>
    <i name="NUPDOWN">     -1.00000000</i>
    <i type="logical" name="LSORBIT"> F  </i>
    <v name="SAXIS">      0.00000000      0.00000000      1.00000000</v>
    <i type="logical" name="LSPIRAL"> F  </i>
    <v name="QSPIRAL">      0.00000000      0.00000000      0.00000000</v>
    <i type="logical" name="LZEROZ"> F  </i>
   </separator>
   <separator name="electronic exchange-correlation" >
    <i type="logical" name="LASPH"> F  </i>
    <i type="logical" name="LMETAGGA"> F  </i>
   </separator>
   <separator name="electronic convergence" >
    <i type="int" name="NELM">    60</i>
    <i type="int" name="NELMDL">    -5</i>
    <i type="int" name="NELMIN">     4</i>
    <i name="ENINI">    500.00000000</i>
    <separator name="electronic convergence detail" >
     <i type="logical" name="LDIAG"> T  </i>
     <i type="logical" name="LSUBROT"> F  </i>
     <i name="WEIMIN">      0.00000000</i>
     <i name="EBREAK">      0.00000003</i>
     <i name="DEPER">      0.30000000</i>
     <i type="int" name="NRMM">     4</i>
     <i name="TIME">      0.40000000</i>
    </separator>
   </separator>
   <separator name="electronic mixer" >
    <i name="AMIX">      0.40000000</i>
    <i name="BMIX">      1.00000000</i>
    <i name="AMIN">      0.10000000</i>
    <i name="AMIX_MAG">      1.60000000</i>
    <i name="BMIX_MAG">      1.00000000</i>
    <separator name="electronic mixer details" >
     <i type="int" name="IMIX">     4</i>
     <i type="logical" name="MIXFIRST"> F  </i>
     <i type="int" name="MAXMIX">   -45</i>
     <i name="WC">    100.00000000</i>
     <i type="int" name="INIMIX">     1</i>
     <i type="int" name="MIXPRE">     1</i>
     <i type="int" name="MREMOVE">     5</i>
    </separator>
   </separator>
   <separator name="electronic dipolcorrection" >
    <i type="logical" name="LDIPOL"> F  </i>
    <i type="logical" name="LMONO"> F  </i>
    <i type="int" name="IDIPOL">     0</i>
    <i name="EPSILON">      1.00000000</i>
    <v name="DIPOL">   -100.00000000   -100.00000000   -100.00000000</v>
    <i name="EFIELD">      0.00000000</i>
   </separator>
  </separator>
  <separator name="grids" >
   <i type="int" name="NGX">    24</i>
   <i type="int" name="NGY">    24</i>
   <i type="int" name="NGZ">   140</i>
   <i type="int" name="NGXF">    48</i>
   <i type="int" name="NGYF">    48</i>
   <i type="int" name="NGZF">   280</i>
   <i type="logical" name="ADDGRID"> F  </i>
  </separator>
  <separator name="ionic" >
   <i type="int" name="NSW">     0</i>
   <i type="int" name="IBRION">    -1</i>
   <i type="int" name="MDALGO">     0</i>
   <i type="int" name="ISIF">     2</i>
   <i name="PSTRESS">      0.00000000</i>
   <i name="EDIFFG">      0.00010000</i>
   <i type="int" name="NFREE">     0</i>
   <i name="POTIM">      0.50000000</i>
   <i name="SMASS">     -3.00000000</i>
   <i name="SCALEE">      1.00000000</i>
  </separator>
  <separator name="ionic md" >
   <i name="TEBEG">      0.00010000</i>
   <i name="TEEND">      0.00010000</i>
   <i type="int" name="NBLOCK">     1</i>
   <i type="int" name="KBLOCK">     1</i>
   <i type="int" name="NPACO">   256</i>
   <i name="APACO">     16.00000000</i>
  </separator>
  <separator name="symmetry" >
   <i type="int" name="ISYM">     2</i>
   <i name="SYMPREC">      0.00001000</i>
  </separator>
  <separator name="dos" >
   <i type="int" name="LORBIT">     0</i>
   <v name="RWIGS">     -1.00000000     -1.00000000     -1.00000000</v>
   <i type="int" name="NEDOS">   301</i>
   <i name="EMIN">     10.00000000</i>
   <i name="EMAX">    -10.00000000</i>
   <i name="EFERMI">      0.00000000</i>
  </separator>
  <separator name="writing" >
   <i type="int" name="NWRITE">     2</i>
   <i type="logical" name="LWAVE"> F  </i>
   <i type="logical" name="LDOWNSAMPLE"> F  </i>
   <i type="logical" name="LCHARG"> T  </i>
   <i type="logical" name="LPARD"> F  </i>
   <i type="logical" name="LVTOT"> F  </i>
   <i type="logical" name="LVHAR"> F  </i>
   <i type="logical" name="LELF"> F  </i>
   <i type="logical" name="LOPTICS"> F  </i>
   <v name="STM">      0.00000000      0.00000000      0.00000000      0.00000000      0.00000000      0.00000000      0.00000000</v>
  </separator>
  <separator name="performance" >
   <i type="int" name="NPAR">     2</i>
   <i type="int" name="NSIM">     4</i>
   <i type="int" name="NBLK">    -1</i>
   <i type="logical" name="LPLANE"> T  </i>
   <i type="logical" name="LSCALAPACK"> T  </i>
   <i type="logical" name="LSCAAWARE"> F  </i>
   <i type="logical" name="LSCALU"> F  </i>
   <i type="logical" name="LASYNC"> F  </i>
   <i type="logical" name="LORBITALREAL"> F  </i>
  </separator>
  <separator name="miscellaneous" >
   <i type="int" name="IDIOT">     3</i>
   <i type="int" name="ISPECIAL">     0</i>
   <i type="logical" name="LMUSIC"> F  </i>
   <v name="POMASS">     16.00000000     87.62000000     47.88000000</v>
   <v name="DARWINR">      0.00000000      0.00000000      0.00000000</v>
   <v name="DARWINV">      1.00000000      1.00000000      1.00000000</v>
   <i type="logical" name="LCORR"> T  </i>
  </separator>
  <i type="logical" name="GGA_COMPAT"> T  </i>
  <i type="logical" name="LBERRY"> F  </i>
  <i type="int" name="ICORELEVEL">     0</i>
  <i type="logical" name="LDAU"> F  </i>
  <i type="int" name="I_CONSTRAINED_M">     0</i>
  <separator name="electronic exchange-correlation" >
   <i type="string" name="GGA">--</i>
   <i type="int" name="VOSKOWN">     0</i>
   <i type="logical" name="LHFCALC"> F  </i>
   <i type="string" name="PRECFOCK"></i>
   <i type="logical" name="LSYMGRAD"> F  </i>
   <i type="logical" name="LHFONE"> F  </i>
   <i type="logical" name="LRHFCALC"> F  </i>
   <i type="logical" name="LTHOMAS"> F  </i>
   <i type="logical" name="LMODELHF"> F  </i>
   <i name="ENCUT4O">     -1.00000000</i>
   <i type="int" name="EXXOEP">     0</i>
   <i type="int" name="FOURORBIT">     0</i>
   <i name="AEXX">      0.00000000</i>
   <i name="HFALPHA">      0.00000000</i>
   <i name="MCALPHA">      0.00000000</i>
   <i name="ALDAX">      1.00000000</i>
   <i name="AGGAX">      1.00000000</i>
   <i name="ALDAC">      1.00000000</i>
   <i name="AGGAC">      1.00000000</i>
   <i type="int" name="NKREDX">     1</i>
   <i type="int" name="NKREDY">     1</i>
   <i type="int" name="NKREDZ">     1</i>
   <i type="logical" name="SHIFTRED"> F  </i>
   <i type="logical" name="ODDONLY"> F  </i>
   <i type="logical" name="EVENONLY"> F  </i>
   <i type="int" name="LMAXFOCK">     0</i>
   <i type="int" name="NMAXFOCKAE">     0</i>
   <i type="logical" name="LFOCKAEDFT"> F  </i>
   <i name="HFSCREEN">      0.00000000</i>
   <i name="HFSCREENC">      0.00000000</i>
   <i type="int" name="NBANDSGWLOW">     0</i>
  </separator>
  <separator name="vdW DFT" >
   <i type="logical" name="LUSE_VDW"> F  </i>
   <i name="Zab_VDW">     -0.84910000</i>
   <i name="PARAM1">      0.12340000</i>
   <i name="PARAM2">      1.00000000</i>
   <i name="PARAM3">      0.00000000</i>
  </separator>
  <separator name="model GW" >
   <i type="int" name="MODEL_GW">     0</i>
   <i name="MODEL_EPS0">     11.74417142</i>
   <i name="MODEL_ALPHA">      1.00000000</i>
  </separator>
  <separator name="linear response parameters" >
   <i type="logical" name="LEPSILON"> F  </i>
   <i type="logical" name="LRPA"> F  </i>
   <i type="logical" name="LNABLA"> F  </i>
   <i type="logical" name="LVEL"> F  </i>
   <i type="int" name="KINTER">     0</i>
   <i name="CSHIFT">      0.10000000</i>
   <i name="OMEGAMAX">     -1.00000000</i>
   <i name="DEG_THRESHOLD">      0.00200000</i>
   <i name="RTIME">     -0.10000000</i>
   <i name="WPLASMAI">      0.00000000</i>
   <v name="DFIELD">      0.00000000      0.00000000      0.00000000</v>
   <v name="WPLASMA">      0.00000000      0.00000000      0.00000000      0.00000000      0.00000000      0.00000000      0.00000000      0.00000000      0.00000000</v>
  </separator>
  <separator name="orbital magnetization" >
   <i type="logical" name="NUCIND"> F  </i>
   <v name="MAGPOS">      0.00000000      0.00000000      0.00000000</v>
   <i type="logical" name="LNICSALL"> T  </i>
   <i type="logical" name="ORBITALMAG"> F  </i>
   <i type="logical" name="LMAGBLOCH"> F  </i>
   <i type="logical" name="LCHIMAG"> F  </i>
   <i type="logical" name="LGAUGE"> T  </i>
   <i type="int" name="MAGATOM">     0</i>
   <v name="MAGDIPOL">      0.00000000      0.00000000      0.00000000</v>
   <v name="AVECCONST">      0.00000000      0.00000000      0.00000000</v>
  </separator>
  <separator name="response functions" >
   <i type="logical" name="LADDER"> F  </i>
   <i type="logical" name="LRPAFORCE"> F  </i>
   <i type="logical" name="LFXC"> F  </i>
   <i type="logical" name="LHARTREE"> T  </i>
   <i type="int" name="IBSE">     0</i>
   <v type="int" name="KPOINT">    -1     0     0     0</v>
   <i type="logical" name="LTCTE"> F  </i>
   <i type="logical" name="LTETE"> F  </i>
   <i type="logical" name="LTRIPLET"> F  </i>
   <i type="logical" name="LFXCEPS"> F  </i>
   <i type="logical" name="LFXHEG"> F  </i>
   <i type="int" name="NATURALO">     2</i>
   <i type="logical" name="L2ORDER"> F  </i>
   <i type="logical" name="LMP2LT"> F  </i>
   <i type="logical" name="LUSEW"> F  </i>
   <i name="ENCUTGW">     -2.00000000</i>
   <i name="ENCUTGWSOFT">     -2.00000000</i>
   <i name="ENCUTLF">     -1.00000000</i>
   <i type="int" name="LMAXMP2">    -1</i>
   <i name="SCISSOR">      0.00000000</i>
   <i type="int" name="NOMEGA">     0</i>
   <i type="int" name="NOMEGAR">     0</i>
   <i type="int" name="NBANDSGW">    -1</i>
   <i type="int" name="NBANDSO">    -1</i>
   <i type="int" name="NBANDSV">    -1</i>
   <i type="int" name="NELM">     1</i>
   <i type="int" name="NELMHF">     1</i>
   <i type="int" name="DIM">     3</i>
   <i type="int" name="ANTIRES">     0</i>
   <i name="OMEGAMAX">    -30.00000000</i>
   <i name="OMEGAMIN">    -30.00000000</i>
   <i name="OMEGATL">   -200.00000000</i>
   <i type="int" name="OMEGAGRID">   140</i>
   <i name="CSHIFT">     -0.10000000</i>
   <i type="logical" name="SELFENERGY"> F  </i>
   <i type="logical" name="LSPECTRAL"> F  </i>
   <i type="logical" name="LSPECTRALGW"> F  </i>
   <i type="logical" name="LSINGLES"> F  </i>
   <i type="logical" name="LFERMIGW"> F  </i>
   <i type="logical" name="ODDONLYGW"> F  </i>
   <i type="logical" name="EVENONLYGW"> F  </i>
   <i type="int" name="NKREDLFX">     1</i>
   <i type="int" name="NKREDLFY">     1</i>
   <i type="int" name="NKREDLFZ">     1</i>
   <i type="int" name="MAXMEM">  2800</i>
   <i type="int" name="TELESCOPE">     0</i>
   <i type="int" name="TAUPAR">     1</i>
   <i type="int" name="OMEGAPAR">    -1</i>
   <i name="LAMBDA">      1.00000000</i>
  </separator>
  <separator name="External order field" >
   <i name="OFIELD_KAPPA">      0.00000000</i>
   <v name="OFIELD_K">      0.00000000      0.00000000      0.00000000</v>
   <i name="OFIELD_Q6_NEAR">      0.00000000</i>
   <i name="OFIELD_Q6_FAR">      0.00000000</i>
   <i name="OFIELD_A">      0.00000000</i>
  </separator>
 </parameters>
 <atominfo>
  <atoms>      20 </atoms>
  <types>       3 </types>
  <array name="atoms" >
   <dimension dim="1">ion</dimension>
   <field type="string">element</field>
   <field type="int">atomtype</field>
   <set>
    <rc><c>O </c><c>   1</c></rc>
    <rc><c>O </c><c>   1</c></rc>
    <rc><c>O </c><c>   1</c></rc>
    <rc><c>O </c><c>   1</c></rc>
    <rc><c>O </c><c>   1</c></rc>
    <rc><c>O </c><c>   1</c></rc>
    <rc><c>O </c><c>   1</c></rc>
    <rc><c>O </c><c>   1</c></rc>
    <rc><c>O </c><c>   1</c></rc>
    <rc><c>O </c><c>   1</c></rc>
    <rc><c>O </c><c>   1</c></rc>
    <rc><c>O </c><c>   1</c></rc>
    <rc><c>Sr</c><c>   2</c></rc>
    <rc><c>Sr</c><c>   2</c></rc>
    <rc><c>Sr</c><c>   2</c></rc>
    <rc><c>Sr</c><c>   2</c></rc>
    <rc><c>Ti</c><c>   3</c></rc>
    <rc><c>Ti</c><c>   3</c></rc>
    <rc><c>Ti</c><c>   3</c></rc>
    <rc><c>Ti</c><c>   3</c></rc>
   </set>
  </array>
  <array name="atomtypes" >
   <dimension dim="1">type</dimension>
   <field type="int">atomspertype</field>
   <field type="string">element</field>
   <field>mass</field>
   <field>valence</field>
   <field type="string">pseudopotential</field>
   <set>
    <rc><c>  12</c><c>O </c><c>     16.00000000</c><c>      6.00000000</c><c> PAW_PBE O 08Apr2002                    </c></rc>
    <rc><c>   4</c><c>Sr</c><c>     87.62000000</c><c>     10.00000000</c><c> PAW_PBE Sr_sv 07Sep2000                </c></rc>
    <rc><c>   4</c><c>Ti</c><c>     47.88000000</c><c>      4.00000000</c><c> PAW_PBE Ti 08Apr2002                   </c></rc>
   </set>
  </array>
 </atominfo>
 <structure name="initialpos" >
  <crystal>
   <varray name="basis" >
    <v>       3.90526800       0.00000000       0.00000000 </v>
    <v>       0.00000000       3.90526800       0.00000000 </v>
    <v>       0.00000000       0.00000000      25.66843800 </v>
   </varray>
   <i name="volume">    391.47238071 </i>
   <varray name="rec_basis" >
    <v>       0.25606437       0.00000000       0.00000000 </v>
    <v>       0.00000000       0.25606437       0.00000000 </v>
    <v>       0.00000000       0.00000000       0.03895835 </v>
   </varray>
  </crystal>
  <varray name="positions" >
   <v>       0.50000000       0.50000000       0.23375010 </v>
   <v>       0.50000000       0.00000000       0.30982150 </v>
   <v>       0.00000000       0.50000000       0.30982150 </v>
   <v>       0.50000000       0.50000000       0.38589290 </v>
   <v>       0.50000000       0.00000000       0.46196430 </v>
   <v>       0.00000000       0.50000000       0.46196430 </v>
   <v>       0.50000000       0.50000000       0.53803570 </v>
   <v>       0.50000000       0.00000000       0.61410710 </v>
   <v>       0.00000000       0.50000000       0.61410710 </v>
   <v>       0.50000000       0.50000000       0.69017850 </v>
   <v>       0.50000000       0.00000000       0.76624990 </v>
   <v>       0.00000000       0.50000000       0.76624990 </v>
   <v>       0.00000000       0.00000000       0.23375010 </v>
   <v>       0.00000000       0.00000000       0.38589290 </v>
   <v>       0.00000000       0.00000000       0.53803570 </v>
   <v>       0.00000000       0.00000000       0.69017850 </v>
   <v>       0.50000000       0.50000000       0.30982150 </v>
   <v>       0.50000000       0.50000000       0.46196430 </v>
   <v>       0.50000000       0.50000000       0.61410710 </v>
   <v>       0.50000000       0.50000000       0.76624990 </v>
  </varray>
 </structure>
 <calculation>
  <scstep>
   <time name="dav">   10.72   10.72</time>
   <time name="total">   10.85   10.86</time>
   <energy>
    <i name="alphaZ">    451.31605171 </i>
    <i name="ewald">  24913.70541863 </i>
    <i name="hartreedc"> -33364.93616084 </i>
    <i name="XCdc">    326.68052994 </i>
    <i name="pawpsdc">   5334.45189010 </i>
    <i name="pawaedc">  -5139.13784255 </i>
    <i name="eentropy">      0.00000000 </i>
    <i name="bandstr">    151.57594799 </i>
    <i name="atom">   8937.26825017 </i>
    <i name="e_fr_energy">   1610.92408515 </i>
    <i name="e_wo_entrp">   1610.92408515 </i>
    <i name="e_0_energy">   1610.92408515 </i>
   </energy>
  </scstep>
  <scstep>
   <time name="dav">   12.31   12.31</time>
   <time name="total">   12.32   12.33</time>
   <energy>
    <i name="e_fr_energy">    179.01403169 </i>
    <i name="e_wo_entrp">    179.01403169 </i>
    <i name="e_0_energy">    179.01403169 </i>
   </energy>
  </scstep>
  <scstep>
   <time name="dav">   13.23   13.23</time>
   <time name="total">   13.23   13.23</time>
   <energy>
    <i name="e_fr_energy">   -175.21810127 </i>
    <i name="e_wo_entrp">   -175.21810127 </i>
    <i name="e_0_energy">   -175.21810127 </i>
   </energy>
  </scstep>
  <scstep>
   <time name="dav">   12.97   12.97</time>
   <time name="total">   12.98   12.98</time>
   <energy>
    <i name="e_fr_energy">   -200.33750203 </i>
    <i name="e_wo_entrp">   -200.33750203 </i>
    <i name="e_0_energy">   -200.33750203 </i>
   </energy>
  </scstep>
  <scstep>
   <time name="dav">   16.51   16.51</time>
   <time name="total">   16.93   16.93</time>
   <energy>
    <i name="e_fr_energy">   -201.75819976 </i>
    <i name="e_wo_entrp">   -201.75819976 </i>
    <i name="e_0_energy">   -201.75819976 </i>
   </energy>
  </scstep>
  <scstep>
   <time name="diag">    1.20    1.20</time>
   <time name="diis">    8.83    8.83</time>
   <time name="orth">    0.18    0.18</time>
   <time name="total">   10.78   10.79</time>
   <energy>
    <i name="e_fr_energy">   -161.21900251 </i>
    <i name="e_wo_entrp">   -161.21900251 </i>
    <i name="e_0_energy">   -161.21900251 </i>
   </energy>
  </scstep>
  <scstep>
   <time name="diag">    1.23    1.23</time>
   <time name="diis">    9.63    9.62</time>
   <time name="orth">    0.17    0.17</time>
   <time name="total">   11.58   11.58</time>
   <energy>
    <i name="e_fr_energy">   -157.68591892 </i>
    <i name="e_wo_entrp">   -157.68591892 </i>
    <i name="e_0_energy">   -157.68591892 </i>
   </energy>
  </scstep>
  <scstep>
   <time name="diag">    1.16    1.16</time>
   <time name="diis">   10.71   10.71</time>
   <time name="orth">    0.18    0.18</time>
   <time name="total">   12.60   12.60</time>
   <energy>
    <i name="e_fr_energy">   -156.96553689 </i>
    <i name="e_wo_entrp">   -156.96553689 </i>
    <i name="e_0_energy">   -156.96553689 </i>
   </energy>
  </scstep>
  <scstep>
   <time name="diag">    1.14    1.14</time>
   <time name="diis">   10.99   10.99</time>
   <time name="orth">    0.18    0.18</time>
   <time name="total">   12.87   12.87</time>
   <energy>
    <i name="e_fr_energy">   -156.75315848 </i>
    <i name="e_wo_entrp">   -156.75315848 </i>
    <i name="e_0_energy">   -156.75315848 </i>
   </energy>
  </scstep>
  <scstep>
   <time name="diag">    1.24    1.24</time>
   <time name="diis">   12.61   12.61</time>
   <time name="orth">    0.18    0.18</time>
   <time name="total">   14.56   14.56</time>
   <energy>
    <i name="e_fr_energy">   -156.71328798 </i>
    <i name="e_wo_entrp">   -156.71328798 </i>
    <i name="e_0_energy">   -156.71328798 </i>
   </energy>
  </scstep>
  <scstep>
   <time name="diag">    1.24    1.24</time>
   <time name="diis">   12.07   12.07</time>
   <time name="orth">    0.15    0.15</time>
   <time name="total">   13.97   13.97</time>
   <energy>
    <i name="e_fr_energy">   -156.69189902 </i>
    <i name="e_wo_entrp">   -156.69189902 </i>
    <i name="e_0_energy">   -156.69189902 </i>
   </energy>
  </scstep>
  <scstep>
   <time name="diag">    1.20    1.20</time>
   <time name="diis">   11.69   11.68</time>
   <time name="orth">    0.22    0.22</time>
   <time name="total">   13.60   13.60</time>
   <energy>
    <i name="e_fr_energy">   -156.67978739 </i>
    <i name="e_wo_entrp">   -156.67978739 </i>
    <i name="e_0_energy">   -156.67978739 </i>
   </energy>
  </scstep>
  <scstep>
   <time name="diag">    0.96    0.96</time>
   <time name="diis">   10.00   10.00</time>
   <time name="orth">    0.14    0.14</time>
   <time name="total">   11.55   11.55</time>
   <energy>
    <i name="e_fr_energy">   -156.67375268 </i>
    <i name="e_wo_entrp">   -156.67375268 </i>
    <i name="e_0_energy">   -156.67375268 </i>
   </energy>
  </scstep>
  <scstep>
   <time name="diag">    0.92    0.92</time>
   <time name="diis">    9.17    9.17</time>
   <time name="orth">    0.14    0.14</time>
   <time name="total">   10.67   10.68</time>
   <energy>
    <i name="e_fr_energy">   -156.66969187 </i>
    <i name="e_wo_entrp">   -156.66969187 </i>
    <i name="e_0_energy">   -156.66969187 </i>
   </energy>
  </scstep>
  <scstep>
   <time name="diag">    0.96    0.96</time>
   <time name="diis">    9.43    9.42</time>
   <time name="orth">    0.14    0.14</time>
   <time name="total">   10.97   10.97</time>
   <energy>
    <i name="e_fr_energy">   -156.66927706 </i>
    <i name="e_wo_entrp">   -156.66927706 </i>
    <i name="e_0_energy">   -156.66927706 </i>
   </energy>
  </scstep>
  <scstep>
   <time name="diag">    0.96    0.96</time>
   <time name="diis">    9.68    9.67</time>
   <time name="orth">    0.14    0.14</time>
   <time name="total">   11.22   11.22</time>
   <energy>
    <i name="e_fr_energy">   -156.67043277 </i>
    <i name="e_wo_entrp">   -156.67043277 </i>
    <i name="e_0_energy">   -156.67043277 </i>
   </energy>
  </scstep>
  <scstep>
   <time name="diag">    0.96    0.96</time>
   <time name="diis">    9.17    9.17</time>
   <time name="orth">    0.13    0.13</time>
   <time name="total">   10.70   10.70</time>
   <energy>
    <i name="e_fr_energy">   -156.67080558 </i>
    <i name="e_wo_entrp">   -156.67080558 </i>
    <i name="e_0_energy">   -156.67080558 </i>
   </energy>
  </scstep>
  <scstep>
   <time name="diag">    0.93    0.93</time>
   <time name="diis">    8.26    8.25</time>
   <time name="orth">    0.12    0.13</time>
   <time name="total">    9.73    9.74</time>
   <energy>
    <i name="e_fr_energy">   -156.67207794 </i>
    <i name="e_wo_entrp">   -156.67207794 </i>
    <i name="e_0_energy">   -156.67207794 </i>
   </energy>
  </scstep>
  <scstep>
   <time name="diag">    0.87    0.87</time>
   <time name="diis">    7.04    7.04</time>
   <time name="orth">    0.13    0.13</time>
   <time name="total">    8.46    8.46</time>
   <energy>
    <i name="e_fr_energy">   -156.67327988 </i>
    <i name="e_wo_entrp">   -156.67327988 </i>
    <i name="e_0_energy">   -156.67327988 </i>
   </energy>
  </scstep>
  <scstep>
   <time name="diag">    0.90    0.90</time>
   <time name="diis">    6.65    6.65</time>
   <time name="orth">    0.12    0.12</time>
   <time name="total">    8.09    8.10</time>
   <energy>
    <i name="e_fr_energy">   -156.67364018 </i>
    <i name="e_wo_entrp">   -156.67364018 </i>
    <i name="e_0_energy">   -156.67364018 </i>
   </energy>
  </scstep>
  <scstep>
   <time name="diag">    0.86    0.87</time>
   <time name="diis">    5.35    5.35</time>
   <time name="orth">    0.12    0.12</time>
   <time name="total">    6.75    6.75</time>
   <energy>
    <i name="e_fr_energy">   -156.67385577 </i>
    <i name="e_wo_entrp">   -156.67385577 </i>
    <i name="e_0_energy">   -156.67385577 </i>
   </energy>
  </scstep>
  <scstep>
   <time name="diag">    0.88    0.88</time>
   <time name="diis">    5.10    5.10</time>
   <time name="orth">    0.13    0.13</time>
   <time name="total">    6.56    6.56</time>
   <energy>
    <i name="e_fr_energy">   -156.67390266 </i>
    <i name="e_wo_entrp">   -156.67390266 </i>
    <i name="e_0_energy">   -156.67390266 </i>
   </energy>
  </scstep>
  <scstep>
   <time name="diag">    0.93    0.93</time>
   <time name="diis">    4.76    4.76</time>
   <time name="orth">    0.13    0.13</time>
   <time name="total">    6.27    6.27</time>
   <energy>
    <i name="e_fr_energy">   -156.67391906 </i>
    <i name="e_wo_entrp">   -156.67391906 </i>
    <i name="e_0_energy">   -156.67391906 </i>
   </energy>
  </scstep>
  <scstep>
   <time name="diag">    0.93    0.93</time>
   <time name="diis">    4.52    4.52</time>
   <time name="orth">    0.13    0.13</time>
   <time name="total">    5.66    5.66</time>
   <energy>
    <i name="alphaZ">    451.31605171 </i>
    <i name="ewald">  24913.70541863 </i>
    <i name="hartreedc"> -33784.14490087 </i>
    <i name="XCdc">    342.95242388 </i>
    <i name="pawpsdc">   6206.01156001 </i>
    <i name="pawaedc">  -6036.31228332 </i>
    <i name="eentropy">      0.00000000 </i>
    <i name="bandstr">  -1187.47044566 </i>
    <i name="atom">   8937.26825017 </i>
    <i name="e_fr_energy">   -156.67392545 </i>
    <i name="e_wo_entrp">   -156.67392545 </i>
    <i name="e_0_energy">   -156.67392545 </i>
   </energy>
  </scstep>
  <structure>
   <crystal>
    <varray name="basis" >
     <v>       3.90526800       0.00000000       0.00000000 </v>
     <v>       0.00000000       3.90526800       0.00000000 </v>
     <v>       0.00000000       0.00000000      25.66843800 </v>
    </varray>
    <i name="volume">    391.47238071 </i>
    <varray name="rec_basis" >
     <v>       0.25606437       0.00000000       0.00000000 </v>
     <v>       0.00000000       0.25606437       0.00000000 </v>
     <v>       0.00000000       0.00000000       0.03895835 </v>
    </varray>
   </crystal>
   <varray name="positions" >
    <v>       0.50000000       0.50000000       0.23375010 </v>
    <v>       0.50000000       0.00000000       0.30982150 </v>
    <v>       0.00000000       0.50000000       0.30982150 </v>
    <v>       0.50000000       0.50000000       0.38589290 </v>
    <v>       0.50000000       0.00000000       0.46196430 </v>
    <v>       0.00000000       0.50000000       0.46196430 </v>
    <v>       0.50000000       0.50000000       0.53803570 </v>
    <v>       0.50000000       0.00000000       0.61410710 </v>
    <v>       0.00000000       0.50000000       0.61410710 </v>
    <v>       0.50000000       0.50000000       0.69017850 </v>
    <v>       0.50000000       0.00000000       0.76624990 </v>
    <v>       0.00000000       0.50000000       0.76624990 </v>
    <v>       0.00000000       0.00000000       0.23375010 </v>
    <v>       0.00000000       0.00000000       0.38589290 </v>
    <v>       0.00000000       0.00000000       0.53803570 </v>
    <v>       0.00000000       0.00000000       0.69017850 </v>
    <v>       0.50000000       0.50000000       0.30982150 </v>
    <v>       0.50000000       0.50000000       0.46196430 </v>
    <v>       0.50000000       0.50000000       0.61410710 </v>
    <v>       0.50000000       0.50000000       0.76624990 </v>
   </varray>
  </structure>
  <varray name="forces" >
   <v>       0.00000000       0.00000000      -1.07611185 </v>
   <v>      -0.00000000       0.00000000      -0.00365991 </v>
   <v>      -0.00000000       0.00000000      -0.00365991 </v>
   <v>      -0.00000000      -0.00000000       0.37975266 </v>
   <v>      -0.00000000      -0.00000000       0.06792233 </v>
   <v>      -0.00000000       0.00000000       0.06792233 </v>
   <v>      -0.00000000      -0.00000000       0.30501388 </v>
   <v>      -0.00000000       0.00000000       0.02037723 </v>
   <v>      -0.00000000       0.00000000       0.02037723 </v>
   <v>      -0.00000000       0.00000000       1.06445568 </v>
   <v>      -0.00000000       0.00000000       0.45581917 </v>
   <v>      -0.00000000      -0.00000000       0.45581917 </v>
   <v>      -0.00000000       0.00000000       1.18982398 </v>
   <v>      -0.00000000      -0.00000000      -0.00668937 </v>
   <v>      -0.00000000       0.00000000      -0.05842924 </v>
   <v>      -0.00000000       0.00000000       0.66213000 </v>
   <v>      -0.00000000       0.00000000      -1.02558457 </v>
   <v>      -0.00000000       0.00000000      -0.30986306 </v>
   <v>      -0.00000000       0.00000000      -0.36787625 </v>
   <v>      -0.00000000      -0.00000000      -1.83753950 </v>
  </varray>
  <varray name="stress" >
   <v>      12.52111828       0.00000000       0.00000000 </v>
   <v>       0.00000000      12.52111828       0.00000000 </v>
   <v>       0.00000000      -0.00000000      17.34227106 </v>
  </varray>
  <energy>
   <i name="e_fr_energy">   -156.67392545 </i>
   <i name="e_wo_entrp">   -156.67392545 </i>
   <i name="e_0_energy">      0.00000000 </i>
  </energy>
  <time name="totalsc">  274.56  274.62</time>
  <eigenvalues>
   <array>
    <dimension dim="1">band</dimension>
    <dimension dim="2">kpoint</dimension>
    <dimension dim="3">spin</dimension>
    <field>eigene</field>
    <field>occ</field>
    <set>
     <set comment="spin 1">
      <set comment="kpoint 1">
       <r>  -33.7817    1.0000 </r>
       <r>  -32.7970    1.0000 </r>
       <r>  -32.7062    1.0000 </r>
       <r>  -32.6615    1.0000 </r>
       <r>  -17.7125    1.0000 </r>
       <r>  -17.6261    1.0000 </r>
       <r>  -17.5204    1.0000 </r>
       <r>  -17.0506    1.0000 </r>
       <r>  -16.5680    1.0000 </r>
       <r>  -16.5202    1.0000 </r>
       <r>  -16.4948    1.0000 </r>
       <r>  -16.4662    1.0000 </r>
       <r>  -16.4181    1.0000 </r>
       <r>  -16.3746    1.0000 </r>
       <r>  -15.9521    1.0000 </r>
       <r>  -15.7469    1.0000 </r>
       <r>  -15.6976    1.0000 </r>
       <r>  -15.6976    1.0000 </r>
       <r>  -15.6005    1.0000 </r>
       <r>  -14.8514    1.0000 </r>
       <r>  -14.8514    1.0000 </r>
       <r>  -14.7543    1.0000 </r>
       <r>  -14.7543    1.0000 </r>
       <r>  -14.7320    1.0000 </r>
       <r>  -14.7320    1.0000 </r>
       <r>  -14.6981    1.0000 </r>
       <r>  -14.4050    1.0000 </r>
       <r>  -14.2668    1.0000 </r>
       <r>   -4.2630    1.0000 </r>
       <r>   -3.7169    1.0000 </r>
       <r>   -3.1790    1.0000 </r>
       <r>   -3.0077    1.0000 </r>
       <r>   -3.0077    1.0000 </r>
       <r>   -2.9073    1.0000 </r>
       <r>   -2.9073    1.0000 </r>
       <r>   -2.8391    1.0000 </r>
       <r>   -2.8391    1.0000 </r>
       <r>   -2.5461    1.0000 </r>
       <r>   -2.5461    1.0000 </r>
       <r>   -2.5215    1.0000 </r>
       <r>   -2.2670    1.0000 </r>
       <r>   -2.1643    1.0000 </r>
       <r>   -2.1643    1.0000 </r>
       <r>   -1.9495    1.0000 </r>
       <r>   -1.8402    1.0000 </r>
       <r>   -1.7789    1.0000 </r>
       <r>   -1.7789    1.0000 </r>
       <r>   -1.6996    1.0000 </r>
       <r>   -1.4481    1.0000 </r>
       <r>   -1.4481    1.0000 </r>
       <r>   -1.3696    1.0000 </r>
       <r>   -1.3493    1.0000 </r>
       <r>   -1.0701    1.0000 </r>
       <r>   -1.0701    1.0000 </r>
       <r>   -0.8559    1.0000 </r>
       <r>   -0.7461    1.0000 </r>
       <r>   -0.7461    1.0000 </r>
       <r>   -0.6441    1.0000 </r>
       <r>   -0.5959    1.0000 </r>
       <r>   -0.5959    1.0000 </r>
       <r>   -0.3658    1.0000 </r>
       <r>   -0.3658    1.0000 </r>
       <r>   -0.0608    1.0000 </r>
       <r>   -0.0608    1.0000 </r>
       <r>    1.6090    0.0000 </r>
       <r>    1.7167    0.0000 </r>
       <r>    1.7167    0.0000 </r>
       <r>    1.7513    0.0000 </r>
       <r>    1.8857    0.0000 </r>
       <r>    1.9938    0.0000 </r>
       <r>    2.2910    0.0000 </r>
       <r>    2.2923    0.0000 </r>
       <r>    2.3289    0.0000 </r>
       <r>    3.0186    0.0000 </r>
       <r>    5.4594    0.0000 </r>
       <r>    5.5550    0.0000 </r>
      </set>
      <set comment="kpoint 2">
       <r>  -33.7799    1.0000 </r>
       <r>  -32.7949    1.0000 </r>
       <r>  -32.7042    1.0000 </r>
       <r>  -32.6595    1.0000 </r>
       <r>  -17.6717    1.0000 </r>
       <r>  -17.5943    1.0000 </r>
       <r>  -17.5096    1.0000 </r>
       <r>  -17.0478    1.0000 </r>
       <r>  -16.5730    1.0000 </r>
       <r>  -16.5382    1.0000 </r>
       <r>  -16.4880    1.0000 </r>
       <r>  -16.4680    1.0000 </r>
       <r>  -16.4388    1.0000 </r>
       <r>  -16.3976    1.0000 </r>
       <r>  -15.9514    1.0000 </r>
       <r>  -15.9490    1.0000 </r>
       <r>  -15.7072    1.0000 </r>
       <r>  -15.6936    1.0000 </r>
       <r>  -15.3694    1.0000 </r>
       <r>  -14.8465    1.0000 </r>
       <r>  -14.7969    1.0000 </r>
       <r>  -14.7493    1.0000 </r>
       <r>  -14.7268    1.0000 </r>
       <r>  -14.7264    1.0000 </r>
       <r>  -14.6910    1.0000 </r>
       <r>  -14.6650    1.0000 </r>
       <r>  -14.4151    1.0000 </r>
       <r>  -14.2854    1.0000 </r>
       <r>   -4.2693    1.0000 </r>
       <r>   -3.7390    1.0000 </r>
       <r>   -3.2539    1.0000 </r>
       <r>   -3.1086    1.0000 </r>
       <r>   -3.0753    1.0000 </r>
       <r>   -3.0149    1.0000 </r>
       <r>   -3.0124    1.0000 </r>
       <r>   -2.9121    1.0000 </r>
       <r>   -2.8940    1.0000 </r>
       <r>   -2.8416    1.0000 </r>
       <r>   -2.6475    1.0000 </r>
       <r>   -2.5802    1.0000 </r>
       <r>   -2.3846    1.0000 </r>
       <r>   -2.2075    1.0000 </r>
       <r>   -2.1669    1.0000 </r>
       <r>   -2.0602    1.0000 </r>
       <r>   -1.9024    1.0000 </r>
       <r>   -1.8251    1.0000 </r>
       <r>   -1.6750    1.0000 </r>
       <r>   -1.5297    1.0000 </r>
       <r>   -1.5208    1.0000 </r>
       <r>   -1.4497    1.0000 </r>
       <r>   -1.3573    1.0000 </r>
       <r>   -1.2462    1.0000 </r>
       <r>   -1.2061    1.0000 </r>
       <r>   -1.0649    1.0000 </r>
       <r>   -0.9858    1.0000 </r>
       <r>   -0.8847    1.0000 </r>
       <r>   -0.8844    1.0000 </r>
       <r>   -0.8618    1.0000 </r>
       <r>   -0.7171    1.0000 </r>
       <r>   -0.7118    1.0000 </r>
       <r>   -0.5046    1.0000 </r>
       <r>   -0.4373    1.0000 </r>
       <r>   -0.2857    1.0000 </r>
       <r>   -0.2336    1.0000 </r>
       <r>    1.7242    0.0000 </r>
       <r>    1.8383    0.0000 </r>
       <r>    1.9098    0.0000 </r>
       <r>    1.9758    0.0000 </r>
       <r>    2.1017    0.0000 </r>
       <r>    2.2292    0.0000 </r>
       <r>    2.3015    0.0000 </r>
       <r>    2.3445    0.0000 </r>
       <r>    2.4741    0.0000 </r>
       <r>    3.0744    0.0000 </r>
       <r>    5.5910    0.0000 </r>
       <r>    5.7755    0.0000 </r>
      </set>
      <set comment="kpoint 3">
       <r>  -33.7754    1.0000 </r>
       <r>  -32.7894    1.0000 </r>
       <r>  -32.6988    1.0000 </r>
       <r>  -32.6540    1.0000 </r>
       <r>  -17.5961    1.0000 </r>
       <r>  -17.5013    1.0000 </r>
       <r>  -17.4853    1.0000 </r>
       <r>  -17.0480    1.0000 </r>
       <r>  -16.6097    1.0000 </r>
       <r>  -16.5633    1.0000 </r>
       <r>  -16.5455    1.0000 </r>
       <r>  -16.4602    1.0000 </r>
       <r>  -16.4259    1.0000 </r>
       <r>  -16.4202    1.0000 </r>
       <r>  -16.1343    1.0000 </r>
       <r>  -15.9350    1.0000 </r>
       <r>  -15.7098    1.0000 </r>
       <r>  -15.6831    1.0000 </r>
       <r>  -15.1048    1.0000 </r>
       <r>  -14.8336    1.0000 </r>
       <r>  -14.7362    1.0000 </r>
       <r>  -14.7167    1.0000 </r>
       <r>  -14.7132    1.0000 </r>
       <r>  -14.6768    1.0000 </r>
       <r>  -14.5616    1.0000 </r>
       <r>  -14.5562    1.0000 </r>
       <r>  -14.4393    1.0000 </r>
       <r>  -14.3285    1.0000 </r>
       <r>   -4.2869    1.0000 </r>
       <r>   -3.8600    1.0000 </r>
       <r>   -3.5726    1.0000 </r>
       <r>   -3.5572    1.0000 </r>
       <r>   -3.4159    1.0000 </r>
       <r>   -3.2610    1.0000 </r>
       <r>   -3.1406    1.0000 </r>
       <r>   -3.0409    1.0000 </r>
       <r>   -3.0235    1.0000 </r>
       <r>   -2.9247    1.0000 </r>
       <r>   -2.8464    1.0000 </r>
       <r>   -2.7552    1.0000 </r>
       <r>   -2.6736    1.0000 </r>
       <r>   -2.4833    1.0000 </r>
       <r>   -2.3289    1.0000 </r>
       <r>   -2.1950    1.0000 </r>
       <r>   -1.9650    1.0000 </r>
       <r>   -1.9581    1.0000 </r>
       <r>   -1.8496    1.0000 </r>
       <r>   -1.7136    1.0000 </r>
       <r>   -1.5886    1.0000 </r>
       <r>   -1.5249    1.0000 </r>
       <r>   -1.4671    1.0000 </r>
       <r>   -1.3861    1.0000 </r>
       <r>   -1.3584    1.0000 </r>
       <r>   -1.2838    1.0000 </r>
       <r>   -1.1676    1.0000 </r>
       <r>   -1.1522    1.0000 </r>
       <r>   -0.9904    1.0000 </r>
       <r>   -0.9290    1.0000 </r>
       <r>   -0.9005    1.0000 </r>
       <r>   -0.7867    1.0000 </r>
       <r>   -0.6571    1.0000 </r>
       <r>   -0.5957    1.0000 </r>
       <r>   -0.5408    1.0000 </r>
       <r>   -0.4933    1.0000 </r>
       <r>    1.7514    0.0000 </r>
       <r>    2.2851    0.0000 </r>
       <r>    2.3698    0.0000 </r>
       <r>    2.3822    0.0000 </r>
       <r>    2.4791    0.0000 </r>
       <r>    2.6041    0.0000 </r>
       <r>    2.6728    0.0000 </r>
       <r>    2.7429    0.0000 </r>
       <r>    3.0504    0.0000 </r>
       <r>    3.1593    0.0000 </r>
       <r>    6.1198    0.0000 </r>
       <r>    6.3315    0.0000 </r>
      </set>
      <set comment="kpoint 4">
       <r>  -33.7697    1.0000 </r>
       <r>  -32.7826    1.0000 </r>
       <r>  -32.6922    1.0000 </r>
       <r>  -32.6473    1.0000 </r>
       <r>  -17.6088    1.0000 </r>
       <r>  -17.4539    1.0000 </r>
       <r>  -17.3453    1.0000 </r>
       <r>  -17.0368    1.0000 </r>
       <r>  -16.6848    1.0000 </r>
       <r>  -16.5880    1.0000 </r>
       <r>  -16.5648    1.0000 </r>
       <r>  -16.5201    1.0000 </r>
       <r>  -16.4242    1.0000 </r>
       <r>  -16.3322    1.0000 </r>
       <r>  -16.2003    1.0000 </r>
       <r>  -15.9111    1.0000 </r>
       <r>  -15.6995    1.0000 </r>
       <r>  -15.6701    1.0000 </r>
       <r>  -14.8931    1.0000 </r>
       <r>  -14.8176    1.0000 </r>
       <r>  -14.7198    1.0000 </r>
       <r>  -14.7110    1.0000 </r>
       <r>  -14.6963    1.0000 </r>
       <r>  -14.5607    1.0000 </r>
       <r>  -14.4686    1.0000 </r>
       <r>  -14.4330    1.0000 </r>
       <r>  -14.4085    1.0000 </r>
       <r>  -14.3656    1.0000 </r>
       <r>   -4.3232    1.0000 </r>
       <r>   -4.2077    1.0000 </r>
       <r>   -3.9528    1.0000 </r>
       <r>   -3.9154    1.0000 </r>
       <r>   -3.7663    1.0000 </r>
       <r>   -3.6593    1.0000 </r>
       <r>   -3.5728    1.0000 </r>
       <r>   -3.3441    1.0000 </r>
       <r>   -3.1601    1.0000 </r>
       <r>   -3.0317    1.0000 </r>
       <r>   -2.9431    1.0000 </r>
       <r>   -2.9417    1.0000 </r>
       <r>   -2.8515    1.0000 </r>
       <r>   -2.7854    1.0000 </r>
       <r>   -2.5000    1.0000 </r>
       <r>   -2.3084    1.0000 </r>
       <r>   -2.2320    1.0000 </r>
       <r>   -2.2000    1.0000 </r>
       <r>   -1.8890    1.0000 </r>
       <r>   -1.8655    1.0000 </r>
       <r>   -1.8392    1.0000 </r>
       <r>   -1.8049    1.0000 </r>
       <r>   -1.7502    1.0000 </r>
       <r>   -1.6190    1.0000 </r>
       <r>   -1.5047    1.0000 </r>
       <r>   -1.4307    1.0000 </r>
       <r>   -1.3698    1.0000 </r>
       <r>   -1.2772    1.0000 </r>
       <r>   -1.1291    1.0000 </r>
       <r>   -1.0050    1.0000 </r>
       <r>   -0.8861    1.0000 </r>
       <r>   -0.8606    1.0000 </r>
       <r>   -0.7041    1.0000 </r>
       <r>   -0.6754    1.0000 </r>
       <r>   -0.6049    1.0000 </r>
       <r>   -0.4067    1.0000 </r>
       <r>    1.7864    0.0000 </r>
       <r>    2.3373    0.0000 </r>
       <r>    2.8845    0.0000 </r>
       <r>    2.8981    0.0000 </r>
       <r>    2.9153    0.0000 </r>
       <r>    3.0154    0.0000 </r>
       <r>    3.0402    0.0000 </r>
       <r>    3.1395    0.0000 </r>
       <r>    3.1428    0.0000 </r>
       <r>    3.3933    0.0000 </r>
       <r>    3.4659    0.0000 </r>
       <r>    6.9173    0.0000 </r>
      </set>
      <set comment="kpoint 5">
       <r>  -33.7651    1.0000 </r>
       <r>  -32.7772    1.0000 </r>
       <r>  -32.6868    1.0000 </r>
       <r>  -32.6418    1.0000 </r>
       <r>  -17.6622    1.0000 </r>
       <r>  -17.4581    1.0000 </r>
       <r>  -17.2290    1.0000 </r>
       <r>  -16.9654    1.0000 </r>
       <r>  -16.6981    1.0000 </r>
       <r>  -16.6861    1.0000 </r>
       <r>  -16.5628    1.0000 </r>
       <r>  -16.4974    1.0000 </r>
       <r>  -16.4337    1.0000 </r>
       <r>  -16.2508    1.0000 </r>
       <r>  -16.2324    1.0000 </r>
       <r>  -15.8876    1.0000 </r>
       <r>  -15.6756    1.0000 </r>
       <r>  -15.6595    1.0000 </r>
       <r>  -14.8046    1.0000 </r>
       <r>  -14.7582    1.0000 </r>
       <r>  -14.7064    1.0000 </r>
       <r>  -14.7054    1.0000 </r>
       <r>  -14.6825    1.0000 </r>
       <r>  -14.5047    1.0000 </r>
       <r>  -14.4535    1.0000 </r>
       <r>  -14.3904    1.0000 </r>
       <r>  -14.3384    1.0000 </r>
       <r>  -14.2993    1.0000 </r>
       <r>   -4.4924    1.0000 </r>
       <r>   -4.4409    1.0000 </r>
       <r>   -4.2970    1.0000 </r>
       <r>   -4.1955    1.0000 </r>
       <r>   -4.1358    1.0000 </r>
       <r>   -4.0326    1.0000 </r>
       <r>   -3.8440    1.0000 </r>
       <r>   -3.6467    1.0000 </r>
       <r>   -3.3721    1.0000 </r>
       <r>   -3.1046    1.0000 </r>
       <r>   -3.0282    1.0000 </r>
       <r>   -2.9659    1.0000 </r>
       <r>   -2.8727    1.0000 </r>
       <r>   -2.8335    1.0000 </r>
       <r>   -2.6553    1.0000 </r>
       <r>   -2.5845    1.0000 </r>
       <r>   -2.4181    1.0000 </r>
       <r>   -2.3191    1.0000 </r>
       <r>   -2.1167    1.0000 </r>
       <r>   -2.1099    1.0000 </r>
       <r>   -1.9493    1.0000 </r>
       <r>   -1.8831    1.0000 </r>
       <r>   -1.7261    1.0000 </r>
       <r>   -1.6664    1.0000 </r>
       <r>   -1.6282    1.0000 </r>
       <r>   -1.6101    1.0000 </r>
       <r>   -1.3655    1.0000 </r>
       <r>   -1.2810    1.0000 </r>
       <r>   -1.2799    1.0000 </r>
       <r>   -1.1051    1.0000 </r>
       <r>   -1.0147    1.0000 </r>
       <r>   -0.9542    1.0000 </r>
       <r>   -0.7549    1.0000 </r>
       <r>   -0.7265    1.0000 </r>
       <r>   -0.5219    1.0000 </r>
       <r>   -0.2677    1.0000 </r>
       <r>    1.8153    0.0000 </r>
       <r>    2.3620    0.0000 </r>
       <r>    2.9338    0.0000 </r>
       <r>    3.3037    0.0000 </r>
       <r>    3.3371    0.0000 </r>
       <r>    3.4143    0.0000 </r>
       <r>    3.4326    0.0000 </r>
       <r>    3.4885    0.0000 </r>
       <r>    3.5472    0.0000 </r>
       <r>    3.5494    0.0000 </r>
       <r>    3.6393    0.0000 </r>
       <r>    7.4653    0.0000 </r>
      </set>
      <set comment="kpoint 6">
       <r>  -33.7634    1.0000 </r>
       <r>  -32.7751    1.0000 </r>
       <r>  -32.6847    1.0000 </r>
       <r>  -32.6397    1.0000 </r>
       <r>  -17.6870    1.0000 </r>
       <r>  -17.4686    1.0000 </r>
       <r>  -17.2060    1.0000 </r>
       <r>  -16.8848    1.0000 </r>
       <r>  -16.7433    1.0000 </r>
       <r>  -16.6537    1.0000 </r>
       <r>  -16.6136    1.0000 </r>
       <r>  -16.4764    1.0000 </r>
       <r>  -16.4317    1.0000 </r>
       <r>  -16.2496    1.0000 </r>
       <r>  -16.2227    1.0000 </r>
       <r>  -15.8763    1.0000 </r>
       <r>  -15.6620    1.0000 </r>
       <r>  -15.6554    1.0000 </r>
       <r>  -14.7996    1.0000 </r>
       <r>  -14.7120    1.0000 </r>
       <r>  -14.7027    1.0000 </r>
       <r>  -14.7013    1.0000 </r>
       <r>  -14.6772    1.0000 </r>
       <r>  -14.5012    1.0000 </r>
       <r>  -14.4296    1.0000 </r>
       <r>  -14.3922    1.0000 </r>
       <r>  -14.3081    1.0000 </r>
       <r>  -14.2601    1.0000 </r>
       <r>   -4.5835    1.0000 </r>
       <r>   -4.5634    1.0000 </r>
       <r>   -4.4361    1.0000 </r>
       <r>   -4.3326    1.0000 </r>
       <r>   -4.2117    1.0000 </r>
       <r>   -4.1439    1.0000 </r>
       <r>   -4.0458    1.0000 </r>
       <r>   -3.6403    1.0000 </r>
       <r>   -3.5005    1.0000 </r>
       <r>   -3.1063    1.0000 </r>
       <r>   -3.0289    1.0000 </r>
       <r>   -2.9708    1.0000 </r>
       <r>   -2.8836    1.0000 </r>
       <r>   -2.8429    1.0000 </r>
       <r>   -2.7142    1.0000 </r>
       <r>   -2.7120    1.0000 </r>
       <r>   -2.5061    1.0000 </r>
       <r>   -2.3249    1.0000 </r>
       <r>   -2.2129    1.0000 </r>
       <r>   -2.2007    1.0000 </r>
       <r>   -1.9923    1.0000 </r>
       <r>   -1.8871    1.0000 </r>
       <r>   -1.7440    1.0000 </r>
       <r>   -1.6977    1.0000 </r>
       <r>   -1.6782    1.0000 </r>
       <r>   -1.6142    1.0000 </r>
       <r>   -1.3631    1.0000 </r>
       <r>   -1.3383    1.0000 </r>
       <r>   -1.2583    1.0000 </r>
       <r>   -1.1640    1.0000 </r>
       <r>   -1.0609    1.0000 </r>
       <r>   -0.9721    1.0000 </r>
       <r>   -0.7825    1.0000 </r>
       <r>   -0.7374    1.0000 </r>
       <r>   -0.5137    1.0000 </r>
       <r>   -0.2171    1.0000 </r>
       <r>    1.8265    0.0000 </r>
       <r>    2.3714    0.0000 </r>
       <r>    2.9405    0.0000 </r>
       <r>    3.4190    0.0000 </r>
       <r>    3.4532    0.0000 </r>
       <r>    3.5231    0.0000 </r>
       <r>    3.5799    0.0000 </r>
       <r>    3.6560    0.0000 </r>
       <r>    3.6956    0.0000 </r>
       <r>    3.7500    0.0000 </r>
       <r>    3.8550    0.0000 </r>
       <r>    7.6456    0.0000 </r>
      </set>
      <set comment="kpoint 7">
       <r>  -33.7782    1.0000 </r>
       <r>  -32.7928    1.0000 </r>
       <r>  -32.7022    1.0000 </r>
       <r>  -32.6574    1.0000 </r>
       <r>  -17.6336    1.0000 </r>
       <r>  -17.5607    1.0000 </r>
       <r>  -17.4939    1.0000 </r>
       <r>  -17.0405    1.0000 </r>
       <r>  -16.5774    1.0000 </r>
       <r>  -16.5493    1.0000 </r>
       <r>  -16.4793    1.0000 </r>
       <r>  -16.4695    1.0000 </r>
       <r>  -16.4341    1.0000 </r>
       <r>  -16.4321    1.0000 </r>
       <r>  -16.0485    1.0000 </r>
       <r>  -15.9477    1.0000 </r>
       <r>  -15.7079    1.0000 </r>
       <r>  -15.6879    1.0000 </r>
       <r>  -15.2660    1.0000 </r>
       <r>  -14.8425    1.0000 </r>
       <r>  -14.7577    1.0000 </r>
       <r>  -14.7491    1.0000 </r>
       <r>  -14.7284    1.0000 </r>
       <r>  -14.7221    1.0000 </r>
       <r>  -14.6435    1.0000 </r>
       <r>  -14.6227    1.0000 </r>
       <r>  -14.4245    1.0000 </r>
       <r>  -14.3053    1.0000 </r>
       <r>   -4.2750    1.0000 </r>
       <r>   -3.7648    1.0000 </r>
       <r>   -3.3446    1.0000 </r>
       <r>   -3.1921    1.0000 </r>
       <r>   -3.1835    1.0000 </r>
       <r>   -3.0826    1.0000 </r>
       <r>   -3.0457    1.0000 </r>
       <r>   -2.9555    1.0000 </r>
       <r>   -2.9554    1.0000 </r>
       <r>   -2.8885    1.0000 </r>
       <r>   -2.7952    1.0000 </r>
       <r>   -2.7144    1.0000 </r>
       <r>   -2.5086    1.0000 </r>
       <r>   -2.4008    1.0000 </r>
       <r>   -2.2060    1.0000 </r>
       <r>   -2.1222    1.0000 </r>
       <r>   -1.8551    1.0000 </r>
       <r>   -1.8517    1.0000 </r>
       <r>   -1.6675    1.0000 </r>
       <r>   -1.5974    1.0000 </r>
       <r>   -1.4901    1.0000 </r>
       <r>   -1.4671    1.0000 </r>
       <r>   -1.3720    1.0000 </r>
       <r>   -1.3181    1.0000 </r>
       <r>   -1.2010    1.0000 </r>
       <r>   -1.1323    1.0000 </r>
       <r>   -1.0598    1.0000 </r>
       <r>   -0.9943    1.0000 </r>
       <r>   -0.9720    1.0000 </r>
       <r>   -0.8840    1.0000 </r>
       <r>   -0.8524    1.0000 </r>
       <r>   -0.7730    1.0000 </r>
       <r>   -0.6272    1.0000 </r>
       <r>   -0.5811    1.0000 </r>
       <r>   -0.5133    1.0000 </r>
       <r>   -0.2191    1.0000 </r>
       <r>    1.8667    0.0000 </r>
       <r>    1.9678    0.0000 </r>
       <r>    2.0084    0.0000 </r>
       <r>    2.1460    0.0000 </r>
       <r>    2.2625    0.0000 </r>
       <r>    2.3611    0.0000 </r>
       <r>    2.4042    0.0000 </r>
       <r>    2.4163    0.0000 </r>
       <r>    2.5289    0.0000 </r>
       <r>    2.9591    0.0000 </r>
       <r>    5.8028    0.0000 </r>
       <r>    5.8904    0.0000 </r>
      </set>
      <set comment="kpoint 8">
       <r>  -33.7737    1.0000 </r>
       <r>  -32.7874    1.0000 </r>
       <r>  -32.6969    1.0000 </r>
       <r>  -32.6520    1.0000 </r>
       <r>  -17.5667    1.0000 </r>
       <r>  -17.4591    1.0000 </r>
       <r>  -17.4556    1.0000 </r>
       <r>  -17.0288    1.0000 </r>
       <r>  -16.6036    1.0000 </r>
       <r>  -16.5603    1.0000 </r>
       <r>  -16.5461    1.0000 </r>
       <r>  -16.4532    1.0000 </r>
       <r>  -16.4485    1.0000 </r>
       <r>  -16.3998    1.0000 </r>
       <r>  -16.1801    1.0000 </r>
       <r>  -15.9369    1.0000 </r>
       <r>  -15.7217    1.0000 </r>
       <r>  -15.6700    1.0000 </r>
       <r>  -15.0765    1.0000 </r>
       <r>  -14.8364    1.0000 </r>
       <r>  -14.7456    1.0000 </r>
       <r>  -14.7306    1.0000 </r>
       <r>  -14.7023    1.0000 </r>
       <r>  -14.6569    1.0000 </r>
       <r>  -14.5420    1.0000 </r>
       <r>  -14.5314    1.0000 </r>
       <r>  -14.4449    1.0000 </r>
       <r>  -14.3510    1.0000 </r>
       <r>   -4.2910    1.0000 </r>
       <r>   -3.8872    1.0000 </r>
       <r>   -3.6147    1.0000 </r>
       <r>   -3.5769    1.0000 </r>
       <r>   -3.4530    1.0000 </r>
       <r>   -3.2898    1.0000 </r>
       <r>   -3.1540    1.0000 </r>
       <r>   -3.0956    1.0000 </r>
       <r>   -3.0380    1.0000 </r>
       <r>   -3.0186    1.0000 </r>
       <r>   -2.9648    1.0000 </r>
       <r>   -2.8659    1.0000 </r>
       <r>   -2.7428    1.0000 </r>
       <r>   -2.6123    1.0000 </r>
       <r>   -2.4695    1.0000 </r>
       <r>   -2.3121    1.0000 </r>
       <r>   -2.1353    1.0000 </r>
       <r>   -2.0538    1.0000 </r>
       <r>   -1.9008    1.0000 </r>
       <r>   -1.8215    1.0000 </r>
       <r>   -1.7208    1.0000 </r>
       <r>   -1.6501    1.0000 </r>
       <r>   -1.4837    1.0000 </r>
       <r>   -1.3213    1.0000 </r>
       <r>   -1.2796    1.0000 </r>
       <r>   -1.2034    1.0000 </r>
       <r>   -1.1618    1.0000 </r>
       <r>   -1.1373    1.0000 </r>
       <r>   -1.0519    1.0000 </r>
       <r>   -1.0419    1.0000 </r>
       <r>   -0.9445    1.0000 </r>
       <r>   -0.8478    1.0000 </r>
       <r>   -0.8112    1.0000 </r>
       <r>   -0.6728    1.0000 </r>
       <r>   -0.5212    1.0000 </r>
       <r>   -0.3710    1.0000 </r>
       <r>    1.9283    0.0000 </r>
       <r>    2.3726    0.0000 </r>
       <r>    2.4009    0.0000 </r>
       <r>    2.4666    0.0000 </r>
       <r>    2.5709    0.0000 </r>
       <r>    2.6723    0.0000 </r>
       <r>    2.7132    0.0000 </r>
       <r>    2.8306    0.0000 </r>
       <r>    3.0174    0.0000 </r>
       <r>    3.1813    0.0000 </r>
       <r>    6.3146    0.0000 </r>
       <r>    6.5857    0.0000 </r>
      </set>
      <set comment="kpoint 9">
       <r>  -33.7681    1.0000 </r>
       <r>  -32.7807    1.0000 </r>
       <r>  -32.6903    1.0000 </r>
       <r>  -32.6453    1.0000 </r>
       <r>  -17.5715    1.0000 </r>
       <r>  -17.4144    1.0000 </r>
       <r>  -17.3015    1.0000 </r>
       <r>  -17.0058    1.0000 </r>
       <r>  -16.6629    1.0000 </r>
       <r>  -16.5780    1.0000 </r>
       <r>  -16.5490    1.0000 </r>
       <r>  -16.5282    1.0000 </r>
       <r>  -16.4320    1.0000 </r>
       <r>  -16.3055    1.0000 </r>
       <r>  -16.2146    1.0000 </r>
       <r>  -15.9163    1.0000 </r>
       <r>  -15.7431    1.0000 </r>
       <r>  -15.6397    1.0000 </r>
       <r>  -14.9106    1.0000 </r>
       <r>  -14.8247    1.0000 </r>
       <r>  -14.7580    1.0000 </r>
       <r>  -14.7116    1.0000 </r>
       <r>  -14.6679    1.0000 </r>
       <r>  -14.5786    1.0000 </r>
       <r>  -14.4765    1.0000 </r>
       <r>  -14.4357    1.0000 </r>
       <r>  -14.4145    1.0000 </r>
       <r>  -14.3880    1.0000 </r>
       <r>   -4.3237    1.0000 </r>
       <r>   -4.1839    1.0000 </r>
       <r>   -3.9662    1.0000 </r>
       <r>   -3.9260    1.0000 </r>
       <r>   -3.7697    1.0000 </r>
       <r>   -3.6479    1.0000 </r>
       <r>   -3.5650    1.0000 </r>
       <r>   -3.3379    1.0000 </r>
       <r>   -3.2154    1.0000 </r>
       <r>   -3.1259    1.0000 </r>
       <r>   -3.0732    1.0000 </r>
       <r>   -3.0194    1.0000 </r>
       <r>   -2.9306    1.0000 </r>
       <r>   -2.8958    1.0000 </r>
       <r>   -2.7200    1.0000 </r>
       <r>   -2.5666    1.0000 </r>
       <r>   -2.3906    1.0000 </r>
       <r>   -2.2699    1.0000 </r>
       <r>   -2.1764    1.0000 </r>
       <r>   -2.0693    1.0000 </r>
       <r>   -1.9255    1.0000 </r>
       <r>   -1.7373    1.0000 </r>
       <r>   -1.5715    1.0000 </r>
       <r>   -1.5184    1.0000 </r>
       <r>   -1.4069    1.0000 </r>
       <r>   -1.3693    1.0000 </r>
       <r>   -1.3205    1.0000 </r>
       <r>   -1.2677    1.0000 </r>
       <r>   -1.2112    1.0000 </r>
       <r>   -1.1560    1.0000 </r>
       <r>   -0.9284    1.0000 </r>
       <r>   -0.8444    1.0000 </r>
       <r>   -0.6985    1.0000 </r>
       <r>   -0.6317    1.0000 </r>
       <r>   -0.5193    1.0000 </r>
       <r>   -0.4162    1.0000 </r>
       <r>    1.9650    0.0000 </r>
       <r>    2.4481    0.0000 </r>
       <r>    2.9216    0.0000 </r>
       <r>    2.9454    0.0000 </r>
       <r>    2.9678    0.0000 </r>
       <r>    3.0835    0.0000 </r>
       <r>    3.1293    0.0000 </r>
       <r>    3.1942    0.0000 </r>
       <r>    3.4397    0.0000 </r>
       <r>    3.5375    0.0000 </r>
       <r>    7.0748    0.0000 </r>
       <r>    7.2567    0.0000 </r>
      </set>
      <set comment="kpoint 10">
       <r>  -33.7635    1.0000 </r>
       <r>  -32.7753    1.0000 </r>
       <r>  -32.6849    1.0000 </r>
       <r>  -32.6399    1.0000 </r>
       <r>  -17.6152    1.0000 </r>
       <r>  -17.4115    1.0000 </r>
       <r>  -17.1850    1.0000 </r>
       <r>  -16.9276    1.0000 </r>
       <r>  -16.6781    1.0000 </r>
       <r>  -16.6597    1.0000 </r>
       <r>  -16.5509    1.0000 </r>
       <r>  -16.4955    1.0000 </r>
       <r>  -16.4389    1.0000 </r>
       <r>  -16.2212    1.0000 </r>
       <r>  -16.2151    1.0000 </r>
       <r>  -15.8971    1.0000 </r>
       <r>  -15.7560    1.0000 </r>
       <r>  -15.6111    1.0000 </r>
       <r>  -14.8174    1.0000 </r>
       <r>  -14.8039    1.0000 </r>
       <r>  -14.7696    1.0000 </r>
       <r>  -14.6928    1.0000 </r>
       <r>  -14.6379    1.0000 </r>
       <r>  -14.5319    1.0000 </r>
       <r>  -14.4786    1.0000 </r>
       <r>  -14.4185    1.0000 </r>
       <r>  -14.3632    1.0000 </r>
       <r>  -14.3228    1.0000 </r>
       <r>   -4.4489    1.0000 </r>
       <r>   -4.4217    1.0000 </r>
       <r>   -4.2974    1.0000 </r>
       <r>   -4.1972    1.0000 </r>
       <r>   -4.1320    1.0000 </r>
       <r>   -4.0002    1.0000 </r>
       <r>   -3.8353    1.0000 </r>
       <r>   -3.6469    1.0000 </r>
       <r>   -3.3980    1.0000 </r>
       <r>   -3.1629    1.0000 </r>
       <r>   -3.1325    1.0000 </r>
       <r>   -3.0812    1.0000 </r>
       <r>   -3.0341    1.0000 </r>
       <r>   -2.9892    1.0000 </r>
       <r>   -2.8962    1.0000 </r>
       <r>   -2.8474    1.0000 </r>
       <r>   -2.5268    1.0000 </r>
       <r>   -2.4854    1.0000 </r>
       <r>   -2.2707    1.0000 </r>
       <r>   -2.1680    1.0000 </r>
       <r>   -1.9805    1.0000 </r>
       <r>   -1.7479    1.0000 </r>
       <r>   -1.7189    1.0000 </r>
       <r>   -1.6092    1.0000 </r>
       <r>   -1.4745    1.0000 </r>
       <r>   -1.4384    1.0000 </r>
       <r>   -1.4188    1.0000 </r>
       <r>   -1.3558    1.0000 </r>
       <r>   -1.2978    1.0000 </r>
       <r>   -1.1567    1.0000 </r>
       <r>   -0.9799    1.0000 </r>
       <r>   -0.9479    1.0000 </r>
       <r>   -0.7322    1.0000 </r>
       <r>   -0.6930    1.0000 </r>
       <r>   -0.5025    1.0000 </r>
       <r>   -0.2644    1.0000 </r>
       <r>    1.9931    0.0000 </r>
       <r>    2.4806    0.0000 </r>
       <r>    3.0003    0.0000 </r>
       <r>    3.3281    0.0000 </r>
       <r>    3.3486    0.0000 </r>
       <r>    3.4549    0.0000 </r>
       <r>    3.4674    0.0000 </r>
       <r>    3.5300    0.0000 </r>
       <r>    3.5679    0.0000 </r>
       <r>    3.6486    0.0000 </r>
       <r>    3.7211    0.0000 </r>
       <r>    7.4586    0.0000 </r>
      </set>
      <set comment="kpoint 11">
       <r>  -33.7618    1.0000 </r>
       <r>  -32.7732    1.0000 </r>
       <r>  -32.6829    1.0000 </r>
       <r>  -32.6378    1.0000 </r>
       <r>  -17.6369    1.0000 </r>
       <r>  -17.4193    1.0000 </r>
       <r>  -17.1604    1.0000 </r>
       <r>  -16.8442    1.0000 </r>
       <r>  -16.7189    1.0000 </r>
       <r>  -16.6448    1.0000 </r>
       <r>  -16.5856    1.0000 </r>
       <r>  -16.4577    1.0000 </r>
       <r>  -16.4534    1.0000 </r>
       <r>  -16.2198    1.0000 </r>
       <r>  -16.1883    1.0000 </r>
       <r>  -15.8886    1.0000 </r>
       <r>  -15.7587    1.0000 </r>
       <r>  -15.5990    1.0000 </r>
       <r>  -14.8150    1.0000 </r>
       <r>  -14.7773    1.0000 </r>
       <r>  -14.7642    1.0000 </r>
       <r>  -14.6857    1.0000 </r>
       <r>  -14.6260    1.0000 </r>
       <r>  -14.5160    1.0000 </r>
       <r>  -14.4747    1.0000 </r>
       <r>  -14.4238    1.0000 </r>
       <r>  -14.3427    1.0000 </r>
       <r>  -14.2890    1.0000 </r>
       <r>   -4.5613    1.0000 </r>
       <r>   -4.5070    1.0000 </r>
       <r>   -4.4371    1.0000 </r>
       <r>   -4.3345    1.0000 </r>
       <r>   -4.2085    1.0000 </r>
       <r>   -4.0934    1.0000 </r>
       <r>   -4.0460    1.0000 </r>
       <r>   -3.6366    1.0000 </r>
       <r>   -3.5140    1.0000 </r>
       <r>   -3.1717    1.0000 </r>
       <r>   -3.1239    1.0000 </r>
       <r>   -3.0828    1.0000 </r>
       <r>   -3.0610    1.0000 </r>
       <r>   -3.0404    1.0000 </r>
       <r>   -2.9923    1.0000 </r>
       <r>   -2.9332    1.0000 </r>
       <r>   -2.6239    1.0000 </r>
       <r>   -2.5155    1.0000 </r>
       <r>   -2.3022    1.0000 </r>
       <r>   -2.1953    1.0000 </r>
       <r>   -1.9967    1.0000 </r>
       <r>   -1.7893    1.0000 </r>
       <r>   -1.7067    1.0000 </r>
       <r>   -1.6109    1.0000 </r>
       <r>   -1.5234    1.0000 </r>
       <r>   -1.5088    1.0000 </r>
       <r>   -1.4570    1.0000 </r>
       <r>   -1.3551    1.0000 </r>
       <r>   -1.3144    1.0000 </r>
       <r>   -1.1320    1.0000 </r>
       <r>   -1.0354    1.0000 </r>
       <r>   -0.9769    1.0000 </r>
       <r>   -0.7450    1.0000 </r>
       <r>   -0.7366    1.0000 </r>
       <r>   -0.4956    1.0000 </r>
       <r>   -0.2114    1.0000 </r>
       <r>    2.0038    0.0000 </r>
       <r>    2.4923    0.0000 </r>
       <r>    3.0113    0.0000 </r>
       <r>    3.4698    0.0000 </r>
       <r>    3.4816    0.0000 </r>
       <r>    3.5268    0.0000 </r>
       <r>    3.6084    0.0000 </r>
       <r>    3.6609    0.0000 </r>
       <r>    3.7212    0.0000 </r>
       <r>    3.8417    0.0000 </r>
       <r>    7.5009    0.0000 </r>
       <r>    7.8291    0.0000 </r>
      </set>
      <set comment="kpoint 12">
       <r>  -33.7693    1.0000 </r>
       <r>  -32.7822    1.0000 </r>
       <r>  -32.6917    1.0000 </r>
       <r>  -32.6468    1.0000 </r>
       <r>  -17.5069    1.0000 </r>
       <r>  -17.3826    1.0000 </r>
       <r>  -17.3412    1.0000 </r>
       <r>  -16.9836    1.0000 </r>
       <r>  -16.6120    1.0000 </r>
       <r>  -16.5727    1.0000 </r>
       <r>  -16.5281    1.0000 </r>
       <r>  -16.4872    1.0000 </r>
       <r>  -16.4374    1.0000 </r>
       <r>  -16.3292    1.0000 </r>
       <r>  -16.2580    1.0000 </r>
       <r>  -15.9338    1.0000 </r>
       <r>  -15.7232    1.0000 </r>
       <r>  -15.6697    1.0000 </r>
       <r>  -15.0145    1.0000 </r>
       <r>  -14.8599    1.0000 </r>
       <r>  -14.7509    1.0000 </r>
       <r>  -14.7153    1.0000 </r>
       <r>  -14.6712    1.0000 </r>
       <r>  -14.6560    1.0000 </r>
       <r>  -14.5038    1.0000 </r>
       <r>  -14.4962    1.0000 </r>
       <r>  -14.4459    1.0000 </r>
       <r>  -14.3985    1.0000 </r>
       <r>   -4.3022    1.0000 </r>
       <r>   -3.9827    1.0000 </r>
       <r>   -3.7729    1.0000 </r>
       <r>   -3.6967    1.0000 </r>
       <r>   -3.5350    1.0000 </r>
       <r>   -3.3946    1.0000 </r>
       <r>   -3.2947    1.0000 </r>
       <r>   -3.2795    1.0000 </r>
       <r>   -3.1959    1.0000 </r>
       <r>   -3.1766    1.0000 </r>
       <r>   -3.0577    1.0000 </r>
       <r>   -3.0396    1.0000 </r>
       <r>   -2.9151    1.0000 </r>
       <r>   -2.8029    1.0000 </r>
       <r>   -2.6579    1.0000 </r>
       <r>   -2.5958    1.0000 </r>
       <r>   -2.5331    1.0000 </r>
       <r>   -2.3684    1.0000 </r>
       <r>   -2.3676    1.0000 </r>
       <r>   -2.2930    1.0000 </r>
       <r>   -1.9101    1.0000 </r>
       <r>   -1.8712    1.0000 </r>
       <r>   -1.7371    1.0000 </r>
       <r>   -1.5206    1.0000 </r>
       <r>   -1.3214    1.0000 </r>
       <r>   -1.1321    1.0000 </r>
       <r>   -1.1203    1.0000 </r>
       <r>   -1.0958    1.0000 </r>
       <r>   -1.0080    1.0000 </r>
       <r>   -1.0029    1.0000 </r>
       <r>   -0.9262    1.0000 </r>
       <r>   -0.8404    1.0000 </r>
       <r>   -0.7701    1.0000 </r>
       <r>   -0.6124    1.0000 </r>
       <r>   -0.5838    1.0000 </r>
       <r>   -0.2230    1.0000 </r>
       <r>    2.2766    0.0000 </r>
       <r>    2.5101    0.0000 </r>
       <r>    2.6497    0.0000 </r>
       <r>    2.7194    0.0000 </r>
       <r>    2.7811    0.0000 </r>
       <r>    2.8462    0.0000 </r>
       <r>    2.9563    0.0000 </r>
       <r>    3.0759    0.0000 </r>
       <r>    3.1081    0.0000 </r>
       <r>    3.2633    0.0000 </r>
       <r>    3.5030    0.0000 </r>
       <r>    6.9610    0.0000 </r>
      </set>
      <set comment="kpoint 13">
       <r>  -33.7638    1.0000 </r>
       <r>  -32.7757    1.0000 </r>
[...]
      </set>
      <set comment="kpoint 21">
       <r>  -33.7468    1.0000 </r>
       <r>  -32.7558    1.0000 </r>
       <r>  -32.6656    1.0000 </r>
       <r>  -32.6204    1.0000 </r>
       <r>  -16.9008    1.0000 </r>
       <r>  -16.7299    1.0000 </r>
       <r>  -16.7299    1.0000 </r>
       <r>  -16.6438    1.0000 </r>
       <r>  -16.6348    1.0000 </r>
       <r>  -16.6348    1.0000 </r>
       <r>  -16.4183    1.0000 </r>
       <r>  -16.4183    1.0000 </r>
       <r>  -16.3895    1.0000 </r>
       <r>  -15.9920    1.0000 </r>
       <r>  -15.8866    1.0000 </r>
       <r>  -15.8866    1.0000 </r>
       <r>  -15.6513    1.0000 </r>
       <r>  -15.6513    1.0000 </r>
       <r>  -15.6155    1.0000 </r>
       <r>  -15.0333    1.0000 </r>
       <r>  -14.9312    1.0000 </r>
       <r>  -14.9312    1.0000 </r>
       <r>  -14.8311    1.0000 </r>
       <r>  -14.7162    1.0000 </r>
       <r>  -14.6195    1.0000 </r>
       <r>  -14.6195    1.0000 </r>
       <r>  -14.4739    1.0000 </r>
       <r>  -14.4739    1.0000 </r>
       <r>   -4.7003    1.0000 </r>
       <r>   -4.6072    1.0000 </r>
       <r>   -4.5885    1.0000 </r>
       <r>   -4.4961    1.0000 </r>
       <r>   -4.3577    1.0000 </r>
       <r>   -4.3226    1.0000 </r>
       <r>   -4.2432    1.0000 </r>
       <r>   -4.2108    1.0000 </r>
       <r>   -4.1587    1.0000 </r>
       <r>   -4.0926    1.0000 </r>
       <r>   -3.9638    1.0000 </r>
       <r>   -3.9373    1.0000 </r>
       <r>   -3.7599    1.0000 </r>
       <r>   -3.7599    1.0000 </r>
       <r>   -3.5044    1.0000 </r>
       <r>   -3.5044    1.0000 </r>
       <r>   -3.4790    1.0000 </r>
       <r>   -3.4471    1.0000 </r>
       <r>   -3.1576    1.0000 </r>
       <r>   -3.1576    1.0000 </r>
       <r>   -2.7100    1.0000 </r>
       <r>   -2.7100    1.0000 </r>
       <r>   -2.4938    1.0000 </r>
       <r>   -1.3623    1.0000 </r>
       <r>   -1.3623    1.0000 </r>
       <r>   -1.3182    1.0000 </r>
       <r>   -0.9039    1.0000 </r>
       <r>   -0.9039    1.0000 </r>
       <r>   -0.4861    1.0000 </r>
       <r>   -0.4861    1.0000 </r>
       <r>   -0.2004    1.0000 </r>
       <r>   -0.1717    1.0000 </r>
       <r>   -0.1717    1.0000 </r>
       <r>   -0.1097    1.0000 </r>
       <r>   -0.0628    1.0000 </r>
       <r>    0.6425    1.0000 </r>
       <r>    3.5395    0.0000 </r>
       <r>    3.5464    0.0000 </r>
       <r>    3.7554    0.0000 </r>
       <r>    3.7752    0.0000 </r>
       <r>    3.9526    0.0000 </r>
       <r>    4.0349    0.0000 </r>
       <r>    4.0890    0.0000 </r>
       <r>    4.1189    0.0000 </r>
       <r>    4.1941    0.0000 </r>
       <r>    7.1501    0.0000 </r>
       <r>    7.1824    0.0000 </r>
       <r>    7.2691    0.0000 </r>
      </set>
     </set>
    </set>
   </array>
  </eigenvalues>
  <separator name="orbital magnetization" >
   <v name="MAGDIPOLOUT">      0.00000000      0.00000000      0.00000000</v>
  </separator>
  <dos>
   <i name="efermi">      0.71511942 </i>
   <total>
    <array>
     <dimension dim="1">gridpoints</dimension>
     <dimension dim="2">spin</dimension>
     <field>energy</field>
     <field>total</field>
     <field>integrated</field>
     <set>
      <set comment="spin 1">
       <r>   -35.8667     0.0000     0.0000 </r>
       <r>   -35.7138     0.0000     0.0000 </r>
       <r>   -35.5609     0.0000     0.0000 </r>
       <r>   -35.4080     0.0000     0.0000 </r>
       <r>   -35.2551     0.0000     0.0000 </r>
       <r>   -35.1022     0.0000     0.0000 </r>
       <r>   -34.9493     0.0000     0.0000 </r>
       <r>   -34.7964     0.0000     0.0000 </r>
       <r>   -34.6435     0.0000     0.0000 </r>
       <r>   -34.4906     0.0000     0.0000 </r>
       <r>   -34.3377     0.0000     0.0000 </r>
       <r>   -34.1848     0.0000     0.0000 </r>
       <r>   -34.0319     0.0000     0.0000 </r>
       <r>   -33.8790     0.0000     0.0000 </r>
       <r>   -33.7261     0.0000     2.0000 </r>
       <r>   -33.5732     0.0000     2.0000 </r>
       <r>   -33.4203     0.0000     2.0000 </r>
       <r>   -33.2674     0.0000     2.0000 </r>
       <r>   -33.1145     0.0000     2.0000 </r>
       <r>   -32.9616     0.0000     2.0000 </r>
       <r>   -32.8087     0.0000     2.0000 </r>
       <r>   -32.6558    34.0838     6.1629 </r>
       <r>   -32.5029     0.0000     8.0000 </r>
       <r>   -32.3499     0.0000     8.0000 </r>
       <r>   -32.1970     0.0000     8.0000 </r>
       <r>   -32.0441     0.0000     8.0000 </r>
       <r>   -31.8912     0.0000     8.0000 </r>
       <r>   -31.7383     0.0000     8.0000 </r>
       <r>   -31.5854     0.0000     8.0000 </r>
       <r>   -31.4325     0.0000     8.0000 </r>
       <r>   -31.2796     0.0000     8.0000 </r>
       <r>   -31.1267     0.0000     8.0000 </r>
       <r>   -30.9738     0.0000     8.0000 </r>
       <r>   -30.8209     0.0000     8.0000 </r>
       <r>   -30.6680     0.0000     8.0000 </r>
       <r>   -30.5151     0.0000     8.0000 </r>
       <r>   -30.3622     0.0000     8.0000 </r>
       <r>   -30.2093     0.0000     8.0000 </r>
       <r>   -30.0564     0.0000     8.0000 </r>
       <r>   -29.9035     0.0000     8.0000 </r>
       <r>   -29.7506     0.0000     8.0000 </r>
       <r>   -29.5977     0.0000     8.0000 </r>
       <r>   -29.4448     0.0000     8.0000 </r>
       <r>   -29.2919     0.0000     8.0000 </r>
       <r>   -29.1390     0.0000     8.0000 </r>
       <r>   -28.9861     0.0000     8.0000 </r>
       <r>   -28.8332     0.0000     8.0000 </r>
       <r>   -28.6803     0.0000     8.0000 </r>
       <r>   -28.5274     0.0000     8.0000 </r>
       <r>   -28.3745     0.0000     8.0000 </r>
       <r>   -28.2216     0.0000     8.0000 </r>
       <r>   -28.0687     0.0000     8.0000 </r>
       <r>   -27.9158     0.0000     8.0000 </r>
       <r>   -27.7629     0.0000     8.0000 </r>
       <r>   -27.6100     0.0000     8.0000 </r>
       <r>   -27.4571     0.0000     8.0000 </r>
       <r>   -27.3042     0.0000     8.0000 </r>
       <r>   -27.1513     0.0000     8.0000 </r>
       <r>   -26.9984     0.0000     8.0000 </r>
       <r>   -26.8455     0.0000     8.0000 </r>
       <r>   -26.6926     0.0000     8.0000 </r>
       <r>   -26.5397     0.0000     8.0000 </r>
       <r>   -26.3868     0.0000     8.0000 </r>
       <r>   -26.2339     0.0000     8.0000 </r>
       <r>   -26.0810     0.0000     8.0000 </r>
       <r>   -25.9281     0.0000     8.0000 </r>
       <r>   -25.7752     0.0000     8.0000 </r>
       <r>   -25.6223     0.0000     8.0000 </r>
       <r>   -25.4694     0.0000     8.0000 </r>
       <r>   -25.3165     0.0000     8.0000 </r>
       <r>   -25.1636     0.0000     8.0000 </r>
       <r>   -25.0107     0.0000     8.0000 </r>
       <r>   -24.8577     0.0000     8.0000 </r>
       <r>   -24.7048     0.0000     8.0000 </r>
       <r>   -24.5519     0.0000     8.0000 </r>
       <r>   -24.3990     0.0000     8.0000 </r>
       <r>   -24.2461     0.0000     8.0000 </r>
       <r>   -24.0932     0.0000     8.0000 </r>
       <r>   -23.9403     0.0000     8.0000 </r>
       <r>   -23.7874     0.0000     8.0000 </r>
       <r>   -23.6345     0.0000     8.0000 </r>
       <r>   -23.4816     0.0000     8.0000 </r>
       <r>   -23.3287     0.0000     8.0000 </r>
       <r>   -23.1758     0.0000     8.0000 </r>
       <r>   -23.0229     0.0000     8.0000 </r>
       <r>   -22.8700     0.0000     8.0000 </r>
       <r>   -22.7171     0.0000     8.0000 </r>
       <r>   -22.5642     0.0000     8.0000 </r>
       <r>   -22.4113     0.0000     8.0000 </r>
       <r>   -22.2584     0.0000     8.0000 </r>
       <r>   -22.1055     0.0000     8.0000 </r>
       <r>   -21.9526     0.0000     8.0000 </r>
       <r>   -21.7997     0.0000     8.0000 </r>
       <r>   -21.6468     0.0000     8.0000 </r>
       <r>   -21.4939     0.0000     8.0000 </r>
       <r>   -21.3410     0.0000     8.0000 </r>
       <r>   -21.1881     0.0000     8.0000 </r>
       <r>   -21.0352     0.0000     8.0000 </r>
       <r>   -20.8823     0.0000     8.0000 </r>
       <r>   -20.7294     0.0000     8.0000 </r>
       <r>   -20.5765     0.0000     8.0000 </r>
       <r>   -20.4236     0.0000     8.0000 </r>
       <r>   -20.2707     0.0000     8.0000 </r>
       <r>   -20.1178     0.0000     8.0000 </r>
       <r>   -19.9649     0.0000     8.0000 </r>
       <r>   -19.8120     0.0000     8.0000 </r>
       <r>   -19.6591     0.0000     8.0000 </r>
       <r>   -19.5062     0.0000     8.0000 </r>
       <r>   -19.3533     0.0000     8.0000 </r>
       <r>   -19.2004     0.0000     8.0000 </r>
       <r>   -19.0475     0.0000     8.0000 </r>
       <r>   -18.8946     0.0000     8.0000 </r>
       <r>   -18.7417     0.0000     8.0000 </r>
       <r>   -18.5888     0.0000     8.0000 </r>
       <r>   -18.4359     0.0000     8.0000 </r>
       <r>   -18.2830     0.0000     8.0000 </r>
       <r>   -18.1301     0.0000     8.0000 </r>
       <r>   -17.9772     0.0000     8.0000 </r>
       <r>   -17.8243     0.0000     8.0000 </r>
       <r>   -17.6714     4.1198     8.0574 </r>
       <r>   -17.5185     8.1052     9.3215 </r>
       <r>   -17.3655     8.0521    11.1107 </r>
       <r>   -17.2126     8.1991    12.1984 </r>
       <r>   -17.0597     4.4561    13.1148 </r>
       <r>   -16.9068     7.0245    14.6291 </r>
       <r>   -16.7539     3.7731    15.4361 </r>
       <r>   -16.6010    39.1568    18.6555 </r>
       <r>   -16.4481    24.8628    23.7388 </r>
       <r>   -16.2952     4.3941    26.6601 </r>
       <r>   -16.1423     9.2812    28.7113 </r>
       <r>   -15.9894     7.1094    29.7094 </r>
       <r>   -15.8365    13.0361    32.3352 </r>
       <r>   -15.6836    14.9386    34.1384 </r>
       <r>   -15.5307     0.2755    36.0107 </r>
       <r>   -15.3778     1.0508    36.0958 </r>
       <r>   -15.2249     1.7111    36.3089 </r>
       <r>   -15.0720     3.6926    36.6612 </r>
       <r>   -14.9191    14.3869    37.8736 </r>
       <r>   -14.7662    24.6596    41.4856 </r>
       <r>   -14.6133    35.2360    47.4324 </r>
       <r>   -14.4604    30.5783    51.7924 </r>
       <r>   -14.3075     8.8819    55.7220 </r>
       <r>   -14.1546     0.0000    56.0000 </r>
       <r>   -14.0017     0.0000    56.0000 </r>
       <r>   -13.8488     0.0000    56.0000 </r>
       <r>   -13.6959     0.0000    56.0000 </r>
       <r>   -13.5430     0.0000    56.0000 </r>
       <r>   -13.3901     0.0000    56.0000 </r>
       <r>   -13.2372     0.0000    56.0000 </r>
       <r>   -13.0843     0.0000    56.0000 </r>
       <r>   -12.9314     0.0000    56.0000 </r>
       <r>   -12.7785     0.0000    56.0000 </r>
       <r>   -12.6256     0.0000    56.0000 </r>
       <r>   -12.4727     0.0000    56.0000 </r>
       <r>   -12.3198     0.0000    56.0000 </r>
       <r>   -12.1669     0.0000    56.0000 </r>
       <r>   -12.0140     0.0000    56.0000 </r>
       <r>   -11.8611     0.0000    56.0000 </r>
       <r>   -11.7082     0.0000    56.0000 </r>
       <r>   -11.5553     0.0000    56.0000 </r>
       <r>   -11.4024     0.0000    56.0000 </r>
       <r>   -11.2495     0.0000    56.0000 </r>
       <r>   -11.0966     0.0000    56.0000 </r>
       <r>   -10.9437     0.0000    56.0000 </r>
       <r>   -10.7908     0.0000    56.0000 </r>
       <r>   -10.6379     0.0000    56.0000 </r>
       <r>   -10.4850     0.0000    56.0000 </r>
       <r>   -10.3321     0.0000    56.0000 </r>
       <r>   -10.1792     0.0000    56.0000 </r>
       <r>   -10.0262     0.0000    56.0000 </r>
       <r>    -9.8733     0.0000    56.0000 </r>
       <r>    -9.7204     0.0000    56.0000 </r>
       <r>    -9.5675     0.0000    56.0000 </r>
       <r>    -9.4146     0.0000    56.0000 </r>
       <r>    -9.2617     0.0000    56.0000 </r>
       <r>    -9.1088     0.0000    56.0000 </r>
       <r>    -8.9559     0.0000    56.0000 </r>
       <r>    -8.8030     0.0000    56.0000 </r>
       <r>    -8.6501     0.0000    56.0000 </r>
       <r>    -8.4972     0.0000    56.0000 </r>
       <r>    -8.3443     0.0000    56.0000 </r>
       <r>    -8.1914     0.0000    56.0000 </r>
       <r>    -8.0385     0.0000    56.0000 </r>
       <r>    -7.8856     0.0000    56.0000 </r>
       <r>    -7.7327     0.0000    56.0000 </r>
       <r>    -7.5798     0.0000    56.0000 </r>
       <r>    -7.4269     0.0000    56.0000 </r>
       <r>    -7.2740     0.0000    56.0000 </r>
       <r>    -7.1211     0.0000    56.0000 </r>
       <r>    -6.9682     0.0000    56.0000 </r>
       <r>    -6.8153     0.0000    56.0000 </r>
       <r>    -6.6624     0.0000    56.0000 </r>
       <r>    -6.5095     0.0000    56.0000 </r>
       <r>    -6.3566     0.0000    56.0000 </r>
       <r>    -6.2037     0.0000    56.0000 </r>
       <r>    -6.0508     0.0000    56.0000 </r>
       <r>    -5.8979     0.0000    56.0000 </r>
       <r>    -5.7450     0.0000    56.0000 </r>
       <r>    -5.5921     0.0000    56.0000 </r>
       <r>    -5.4392     0.0000    56.0000 </r>
       <r>    -5.2863     0.0000    56.0000 </r>
       <r>    -5.1334     0.0000    56.0000 </r>
       <r>    -4.9805     0.0000    56.0000 </r>
       <r>    -4.8276     0.0000    56.0000 </r>
       <r>    -4.6747     0.3292    56.0042 </r>
       <r>    -4.5218     8.3136    56.4607 </r>
       <r>    -4.3689    12.2962    58.2039 </r>
       <r>    -4.2160    13.5389    60.8248 </r>
       <r>    -4.0631    16.1955    63.2980 </r>
       <r>    -3.9102    13.7074    65.6768 </r>
       <r>    -3.7573    16.0380    67.9535 </r>
       <r>    -3.6044    15.3815    70.6240 </r>
       <r>    -3.4515    18.1299    73.2935 </r>
       <r>    -3.2986    18.3010    76.1455 </r>
       <r>    -3.1457    28.1354    79.2437 </r>
       <r>    -2.9928    26.4980    83.4836 </r>
       <r>    -2.8399    14.2620    86.6899 </r>
       <r>    -2.6870    15.7115    88.9556 </r>
       <r>    -2.5340    12.1952    91.0171 </r>
       <r>    -2.3811    12.0932    92.8277 </r>
       <r>    -2.2282    11.8283    94.6143 </r>
       <r>    -2.0753     9.0542    96.4040 </r>
       <r>    -1.9224     9.3292    97.9216 </r>
       <r>    -1.7695     9.3317    99.5663 </r>
       <r>    -1.6166    20.6900   101.3562 </r>
       <r>    -1.4637    18.7721   103.7358 </r>
       <r>    -1.3108    18.8884   107.1149 </r>
       <r>    -1.1579    19.1567   109.8087 </r>
       <r>    -1.0050    23.1147   113.0111 </r>
       <r>    -0.8521    14.1685   116.7914 </r>
       <r>    -0.6992    21.1154   119.5761 </r>
       <r>    -0.5463    18.6651   122.2503 </r>
       <r>    -0.3934    11.1460   124.6198 </r>
       <r>    -0.2405    13.9896   126.2061 </r>
       <r>    -0.0876     1.6747   127.3832 </r>
       <r>     0.0653     0.9278   127.5503 </r>
       <r>     0.2182     0.8906   127.6852 </r>
       <r>     0.3711     0.8073   127.8198 </r>
       <r>     0.5240     0.8629   127.9305 </r>
       <r>     0.6769     0.0000   128.0000 </r>
       <r>     0.8298     0.0000   128.0000 </r>
       <r>     0.9827     0.0000   128.0000 </r>
       <r>     1.1356     0.0000   128.0000 </r>
       <r>     1.2885     0.0000   128.0000 </r>
       <r>     1.4414     0.0000   128.0000 </r>
       <r>     1.5943     0.0000   128.0000 </r>
       <r>     1.7472     1.6042   128.0640 </r>
       <r>     1.9001     4.8473   128.6553 </r>
       <r>     2.0530     3.0322   129.2295 </r>
       <r>     2.2059     3.5304   129.7349 </r>
       <r>     2.3588     8.5169   130.5315 </r>
       <r>     2.5117     6.6140   131.8295 </r>
       <r>     2.6646     6.6058   132.8245 </r>
       <r>     2.8175     6.9519   133.8672 </r>
       <r>     2.9704    11.7379   135.2301 </r>
       <r>     3.1233    11.2050   136.9453 </r>
       <r>     3.2762    11.6422   138.7055 </r>
       <r>     3.4291    16.5711   140.8252 </r>
       <r>     3.5820    18.3482   143.6628 </r>
       <r>     3.7349    12.7055   146.0325 </r>
       <r>     3.8878     7.4796   147.5715 </r>
       <r>     4.0407     3.1759   148.3427 </r>
       <r>     4.1936     0.5409   148.5998 </r>
       <r>     4.3465     0.5370   148.6817 </r>
       <r>     4.4994     0.5400   148.7640 </r>
       <r>     4.6523     0.5429   148.8468 </r>
       <r>     4.8052     0.5458   148.9301 </r>
       <r>     4.9582     0.5488   149.0137 </r>
       <r>     5.1111     0.5517   149.0979 </r>
       <r>     5.2640     0.5546   149.1825 </r>
       <r>     5.4169     0.5576   149.2675 </r>
       <r>     5.5698     1.0390   149.3780 </r>
       <r>     5.7227     1.2325   149.5518 </r>
       <r>     5.8756     1.1841   149.7511 </r>
       <r>     6.0285     1.1818   149.9289 </r>
       <r>     6.1814     1.1404   150.1103 </r>
       <r>     6.3343     0.9027   150.2704 </r>
       <r>     6.4872     0.8994   150.4082 </r>
       <r>     6.6401     0.9536   150.5483 </r>
       <r>     6.7930     0.9740   150.6957 </r>
       <r>     6.9459     1.0068   150.8464 </r>
       <r>     7.0988     1.2397   151.0167 </r>
       <r>     7.2517     1.2516   151.2190 </r>
       <r>     7.4046     1.3815   151.4384 </r>
       <r>     7.5575     1.4963   151.6559 </r>
       <r>     7.7104     1.0893   151.8867 </r>
       <r>     7.8633     0.2871   151.9920 </r>
       <r>     8.0162     0.0000   152.0000 </r>
       <r>     8.1691     0.0000   152.0000 </r>
       <r>     8.3220     0.0000   152.0000 </r>
       <r>     8.4749     0.0000   152.0000 </r>
       <r>     8.6278     0.0000   152.0000 </r>
       <r>     8.7807     0.0000   152.0000 </r>
       <r>     8.9336     0.0000   152.0000 </r>
       <r>     9.0865     0.0000   152.0000 </r>
       <r>     9.2394     0.0000   152.0000 </r>
       <r>     9.3923     0.0000   152.0000 </r>
       <r>     9.5452     0.0000   152.0000 </r>
       <r>     9.6981     0.0000   152.0000 </r>
       <r>     9.8510     0.0000   152.0000 </r>
       <r>    10.0039     0.0000   152.0000 </r>
      </set>
     </set>
    </array>
   </total>
  </dos>
 </calculation>
 <structure name="finalpos" >
  <crystal>
   <varray name="basis" >
    <v>       3.90526800       0.00000000       0.00000000 </v>
    <v>       0.00000000       3.90526800       0.00000000 </v>
    <v>       0.00000000       0.00000000      25.66843800 </v>
   </varray>
   <i name="volume">    391.47238071 </i>
   <varray name="rec_basis" >
    <v>       0.25606437       0.00000000       0.00000000 </v>
    <v>       0.00000000       0.25606437       0.00000000 </v>
    <v>       0.00000000       0.00000000       0.03895835 </v>
   </varray>
  </crystal>
  <varray name="positions" >
   <v>       0.50000000       0.50000000       0.23375010 </v>
   <v>       0.50000000       0.00000000       0.30982150 </v>
   <v>       0.00000000       0.50000000       0.30982150 </v>
   <v>       0.50000000       0.50000000       0.38589290 </v>
   <v>       0.50000000       0.00000000       0.46196430 </v>
   <v>       0.00000000       0.50000000       0.46196430 </v>
   <v>       0.50000000       0.50000000       0.53803570 </v>
   <v>       0.50000000       0.00000000       0.61410710 </v>
   <v>       0.00000000       0.50000000       0.61410710 </v>
   <v>       0.50000000       0.50000000       0.69017850 </v>
   <v>       0.50000000       0.00000000       0.76624990 </v>
   <v>       0.00000000       0.50000000       0.76624990 </v>
   <v>       0.00000000       0.00000000       0.23375010 </v>
   <v>       0.00000000       0.00000000       0.38589290 </v>
   <v>       0.00000000       0.00000000       0.53803570 </v>
   <v>       0.00000000       0.00000000       0.69017850 </v>
   <v>       0.50000000       0.50000000       0.30982150 </v>
   <v>       0.50000000       0.50000000       0.46196430 </v>
   <v>       0.50000000       0.50000000       0.61410710 </v>
   <v>       0.50000000       0.50000000       0.76624990 </v>
  </varray>
 </structure>
</modeling>
