unknown system                          
   1.00000000000000     
     2.573869    0.000000    0.000000
     1.286934    2.229036    0.000000
     0.000000    0.000000   30.304665
   Cu   H 
     4     1
Direct
  0.000000  0.000000  0.398815
  0.333333  0.333333  0.467250
  0.666667  0.666667  0.536042
  0.000000  0.000000  0.605684
  0.000000  0.000000  0.658927
 
   20   20  240
 -.20507E-01 -.19776E-01 -.15812E-01 -.10256E-01 -.52660E-02 -.15216E-02 0.85672E-03 0.11164E-02 -.74649E-03 -.28318E-02
 -.32545E-02 -.21744E-02 -.74696E-03 0.49313E-03 0.92151E-03 -.84882E-03 -.52656E-02 -.10684E-01 -.15247E-01 -.18584E-01
 -.19776E-01 -.17117E-01 -.11672E-01 -.62644E-02 -.25744E-02 -.47977E-03 -.25904E-03 -.25192E-02 -.58433E-02 -.73800E-02
 -.62294E-02 -.39792E-02 -.19475E-02 -.38517E-03 -.23793E-03 -.28540E-02 -.76427E-02 -.12422E-01 -.16140E-01 -.18920E-01
 -.15812E-01 -.11672E-01 -.65931E-02 -.32605E-02 -.20377E-02 -.25954E-02 -.56700E-02 -.10910E-01 -.15238E-01 -.15891E-01
 -.13436E-01 -.99166E-02 -.61255E-02 -.27153E-02 -.16467E-02 -.40182E-02 -.81605E-02 -.11889E-01 -.14807E-01 -.16658E-01
 -.10256E-01 -.62644E-02 -.32605E-02 -.26896E-02 -.42689E-02 -.85028E-02 -.16039E-01 -.24500E-01 -.29410E-01 -.28782E-01
 -.24150E-01 -.17378E-01 -.96663E-02 -.34444E-02 -.15157E-02 -.36832E-02 -.70356E-02 -.97293E-02 -.11759E-01 -.12388E-01
 -.52660E-02 -.25744E-02 -.20377E-02 -.42689E-02 -.96261E-02 -.19233E-01 -.31946E-01 -.42657E-01 -.46373E-01 -.42460E-01
 -.33291E-01 -.21332E-01 -.96287E-02 -.22169E-02 -.85851E-03 -.30164E-02 -.52707E-02 -.68533E-02 -.80347E-02 -.77210E-02
 -.15216E-02 -.47977E-03 -.25954E-02 -.85028E-02 -.19233E-01 -.34791E-01 -.50854E-01 -.60462E-01 -.59876E-01 -.50547E-01
 -.36009E-01 -.20054E-01 -.72976E-02 -.12581E-02 -.96147E-03 -.23334E-02 -.31720E-02 -.40273E-02 -.47329E-02 -.37968E-02
 0.85672E-03 -.25904E-03 -.56700E-02 -.16039E-01 -.31946E-01 -.50854E-01 -.65850E-01 -.70549E-01 -.64093E-01 -.49947E-01
 -.32356E-01 -.15869E-01 -.50225E-02 -.11166E-02 -.96965E-03 -.11303E-02 -.13789E-02 -.23427E-02 -.26017E-02 -.92576E-03
 0.11164E-02 -.25192E-02 -.10910E-01 -.24500E-01 -.42657E-01 -.60462E-01 -.70549E-01 -.69246E-01 -.58531E-01 -.42455E-01
 -.24972E-01 -.10597E-01 -.27659E-02 -.64123E-03 -.55767E-03 -.76283E-03 -.18047E-02 -.29091E-02 -.19940E-02 0.46779E-03
 -.74649E-03 -.58433E-02 -.15238E-01 -.29410E-01 -.46373E-01 -.59876E-01 -.64093E-01 -.58531E-01 -.46375E-01 -.30838E-01
 -.15476E-01 -.47584E-02 -.74125E-03 -.10041E-02 -.22941E-02 -.39510E-02 -.57682E-02 -.57285E-02 -.28976E-02 -.63242E-04
 -.28318E-02 -.73800E-02 -.15891E-01 -.28782E-01 -.42460E-01 -.50547E-01 -.49947E-01 -.42455E-01 -.30838E-01 -.17403E-01
 -.60550E-02 -.90912E-03 -.19047E-02 -.52701E-02 -.84514E-02 -.11148E-01 -.12128E-01 -.95597E-02 -.47962E-02 -.18489E-02
 -.32545E-02 -.62294E-02 -.13436E-01 -.24150E-01 -.33291E-01 -.36009E-01 -.32356E-01 -.24972E-01 -.15476E-01 -.60550E-02
 -.98172E-03 -.26074E-02 -.81939E-02 -.13626E-01 -.17629E-01 -.19873E-01 -.18498E-01 -.12998E-01 -.67200E-02 -.33168E-02
 -.21744E-02 -.39792E-02 -.99166E-02 -.17378E-01 -.21332E-01 -.20054E-01 -.15869E-01 -.10597E-01 -.47584E-02 -.90912E-03
 -.26074E-02 -.94133E-02 -.17092E-01 -.22935E-01 -.26831E-01 -.27587E-01 -.23187E-01 -.15077E-01 -.77308E-02 -.35694E-02
 -.74696E-03 -.19475E-02 -.61255E-02 -.96663E-02 -.96287E-02 -.72976E-02 -.50225E-02 -.27659E-02 -.74125E-03 -.19047E-02
 -.81939E-02 -.17092E-01 -.24984E-01 -.30929E-01 -.34348E-01 -.32671E-01 -.24982E-01 -.15057E-01 -.73912E-02 -.28326E-02
 0.49313E-03 -.38517E-03 -.27153E-02 -.34444E-02 -.22169E-02 -.12581E-02 -.11166E-02 -.64123E-03 -.10041E-02 -.52701E-02
 -.13626E-01 -.22935E-01 -.30929E-01 -.36844E-01 -.38422E-01 -.33134E-01 -.22784E-01 -.12682E-01 -.58238E-02 -.15506E-02
 0.92151E-03 -.23793E-03 -.16467E-02 -.15157E-02 -.85851E-03 -.96147E-03 -.96965E-03 -.55767E-03 -.22941E-02 -.84514E-02
 -.17629E-01 -.26831E-01 -.34348E-01 -.38422E-01 -.36301E-01 -.27753E-01 -.17088E-01 -.88506E-02 -.36366E-02 -.26947E-03
 -.84882E-03 -.28540E-02 -.40182E-02 -.36832E-02 -.30164E-02 -.23334E-02 -.11303E-02 -.76283E-03 -.39510E-02 -.11148E-01
 -.19873E-01 -.27587E-01 -.32671E-01 -.33134E-01 -.27753E-01 -.18782E-01 -.10580E-01 -.52270E-02 -.19235E-02 -.25452E-03
 -.52656E-02 -.76427E-02 -.81605E-02 -.70356E-02 -.52707E-02 -.31720E-02 -.13789E-02 -.18047E-02 -.57682E-02 -.12128E-01
 -.18498E-01 -.23187E-01 -.24982E-01 -.22784E-01 -.17088E-01 -.10580E-01 -.57659E-02 -.30267E-02 -.19277E-02 -.27455E-02
 -.10684E-01 -.12422E-01 -.11889E-01 -.97293E-02 -.68533E-02 -.40273E-02 -.23427E-02 -.29091E-02 -.57285E-02 -.95597E-02
 -.12998E-01 -.15077E-01 -.15057E-01 -.12682E-01 -.88506E-02 -.52270E-02 -.30267E-02 -.26575E-02 -.42203E-02 -.73585E-02
 -.15247E-01 -.16140E-01 -.14807E-01 -.11759E-01 -.80347E-02 -.47329E-02 -.26017E-02 -.19940E-02 -.28976E-02 -.47962E-02
 -.67200E-02 -.77308E-02 -.73912E-02 -.58238E-02 -.36366E-02 -.19235E-02 -.19277E-02 -.42203E-02 -.81635E-02 -.12307E-01
 -.18584E-01 -.18920E-01 -.16658E-01 -.12388E-01 -.77210E-02 -.37968E-02 -.92576E-03 0.46779E-03 -.63242E-04 -.18489E-02
 -.33168E-02 -.35694E-02 -.28326E-02 -.15506E-02 -.26947E-03 -.25452E-03 -.27455E-02 -.73585E-02 -.12307E-01 -.16203E-01
 -.42742E-01 -.39670E-01 -.30772E-01 -.19451E-01 -.94500E-02 -.26939E-02 0.70920E-03 0.14089E-02 0.52044E-03 -.48426E-03
 -.66279E-03 -.15679E-03 0.52094E-03 0.10506E-02 0.61498E-03 -.24754E-02 -.94511E-02 -.19600E-01 -.30492E-01 -.39133E-01
 -.39670E-01 -.33527E-01 -.22989E-01 -.12407E-01 -.48240E-02 -.69604E-03 0.61986E-03 -.42587E-04 -.12006E-02 -.13325E-02
 -.40867E-03 0.45150E-03 0.77336E-03 0.68712E-03 -.74182E-03 -.53168E-02 -.13485E-01 -.23538E-01 -.32938E-01 -.39142E-01
 -.30772E-01 -.22989E-01 -.13533E-01 -.62733E-02 -.22009E-02 -.44702E-03 -.44505E-03 -.15210E-02 -.21413E-02 -.14991E-02
 -.62466E-03 -.49554E-03 -.53759E-03 -.47256E-03 -.20138E-02 -.69421E-02 -.14672E-01 -.23018E-01 -.29910E-01 -.33193E-01
 -.19451E-01 -.12407E-01 -.62733E-02 -.28420E-02 -.11991E-02 -.64472E-03 -.14730E-02 -.29584E-02 -.35014E-02 -.30394E-02
 -.27921E-02 -.26614E-02 -.15815E-02 -.44344E-03 -.18435E-02 -.66066E-02 -.12914E-01 -.18785E-01 -.22937E-01 -.23578E-01
 -.94500E-02 -.48240E-02 -.22009E-02 -.11991E-02 -.69705E-03 -.13238E-02 -.35795E-02 -.57837E-02 -.62865E-02 -.57211E-02
 -.50034E-02 -.33808E-02 -.69904E-03 0.69150E-03 -.12453E-02 -.53901E-02 -.94553E-02 -.12671E-01 -.14559E-01 -.13574E-01
 -.26939E-02 -.69604E-03 -.44702E-03 -.64472E-03 -.13238E-02 -.38106E-02 -.73083E-02 -.91200E-02 -.84915E-02 -.69775E-02
 -.51131E-02 -.22162E-02 0.59454E-03 0.87970E-03 -.13653E-02 -.37323E-02 -.51798E-02 -.64905E-02 -.71948E-02 -.57148E-02
 0.70920E-03 0.61986E-03 -.44505E-03 -.14730E-02 -.35795E-02 -.73083E-02 -.10245E-01 -.10184E-01 -.82485E-02 -.63404E-02
 -.41501E-02 -.12781E-02 0.50429E-03 -.40703E-04 -.11956E-02 -.12193E-02 -.11238E-02 -.20003E-02 -.23646E-02 -.91475E-03
 0.14089E-02 -.42587E-04 -.15210E-02 -.29584E-02 -.57837E-02 -.91200E-02 -.10184E-01 -.86814E-02 -.69458E-02 -.56999E-02
 -.36230E-02 -.10421E-02 0.55416E-04 -.21549E-03 0.17557E-03 0.12126E-02 0.99875E-03 -.19721E-03 -.12247E-03 0.12035E-02
 0.52044E-03 -.12006E-02 -.21413E-02 -.35014E-02 -.62865E-02 -.84915E-02 -.82485E-02 -.69458E-02 -.62876E-02 -.51839E-02
 -.25208E-02 -.49621E-04 0.52564E-03 0.49744E-03 0.13067E-02 0.16912E-02 0.56587E-03 -.27774E-03 0.64225E-03 0.15382E-02
 -.48426E-03 -.13325E-02 -.14991E-02 -.30394E-02 -.57211E-02 -.69775E-02 -.63404E-02 -.56999E-02 -.51839E-02 -.31091E-02
 -.70723E-04 0.12726E-02 0.66042E-03 0.33963E-03 0.74320E-03 0.25266E-03 -.83943E-03 -.48915E-03 0.94686E-03 0.99430E-03
 -.66279E-03 -.40867E-03 -.62466E-03 -.27921E-02 -.50034E-02 -.51131E-02 -.41501E-02 -.36230E-02 -.25208E-02 -.70723E-04
 0.16094E-02 0.81241E-03 -.67878E-03 -.80042E-03 -.55122E-03 -.12360E-02 -.15007E-02 -.18120E-03 0.93653E-03 0.26628E-03
 -.15679E-03 0.45150E-03 -.49554E-03 -.26614E-02 -.33808E-02 -.22162E-02 -.12781E-02 -.10421E-02 -.49621E-04 0.12726E-02
 0.81241E-03 -.10948E-02 -.19031E-02 -.12938E-02 -.12885E-02 -.20064E-02 -.15286E-02 0.21331E-04 0.48722E-03 -.21209E-03
 0.52094E-03 0.77336E-03 -.53759E-03 -.15815E-02 -.69904E-03 0.59454E-03 0.50429E-03 0.55416E-04 0.52564E-03 0.66042E-03
 -.67878E-03 -.19031E-02 -.15882E-02 -.11930E-02 -.20924E-02 -.27330E-02 -.15866E-02 -.12376E-03 -.18568E-04 -.19960E-03
 0.10506E-02 0.68712E-03 -.47256E-03 -.44344E-03 0.69150E-03 0.87970E-03 -.40703E-04 -.21549E-03 0.49744E-03 0.33963E-03
 -.80042E-03 -.12938E-02 -.11930E-02 -.20670E-02 -.34452E-02 -.31535E-02 -.12604E-02 -.49739E-04 -.47659E-04 0.29609E-03
 0.61498E-03 -.74182E-03 -.20138E-02 -.18435E-02 -.12453E-02 -.13653E-02 -.11956E-02 0.17557E-03 0.13067E-02 0.74320E-03
 -.55122E-03 -.12885E-02 -.20924E-02 -.34452E-02 -.38039E-02 -.21482E-02 -.17116E-03 0.36921E-03 0.26639E-03 0.65933E-03
 -.24754E-02 -.53168E-02 -.69421E-02 -.66066E-02 -.53901E-02 -.37323E-02 -.12193E-02 0.12126E-02 0.16912E-02 0.25266E-03
 -.12360E-02 -.20064E-02 -.27330E-02 -.31535E-02 -.21482E-02 -.23076E-03 0.74765E-03 0.45001E-03 0.42179E-04 -.53208E-03
 -.94511E-02 -.13485E-01 -.14672E-01 -.12914E-01 -.94553E-02 -.51798E-02 -.11238E-02 0.99875E-03 0.56587E-03 -.83943E-03
 -.15007E-02 -.15286E-02 -.15866E-02 -.12604E-02 -.17116E-03 0.74765E-03 0.56877E-03 -.38254E-03 -.18948E-02 -.48776E-02
 -.19600E-01 -.23538E-01 -.23018E-01 -.18785E-01 -.12671E-01 -.64905E-02 -.20003E-02 -.19721E-03 -.27774E-03 -.48915E-03
 -.18120E-03 0.21331E-04 -.12376E-03 -.49739E-04 0.36921E-03 0.45001E-03 -.38254E-03 -.24895E-02 -.65941E-02 -.12912E-01
 -.30492E-01 -.32938E-01 -.29910E-01 -.22937E-01 -.14559E-01 -.71948E-02 -.23646E-02 -.12247E-03 0.64225E-03 0.94686E-03
 0.93653E-03 0.48722E-03 -.18568E-04 -.47659E-04 0.26639E-03 0.42179E-04 -.18948E-02 -.65941E-02 -.14260E-01 -.23296E-01
 -.39133E-01 -.39142E-01 -.33193E-01 -.23578E-01 -.13574E-01 -.57148E-02 -.91475E-03 0.12035E-02 0.15382E-02 0.99430E-03
 0.26628E-03 -.21209E-03 -.19960E-03 0.29609E-03 0.65933E-03 -.53208E-03 -.48776E-02 -.12912E-01 -.23296E-01 -.33127E-01
 0.20891E-01 0.19451E-01 0.15437E-01 0.10301E-01 0.56658E-02 0.24682E-02 0.85957E-03 0.56660E-03 0.10907E-02 0.17762E-02
 0.20656E-02 0.17741E-02 0.10914E-02 0.47144E-03 0.60489E-03 0.22325E-02 0.56637E-02 0.10430E-01 0.15434E-01 0.19332E-01
 0.19451E-01 0.16720E-01 0.12449E-01 0.77143E-02 0.36779E-02 0.13469E-02 0.10242E-02 0.22663E-02 0.43214E-02 0.62584E-02
 0.69561E-02 0.57629E-02 0.33280E-02 0.12868E-02 0.10154E-02 0.29720E-02 0.69345E-02 0.12098E-01 0.16918E-01 0.19650E-01
 0.15437E-01 0.12449E-01 0.85042E-02 0.43184E-02 0.16635E-02 0.21032E-02 0.54624E-02 0.10267E-01 0.14833E-01 0.17312E-01
 0.16066E-01 0.11326E-01 0.57330E-02 0.21731E-02 0.16490E-02 0.37389E-02 0.77908E-02 0.12607E-01 0.16155E-01 0.16999E-01
 0.10301E-01 0.77143E-02 0.43184E-02 0.17435E-02 0.28828E-02 0.86693E-02 0.17066E-01 0.25193E-01 0.30578E-01 0.30875E-01
 0.25176E-01 0.16026E-01 0.79571E-02 0.35700E-02 0.25676E-02 0.40746E-02 0.74727E-02 0.11108E-01 0.12812E-01 0.12158E-01
 0.56658E-02 0.36779E-02 0.16635E-02 0.28828E-02 0.99989E-02 0.21566E-01 0.33638E-01 0.42910E-01 0.46718E-01 0.42838E-01
 0.32133E-01 0.19548E-01 0.99972E-02 0.46124E-02 0.23939E-02 0.29866E-02 0.56634E-02 0.80072E-02 0.82204E-02 0.70632E-02
 0.24682E-02 0.13469E-02 0.21032E-02 0.86693E-02 0.21566E-01 0.36890E-01 0.50333E-01 0.58923E-01 0.59594E-01 0.50689E-01
 0.35501E-01 0.20601E-01 0.99446E-02 0.34207E-02 0.48798E-03 0.12012E-02 0.37211E-02 0.49523E-02 0.42478E-02 0.32745E-02
 0.85957E-03 0.10242E-02 0.54624E-02 0.17066E-01 0.33638E-01 0.50333E-01 0.63511E-01 0.69863E-01 0.65751E-01 0.51363E-01
 0.32904E-01 0.17286E-01 0.67176E-02 0.56350E-03 -.11257E-02 0.85374E-03 0.31032E-02 0.30526E-02 0.18462E-02 0.12620E-02
 0.56660E-03 0.22663E-02 0.10267E-01 0.25193E-01 0.42910E-01 0.58923E-01 0.69863E-01 0.71567E-01 0.61343E-01 0.42875E-01
 0.24334E-01 0.10912E-01 0.27109E-02 -.92516E-03 -.83367E-04 0.28041E-02 0.38986E-02 0.26102E-02 0.13645E-02 0.94853E-03
 0.10907E-02 0.43214E-02 0.14833E-01 0.30578E-01 0.46718E-01 0.59594E-01 0.65751E-01 0.61343E-01 0.46718E-01 0.28640E-01
 0.14311E-01 0.55380E-02 0.10930E-02 0.79696E-03 0.37898E-02 0.64547E-02 0.61309E-02 0.42894E-02 0.30617E-02 0.19399E-02
 0.17762E-02 0.62584E-02 0.17312E-01 0.30875E-01 0.42838E-01 0.50689E-01 0.51363E-01 0.42875E-01 0.28640E-01 0.15604E-01
 0.74589E-02 0.33676E-02 0.25985E-02 0.54771E-02 0.98794E-02 0.11904E-01 0.10698E-01 0.85205E-02 0.62189E-02 0.32130E-02
 0.20656E-02 0.69561E-02 0.16066E-01 0.25176E-01 0.32133E-01 0.35501E-01 0.32904E-01 0.24334E-01 0.14311E-01 0.74589E-02
 0.43409E-02 0.39910E-02 0.70270E-02 0.13068E-01 0.18363E-01 0.19558E-01 0.17334E-01 0.13680E-01 0.87848E-02 0.36063E-02
 0.17741E-02 0.57629E-02 0.11326E-01 0.16026E-01 0.19548E-01 0.20601E-01 0.17286E-01 0.10912E-01 0.55380E-02 0.33676E-02
 0.39910E-02 0.76522E-02 0.14978E-01 0.23418E-01 0.28227E-01 0.27547E-01 0.23201E-01 0.16811E-01 0.91325E-02 0.29022E-02
 0.10914E-02 0.33280E-02 0.57330E-02 0.79571E-02 0.99972E-02 0.99446E-02 0.67176E-02 0.27109E-02 0.10930E-02 0.25985E-02
 0.70270E-02 0.14978E-01 0.25327E-01 0.33594E-01 0.35814E-01 0.32256E-01 0.25329E-01 0.16501E-01 0.75456E-02 0.18082E-02
 0.47144E-03 0.12868E-02 0.21731E-02 0.35700E-02 0.46124E-02 0.34207E-02 0.56350E-03 -.92516E-03 0.79696E-03 0.54771E-02
 0.13068E-01 0.23418E-01 0.33594E-01 0.38997E-01 0.37819E-01 0.31878E-01 0.23335E-01 0.13628E-01 0.52576E-02 0.94039E-03
 0.60489E-03 0.10154E-02 0.16490E-02 0.25676E-02 0.23939E-02 0.48798E-03 -.11257E-02 -.83367E-04 0.37898E-02 0.98794E-02
 0.18363E-01 0.28227E-01 0.35814E-01 0.37819E-01 0.34343E-01 0.27429E-01 0.18583E-01 0.95305E-02 0.30498E-02 0.59391E-03
 0.22325E-02 0.29720E-02 0.37389E-02 0.40746E-02 0.29866E-02 0.12012E-02 0.85374E-03 0.28041E-02 0.64547E-02 0.11904E-01
 0.19558E-01 0.27547E-01 0.32256E-01 0.31878E-01 0.27429E-01 0.20475E-01 0.12324E-01 0.52467E-02 0.16243E-02 0.13543E-02
 0.56637E-02 0.69345E-02 0.77908E-02 0.74727E-02 0.56634E-02 0.37211E-02 0.31032E-02 0.38986E-02 0.61309E-02 0.10698E-01
 0.17334E-01 0.23201E-01 0.25329E-01 0.23335E-01 0.18583E-01 0.12324E-01 0.61342E-02 0.23594E-02 0.21117E-02 0.38985E-02
 0.10430E-01 0.12098E-01 0.12607E-01 0.11108E-01 0.80072E-02 0.49523E-02 0.30526E-02 0.26102E-02 0.42894E-02 0.85205E-02
 0.13680E-01 0.16811E-01 0.16501E-01 0.13628E-01 0.95305E-02 0.52467E-02 0.23594E-02 0.23887E-02 0.49354E-02 0.80279E-02
 0.15434E-01 0.16918E-01 0.16155E-01 0.12812E-01 0.82204E-02 0.42478E-02 0.18462E-02 0.13645E-02 0.30617E-02 0.62189E-02
 0.87848E-02 0.91325E-02 0.75456E-02 0.52576E-02 0.30498E-02 0.16243E-02 0.21117E-02 0.49354E-02 0.89460E-02 0.12644E-01
 0.19332E-01 0.19650E-01 0.16999E-01 0.12158E-01 0.70632E-02 0.32745E-02 0.12620E-02 0.94853E-03 0.19399E-02 0.32130E-02
 0.36063E-02 0.29022E-02 0.18082E-02 0.94039E-03 0.59391E-03 0.13543E-02 0.38985E-02 0.80279E-02 0.12644E-01 0.16678E-01
 0.43530E-01 0.40383E-01 0.31003E-01 0.19446E-01 0.99775E-02 0.41388E-02 0.11698E-02 0.13523E-04 -.14892E-03 -.18719E-03
 -.46022E-03 -.51830E-03 -.14892E-03 0.17868E-03 0.75247E-03 0.34487E-02 0.99756E-02 0.19855E-01 0.30717E-01 0.39610E-01
 0.40383E-01 0.33989E-01 0.23771E-01 0.13647E-01 0.62269E-02 0.19023E-02 -.89078E-04 -.53079E-03 -.91501E-04 0.57929E-03
 0.10518E-02 0.11405E-02 0.77617E-03 0.36749E-03 0.12848E-02 0.53080E-02 0.13165E-01 0.23618E-01 0.33798E-01 0.40254E-01
 0.31003E-01 0.23771E-01 0.15054E-01 0.73063E-02 0.21553E-02 -.36123E-04 -.49290E-04 0.10282E-02 0.24119E-02 0.34227E-02
 0.33641E-02 0.21216E-02 0.58451E-03 0.12994E-03 0.19405E-02 0.68162E-02 0.14766E-01 0.24114E-01 0.31577E-01 0.34134E-01
 0.19446E-01 0.13647E-01 0.73063E-02 0.21800E-02 0.55533E-04 0.86939E-03 0.28278E-02 0.45575E-02 0.57368E-02 0.58702E-02
 0.43580E-02 0.19356E-02 0.38211E-03 0.67617E-03 0.28310E-02 0.71507E-02 0.13669E-01 0.20394E-01 0.24138E-01 0.23470E-01
 0.99775E-02 0.62269E-02 0.21553E-02 0.55533E-04 0.13287E-02 0.42215E-02 0.63006E-02 0.73342E-02 0.78597E-02 0.71273E-02
 0.47147E-02 0.22422E-02 0.13284E-02 0.16253E-02 0.26590E-02 0.54084E-02 0.99791E-02 0.13850E-01 0.14650E-01 0.12862E-01
 0.41388E-02 0.19023E-02 -.36123E-04 0.86939E-03 0.42215E-02 0.69727E-02 0.80691E-02 0.89690E-02 0.96842E-02 0.84497E-02
 0.54960E-02 0.31827E-02 0.21815E-02 0.12729E-02 0.85240E-03 0.26422E-02 0.58379E-02 0.74705E-02 0.67645E-02 0.54782E-02
 0.11698E-02 -.89078E-04 -.49290E-04 0.28278E-02 0.63006E-02 0.80691E-02 0.92973E-02 0.11221E-01 0.11782E-01 0.91611E-02
 0.54010E-02 0.30706E-02 0.15138E-02 -.34825E-03 -.89647E-03 0.10263E-02 0.30652E-02 0.28976E-02 0.17918E-02 0.15391E-02
 0.13523E-04 -.53079E-03 0.10282E-02 0.45575E-02 0.73342E-02 0.89690E-02 0.11221E-01 0.13129E-01 0.11637E-01 0.71800E-02
 0.35023E-02 0.18403E-02 0.26200E-03 -.13456E-02 -.93566E-03 0.95275E-03 0.13357E-02 -.45871E-04 -.59200E-03 0.10067E-03
 -.14892E-03 -.91501E-04 0.24119E-02 0.57368E-02 0.78597E-02 0.96842E-02 0.11782E-01 0.11637E-01 0.78625E-02 0.35451E-02
 0.17484E-02 0.11910E-02 -.15076E-03 -.97457E-03 0.11044E-03 0.10530E-02 -.49752E-04 -.13104E-02 -.68171E-03 0.27235E-03
 -.18719E-03 0.57929E-03 0.34227E-02 0.58702E-02 0.71273E-02 0.84497E-02 0.91611E-02 0.71800E-02 0.35451E-02 0.16167E-02
 0.17194E-02 0.12383E-02 -.14335E-03 -.19932E-03 0.98230E-03 0.92157E-03 -.39885E-03 -.50307E-03 0.67858E-03 0.75370E-03
 -.46022E-03 0.10518E-02 0.33641E-02 0.43580E-02 0.47147E-02 0.54960E-02 0.54010E-02 0.35023E-02 0.17484E-02 0.17194E-02
 0.18190E-02 0.58580E-03 -.30069E-03 0.70845E-03 0.18989E-02 0.14778E-02 0.78944E-03 0.13128E-02 0.15994E-02 0.36172E-03
 -.51830E-03 0.11405E-02 0.21216E-02 0.19356E-02 0.22422E-02 0.31827E-02 0.30706E-02 0.18403E-02 0.11910E-02 0.12383E-02
 0.58580E-03 -.32074E-03 0.42057E-03 0.24287E-02 0.33141E-02 0.26724E-02 0.22281E-02 0.21614E-02 0.10557E-02 -.56769E-03
 -.14892E-03 0.77617E-03 0.58451E-03 0.38211E-03 0.13284E-02 0.21815E-02 0.15138E-02 0.26200E-03 -.15076E-03 -.14335E-03
 -.30069E-03 0.42057E-03 0.25683E-02 0.43787E-02 0.42856E-02 0.32438E-02 0.25697E-02 0.16867E-02 0.76518E-04 -.86180E-03
 0.17868E-03 0.36749E-03 0.12994E-03 0.67617E-03 0.16253E-02 0.12729E-02 -.34825E-03 -.13456E-02 -.97457E-03 -.19932E-03
 0.70845E-03 0.24287E-02 0.43787E-02 0.49121E-02 0.39360E-02 0.29095E-02 0.22300E-02 0.10794E-02 -.24868E-03 -.48576E-03
 0.75247E-03 0.12848E-02 0.19405E-02 0.28310E-02 0.26590E-02 0.85240E-03 -.89647E-03 -.93566E-03 0.11044E-03 0.98230E-03
 0.18989E-02 0.33141E-02 0.42856E-02 0.39360E-02 0.30561E-02 0.25785E-02 0.19582E-02 0.65898E-03 -.32794E-03 -.65690E-04
 0.34487E-02 0.53080E-02 0.68162E-02 0.71507E-02 0.54084E-02 0.26422E-02 0.10263E-02 0.95275E-03 0.10530E-02 0.92157E-03
 0.14778E-02 0.26724E-02 0.32438E-02 0.29095E-02 0.25785E-02 0.23043E-02 0.12624E-02 -.12218E-03 -.23461E-03 0.13412E-02
 0.99756E-02 0.13165E-01 0.14766E-01 0.13669E-01 0.99791E-02 0.58379E-02 0.30652E-02 0.13357E-02 -.49752E-04 -.39885E-03
 0.78944E-03 0.22281E-02 0.25697E-02 0.22300E-02 0.19582E-02 0.12624E-02 -.47838E-04 -.36010E-03 0.18544E-02 0.58901E-02
 0.19855E-01 0.23618E-01 0.24114E-01 0.20394E-01 0.13850E-01 0.74705E-02 0.28976E-02 -.45871E-04 -.13104E-02 -.50307E-03
 0.13128E-02 0.21614E-02 0.16867E-02 0.10794E-02 0.65898E-03 -.12218E-03 -.36010E-03 0.20588E-02 0.75374E-02 0.14130E-01
 0.30717E-01 0.33798E-01 0.31577E-01 0.24138E-01 0.14650E-01 0.67645E-02 0.17918E-02 -.59200E-03 -.68171E-03 0.67858E-03
 0.15994E-02 0.10557E-02 0.76518E-04 -.24868E-03 -.32794E-03 -.23461E-03 0.18544E-02 0.75374E-02 0.15800E-01 0.24159E-01
 0.39610E-01 0.40254E-01 0.34134E-01 0.23470E-01 0.12862E-01 0.54782E-02 0.15391E-02 0.10067E-03 0.27235E-03 0.75370E-03
 0.36172E-03 -.56769E-03 -.86180E-03 -.48576E-03 -.65690E-04 0.13412E-02 0.58901E-02 0.14130E-01 0.24159E-01 0.33426E-01
 -.20530E-01 -.18483E-01 -.15254E-01 -.10825E-01 -.52837E-02 -.63565E-03 0.11642E-02 0.58817E-03 -.74801E-03 -.21815E-02
 -.32676E-02 -.28416E-02 -.74852E-03 0.10138E-02 0.58402E-03 -.17802E-02 -.52851E-02 -.10136E-01 -.15823E-01 -.19911E-01
 -.18483E-01 -.16093E-01 -.12198E-01 -.70262E-02 -.21418E-02 0.13570E-03 -.79026E-03 -.33125E-02 -.56606E-02 -.70066E-02
 -.67591E-02 -.46377E-02 -.17605E-02 -.14132E-03 -.77020E-03 -.32746E-02 -.72095E-02 -.12151E-01 -.16673E-01 -.18939E-01
 -.15254E-01 -.12198E-01 -.77404E-02 -.35137E-02 -.14912E-02 -.27252E-02 -.65676E-02 -.11187E-01 -.14685E-01 -.15772E-01
 -.14014E-01 -.10059E-01 -.55706E-02 -.24641E-02 -.19079E-02 -.39146E-02 -.76035E-02 -.11669E-01 -.14823E-01 -.16154E-01
 -.10825E-01 -.70262E-02 -.35137E-02 -.22519E-02 -.39915E-02 -.88627E-02 -.16275E-01 -.24007E-01 -.28864E-01 -.28895E-01
 -.24390E-01 -.17019E-01 -.91236E-02 -.34369E-02 -.17742E-02 -.35810E-02 -.67403E-02 -.97354E-02 -.12003E-01 -.12685E-01
 -.52837E-02 -.21418E-02 -.14912E-02 -.39915E-02 -.96456E-02 -.19195E-01 -.31628E-01 -.42328E-01 -.46385E-01 -.42671E-01
 -.33295E-01 -.21135E-01 -.96433E-02 -.25811E-02 -.12139E-02 -.30878E-02 -.52796E-02 -.71574E-02 -.86104E-02 -.81869E-02
 -.63565E-03 0.13570E-03 -.27252E-02 -.88627E-02 -.19195E-01 -.34568E-01 -.50977E-01 -.60852E-01 -.60094E-01 -.50572E-01
 -.36132E-01 -.20307E-01 -.75145E-02 -.14254E-02 -.11050E-02 -.23618E-02 -.31422E-02 -.41534E-02 -.48602E-02 -.34137E-02
 0.11642E-02 -.79026E-03 -.65676E-02 -.16275E-01 -.31628E-01 -.50977E-01 -.66502E-01 -.70820E-01 -.63773E-01 -.49823E-01
 -.32693E-01 -.16010E-01 -.46987E-02 -.84867E-03 -.98193E-03 -.10379E-02 -.10815E-02 -.21290E-02 -.23717E-02 -.42181E-03
 0.58817E-03 -.33125E-02 -.11187E-01 -.24007E-01 -.42328E-01 -.60852E-01 -.70820E-01 -.68709E-01 -.57937E-01 -.42601E-01
 -.25258E-01 -.10209E-01 -.21721E-02 -.63721E-03 -.82683E-03 -.62438E-03 -.14910E-02 -.29658E-02 -.22752E-02 0.21216E-03
 -.74801E-03 -.56606E-02 -.14685E-01 -.28864E-01 -.46385E-01 -.60094E-01 -.63773E-01 -.57937E-01 -.46379E-01 -.31309E-01
 -.15489E-01 -.43118E-02 -.75305E-03 -.16056E-02 -.26185E-02 -.37437E-02 -.57798E-02 -.63041E-02 -.34744E-02 -.25587E-03
 -.21815E-02 -.70066E-02 -.15772E-01 -.28895E-01 -.42671E-01 -.50572E-01 -.49823E-01 -.42601E-01 -.31309E-01 -.17675E-01
 -.59273E-02 -.92211E-03 -.23850E-02 -.56874E-02 -.83247E-02 -.10899E-01 -.12333E-01 -.99346E-02 -.46727E-02 -.12058E-02
 -.32676E-02 -.67591E-02 -.14014E-01 -.24390E-01 -.33295E-01 -.36132E-01 -.32693E-01 -.25258E-01 -.15489E-01 -.59273E-02
 -.98600E-03 -.27518E-02 -.82111E-02 -.13373E-01 -.17314E-01 -.19759E-01 -.18502E-01 -.12775E-01 -.61686E-02 -.28145E-02
 -.28416E-02 -.46377E-02 -.10059E-01 -.17019E-01 -.21135E-01 -.20307E-01 -.16010E-01 -.10209E-01 -.43118E-02 -.92211E-03
 -.27518E-02 -.91567E-02 -.16641E-01 -.22809E-01 -.26968E-01 -.27572E-01 -.22993E-01 -.14994E-01 -.78845E-02 -.39696E-02
 -.74852E-03 -.17605E-02 -.55706E-02 -.91236E-02 -.96433E-02 -.75145E-02 -.46987E-02 -.21721E-02 -.75305E-03 -.23850E-02
 -.82111E-02 -.16641E-01 -.24989E-01 -.31528E-01 -.34672E-01 -.32461E-01 -.24989E-01 -.15633E-01 -.79759E-02 -.30324E-02
 0.10138E-02 -.14132E-03 -.24641E-02 -.34369E-02 -.25811E-02 -.14254E-02 -.84867E-03 -.63721E-03 -.16056E-02 -.56874E-02
 -.13373E-01 -.22809E-01 -.31528E-01 -.37382E-01 -.38156E-01 -.32751E-01 -.23123E-01 -.13192E-01 -.55663E-02 -.77160E-03
 0.58402E-03 -.77020E-03 -.19079E-02 -.17742E-02 -.12139E-02 -.11050E-02 -.98193E-03 -.82683E-03 -.26185E-02 -.83247E-02
 -.17314E-01 -.26968E-01 -.34672E-01 -.38156E-01 -.35658E-01 -.27640E-01 -.17414E-01 -.86213E-02 -.27540E-02 0.23625E-03
 -.17802E-02 -.32746E-02 -.39146E-02 -.35810E-02 -.30878E-02 -.23618E-02 -.10379E-02 -.62438E-03 -.37437E-02 -.10899E-01
 -.19759E-01 -.27572E-01 -.32461E-01 -.32751E-01 -.27640E-01 -.19022E-01 -.10637E-01 -.48860E-02 -.18186E-02 -.90797E-03
 -.52851E-02 -.72095E-02 -.76035E-02 -.67403E-02 -.52796E-02 -.31422E-02 -.10815E-02 -.14910E-02 -.57798E-02 -.12333E-01
 -.18502E-01 -.22993E-01 -.24989E-01 -.23123E-01 -.17414E-01 -.10637E-01 -.57810E-02 -.33445E-02 -.25113E-02 -.32135E-02
 -.10136E-01 -.12151E-01 -.11669E-01 -.97354E-02 -.71574E-02 -.41534E-02 -.21290E-02 -.29658E-02 -.63041E-02 -.99346E-02
 -.12775E-01 -.14994E-01 -.15633E-01 -.13192E-01 -.86213E-02 -.48860E-02 -.33445E-02 -.31432E-02 -.40025E-02 -.66173E-02
 -.15823E-01 -.16673E-01 -.14823E-01 -.12003E-01 -.86104E-02 -.48602E-02 -.23717E-02 -.22752E-02 -.34744E-02 -.46727E-02
 -.61686E-02 -.78845E-02 -.79759E-02 -.55663E-02 -.27540E-02 -.18186E-02 -.25113E-02 -.40025E-02 -.70379E-02 -.11794E-01
 -.19911E-01 -.18939E-01 -.16154E-01 -.12685E-01 -.81869E-02 -.34137E-02 -.42181E-03 0.21216E-03 -.25587E-03 -.12058E-02
 -.28145E-02 -.39696E-02 -.30324E-02 -.77160E-03 0.23625E-03 -.90797E-03 -.32135E-02 -.66173E-02 -.11794E-01 -.17249E-01
 -.43668E-01 -.39227E-01 -.30919E-01 -.20521E-01 -.97562E-02 -.19225E-02 0.99837E-03 0.87279E-03 0.46252E-03 0.50410E-04
 -.81698E-03 -.93937E-03 0.46245E-03 0.15613E-02 0.25659E-03 -.35220E-02 -.97571E-02 -.19551E-01 -.31772E-01 -.41311E-01
 -.39227E-01 -.33253E-01 -.24090E-01 -.13533E-01 -.45654E-02 -.14386E-03 0.26557E-04 -.98928E-03 -.12955E-02 -.13217E-02
 -.12994E-02 -.48133E-03 0.80895E-03 0.86803E-03 -.13397E-02 -.59129E-02 -.13416E-01 -.23842E-01 -.34223E-01 -.40011E-01
 -.30919E-01 -.24090E-01 -.15072E-01 -.67399E-02 -.17664E-02 -.72381E-03 -.16668E-02 -.23765E-02 -.23873E-02 -.22655E-02
 -.19997E-02 -.12139E-02 -.30542E-03 -.36819E-03 -.23874E-02 -.70529E-02 -.14508E-01 -.23373E-01 -.30631E-01 -.33440E-01
 -.20521E-01 -.13533E-01 -.67399E-02 -.25364E-02 -.11278E-02 -.14804E-02 -.26024E-02 -.37855E-02 -.45453E-02 -.47430E-02
 -.43541E-02 -.31973E-02 -.15140E-02 -.63988E-03 -.22331E-02 -.67180E-02 -.12982E-01 -.19291E-01 -.23760E-01 -.24455E-01
 -.97562E-02 -.45654E-02 -.17664E-02 -.11278E-02 -.12530E-02 -.23793E-02 -.50053E-02 -.77250E-02 -.87707E-02 -.82045E-02
 -.67549E-02 -.42790E-02 -.12486E-02 0.12360E-03 -.17126E-02 -.56365E-02 -.97517E-02 -.13352E-01 -.15546E-01 -.14419E-01
 -.19225E-02 -.14386E-03 -.72381E-03 -.14804E-02 -.23793E-02 -.54961E-02 -.10125E-01 -.12685E-01 -.11883E-01 -.96941E-02
 -.71455E-02 -.35642E-02 -.97254E-04 0.56633E-03 -.15738E-02 -.38780E-02 -.53486E-02 -.68672E-02 -.75727E-02 -.55293E-02
 0.99837E-03 0.26557E-04 -.16668E-02 -.26024E-02 -.50053E-02 -.10125E-01 -.14341E-01 -.14182E-01 -.11369E-01 -.89073E-02
 -.62323E-02 -.23137E-02 0.50499E-03 0.16584E-03 -.12279E-02 -.12041E-02 -.96825E-03 -.19545E-02 -.22757E-02 -.48581E-03
 0.87279E-03 -.98928E-03 -.23765E-02 -.37855E-02 -.77250E-02 -.12685E-01 -.14182E-01 -.11871E-01 -.95252E-02 -.81174E-02
 -.52305E-02 -.12320E-02 0.49706E-03 -.21944E-03 -.12499E-03 0.12413E-02 0.11443E-02 -.42384E-03 -.51628E-03 0.91580E-03
 0.46252E-03 -.12955E-02 -.23873E-02 -.45453E-02 -.87707E-02 -.11883E-01 -.11369E-01 -.95252E-02 -.87663E-02 -.72460E-02
 -.33333E-02 0.12059E-03 0.45676E-03 -.16420E-03 0.81700E-03 0.16265E-02 0.23722E-03 -.11296E-02 -.10273E-03 0.12862E-02
 0.50410E-04 -.13217E-02 -.22655E-02 -.47430E-02 -.82045E-02 -.96941E-02 -.89073E-02 -.81174E-02 -.72460E-02 -.42670E-02
 -.30413E-03 0.11445E-02 0.57411E-04 -.35759E-03 0.40391E-03 -.84472E-04 -.16307E-02 -.13301E-02 0.79274E-03 0.15170E-02
 -.81698E-03 -.12994E-02 -.19997E-02 -.43541E-02 -.67549E-02 -.71455E-02 -.62323E-02 -.52305E-02 -.33333E-02 -.30413E-03
 0.14657E-02 0.49980E-03 -.10825E-02 -.12242E-02 -.11482E-02 -.21234E-02 -.24153E-02 -.63237E-03 0.11037E-02 0.60009E-03
 -.93937E-03 -.48133E-03 -.12139E-02 -.31973E-02 -.42790E-02 -.35642E-02 -.23137E-02 -.12320E-02 0.12059E-03 0.11445E-02
 0.49980E-03 -.12670E-02 -.22617E-02 -.23451E-02 -.28279E-02 -.33939E-02 -.25127E-02 -.70555E-03 -.96323E-04 -.78235E-03
 0.46245E-03 0.80895E-03 -.30542E-03 -.15140E-02 -.12486E-02 -.97254E-04 0.50499E-03 0.49706E-03 0.45676E-03 0.57411E-04
 -.10825E-02 -.22617E-02 -.28727E-02 -.34384E-02 -.42024E-02 -.41710E-02 -.28748E-02 -.15109E-02 -.99019E-03 -.52261E-03
 0.15613E-02 0.86803E-03 -.36819E-03 -.63988E-03 0.12360E-03 0.56633E-03 0.16584E-03 -.21944E-03 -.16420E-03 -.35759E-03
 -.12242E-02 -.23451E-02 -.34384E-02 -.45363E-02 -.51111E-02 -.44180E-02 -.27765E-02 -.12325E-02 -.68542E-04 0.10141E-02
 0.25659E-03 -.13397E-02 -.23874E-02 -.22331E-02 -.17126E-02 -.15738E-02 -.12279E-02 -.12499E-03 0.81700E-03 0.40391E-03
 -.11482E-02 -.28279E-02 -.42024E-02 -.51111E-02 -.49486E-02 -.34374E-02 -.14072E-02 0.13438E-03 0.98403E-03 0.11329E-02
 -.35220E-02 -.59129E-02 -.70529E-02 -.67180E-02 -.56365E-02 -.38780E-02 -.12041E-02 0.12413E-02 0.16265E-02 -.84472E-04
 -.21234E-02 -.33939E-02 -.41710E-02 -.44180E-02 -.34374E-02 -.14737E-02 0.10238E-03 0.51720E-03 0.38406E-04 -.12595E-02
 -.97571E-02 -.13416E-01 -.14508E-01 -.12982E-01 -.97517E-02 -.53486E-02 -.96825E-03 0.11443E-02 0.23722E-03 -.16307E-02
 -.24153E-02 -.25127E-02 -.28748E-02 -.27765E-02 -.14072E-02 0.10238E-03 0.23327E-03 -.87021E-03 -.26187E-02 -.55415E-02
 -.19551E-01 -.23842E-01 -.23373E-01 -.19291E-01 -.13352E-01 -.68672E-02 -.19545E-02 -.42384E-03 -.11296E-02 -.13301E-02
 -.63237E-03 -.70555E-03 -.15109E-02 -.12325E-02 0.13438E-03 0.51720E-03 -.87021E-03 -.31453E-02 -.66292E-02 -.12548E-01
 -.31772E-01 -.34223E-01 -.30631E-01 -.23760E-01 -.15546E-01 -.75727E-02 -.22757E-02 -.51628E-03 -.10273E-03 0.79274E-03
 0.11037E-02 -.96323E-04 -.99019E-03 -.68542E-04 0.98403E-03 0.38406E-04 -.26187E-02 -.66292E-02 -.13548E-01 -.23362E-01
 -.41311E-01 -.40011E-01 -.33440E-01 -.24455E-01 -.14419E-01 -.55293E-02 -.48581E-03 0.91580E-03 0.12862E-02 0.15170E-02
 0.60009E-03 -.78235E-03 -.52261E-03 0.10141E-02 0.11329E-02 -.12595E-02 -.55415E-02 -.12548E-01 -.23362E-01 -.34925E-01
 0.20852E-01 0.20730E-01 0.15984E-01 0.97265E-02 0.56488E-02 0.33600E-02 0.11709E-02 0.38119E-04 0.10910E-02 0.24359E-02
 0.20658E-02 0.11160E-02 0.10916E-02 0.99040E-03 0.26770E-03 0.13052E-02 0.56485E-02 0.10977E-01 0.14846E-01 0.17987E-01
 0.20730E-01 0.17734E-01 0.11915E-01 0.69487E-02 0.41135E-02 0.19681E-02 0.49560E-03 0.14724E-02 0.45061E-02 0.66398E-02
 0.64374E-02 0.51128E-02 0.35184E-02 0.15305E-02 0.48258E-03 0.25517E-02 0.73667E-02 0.12364E-01 0.16373E-01 0.19616E-01