unknown system                          
   1.00000000000000     
     2.573869    0.000000    0.000000
     1.286934    2.229036    0.000000
     0.000000    0.000000   30.304665
   Cu   H 
     4     1
Direct
  0.000000  0.000000  0.398815
  0.333333  0.333333  0.467250
  0.666667  0.666667  0.536042
  0.000000  0.000000  0.605684
  0.000000  0.000000  0.658927
 
   20   20  240
 -.20507296860E-01 -.19775661661E-01 -.15811778268E-01 -.10256427551E-01 -.52659982260E-02
 -.15215721176E-02 0.85671830242E-03 0.11163608265E-02 -.74648501682E-03 -.28317671378E-02
 -.32544650365E-02 -.21743694806E-02 -.74695538342E-03 0.49313097117E-03 0.92151328093E-03
 -.84881594600E-03 -.52655647115E-02 -.10684235209E-01 -.15246548388E-01 -.18583503001E-01
 -.19775661661E-01 -.17117332241E-01 -.11672456595E-01 -.62643846616E-02 -.25743621892E-02
 -.47976743332E-03 -.25904084585E-03 -.25192286192E-02 -.58433383509E-02 -.73800347539E-02
 -.62294072263E-02 -.39791921005E-02 -.19475422637E-02 -.38517494153E-03 -.23793337203E-03
 -.28539879808E-02 -.76426758471E-02 -.12422436463E-01 -.16139529772E-01 -.18920408929E-01
 -.15811778268E-01 -.11672456595E-01 -.65931364527E-02 -.32604965347E-02 -.20377282224E-02
 -.25953849534E-02 -.56699843812E-02 -.10910111562E-01 -.15238404137E-01 -.15891276022E-01
 -.13436408606E-01 -.99165875972E-02 -.61255126183E-02 -.27153233095E-02 -.16467104647E-02
 -.40181935881E-02 -.81604640700E-02 -.11889474227E-01 -.14807309697E-01 -.16658132528E-01
 -.10256427551E-01 -.62643846616E-02 -.32604965347E-02 -.26896245151E-02 -.42688642012E-02
 -.85027864522E-02 -.16038880530E-01 -.24499732850E-01 -.29409817574E-01 -.28782315134E-01
 -.24149766006E-01 -.17377511679E-01 -.96663194722E-02 -.34444146045E-02 -.15156538525E-02
 -.36831586074E-02 -.70356231228E-02 -.97292710011E-02 -.11759278200E-01 -.12387927540E-01
 -.52659982262E-02 -.25743621893E-02 -.20377282225E-02 -.42688642013E-02 -.96261194629E-02
 -.19233320610E-01 -.31945790919E-01 -.42656797822E-01 -.46373254931E-01 -.42459598990E-01
 -.33291028101E-01 -.21331883555E-01 -.96286684675E-02 -.22169320000E-02 -.85850906464E-03
 -.30164163594E-02 -.52707055094E-02 -.68533262315E-02 -.80347277218E-02 -.77210286665E-02
 -.15215721178E-02 -.47976743339E-03 -.25953849534E-02 -.85027864523E-02 -.19233320610E-01
 -.34791451907E-01 -.50853542380E-01 -.60462223086E-01 -.59875584757E-01 -.50546655140E-01
 -.36009410222E-01 -.20054278374E-01 -.72976216153E-02 -.12581164057E-02 -.96147449621E-03
 -.23333961153E-02 -.31720244382E-02 -.40273371317E-02 -.47328765623E-02 -.37968001082E-02
 0.85671830230E-03 -.25904084603E-03 -.56699843814E-02 -.16038880530E-01 -.31945790919E-01
 -.50853542380E-01 -.65850407420E-01 -.70549090669E-01 -.64093051112E-01 -.49946630603E-01
 -.32356180995E-01 -.15869016371E-01 -.50224662391E-02 -.11165862783E-02 -.96965491919E-03
 -.11302589520E-02 -.13789460626E-02 -.23426555375E-02 -.26016937672E-02 -.92575534426E-03
 0.11163608263E-02 -.25192286193E-02 -.10910111562E-01 -.24499732850E-01 -.42656797822E-01
 -.60462223086E-01 -.70549090670E-01 -.69246190120E-01 -.58530703290E-01 -.42455091719E-01
 -.24972058498E-01 -.10596845240E-01 -.27659319100E-02 -.64122983007E-03 -.55767113034E-03
 -.76283078926E-03 -.18047056860E-02 -.29091455626E-02 -.19940193288E-02 0.46778874619E-03
 -.74648501705E-03 -.58433383510E-02 -.15238404137E-01 -.29409817574E-01 -.46373254930E-01
 -.59875584757E-01 -.64093051112E-01 -.58530703290E-01 -.46374737327E-01 -.30838174672E-01
 -.15475730697E-01 -.47583610359E-02 -.74125162823E-03 -.10040982487E-02 -.22941228332E-02
 -.39509869268E-02 -.57681531549E-02 -.57284895573E-02 -.28976055761E-02 -.63241999520E-04
 -.28317671379E-02 -.73800347540E-02 -.15891276022E-01 -.28782315134E-01 -.42459598990E-01
 -.50546655140E-01 -.49946630603E-01 -.42455091719E-01 -.30838174672E-01 -.17402971800E-01
 -.60550479227E-02 -.90912427871E-03 -.19046959768E-02 -.52700518393E-02 -.84513805264E-02
 -.11147679176E-01 -.12127771704E-01 -.95597127360E-02 -.47961829963E-02 -.18488899754E-02
 -.32544650367E-02 -.62294072262E-02 -.13436408606E-01 -.24149766007E-01 -.33291028101E-01
 -.36009410222E-01 -.32356180995E-01 -.24972058498E-01 -.15475730697E-01 -.60550479227E-02
 -.98171994216E-03 -.26074426260E-02 -.81938865202E-02 -.13625675925E-01 -.17628807550E-01
 -.19873091321E-01 -.18498198158E-01 -.12997710597E-01 -.67200061728E-02 -.33168214360E-02
 -.21743694807E-02 -.39791921006E-02 -.99165875973E-02 -.17377511679E-01 -.21331883555E-01
 -.20054278374E-01 -.15869016372E-01 -.10596845241E-01 -.47583610359E-02 -.90912427871E-03
 -.26074426262E-02 -.94132959693E-02 -.17092157616E-01 -.22935055053E-01 -.26830883144E-01
 -.27586805142E-01 -.23186940316E-01 -.15076993056E-01 -.77308123149E-02 -.35693531646E-02
 -.74695538366E-03 -.19475422639E-02 -.61255126183E-02 -.96663194725E-02 -.96286684675E-02
 -.72976216152E-02 -.50224662390E-02 -.27659319101E-02 -.74125162812E-03 -.19046959768E-02
 -.81938865201E-02 -.17092157616E-01 -.24983687272E-01 -.30929101105E-01 -.34348283091E-01
 -.32671365528E-01 -.24982181370E-01 -.15056780852E-01 -.73912334544E-02 -.28326097056E-02
 0.49313097107E-03 -.38517494156E-03 -.27153233093E-02 -.34444146045E-02 -.22169320001E-02
 -.12581164057E-02 -.11165862784E-02 -.64122983002E-03 -.10040982487E-02 -.52700518393E-02
 -.13625675925E-01 -.22935055053E-01 -.30929101105E-01 -.36843575845E-01 -.38422433480E-01
 -.33134164919E-01 -.22783935968E-01 -.12682390800E-01 -.58238487475E-02 -.15506298529E-02
 0.92151328091E-03 -.23793337186E-03 -.16467104649E-02 -.15156538525E-02 -.85850906453E-03
 -.96147449614E-03 -.96965491927E-03 -.55767113041E-03 -.22941228332E-02 -.84513805264E-02
 -.17628807550E-01 -.26830883145E-01 -.34348283091E-01 -.38422433480E-01 -.36300692698E-01
 -.27752685294E-01 -.17088322343E-01 -.88506127241E-02 -.36366038075E-02 -.26946547121E-03
 -.84881594617E-03 -.28539879810E-02 -.40181935882E-02 -.36831586075E-02 -.30164163592E-02
 -.23333961153E-02 -.11302589521E-02 -.76283078934E-03 -.39509869268E-02 -.11147679176E-01
 -.19873091321E-01 -.27586805143E-01 -.32671365528E-01 -.33134164919E-01 -.27752685294E-01
 -.18781956735E-01 -.10580244868E-01 -.52270380322E-02 -.19234835621E-02 -.25452484873E-03
 -.52655647117E-02 -.76426758472E-02 -.81604640700E-02 -.70356231230E-02 -.52707055093E-02
 -.31720244382E-02 -.13789460627E-02 -.18047056859E-02 -.57681531550E-02 -.12127771704E-01
 -.18498198158E-01 -.23186940316E-01 -.24982181370E-01 -.22783935968E-01 -.17088322343E-01
 -.10580244868E-01 -.57659435364E-02 -.30267407233E-02 -.19276502054E-02 -.27454664489E-02
 -.10684235209E-01 -.12422436464E-01 -.11889474227E-01 -.97292710013E-02 -.68533262313E-02
 -.40273371316E-02 -.23426555373E-02 -.29091455625E-02 -.57284895572E-02 -.95597127359E-02
 -.12997710597E-01 -.15076993056E-01 -.15056780852E-01 -.12682390800E-01 -.88506127242E-02
 -.52270380321E-02 -.30267407231E-02 -.26575341741E-02 -.42203259342E-02 -.73584926349E-02
 -.15246548389E-01 -.16139529772E-01 -.14807309697E-01 -.11759278200E-01 -.80347277217E-02
 -.47328765621E-02 -.26016937672E-02 -.19940193286E-02 -.28976055760E-02 -.47961829961E-02
 -.67200061727E-02 -.77308123146E-02 -.73912334540E-02 -.58238487473E-02 -.36366038075E-02
 -.19234835620E-02 -.19276502052E-02 -.42203259341E-02 -.81635440200E-02 -.12306565392E-01
 -.18583503001E-01 -.18920408929E-01 -.16658132528E-01 -.12387927540E-01 -.77210286661E-02
 -.37968001081E-02 -.92575534408E-03 0.46778874637E-03 -.63241999317E-04 -.18488899752E-02
 -.33168214357E-02 -.35693531643E-02 -.28326097054E-02 -.15506298528E-02 -.26946547104E-03
 -.25452484849E-03 -.27454664485E-02 -.73584926349E-02 -.12306565392E-01 -.16203351685E-01
 -.42742371721E-01 -.39669631739E-01 -.30772216045E-01 -.19450572672E-01 -.94499591625E-02
 -.26938693877E-02 0.70919975707E-03 0.14088748646E-02 0.52044285210E-03 -.48426121544E-03
 -.66278585158E-03 -.15678852071E-03 0.52094071228E-03 0.10506470074E-02 0.61497525782E-03
 -.24753659077E-02 -.94511186983E-02 -.19600292819E-01 -.30491610697E-01 -.39133243207E-01
 -.39669631738E-01 -.33526795970E-01 -.22989437853E-01 -.12407355527E-01 -.48240498864E-02
 -.69604140535E-03 0.61985828854E-03 -.42587291276E-04 -.12005657004E-02 -.13324698751E-02
 -.40867205962E-03 0.45149716306E-03 0.77336209517E-03 0.68711820524E-03 -.74182212856E-03
 -.53168108062E-02 -.13485099349E-01 -.23538379704E-01 -.32938169781E-01 -.39142402901E-01
 -.30772216045E-01 -.22989437853E-01 -.13532922312E-01 -.62733348279E-02 -.22009460420E-02
 -.44701978700E-03 -.44504876966E-03 -.15209513741E-02 -.21412878909E-02 -.14990500884E-02
 -.62465662413E-03 -.49553557396E-03 -.53758559066E-03 -.47255850104E-03 -.20137627996E-02
 -.69421465574E-02 -.14672103232E-01 -.23017843376E-01 -.29910470786E-01 -.33193122154E-01
 -.19450572673E-01 -.12407355527E-01 -.62733348280E-02 -.28419544526E-02 -.11991028803E-02
 -.64472183907E-03 -.14729601503E-02 -.29583523586E-02 -.35014123741E-02 -.30394410270E-02
 -.27921323729E-02 -.26613538591E-02 -.15814883961E-02 -.44343766299E-03 -.18435109403E-02
 -.66065723553E-02 -.12913891926E-01 -.18784613414E-01 -.22937323735E-01 -.23577927780E-01
 -.94499591630E-02 -.48240498865E-02 -.22009460423E-02 -.11991028803E-02 -.69704663303E-03
 -.13238110251E-02 -.35795162719E-02 -.57837156688E-02 -.62865087052E-02 -.57211179506E-02
 -.50034430606E-02 -.33808429874E-02 -.69904327733E-03 0.69149607401E-03 -.12452560557E-02
 -.53901011101E-02 -.94553249280E-02 -.12670784294E-01 -.14558876675E-01 -.13573891082E-01
 -.26938693880E-02 -.69604140546E-03 -.44701978712E-03 -.64472183917E-03 -.13238110251E-02
 -.38105746676E-02 -.73083158468E-02 -.91200337892E-02 -.84915289043E-02 -.69775222306E-02
 -.51131419199E-02 -.22162383965E-02 0.59453670003E-03 0.87969808481E-03 -.13653475898E-02
 -.37323443238E-02 -.51797684121E-02 -.64905186954E-02 -.71947822753E-02 -.57147511858E-02
 0.70919975694E-03 0.61985828837E-03 -.44504876989E-03 -.14729601505E-02 -.35795162720E-02
 -.73083158467E-02 -.10244854465E-01 -.10183627042E-01 -.82484613704E-02 -.63403700743E-02
 -.41501273717E-02 -.12780929656E-02 0.50429289428E-03 -.40702581920E-04 -.11956093304E-02
 -.12193034324E-02 -.11238126066E-02 -.20002808179E-02 -.23646050068E-02 -.91474791894E-03
 0.14088748644E-02 -.42587291450E-04 -.15209513744E-02 -.29583523588E-02 -.57837156687E-02
 -.91200337892E-02 -.10183627042E-01 -.86813818066E-02 -.69458028827E-02 -.56998915704E-02
 -.36230095359E-02 -.10421377295E-02 0.55415633856E-04 -.21549426931E-03 0.17557061401E-03
 0.12126363313E-02 0.99875164170E-03 -.19720977454E-03 -.12246967670E-03 0.12034888324E-02
 0.52044285181E-03 -.12005657006E-02 -.21412878910E-02 -.35014123744E-02 -.62865087050E-02
 -.84915289042E-02 -.82484613705E-02 -.69458028827E-02 -.62875751213E-02 -.51838889205E-02
 -.25208229565E-02 -.49620884198E-04 0.52563538656E-03 0.49744083807E-03 0.13067072291E-02
 0.16911943075E-02 0.56587096922E-03 -.27774313379E-03 0.64224509338E-03 0.15381731411E-02
 -.48426121553E-03 -.13324698752E-02 -.14990500886E-02 -.30394410272E-02 -.57211179504E-02
 -.69775222305E-02 -.63403700743E-02 -.56998915705E-02 -.51838889205E-02 -.31090734278E-02
 -.70723291632E-04 0.12726031097E-02 0.66041880747E-03 0.33962896769E-03 0.74320029278E-03
 0.25265979298E-03 -.83942507202E-03 -.48914789788E-03 0.94686294137E-03 0.99429958696E-03
 -.66278585179E-03 -.40867205955E-03 -.62465662421E-03 -.27921323730E-02 -.50034430607E-02
 -.51131419198E-02 -.41501273716E-02 -.36230095358E-02 -.25208229564E-02 -.70723291557E-04
 0.16094074387E-02 0.81240643332E-03 -.67878098518E-03 -.80042499788E-03 -.55121840395E-03
 -.12360237830E-02 -.15007469469E-02 -.18120343614E-03 0.93653474317E-03 0.26628494441E-03
 -.15678852087E-03 0.45149716305E-03 -.49553557406E-03 -.26613538594E-02 -.33808429875E-02
 -.22162383964E-02 -.12780929658E-02 -.10421377296E-02 -.49620884262E-04 0.12726031097E-02
 0.81240643325E-03 -.10947998431E-02 -.19030923369E-02 -.12938211040E-02 -.12884823062E-02
 -.20064403734E-02 -.15286226100E-02 0.21330903760E-04 0.48722016328E-03 -.21209146023E-03
 0.52094071210E-03 0.77336209504E-03 -.53758559065E-03 -.15814883963E-02 -.69904327730E-03
 0.59453670007E-03 0.50429289438E-03 0.55415633877E-04 0.52563538667E-03 0.66041880745E-03
 -.67878098497E-03 -.19030923368E-02 -.15882100745E-02 -.11930188597E-02 -.20923850594E-02
 -.27330469800E-02 -.15865685636E-02 -.12375818116E-03 -.18568139613E-04 -.19960117992E-03
 0.10506470073E-02 0.68711820525E-03 -.47255850090E-03 -.44343766311E-03 0.69149607397E-03
 0.87969808484E-03 -.40702581913E-04 -.21549426924E-03 0.49744083812E-03 0.33962896777E-03
 -.80042499766E-03 -.12938211039E-02 -.11930188596E-02 -.20670302556E-02 -.34452138301E-02
 -.31534577087E-02 -.12604467760E-02 -.49739432438E-04 -.47658661366E-04 0.29609488614E-03
 0.61497525779E-03 -.74182212845E-03 -.20137627996E-02 -.18435109403E-02 -.12452560555E-02
 -.13653475897E-02 -.11956093304E-02 0.17557061391E-03 0.13067072292E-02 0.74320029267E-03
 -.55121840403E-03 -.12884823061E-02 -.20923850593E-02 -.34452138306E-02 -.38039465864E-02
 -.21482022733E-02 -.17116185492E-03 0.36920759421E-03 0.26639120654E-03 0.65933417076E-03
 -.24753659080E-02 -.53168108066E-02 -.69421465577E-02 -.66065723556E-02 -.53901011100E-02
 -.37323443237E-02 -.12193034325E-02 0.12126363312E-02 0.16911943075E-02 0.25265979283E-03
 -.12360237832E-02 -.20064403731E-02 -.27330469800E-02 -.31534577086E-02 -.21482022733E-02
 -.23075909765E-03 0.74765223537E-03 0.45000551072E-03 0.42178648826E-04 -.53208182277E-03
 -.94511186985E-02 -.13485099349E-01 -.14672103232E-01 -.12913891926E-01 -.94553249278E-02
 -.51797684121E-02 -.11238126068E-02 0.99875164183E-03 0.56587096920E-03 -.83942507204E-03
 -.15007469470E-02 -.15286226100E-02 -.15865685637E-02 -.12604467760E-02 -.17116185489E-03
 0.74765223532E-03 0.56876677341E-03 -.38254350372E-03 -.18947565063E-02 -.48775618242E-02
 -.19600292819E-01 -.23538379705E-01 -.23017843376E-01 -.18784613414E-01 -.12670784294E-01
 -.64905186956E-02 -.20002808178E-02 -.19720977431E-03 -.27774313365E-03 -.48914789765E-03
 -.18120343582E-03 0.21330903877E-04 -.12375818090E-03 -.49739432253E-04 0.36920759402E-03
 0.45000551079E-03 -.38254350360E-03 -.24894813201E-02 -.65940938259E-02 -.12911581969E-01
 -.30491610697E-01 -.32938169782E-01 -.29910470786E-01 -.22937323735E-01 -.14558876675E-01
 -.71947822752E-02 -.23646050067E-02 -.12246967653E-03 0.64224509366E-03 0.94686294158E-03
 0.93653474326E-03 0.48722016353E-03 -.18568139378E-04 -.47658661259E-04 0.26639120649E-03
 0.42178648854E-04 -.18947565061E-02 -.65940938259E-02 -.14260241397E-01 -.23295721963E-01
 -.39133243207E-01 -.39142402902E-01 -.33193122154E-01 -.23577927780E-01 -.13573891082E-01
 -.57147511856E-02 -.91474791876E-03 0.12034888326E-02 0.15381731413E-02 0.99429958723E-03
 0.26628494463E-03 -.21209145996E-03 -.19960117970E-03 0.29609488622E-03 0.65933417087E-03
 -.53208182251E-03 -.48775618238E-02 -.12911581969E-01 -.23295721963E-01 -.33127143258E-01
 0.20891476773E-01 0.19450869324E-01 0.15436992342E-01 0.10301307032E-01 0.56657695567E-02
 0.24682442465E-02 0.85956748018E-03 0.56660125154E-03 0.10906556852E-02 0.17762129778E-02
 0.20656299885E-02 0.17740842497E-02 0.10913681372E-02 0.47144467841E-03 0.60489294684E-03
 0.22325188258E-02 0.56637219995E-02 0.10430310722E-01 0.15433688429E-01 0.19332170031E-01
 0.19450869324E-01 0.16719945643E-01 0.12449134627E-01 0.77142504849E-02 0.36778660329E-02
 0.13468753945E-02 0.10242443950E-02 0.22663079897E-02 0.43214327396E-02 0.62583803994E-02
 0.69561080227E-02 0.57629151442E-02 0.33279836997E-02 0.12867600435E-02 0.10154281864E-02
 0.29720163054E-02 0.69345115458E-02 0.12098400686E-01 0.16918355814E-01 0.19650082297E-01
 0.15436992343E-01 0.12449134627E-01 0.85041669713E-02 0.43184423495E-02 0.16635204591E-02
 0.21031514019E-02 0.54623952191E-02 0.10266996725E-01 0.14832648095E-01 0.17312393324E-01
 0.16066100151E-01 0.11325755408E-01 0.57330058829E-02 0.21731365987E-02 0.16490264705E-02
 0.37388640414E-02 0.77908225053E-02 0.12606829762E-01 0.16155002292E-01 0.16998976150E-01
 0.10301307032E-01 0.77142504845E-02 0.43184423495E-02 0.17434666457E-02 0.28827842388E-02
 0.86692693341E-02 0.17066292745E-01 0.25193333326E-01 0.30577692497E-01 0.30874990361E-01
 0.25176245176E-01 0.16026075528E-01 0.79570909685E-02 0.35700022731E-02 0.25675766415E-02
 0.40745548573E-02 0.74726787504E-02 0.11108163545E-01 0.12811956580E-01 0.12157960624E-01
 0.56657695565E-02 0.36778660329E-02 0.16635204590E-02 0.28827842387E-02 0.99988889538E-02
 0.21566087314E-01 0.33637715319E-01 0.42909640764E-01 0.46717501294E-01 0.42837567534E-01
 0.32133370274E-01 0.19548401773E-01 0.99972438599E-02 0.46123630887E-02 0.23938927083E-02
 0.29866086579E-02 0.56633733699E-02 0.80071739650E-02 0.82204489785E-02 0.70632314046E-02
 0.24682442463E-02 0.13468753944E-02 0.21031514018E-02 0.86692693340E-02 0.21566087314E-01
 0.36890088856E-01 0.50333129748E-01 0.58922573004E-01 0.59594109746E-01 0.50688804717E-01
 0.35501453665E-01 0.20601293557E-01 0.99445883105E-02 0.34206909830E-02 0.48798345486E-03
 0.12012445780E-02 0.37211192065E-02 0.49522598752E-02 0.42477688503E-02 0.32745356437E-02
 0.85956748006E-03 0.10242443949E-02 0.54623952189E-02 0.17066292745E-01 0.33637715319E-01
 0.50333129748E-01 0.63511336734E-01 0.69862507188E-01 0.65750534781E-01 0.51363087866E-01
 0.32904066406E-01 0.17285797026E-01 0.67176465139E-02 0.56349750047E-03 -.11257197275E-02
 0.85373957396E-03 0.31032115056E-02 0.30526329517E-02 0.18462021787E-02 0.12620274154E-02
 0.56660125127E-03 0.22663079896E-02 0.10266996725E-01 0.25193333326E-01 0.42909640764E-01
 0.58922573004E-01 0.69862507188E-01 0.71566522507E-01 0.61342697580E-01 0.42874661416E-01
 0.24334036287E-01 0.10912119231E-01 0.27109403232E-02 -.92516128112E-03 -.83367084528E-04
 0.28040731382E-02 0.38985747840E-02 0.26102004537E-02 0.13645353903E-02 0.94853342371E-03
 0.10906556849E-02 0.43214327394E-02 0.14832648095E-01 0.30577692497E-01 0.46717501294E-01
 0.59594109746E-01 0.65750534781E-01 0.61342697581E-01 0.46717640358E-01 0.28640324599E-01
 0.14310790037E-01 0.55379871575E-02 0.10930256559E-02 0.79696132947E-03 0.37897755452E-02
 0.64546543236E-02 0.61308979446E-02 0.42893826298E-02 0.30616557490E-02 0.19398825427E-02
 0.17762129776E-02 0.62583803993E-02 0.17312393324E-01 0.30874990361E-01 0.42837567534E-01
 0.50688804717E-01 0.51363087866E-01 0.42874661416E-01 0.28640324599E-01 0.15604114489E-01
 0.74588829342E-02 0.33675525304E-02 0.25984668654E-02 0.54770826437E-02 0.98793832800E-02
 0.11904446357E-01 0.10698350753E-01 0.85204740337E-02 0.62188701985E-02 0.32130333854E-02
 0.20656299883E-02 0.69561080229E-02 0.16066100151E-01 0.25176245176E-01 0.32133370274E-01
 0.35501453665E-01 0.32904066406E-01 0.24334036287E-01 0.14310790037E-01 0.74588829343E-02
 0.43409233847E-02 0.39909946925E-02 0.70270217317E-02 0.13067970320E-01 0.18363273331E-01
 0.19557946414E-01 0.17333539071E-01 0.13679607794E-01 0.87848347437E-02 0.36063038132E-02
 0.17740842496E-02 0.57629151442E-02 0.11325755408E-01 0.16026075528E-01 0.19548401773E-01
 0.20601293557E-01 0.17285797026E-01 0.10912119231E-01 0.55379871574E-02 0.33675525304E-02
 0.39909946925E-02 0.76522020015E-02 0.14977613445E-01 0.23418499521E-01 0.28226708091E-01
 0.27546808576E-01 0.23201115385E-01 0.16811311308E-01 0.91325006998E-02 0.29021805309E-02
 0.10913681371E-02 0.33279836996E-02 0.57330058830E-02 0.79570909683E-02 0.99972438600E-02
 0.99445883105E-02 0.67176465139E-02 0.27109403232E-02 0.10930256560E-02 0.25984668654E-02
 0.70270217318E-02 0.14977613445E-01 0.25327411929E-01 0.33593863994E-01 0.35814397197E-01
 0.32256063807E-01 0.25329264112E-01 0.16501127502E-01 0.75455828371E-02 0.18082289401E-02
 0.47144467828E-03 0.12867600435E-02 0.21731365989E-02 0.35700022729E-02 0.46123630887E-02
 0.34206909831E-02 0.56349750053E-03 -.92516128106E-03 0.79696132955E-03 0.54770826439E-02
 0.13067970320E-01 0.23418499521E-01 0.33593863994E-01 0.38996510410E-01 0.37818743341E-01
 0.31878061912E-01 0.23335477030E-01 0.13628227388E-01 0.52576064741E-02 0.94039046212E-03
 0.60489294680E-03 0.10154281865E-02 0.16490264704E-02 0.25675766414E-02 0.23938927085E-02
 0.48798345506E-03 -.11257197275E-02 -.83367084621E-04 0.37897755453E-02 0.98793832800E-02
 0.18363273331E-01 0.28226708091E-01 0.35814397197E-01 0.37818743341E-01 0.34342779383E-01
 0.27428526381E-01 0.18583198320E-01 0.95304705132E-02 0.30498437367E-02 0.59390710675E-03
 0.22325188255E-02 0.29720163052E-02 0.37388640413E-02 0.40745548571E-02 0.29866086579E-02
 0.12012445780E-02 0.85373957398E-03 0.28040731382E-02 0.64546543235E-02 0.11904446357E-01
 0.19557946414E-01 0.27546808576E-01 0.32256063807E-01 0.31878061912E-01 0.27428526381E-01
 0.20475216974E-01 0.12324185801E-01 0.52466936019E-02 0.16242594905E-02 0.13542510169E-02
 0.56637219993E-02 0.69345115455E-02 0.77908225051E-02 0.74726787503E-02 0.56633733697E-02
 0.37211192063E-02 0.31032115055E-02 0.38985747841E-02 0.61308979446E-02 0.10698350753E-01
 0.17333539071E-01 0.23201115385E-01 0.25329264112E-01 0.23335477030E-01 0.18583198320E-01
 0.12324185801E-01 0.61341617743E-02 0.23593831830E-02 0.21116743208E-02 0.38984684836E-02
 0.10430310722E-01 0.12098400685E-01 0.12606829762E-01 0.11108163545E-01 0.80071739654E-02
 0.49522598753E-02 0.30526329518E-02 0.26102004539E-02 0.42893826300E-02 0.85204740338E-02
 0.13679607794E-01 0.16811311308E-01 0.16501127503E-01 0.13628227388E-01 0.95304705130E-02
 0.52466936019E-02 0.23593831831E-02 0.23886512931E-02 0.49353519952E-02 0.80278888355E-02
 0.15433688430E-01 0.16918355813E-01 0.16155002292E-01 0.12811956580E-01 0.82204489787E-02
 0.42477688502E-02 0.18462021788E-02 0.13645353905E-02 0.30616557492E-02 0.62188701987E-02
 0.87848347439E-02 0.91325007001E-02 0.75455828374E-02 0.52576064742E-02 0.30498437366E-02
 0.16242594905E-02 0.21116743210E-02 0.49353519953E-02 0.89459669425E-02 0.12643694716E-01
 0.19332170031E-01 0.19650082297E-01 0.16998976150E-01 0.12157960625E-01 0.70632314049E-02
 0.32745356438E-02 0.12620274156E-02 0.94853342397E-03 0.19398825429E-02 0.32130333857E-02
 0.36063038134E-02 0.29021805311E-02 0.18082289403E-02 0.94039046223E-03 0.59390710684E-03
 0.13542510171E-02 0.38984684840E-02 0.80278888355E-02 0.12643694716E-01 0.16678034384E-01
 0.43530041520E-01 0.40382628511E-01 0.31003242282E-01 0.19446133746E-01 0.99774772674E-02
 0.41387500454E-02 0.11697692062E-02 0.13522508581E-04 -.14891749388E-03 -.18718531662E-03
 -.46022201239E-03 -.51829930370E-03 -.14891654000E-03 0.17867847379E-03 0.75247257760E-03
 0.34487335191E-02 0.99755811380E-02 0.19854855254E-01 0.30717071347E-01 0.39609781855E-01
 0.40382628511E-01 0.33989298065E-01 0.23771233735E-01 0.13647200276E-01 0.62269156832E-02
 0.19022778905E-02 -.89078213193E-04 -.53079042999E-03 -.91500813141E-04 0.57929394069E-03
 0.10518045448E-02 0.11405086240E-02 0.77616999118E-03 0.36749211282E-03 0.12847587228E-02
 0.53079942382E-02 0.13164992733E-01 0.23618407971E-01 0.33798101706E-01 0.40254343914E-01
 0.31003242281E-01 0.23771233736E-01 0.15054436845E-01 0.73063282971E-02 0.21552731254E-02
 -.36123130151E-04 -.49289931138E-04 0.10282019728E-02 0.24118829104E-02 0.34226997906E-02
 0.33641195300E-02 0.21216418008E-02 0.58450513386E-03 0.12994071631E-03 0.19404507432E-02
 0.68161736737E-02 0.14765512037E-01 0.24113846143E-01 0.31577388262E-01 0.34133577937E-01
 0.19446133746E-01 0.13647200276E-01 0.73063282971E-02 0.21800493390E-02 0.55533180827E-04
 0.86938681851E-03 0.28278469247E-02 0.45575390199E-02 0.57368404396E-02 0.58701801997E-02
 0.43579518679E-02 0.19355634451E-02 0.38211332878E-03 0.67617185472E-03 0.28309959688E-02
 0.71506553282E-02 0.13669304106E-01 0.20394455818E-01 0.24138009309E-01 0.23469855068E-01
 0.99774772671E-02 0.62269156831E-02 0.21552731252E-02 0.55533180699E-04 0.13287205394E-02
 0.42215209459E-02 0.63006291743E-02 0.73341608081E-02 0.78597253420E-02 0.71272820819E-02
 0.47146875869E-02 0.22421970202E-02 0.13284097255E-02 0.16252783696E-02 0.26589570627E-02
 0.54083719689E-02 0.99791296365E-02 0.13849684858E-01 0.14649905143E-01 0.12861969686E-01
 0.41387500451E-02 0.19022778903E-02 -.36123130357E-04 0.86938681838E-03 0.42215209457E-02
 0.69727462684E-02 0.80691068713E-02 0.89689758515E-02 0.96841857373E-02 0.84497347907E-02
 0.54960104170E-02 0.31827317858E-02 0.21815282896E-02 0.12729464530E-02 0.85240429264E-03
 0.26422288138E-02 0.58379240169E-02 0.74705448584E-02 0.67644911216E-02 0.54782250768E-02
 0.11697692059E-02 -.89078213342E-04 -.49289931379E-04 0.28278469245E-02 0.63006291741E-02
 0.80691068714E-02 0.92973179876E-02 0.11221059219E-01 0.11781658838E-01 0.91611329315E-02
 0.54010355675E-02 0.30706314944E-02 0.15137956637E-02 -.34824609801E-03 -.89646616383E-03
 0.10263207528E-02 0.30652108674E-02 0.28975609895E-02 0.17917537339E-02 0.15390800720E-02
 0.13522508297E-04 -.53079043021E-03 0.10282019726E-02 0.45575390198E-02 0.73341608081E-02
 0.89689758514E-02 0.11221059219E-01 0.13128555719E-01 0.11637360395E-01 0.71800433529E-02
 0.35022572713E-02 0.18402740574E-02 0.26200082749E-03 -.13455747350E-02 -.93565653523E-03
 0.95274690678E-03 0.13356697508E-02 -.45870653274E-04 -.59200433505E-03 0.10067279352E-03
 -.14891749431E-03 -.91500813355E-04 0.24118829104E-02 0.57368404391E-02 0.78597253420E-02
 0.96841857375E-02 0.11781658838E-01 0.11637360395E-01 0.78624570713E-02 0.35451118293E-02
 0.17484243575E-02 0.11910219759E-02 -.15076065038E-03 -.97456851121E-03 0.11044122085E-03
 0.10530070066E-02 -.49751780331E-04 -.13103622548E-02 -.68170971606E-03 0.27235429604E-03
 -.18718531674E-03 0.57929394069E-03 0.34226997904E-02 0.58701801994E-02 0.71272820819E-02
 0.84497347906E-02 0.91611329317E-02 0.71800433529E-02 0.35451118292E-02 0.16166850915E-02
 0.17194398235E-02 0.12383458346E-02 -.14334808668E-03 -.19931605294E-03 0.98230481180E-03
 0.92156658190E-03 -.39884799392E-03 -.50306660230E-03 0.67857996179E-03 0.75370269638E-03
 -.46022201258E-03 0.10518045451E-02 0.33641195299E-02 0.43579518678E-02 0.47146875868E-02
 0.54960104171E-02 0.54010355676E-02 0.35022572714E-02 0.17484243575E-02 0.17194398235E-02
 0.18189756007E-02 0.58579790299E-03 -.30068807047E-03 0.70844639975E-03 0.18989263789E-02
 0.14777843352E-02 0.78944174206E-03 0.13128392969E-02 0.15993527314E-02 0.36172155215E-03
 -.51829930380E-03 0.11405086240E-02 0.21216418009E-02 0.19355634449E-02 0.22421970201E-02
 0.31827317859E-02 0.30706314942E-02 0.18402740573E-02 0.11910219759E-02 0.12383458346E-02
 0.58579790297E-03 -.32073674200E-03 0.42057188634E-03 0.24286625371E-02 0.33141432147E-02
 0.26724437493E-02 0.22281188728E-02 0.21614021174E-02 0.10556854316E-02 -.56768511341E-03
 -.14891654011E-03 0.77616999118E-03 0.58450513394E-03 0.38211332867E-03 0.13284097256E-02
 0.21815282897E-02 0.15137956637E-02 0.26200082750E-03 -.15076065039E-03 -.14334808678E-03
 -.30068807041E-03 0.42057188647E-03 0.25683195940E-02 0.43787321377E-02 0.42856339051E-02
 0.32438499538E-02 0.25696802873E-02 0.16866748932E-02 0.76518022560E-04 -.86179615057E-03
 0.17867847368E-03 0.36749211279E-03 0.12994071649E-03 0.67617185456E-03 0.16252783696E-02
 0.12729464530E-02 -.34824609793E-03 -.13455747350E-02 -.97456851117E-03 -.19931605295E-03
 0.70844639996E-03 0.24286625370E-02 0.43787321377E-02 0.49121115239E-02 0.39360478006E-02
 0.29095473336E-02 0.22300128898E-02 0.10793680425E-02 -.24867765054E-03 -.48576454235E-03
 0.75247257760E-03 0.12847587230E-02 0.19404507433E-02 0.28309959687E-02 0.26589570629E-02
 0.85240429274E-03 -.89646616382E-03 -.93565653525E-03 0.11044122087E-03 0.98230481176E-03
 0.18989263788E-02 0.33141432147E-02 0.42856339054E-02 0.39360478000E-02 0.30561253456E-02
 0.25785318160E-02 0.19582186116E-02 0.65897593390E-03 -.32794315720E-03 -.65689500644E-04
 0.34487335190E-02 0.53079942380E-02 0.68161736735E-02 0.71506553281E-02 0.54083719688E-02
 0.26422288138E-02 0.10263207527E-02 0.95274690671E-03 0.10530070065E-02 0.92156658183E-03
 0.14777843353E-02 0.26724437497E-02 0.32438499540E-02 0.29095473336E-02 0.25785318159E-02
 0.23042753647E-02 0.12623545507E-02 -.12217508224E-03 -.23460837541E-03 0.13412359667E-02
 0.99755811377E-02 0.13164992733E-01 0.14765512037E-01 0.13669304106E-01 0.99791296367E-02
 0.58379240169E-02 0.30652108673E-02 0.13356697508E-02 -.49751780299E-04 -.39884799395E-03
 0.78944174215E-03 0.22281188728E-02 0.25696802872E-02 0.22300128897E-02 0.19582186115E-02
 0.12623545506E-02 -.47838236277E-04 -.36009941218E-03 0.18543833355E-02 0.58901381244E-02
 0.19854855253E-01 0.23618407971E-01 0.24113846143E-01 0.20394455818E-01 0.13849684859E-01
 0.74705448584E-02 0.28975609896E-02 -.45870653068E-04 -.13103622546E-02 -.50306660208E-03
 0.13128392971E-02 0.21614021176E-02 0.16866748934E-02 0.10793680428E-02 0.65897593365E-03
 -.12217508223E-03 -.36009941213E-03 0.20588065950E-02 0.75374134326E-02 0.14129516070E-01
 0.30717071347E-01 0.33798101706E-01 0.31577388262E-01 0.24138009309E-01 0.14649905143E-01
 0.67644911217E-02 0.17917537339E-02 -.59200433481E-03 -.68170971570E-03 0.67857996201E-03
 0.15993527316E-02 0.10556854318E-02 0.76518022713E-04 -.24867765044E-03 -.32794315741E-03
 -.23460837549E-03 0.18543833356E-02 0.75374134327E-02 0.15799503183E-01 0.24159232284E-01
 0.39609781854E-01 0.40254343913E-01 0.34133577937E-01 0.23469855069E-01 0.12861969686E-01
 0.54782250771E-02 0.15390800721E-02 0.10067279381E-03 0.27235429622E-03 0.75370269663E-03
 0.36172155232E-03 -.56768511318E-03 -.86179615046E-03 -.48576454222E-03 -.65689500694E-04
 0.13412359669E-02 0.58901381245E-02 0.14129516070E-01 0.24159232284E-01 0.33426268226E-01
 -.20530467735E-01 -.18483415561E-01 -.15253650488E-01 -.10824586345E-01 -.52837380714E-02
 -.63565048340E-03 0.11642314630E-02 0.58816971727E-03 -.74800643226E-03 -.21814985584E-02
 -.32676235747E-02 -.28416309635E-02 -.74851935305E-03 0.10137986348E-02 0.58402319592E-03
 -.17802351718E-02 -.52850636021E-02 -.10135541587E-01 -.15822913155E-01 -.19911137435E-01
 -.18483415561E-01 -.16092587808E-01 -.12197831562E-01 -.70261804979E-02 -.21418405376E-02