    5    5    1    1
  0.3477306E+02  0.2573869E-09  0.2573869E-09  0.3030466E-08  0.5000000E-15
  1.000000000000000E-004
  CAR 
 unknown system                          
     45     14     28
 
  0.0000000E+00  0.0000000E+00  0.0000000E+00  0.1000000E-01
    1      -11.303952   1.000000
    2      -10.206073   1.000000
    3       -8.742333   1.000000
    4       -7.680250   1.000000
    5       -7.231863   1.000000
    6       -5.641397   1.000000
    7       -5.514439   1.000000
    8       -5.504930   1.000000
    9       -5.504629   1.000000
   10       -5.467894   1.000000
   11       -5.467625   1.000000
   12       -5.390939   1.000000
   13       -5.390595   1.000000
   14       -5.229478   1.000000
   15       -5.229175   1.000000
   16       -5.025719   1.000000
   17       -4.808951   1.000000
   18       -4.808882   1.000000
   19       -4.684436   1.000000
   20       -4.684371   1.000000
   21       -4.465065   1.000000
   22       -4.465021   1.000000
   23       -4.202893   1.000000
   24       -4.202830   1.000000
   25       -3.138389   1.000000
   26        0.732355   0.000000
   27        1.776124   0.000000
   28        2.318694   0.000000
 
  0.1000000E+00  0.6938894E-17  0.0000000E+00  0.6000000E-01
    1      -10.991269   1.000000
    2       -9.908114   1.000000
    3       -8.468158   1.000000
    4       -7.458374   1.000000
    5       -7.111597   1.000000
    6       -5.749934   1.000000
    7       -5.636104   1.000000
    8       -5.595630   1.000000
    9       -5.466721   1.000000
   10       -5.430789   1.000000
   11       -5.402775   1.000000
   12       -5.394092   1.000000
   13       -5.312597   1.000000
   14       -5.285969   1.000000
   15       -5.229816   1.000000
   16       -5.137373   1.000000
   17       -4.864691   1.000000
   18       -4.850470   1.000000
   19       -4.679934   1.000000
   20       -4.667224   1.000000
   21       -4.505686   1.000000
   22       -4.459284   1.000000
   23       -4.196914   1.000000
   24       -4.004055   1.000000
   25       -2.488075   0.058079
   26        0.980094   0.000000
   27        2.078120   0.000000
   28        2.638626   0.000000
 
  0.2000000E+00 -0.1387779E-16  0.0000000E+00  0.6000000E-01
    1      -10.091626   1.000000
    2       -9.073016   1.000000
    3       -7.747415   1.000000
    4       -6.930304   1.000000
    5       -6.815847   1.000000
    6       -6.047757   1.000000
    7       -5.870088   1.000000
    8       -5.768452   1.000000
    9       -5.640646   1.000000
   10       -5.500342   1.000000
   11       -5.436582   1.000000
   12       -5.292606   1.000000
   13       -5.235179   1.000000
   14       -5.130045   1.000000
   15       -5.033555   1.000000
   16       -5.032799   1.000000
   17       -4.957213   1.000000
   18       -4.802647   1.000000
   19       -4.795880   1.000000
   20       -4.637068   1.000000
   21       -4.455122   1.000000
   22       -4.347580   1.000000
   23       -4.188237   1.000000
   24       -3.277101   1.000000
   25       -1.286426   0.000000
   26        1.722096   0.000000
   27        2.985869   0.000000
   28        3.632275   0.000000
 
  0.3000000E+00 -0.2775558E-16  0.0000000E+00  0.6000000E-01
    1       -8.780106   1.000000
    2       -7.986967   1.000000
    3       -7.092868   1.000000
    4       -6.675402   1.000000
    5       -6.485047   1.000000
    6       -6.353222   1.000000
    7       -6.036026   1.000000
    8       -5.810352   1.000000
    9       -5.617077   1.000000
   10       -5.420751   1.000000
   11       -5.331148   1.000000
   12       -5.284304   1.000000
   13       -5.094196   1.000000
   14       -5.029395   1.000000
   15       -4.963588   1.000000
   16       -4.755589   1.000000
   17       -4.617513   1.000000
   18       -4.587719   1.000000
   19       -4.531236   1.000000
   20       -4.445975   1.000000
   21       -4.364463   1.000000
   22       -4.173640   1.000000
   23       -3.967755   1.000000
   24       -2.311689   0.000024
   25        0.122752   0.000000
   26        2.903504   0.000000
   27        4.474510   0.000000
   28        5.031439   0.000000
 
  0.4000000E+00 -0.2775558E-16  0.0000000E+00  0.6000000E-01
    1       -7.640796   1.000000
    2       -7.319255   1.000000
    3       -6.987074   1.000000
    4       -6.740480   1.000000
    5       -6.583681   1.000000
    6       -6.408827   1.000000
    7       -6.096994   1.000000
    8       -5.799768   1.000000
    9       -5.522672   1.000000
   10       -5.417778   1.000000
   11       -5.248366   1.000000
   12       -5.064243   1.000000
   13       -4.841291   1.000000
   14       -4.625514   1.000000
   15       -4.518410   1.000000
   16       -4.328015   1.000000
   17       -4.308094   1.000000
   18       -4.251305   1.000000
   19       -4.173400   1.000000
   20       -4.097038   1.000000
   21       -4.060872   1.000000
   22       -3.624858   1.000000
   23       -3.023614   1.000000
   24       -1.186712   0.000000
   25        0.903896   0.000000
   26        2.484143   0.000000
   27        3.411680   0.000000
   28        4.915611   0.000000
 
  0.5000000E+00 -0.2775558E-16  0.0000000E+00  0.3000000E-01
    1       -7.340068   1.000000
    2       -7.182852   1.000000
    3       -6.913207   1.000000
    4       -6.780070   1.000000
    5       -6.721335   1.000000
    6       -6.441802   1.000000
    7       -6.028457   1.000000
    8       -5.806864   1.000000
    9       -5.575096   1.000000
   10       -5.452635   1.000000
   11       -5.115063   1.000000
   12       -5.081938   1.000000
   13       -4.681818   1.000000
   14       -4.615391   1.000000
   15       -4.296344   1.000000
   16       -4.255483   1.000000
   17       -4.195599   1.000000
   18       -4.158611   1.000000
   19       -4.101893   1.000000
   20       -3.947942   1.000000
   21       -2.830523   0.999466
   22       -2.202874   0.000000
   23       -1.775283   0.000000
   24       -1.233572   0.000000
   25       -0.972256   0.000000
   26        1.734620   0.000000
   27        2.841367   0.000000
   28        4.375549   0.000000
 
  0.2000000E+00  0.1000000E+00  0.0000000E+00  0.6000000E-01
    1      -10.383475   1.000000
    2       -9.338380   1.000000
    3       -7.962833   1.000000
    4       -7.069593   1.000000
    5       -6.901757   1.000000
    6       -5.894475   1.000000
    7       -5.867914   1.000000
    8       -5.730140   1.000000
    9       -5.623000   1.000000
   10       -5.537617   1.000000
   11       -5.403511   1.000000
   12       -5.329946   1.000000
   13       -5.266036   1.000000
   14       -5.188828   1.000000
   15       -5.074128   1.000000
   16       -5.024224   1.000000
   17       -4.912380   1.000000
   18       -4.842689   1.000000
   19       -4.790216   1.000000
   20       -4.619839   1.000000
   21       -4.576193   1.000000
   22       -4.298158   1.000000
   23       -4.245501   1.000000
   24       -3.480543   1.000000
   25       -1.630660   0.000000
   26        1.477773   0.000000
   27        2.683555   0.000000
   28        3.312031   0.000000
 
  0.3000000E+00  0.1000000E+00  0.0000000E+00  0.1200000E+00
    1       -9.258676   1.000000
    2       -8.343267   1.000000
    3       -7.211828   1.000000
    4       -6.661478   1.000000
    5       -6.519987   1.000000
    6       -6.182126   1.000000
    7       -5.989152   1.000000
    8       -5.896315   1.000000
    9       -5.740086   1.000000
   10       -5.600635   1.000000
   11       -5.509332   1.000000
   12       -5.373039   1.000000
   13       -5.248783   1.000000
   14       -5.131261   1.000000
   15       -4.950650   1.000000
   16       -4.859744   1.000000
   17       -4.755173   1.000000
   18       -4.659346   1.000000
   19       -4.556915   1.000000
   20       -4.503881   1.000000
   21       -4.370745   1.000000
   22       -4.257827   1.000000
   23       -4.030618   1.000000
   24       -2.653956   0.780769
   25       -0.369950   0.000000
   26        2.472691   0.000000
   27        3.893536   0.000000
   28        4.513599   0.000000
 
  0.4000000E+00  0.1000000E+00  0.0000000E+00  0.1200000E+00
    1       -7.951394   1.000000
    2       -7.426670   1.000000
    3       -6.901466   1.000000
    4       -6.620939   1.000000
    5       -6.393745   1.000000
    6       -6.354279   1.000000
    7       -6.063532   1.000000
    8       -5.860913   1.000000
    9       -5.578665   1.000000
   10       -5.474726   1.000000
   11       -5.345972   1.000000
   12       -5.269350   1.000000
   13       -5.129481   1.000000
   14       -4.983225   1.000000
   15       -4.886267   1.000000
   16       -4.677361   1.000000
   17       -4.564849   1.000000
   18       -4.391426   1.000000
   19       -4.295539   1.000000
   20       -4.185086   1.000000
   21       -3.982346   1.000000
   22       -3.850092   1.000000
   23       -3.270003   1.000000
   24       -1.483047   0.000000
   25        1.022488   0.000000
   26        3.491068   0.000000
   27        4.393788   0.000000
   28        5.443759   0.000000
 
  0.5000000E+00  0.1000000E+00  0.0000000E+00  0.1200000E+00
    1       -7.262659   1.000000
    2       -7.095601   1.000000
    3       -6.841527   1.000000
    4       -6.699801   1.000000
    5       -6.567325   1.000000
    6       -6.377063   1.000000
    7       -6.035106   1.000000
    8       -5.830599   1.000000
    9       -5.568086   1.000000
   10       -5.459218   1.000000
   11       -5.325335   1.000000
   12       -5.013782   1.000000
   13       -4.888106   1.000000
   14       -4.736449   1.000000
   15       -4.572642   1.000000
   16       -4.464884   1.000000
   17       -4.326109   1.000000
   18       -4.262248   1.000000
   19       -4.205404   1.000000
   20       -4.093207   1.000000
   21       -2.806983   0.998353
   22       -2.514623   0.115914
   23       -1.913607   0.000000
   24       -0.604833   0.000000
   25        0.237232   0.000000
   26        2.035544   0.000000
   27        3.202205   0.000000
   28        4.621508   0.000000
 
  0.4000000E+00  0.2000000E+00  0.0000000E+00  0.6000000E-01
    1       -8.073573   1.000000
    2       -7.443434   1.000000
    3       -6.780611   1.000000
    4       -6.524618   1.000000
    5       -6.268985   1.000000
    6       -6.146066   1.000000
    7       -6.016860   1.000000
    8       -5.893459   1.000000
    9       -5.800962   1.000000
   10       -5.665917   1.000000
   11       -5.560634   1.000000
   12       -5.462012   1.000000
   13       -5.335943   1.000000
   14       -5.170223   1.000000
   15       -4.938726   1.000000
   16       -4.770124   1.000000
   17       -4.659771   1.000000
   18       -4.495865   1.000000
   19       -4.282222   1.000000
   20       -4.190112   1.000000
   21       -3.930958   1.000000
   22       -3.819446   1.000000
   23       -3.255138   1.000000
   24       -1.562363   0.000000
   25        0.940467   0.000000
   26        3.688823   0.000000
   27        5.370220   0.000000
   28        5.836031   0.000000
 
  0.5000000E+00  0.2000000E+00  0.0000000E+00  0.1200000E+00
    1       -7.096666   1.000000
    2       -6.914967   1.000000
    3       -6.688421   1.000000
    4       -6.522939   1.000000
    5       -6.327315   1.000000
    6       -6.194697   1.000000
    7       -6.041015   1.000000
    8       -5.858595   1.000000
    9       -5.727285   1.000000
   10       -5.510976   1.000000
   11       -5.393343   1.000000
   12       -5.323359   1.000000
   13       -5.220021   1.000000
   14       -5.104591   1.000000
   15       -4.918970   1.000000
   16       -4.753407   1.000000
   17       -4.583880   1.000000
   18       -4.422360   1.000000
   19       -4.214759   1.000000
   20       -4.099027   1.000000
   21       -2.862791   0.999904
   22       -2.645275   0.742809
   23       -1.805400   0.000000
   24       -0.076526   0.000000
   25        2.020601   0.000000
   26        3.101679   0.000000
   27        4.148394   0.000000
   28        5.406125   0.000000
 
 -0.4000000E+00  0.2000000E+00  0.0000000E+00  0.6000000E-01
    1       -6.881693   1.000000
    2       -6.821023   1.000000
    3       -6.594572   1.000000
    4       -6.482380   1.000000
    5       -6.406665   1.000000
    6       -6.228921   1.000000
    7       -6.069398   1.000000
    8       -5.848667   1.000000
    9       -5.684331   1.000000
   10       -5.559080   1.000000
   11       -5.357756   1.000000
   12       -5.159256   1.000000
   13       -5.104323   1.000000
   14       -4.968379   1.000000
   15       -4.901134   1.000000
   16       -4.689969   1.000000
   17       -4.489299   1.000000
   18       -4.294208   1.000000
   19       -4.272318   1.000000
   20       -4.164975   1.000000
   21       -1.938905   0.000000
   22       -0.971417   0.000000
   23       -0.523172   0.000000
   24        0.023141   0.000000
   25        0.589378   0.000000
   26        2.265555   0.000000
   27        3.485008   0.000000
   28        4.947685   0.000000
 
 -0.4000000E+00  0.3000000E+00  0.0000000E+00  0.6000000E-01
    1       -6.629657   1.000000
    2       -6.583755   1.000000
    3       -6.472595   1.000000
    4       -6.448412   1.000000
    5       -6.316147   1.000000
    6       -6.205055   1.000000
    7       -6.119715   1.000000
    8       -5.781841   1.000000
    9       -5.707882   1.000000
   10       -5.539058   1.000000
   11       -5.456125   1.000000
   12       -5.302810   1.000000
   13       -5.247955   1.000000
   14       -5.229674   1.000000
   15       -4.871943   1.000000
   16       -4.806245   1.000000
   17       -4.653395   1.000000
   18       -4.355580   1.000000
   19       -4.272536   1.000000
   20       -4.188926   1.000000
   21       -1.849446   0.000000
   22       -0.714029   0.000000
   23        0.232389   0.000000
   24        1.573918   0.000000
   25        2.156093   0.000000
   26        2.270116   0.000000
   27        3.132919   0.000000
   28        3.451354   0.000000
