unknown system                          
   1.00000000000000     
     2.573869    0.000000    0.000000
     1.286934    2.229036    0.000000
     0.000000    0.000000   30.304665
   Cu   H 
     4     1
Direct
  0.000000  0.000000  0.398815
  0.333333  0.333333  0.467250
  0.666667  0.666667  0.536042
  0.000000  0.000000  0.605684
  0.000000  0.000000  0.658927
 
   10   10  120
  0.0000      0.0000     0.36082E-15 0.24294E-12 0.57121E-13 0.14518E-12 0.82434E-14 0.33214E-12 0.74246E-15 0.13878E-16
 0.20817E-16 -.10061E-15 0.85161E-13 0.10395E-08 0.53083E-13 0.13654E-12 0.57676E-13 0.82059E-13 0.22204E-15 -.27756E-16
 0.32613E-15 0.85189E-13 0.88832E-13 0.79242E-14 0.14155E-14 0.89373E-14 0.50071E-13 0.68813E-13 0.61062E-15 -.38164E-16
 0.24297E-12 0.10395E-08 0.78965E-14 0.98532E-15 0.66613E-15 0.20151E-13 0.25632E-13 0.36372E-11 0.15307E-12 0.56658E-12
 0.57038E-13 0.53013E-13 0.14017E-14 0.61062E-15 0.20539E-14 0.26812E-13 0.38025E-14 0.57010E-13 0.58203E-13 0.16390E-13
 0.14512E-12 0.13645E-12 0.90206E-14 0.20164E-13 0.26798E-13 0.21261E-11 0.29907E-13 0.28962E-10 0.36555E-12 0.13236E-10
 0.81879E-14 0.57537E-13 0.50071E-13 0.25507E-13 0.38303E-14 0.29962E-13 0.18069E-13 0.15349E-13 0.98810E-14 0.94369E-14
 0.33210E-12 0.81997E-13 0.68751E-13 0.36371E-11 0.57176E-13 0.28962E-10 0.15404E-13 0.71179E-13 0.99538E-12 0.48472E-11
 0.63838E-15 0.20817E-15 0.47184E-15 0.15302E-12 0.58203E-13 0.36561E-12 0.99365E-14 0.99534E-12 0.63190E-12 0.45880E-13
 -.27756E-16 -.13878E-16 0.62450E-16 0.56662E-12 0.16556E-13 0.13236E-10 0.94785E-14 0.48474E-11 0.45866E-13 0.27062E-15
 -.13878E-16 0.13878E-16 0.71471E-15 0.14251E-10 0.30684E-13 0.63432E-11 0.73483E-13 0.54783E-10 0.69389E-15 -.13878E-16
 -.34694E-16 -.97145E-16 0.97630E-13 0.15147E-10 0.26895E-13 0.92079E-13 0.16606E-12 0.13245E-12 0.33307E-15 -.69389E-17
 0.73552E-15 0.97602E-13 0.13242E-12 0.48017E-14 0.87430E-15 0.61062E-14 0.80935E-13 0.74468E-13 0.65919E-15 0.13878E-16
 0.14251E-10 0.15147E-10 0.47740E-14 0.63838E-15 0.34694E-15 0.14141E-13 0.96825E-13 0.36512E-11 0.15044E-12 0.54014E-12
 0.30684E-13 0.26770E-13 0.80491E-15 0.22204E-15 0.91593E-15 0.13739E-13 0.48711E-14 0.29768E-13 0.40593E-13 0.87291E-14
 0.63432E-11 0.92010E-13 0.61895E-14 0.14100E-13 0.13795E-13 0.20522E-11 0.76203E-13 0.53395E-11 0.29642E-12 0.52497E-11
 0.73441E-13 0.16595E-12 0.80796E-13 0.96728E-13 0.48572E-14 0.76258E-13 0.34819E-13 0.17208E-13 0.15044E-13 0.29268E-13
 0.54783E-10 0.13232E-12 0.74468E-13 0.36511E-11 0.29851E-13 0.53395E-11 0.17236E-13 0.19540E-13 0.65470E-12 0.26975E-10
 0.64532E-15 0.41633E-15 0.59674E-15 0.15041E-12 0.40620E-13 0.29647E-12 0.15127E-13 0.65467E-12 0.66863E-12 0.52819E-13
 -.76328E-16 -.17347E-16 -.69389E-17 0.54023E-12 0.89234E-14 0.52498E-11 0.29352E-13 0.26975E-10 0.52833E-13 0.36776E-15
 -.79797E-16 -.27756E-16 0.79797E-15 0.71512E-12 0.61756E-14 0.31206E-12 0.29672E-12 0.84768E-12 0.24980E-15 -.34694E-17
 -.41633E-16 -.69389E-16 0.82004E-13 0.24348E-11 0.11754E-13 0.38941E-13 0.39187E-12 0.11766E-12 0.13878E-15 -.20817E-16
 0.69389E-15 0.81879E-13 0.11849E-12 0.17764E-14 0.58287E-15 0.26784E-14 0.72109E-13 0.48267E-13 0.63838E-15 -.27756E-16
 0.71512E-12 0.24348E-11 0.17347E-14 0.31919E-15 0.22204E-15 0.69944E-14 0.23882E-12 0.35846E-11 0.97658E-13 0.39103E-12
 0.61895E-14 0.11630E-13 0.52736E-15 0.15266E-15 0.45797E-15 0.61340E-14 0.36637E-14 0.13614E-13 0.23648E-13 0.35388E-14
 0.31208E-12 0.38830E-13 0.27339E-14 0.69944E-14 0.61479E-14 0.22213E-11 0.17274E-12 0.43548E-12 0.15264E-12 0.44587E-11
 0.29658E-12 0.39176E-12 0.72053E-13 0.23875E-12 0.37054E-14 0.17272E-12 0.38955E-13 0.12546E-13 0.14738E-13 0.71290E-13
 0.84753E-12 0.11763E-12 0.48350E-13 0.35845E-11 0.13670E-13 0.43553E-12 0.12546E-13 0.59813E-14 0.24830E-12 0.48616E-08
 0.27756E-15 0.25674E-15 0.55511E-15 0.97644E-13 0.23689E-13 0.15264E-12 0.14724E-13 0.24822E-12 0.47023E-12 0.40676E-13
 -.62450E-16 -.11449E-15 0.13878E-16 0.39110E-12 0.37054E-14 0.44588E-11 0.71387E-13 0.48616E-08 0.40620E-13 0.29837E-15
 -.15266E-15  0.0000     0.88818E-15 0.27409E-13 0.23176E-14 0.24702E-13 0.42175E-13 0.43479E-13 0.20817E-15 -.11102E-15
 -.97145E-16 -.55511E-16 0.97214E-13 0.12488E-11 0.72997E-14 0.36804E-13 0.22096E-11 0.16234E-12 0.13878E-15 -.55511E-16
 0.87430E-15 0.97228E-13 0.13195E-12 0.12906E-14 0.40246E-15 0.20400E-14 0.71734E-13 0.54845E-13 0.56899E-15 -.11102E-15
 0.27450E-13 0.12488E-11 0.12906E-14 0.37470E-15 0.19429E-15 0.65781E-14 0.21129E-11 0.35674E-11 0.86472E-13 0.33354E-12
 0.23176E-14 0.72442E-14 0.41633E-15 0.83267E-16 0.22204E-15 0.39968E-14 0.39413E-14 0.89234E-14 0.15751E-13 0.24980E-14
 0.24758E-13 0.36790E-13 0.20678E-14 0.65781E-14 0.40246E-14 0.22082E-11 0.56413E-12 0.15123E-12 0.11659E-12 0.30641E-11
 0.42091E-13 0.22096E-11 0.71582E-13 0.21129E-11 0.39968E-14 0.56403E-12 0.39344E-13 0.80908E-14 0.14058E-13 0.30533E-12
 0.43368E-13 0.16233E-12 0.54887E-13 0.35674E-11 0.89651E-14 0.15124E-12 0.81185E-14 0.17486E-14 0.17610E-12 0.14761E-10
 0.12490E-15 0.26368E-15 0.54123E-15 0.86514E-13 0.15724E-13 0.11659E-12 0.14155E-13 0.17605E-12 0.26026E-12 0.40259E-13
 -.15266E-15 -.69389E-16 0.27756E-16 0.33359E-12 0.25882E-14 0.30642E-11 0.30545E-12 0.14761E-10 0.40259E-13 0.36082E-15
 0.13878E-16  0.0000     0.73552E-15 0.46491E-14 0.94369E-15 0.50931E-14 0.41495E-14 0.81601E-14 0.97145E-16 0.13878E-16
 -.55511E-16 -.69389E-16 0.84113E-13 0.53563E-12 0.41078E-14 0.23766E-13 0.12324E-10 0.16284E-12 0.13878E-15 0.41633E-16
 0.88818E-15 0.84099E-13 0.11773E-12 0.63838E-15 0.26368E-15 0.92981E-15 0.35000E-13 0.48392E-13 0.41633E-15 -.69389E-16
 0.45797E-14 0.53564E-12 0.45797E-15 0.15266E-15 0.69389E-16 0.41772E-14 0.22954E-10 0.35276E-11 0.91649E-13 0.25421E-12
 0.94369E-15 0.40107E-14 0.27756E-15  0.0000     0.12490E-15 0.23731E-14 0.32058E-14 0.48295E-14 0.97838E-14 0.13323E-14
 0.50654E-14 0.23696E-13 0.88818E-15 0.41356E-14 0.23870E-14 0.24744E-11 0.10910E-11 0.27922E-13 0.67862E-13 0.39578E-11
 0.39968E-14 0.12324E-10 0.35000E-13 0.22954E-10 0.31919E-14 0.10910E-11 0.26493E-13 0.53568E-14 0.10186E-13 0.57385E-12
 0.82434E-14 0.16287E-12 0.48475E-13 0.35275E-11 0.49266E-14 0.27978E-13 0.53985E-14 0.63838E-15 0.92135E-13 0.47840E-11
 0.27756E-16 0.26368E-15 0.43021E-15 0.91677E-13 0.98671E-14 0.67918E-13 0.10159E-13 0.92149E-13 0.98227E-13 0.40315E-13
 -.13878E-15 -.18041E-15 0.13878E-16 0.25424E-12 0.14572E-14 0.39580E-11 0.57397E-12 0.47841E-11 0.40454E-13 0.34694E-15
 0.27756E-16 0.27756E-16 0.69389E-15 0.12212E-14 0.45797E-15 0.13878E-14 0.73552E-15 0.24702E-14 0.83267E-16 -.83267E-16
 -.13878E-15 -.55511E-16 0.82934E-13 0.31460E-12 0.25258E-14 0.17084E-13 0.10308E-09 0.16495E-12 0.16653E-15 -.16653E-15
 0.83267E-15 0.83017E-13 0.11112E-12 0.27756E-15 0.23592E-15 0.61062E-15 0.18319E-13 0.46463E-13 0.49960E-15 -.11102E-15
 0.12490E-14 0.31460E-12 0.24980E-15 0.12490E-15 0.97145E-16 0.32196E-14 0.26520E-08 0.35103E-11 0.79325E-13 0.17270E-12
 0.44409E-15 0.23870E-14 0.15959E-15 -.13878E-16 -.69389E-17 0.13739E-14 0.25951E-14 0.29282E-14 0.74385E-14 0.77716E-15
 0.14572E-14 0.17084E-13 0.55511E-15 0.32335E-14 0.13878E-14 0.25668E-11 0.14535E-11 0.81324E-14 0.48628E-13 0.38042E-11
 0.70777E-15 0.10308E-09 0.18249E-13 0.26520E-08 0.26368E-14 0.14535E-11 0.21955E-13 0.36499E-14 0.86320E-14 0.66434E-12
 0.24980E-14 0.16495E-12 0.46491E-13 0.35102E-11 0.29282E-14 0.81879E-14 0.37748E-14 0.31919E-15 0.62450E-13 0.21275E-11
 0.11102E-15 0.24980E-15 0.52736E-15 0.79298E-13 0.74940E-14 0.48600E-13 0.86181E-14 0.62339E-13 0.36998E-13 0.34556E-13
 -.11102E-15 -.27756E-16 -.55511E-16 0.17275E-12 0.84655E-15 0.38043E-11 0.66454E-12 0.21276E-11 0.34611E-13 0.38858E-15
  0.0000     0.11102E-15 0.58287E-15 0.49960E-15 0.31919E-15 0.56899E-15 0.27756E-15 0.10547E-14 0.55511E-16 0.16653E-15
 0.55511E-16 0.83267E-16 0.88596E-13 0.19920E-12 0.16237E-14 0.13892E-13 0.12914E-10 0.19543E-12 0.22204E-15  0.0000    
 0.74940E-15 0.88596E-13 0.10168E-12 0.13878E-15 0.22898E-15 0.36082E-15 0.93953E-14 0.47129E-13 0.38858E-15 -.11102E-15
 0.44409E-15 0.19922E-12 0.12490E-15 0.12490E-15 0.76328E-16 0.25188E-14 0.80814E-11 0.34406E-11 0.83156E-13 0.15488E-12
 0.30531E-15 0.14988E-14 0.17000E-15  0.0000     0.55511E-16 0.86042E-15 0.21927E-14 0.20817E-14 0.58009E-14 0.51348E-15
 0.57593E-15 0.13781E-13 0.38858E-15 0.25605E-14 0.92981E-15 0.29115E-11 0.71132E-12 0.61062E-15 0.30934E-13 0.10908E-10
 0.23592E-15 0.12913E-10 0.94091E-14 0.80813E-11 0.22204E-14 0.71135E-12 0.11435E-13 0.20262E-14 0.39968E-14 0.29542E-12
 0.10825E-14 0.19529E-12 0.47240E-13 0.34406E-11 0.22204E-14 0.65226E-15 0.21233E-14 0.13878E-16 0.38913E-13 0.13128E-11
 0.19429E-15 0.33307E-15 0.41633E-15 0.83128E-13 0.58564E-14 0.30934E-13 0.39413E-14 0.38872E-13 0.56621E-14 0.38330E-13
 -.11102E-15 0.55511E-16 0.16653E-15 0.15490E-12 0.69389E-15 0.10908E-10 0.29556E-12 0.13129E-11 0.38330E-13 0.49960E-15
 0.55511E-16 0.11102E-15 0.49960E-15 0.22204E-15 0.20817E-15 0.25674E-15 0.83267E-16 0.52736E-15 0.83267E-16 0.83267E-16
 -.11102E-15  0.0000     0.69944E-13 0.13026E-12 0.93675E-15 0.10287E-13 0.20605E-11 0.18680E-12 0.27756E-15 -.55511E-16
 0.69389E-15 0.70083E-13 0.87055E-13  0.0000     0.13878E-15 0.13878E-15 0.29421E-14 0.36499E-13 0.33307E-15 0.55511E-16
 0.22204E-15 0.13023E-12 0.41633E-16 0.52042E-16 0.38164E-16 0.19498E-14 0.84774E-12 0.33754E-11 0.70527E-13 0.10444E-12
 0.19429E-15 0.83961E-15 0.11796E-15 -.55511E-16 -.69389E-17 0.57593E-15 0.14849E-14 0.14433E-14 0.43299E-14 0.33307E-15
 0.27756E-15 0.10235E-13 0.20817E-15 0.19221E-14 0.61756E-15 0.31419E-11 0.31090E-12 -.13878E-16 0.21885E-13 0.96528E-10
 0.11102E-15 0.20605E-11 0.29143E-14 0.84768E-12 0.15543E-14 0.31089E-12 0.75079E-14 0.15404E-14 0.25951E-14 0.12335E-12
 0.55511E-15 0.18677E-12 0.36582E-13 0.33753E-11 0.14433E-14 0.55511E-16 0.16515E-14 0.13878E-16 0.28019E-13 0.83952E-12
 0.83267E-16 0.30531E-15 0.41633E-15 0.70527E-13 0.43299E-14 0.21899E-13 0.26160E-14 0.28047E-13 0.20262E-14 0.33862E-13
 -.13878E-15 0.55511E-16 0.27756E-16 0.10442E-12 0.44409E-15 0.96528E-10 0.12344E-12 0.83955E-12 0.33890E-13 0.49960E-15
 0.11102E-15 0.16653E-15 0.61062E-15 0.16653E-15 0.15266E-15 0.20123E-15 0.12490E-15 0.22204E-15 0.55511E-16 0.83267E-16
 -.83267E-16 0.83267E-16 0.67779E-13 0.96298E-13 0.66613E-15 0.91351E-14 0.55911E-12 0.19124E-12 0.16653E-15 -.55511E-16
 0.63838E-15 0.67835E-13 0.10282E-12 0.97145E-16 0.17260E-15 0.11102E-15 0.16376E-14 0.36832E-13 0.38858E-15 0.83267E-16
 0.13878E-15 0.96340E-13 0.55511E-16 0.60715E-16 0.11449E-15 0.19221E-14 0.21363E-12 0.32716E-11 0.56288E-13 0.51376E-13
 0.20817E-15 0.56899E-15 0.71991E-16 0.34694E-17 -.69389E-17 0.43021E-15 0.14433E-14 0.91593E-15 0.34417E-14 0.18041E-15
 0.14572E-15 0.90518E-14 0.13878E-15 0.18666E-14 0.47878E-15 0.38159E-11 0.14060E-12 0.23592E-15 0.17264E-13 0.10650E-10
 0.55511E-16 0.55894E-12 0.16237E-14 0.21358E-12 0.14433E-14 0.14058E-12 0.47115E-14 0.10408E-14 0.14502E-14 0.57593E-13
 0.36082E-15 0.19110E-12 0.36804E-13 0.32717E-11 0.97145E-15 0.27756E-15 0.11380E-14  0.0000     0.21552E-13 0.62039E-12
 0.11102E-15 0.33307E-15 0.36082E-15 0.56233E-13 0.35805E-14 0.17333E-13 0.14364E-14 0.21580E-13 0.11963E-13 0.29088E-13
 -.27756E-16 0.11102E-15 -.55511E-16 0.51459E-13 0.38858E-15 0.10650E-10 0.57662E-13 0.62050E-12 0.29032E-13 0.55511E-15
 0.11102E-15 0.19429E-15 0.52736E-15 0.55511E-16 0.55511E-16 0.13184E-15 0.13878E-16 0.19429E-15 0.11102E-15 0.22204E-15
 0.27756E-16 0.27756E-16 0.56288E-13 0.65156E-13 0.52736E-15 0.75044E-14 0.17952E-12 0.18707E-12 0.27756E-15  0.0000    
 0.72164E-15 0.56344E-13 0.12516E-12  0.0000     0.10582E-15 0.13878E-16 0.69389E-15 0.36415E-13 0.44409E-15 0.27756E-16
 0.55511E-16 0.65170E-13 0.55511E-16 0.29490E-16 0.10408E-15 0.16862E-14 0.63088E-13 0.32147E-11 0.60313E-13 0.45186E-13
 0.15266E-15 0.47184E-15 0.51174E-16 -.62450E-16 -.12143E-16 0.32613E-15 0.11657E-14 0.79103E-15 0.28588E-14 0.22204E-15
 0.83267E-16 0.74801E-14 0.13878E-16 0.16029E-14 0.37817E-15 0.40989E-11 0.68903E-13 0.10825E-14 0.12809E-13 0.20041E-11
 0.41633E-16 0.17938E-12 0.63838E-15 0.63116E-13 0.11657E-14 0.68875E-13 0.35388E-14 0.63838E-15 0.91593E-15 0.30295E-13
 0.16653E-15 0.18693E-12 0.36277E-13 0.32146E-11 0.77716E-15 0.10963E-14 0.73552E-15 -.13878E-16 0.15959E-13 0.45478E-12
 0.19429E-15 0.27756E-15 0.44409E-15 0.60424E-13 0.28311E-14 0.12830E-13 0.95757E-15 0.16022E-13 0.17764E-13 0.29227E-13
 -.55511E-16  0.0000     0.13878E-15 0.45075E-13 0.29143E-15 0.20042E-11 0.30406E-13 0.45480E-12 0.29199E-13 0.88818E-15
  0.0000     0.55511E-16 0.41633E-15  0.0000     0.69389E-16 0.69389E-16 0.62450E-16 0.13878E-15 -.83267E-16  0.0000    
 -.83267E-16 0.27756E-16 0.36068E-13 0.47004E-13 0.38858E-15 0.61062E-14 0.79298E-13 0.17472E-12 0.19429E-15 0.55511E-16
 0.55511E-15 0.36041E-13 0.12361E-12 0.55511E-16 0.69389E-16 0.13878E-16 0.97145E-16 0.26701E-13 0.24980E-15 -.55511E-16
 0.83267E-16 0.47025E-13 0.11102E-15 0.31225E-16 0.83267E-16 0.21025E-14 0.30087E-13 0.30921E-11 0.46352E-13 0.18457E-13
 0.69389E-16 0.33307E-15 0.16306E-15 0.24286E-16 0.31225E-16 0.26368E-15 0.83267E-15 0.51348E-15 0.21649E-14 0.69389E-16
 0.20817E-16 0.59813E-14 0.41633E-16 0.20990E-14 0.24980E-15 0.51143E-11 0.35374E-13 0.11380E-14 0.10041E-13 0.46912E-12
 0.27756E-16 0.79214E-13 0.97145E-16 0.30045E-13 0.89512E-15 0.35347E-13 0.24702E-14 0.54123E-15 0.61062E-15 0.17493E-13
 0.11102E-15 0.17464E-12 0.26784E-13 0.30921E-11 0.61062E-15 0.10686E-14 0.62450E-15  0.0000     0.12171E-13 0.36321E-12
 0.11102E-15 0.13878E-15 0.27756E-15 0.46380E-13 0.22482E-14 0.10172E-13 0.61062E-15 0.12212E-13 0.26423E-13 0.23731E-13
 -.83267E-16 -.55511E-16 0.55511E-16 0.18346E-13 0.14572E-15 0.46915E-12 0.17569E-13 0.36335E-12 0.23676E-13 0.58287E-15
 0.55511E-16 0.16653E-15 0.49960E-15 0.69389E-16 0.55511E-16 0.34694E-16 0.20817E-16 0.69389E-16 0.22204E-15 0.12490E-15
 0.27756E-16 0.69389E-16 0.35749E-13 0.38268E-13 0.34694E-15 0.55719E-14 0.42480E-13 0.17290E-12 0.24980E-15 0.11102E-15
 0.72164E-15 0.35930E-13 0.14353E-12 0.83267E-16 0.10408E-15 0.27756E-16 0.48572E-16 0.26798E-13 0.36082E-15 0.55511E-16
 0.69389E-16 0.38393E-13 -.34694E-16 0.41633E-16 0.41633E-16 0.21302E-14 0.16515E-13 0.30263E-11 0.50890E-13 0.13850E-13
 0.97145E-16 0.30531E-15 0.76328E-16  0.0000     0.13878E-16 0.23592E-15 0.71471E-15 0.48572E-15 0.19151E-14 0.69389E-16
 0.55511E-16 0.53915E-14 0.55511E-16 0.21164E-14 0.18041E-15 0.59644E-11 0.22253E-13 0.12490E-14 0.86112E-14 0.19969E-12
 0.55511E-16 0.42404E-13 0.69389E-17 0.16542E-13 0.72164E-15 0.22191E-13 0.19290E-14 0.38858E-15 0.38858E-15 0.11185E-13
 0.12490E-15 0.17278E-12 0.26867E-13 0.30265E-11 0.49266E-15 0.12212E-14 0.52042E-15 0.13878E-16 0.10353E-13 0.28760E-12
 0.11102E-15 0.33307E-15 0.38858E-15 0.50959E-13 0.19151E-14 0.86042E-14 0.45797E-15 0.10311E-13 0.28796E-13 0.23717E-13
 0.13878E-16 0.55511E-16 0.83267E-16 0.13933E-13 0.90206E-16 0.19973E-12 0.11317E-13 0.28769E-12 0.23696E-13 0.91593E-15
 -.41633E-16 0.90206E-16 0.48572E-15  0.0000     0.27756E-16 0.13878E-16 0.27756E-16 0.69389E-16 0.97145E-16 0.41633E-16
 -.20817E-16 0.55511E-16 0.18568E-13 0.28456E-13 0.22204E-15 0.43923E-14 0.22940E-13 0.15167E-12 0.24980E-15 0.41633E-16
 0.59674E-15 0.18582E-13 0.14779E-12 0.27756E-16 0.90206E-16 0.41633E-16 0.48572E-16 0.19484E-13 0.27756E-15 0.13878E-16
  0.0000     0.28498E-13 0.20817E-16 0.97145E-16 0.97145E-16 0.22621E-14 0.88679E-14 0.29143E-11 0.40468E-13 0.41564E-14
 0.41633E-16 0.20817E-15 0.41633E-16 0.27756E-16 0.27756E-16 0.13878E-15 0.63838E-15 0.29143E-15 0.16792E-14 0.14572E-15
 -.13878E-16 0.44686E-14 0.69389E-16 0.23315E-14 0.83267E-16 0.90799E-11 0.13954E-13 0.12212E-14 0.68903E-14 0.87375E-13
 -.55511E-16 0.22989E-13  0.0000     0.88818E-14 0.63144E-15 0.13850E-13 0.14433E-14 0.37470E-15 0.28449E-15 0.73344E-14
 0.11102E-15 0.15168E-12 0.19429E-13 0.29143E-11 0.36082E-15 0.12768E-14 0.46491E-15 0.20817E-16 0.86736E-14 0.23918E-12
 -.41633E-16 0.18735E-15 0.27756E-15 0.40454E-13 0.16515E-14 0.69181E-14 0.34694E-15 0.86320E-14 0.29060E-13 0.20296E-13
 -.41633E-16 0.83267E-16 -.41633E-16 0.41633E-14 0.17347E-15 0.87451E-13 0.74038E-14 0.23929E-12 0.20303E-13 0.81879E-15
 -.69389E-17 0.11102E-15 0.47184E-15 -.48572E-16 0.13878E-16  0.0000      0.0000     -.34694E-16 0.97145E-16 0.13878E-15
 0.34694E-16 -.69389E-16 0.13094E-13 0.21358E-13 0.20123E-15 0.39552E-14 0.13961E-13 0.14608E-12 0.29837E-15 0.55511E-16
 0.61062E-15 0.13142E-13 0.17097E-12 0.41633E-16 0.55511E-16 0.34694E-16 0.48572E-16 0.15127E-13 0.38164E-15 -.41633E-16
  0.0000     0.21344E-13 -.27756E-16 0.11796E-15 0.83267E-16 0.25396E-14 0.51972E-14 0.27987E-11 0.33112E-13 0.85348E-15
 0.69389E-17 0.19429E-15 0.48572E-16 0.69389E-17 -.69389E-17 0.14572E-15 0.36776E-15 0.21511E-15 0.15057E-14 0.97145E-16
 0.41633E-16 0.38580E-14 0.48572E-16 0.24494E-14 0.97145E-16 0.11314E-10 0.92079E-14 0.13461E-14 0.57385E-14 0.37560E-13
 -.41633E-16 0.13968E-13 -.69389E-17 0.51764E-14 0.38858E-15 0.92565E-14 0.12074E-14 0.18041E-15 0.24980E-15 0.51556E-14
 0.69389E-16 0.14607E-12 0.15196E-13 0.27986E-11 0.15959E-15 0.13461E-14 0.34001E-15 -.34694E-16 0.76744E-14 0.19875E-12
 0.55511E-16 0.27062E-15 0.23592E-15 0.33203E-13 0.14641E-14 0.57940E-14 0.22898E-15 0.75009E-14 0.29150E-13 0.18208E-13
 -.62450E-16 0.69389E-17  0.0000     0.88124E-15 0.83267E-16 0.37505E-13 0.51625E-14 0.19885E-12 0.18166E-13 0.11033E-14
 0.55511E-16 0.41633E-16 0.64532E-15 -.62450E-16 0.34694E-16 0.34694E-16 -.13878E-16 -.41633E-16 0.34694E-16 0.11102E-15
 -.55511E-16 -.83267E-16 0.90206E-14 0.18339E-13 0.12490E-15 0.37262E-14 0.94230E-14 0.15286E-12 0.13878E-15 0.13878E-15
 0.66613E-15 0.89581E-14 0.19564E-12 0.48572E-16 0.13878E-16 0.69389E-17 0.27756E-16 0.16084E-13 0.36082E-15 0.69389E-17
 -.13878E-16 0.18381E-13 -.27756E-16 0.13878E-16 0.69389E-16 0.27062E-14 0.37609E-14 0.26857E-11 0.36172E-13 0.50654E-15
 0.27756E-16 0.11796E-15 -.48572E-16 0.27756E-16 -.13878E-16 0.69389E-16 0.39552E-15 0.16653E-15 0.14572E-14 0.41633E-16
 0.41633E-16 0.36776E-14 0.55511E-16 0.27200E-14 0.83267E-16 0.13812E-10 0.63144E-14 0.13288E-14 0.49613E-14 0.23051E-13
 -.20817E-16 0.94161E-14 -.69389E-17 0.37678E-14 0.41633E-15 0.63630E-14 0.99920E-15 0.21858E-15 0.24286E-15 0.37956E-14
 0.41633E-16 0.15288E-12 0.16029E-13 0.26857E-11 0.22898E-15 0.14259E-14 0.26368E-15 0.10408E-16 0.83579E-14 0.17029E-12
 0.69389E-16 0.83267E-16 0.18041E-15 0.36145E-13 0.15543E-14 0.49578E-14 0.17694E-15 0.82087E-14 0.28116E-13 0.17666E-13
 -.27756E-16 -.27756E-16 0.90206E-16 0.43715E-15 0.69389E-16 0.23037E-13 0.39552E-14 0.17034E-12 0.17743E-13 0.13323E-14
 -.83267E-16  0.0000     0.45103E-15 -.13878E-15 -.13878E-16 -.48572E-16 0.27756E-16 -.16653E-15 -.27756E-16 0.69389E-17
 0.13878E-16 -.10408E-15 0.73552E-14 0.12712E-13 0.34694E-16 0.27200E-14 0.58634E-14 0.19210E-12 0.22898E-15 0.69389E-16
 0.49266E-15 0.73691E-14 0.20035E-12 -.27756E-16 0.41633E-16 0.20817E-16  0.0000     0.17472E-13 0.22204E-15 -.62450E-16
 0.20817E-16 0.12747E-13 -.41633E-16 0.55511E-16 0.41633E-16 0.23107E-14 0.20886E-14 0.25820E-11 0.30101E-13 0.83267E-16
 -.69389E-16 0.11102E-15 -.62450E-16 0.20817E-16 -.41633E-16 0.34694E-16 0.23592E-15 0.76328E-16 0.12802E-14 0.20817E-16
 0.13878E-16 0.27825E-14 -.27756E-16 0.23037E-14 0.13878E-16 0.30965E-10 0.43368E-14 0.15196E-14 0.38615E-14 0.49370E-14
 -.55511E-16 0.58564E-14 -.13878E-16 0.21580E-14 0.29143E-15 0.43091E-14 0.67654E-15 0.10408E-15 0.14572E-15 0.28137E-14
 -.83267E-16 0.19203E-12 0.17458E-13 0.25819E-11 0.19429E-15 0.15821E-14 0.24980E-15 0.26021E-16 0.68487E-14 0.14578E-12
  0.0000     0.76328E-16 0.19429E-15 0.30149E-13 0.12525E-14 0.37956E-14 0.78063E-16 0.67307E-14 0.28085E-13 0.15245E-13
 -.20817E-16 -.13878E-15  0.0000     0.97145E-16 0.52042E-16 0.49509E-14 0.28068E-14 0.14587E-12 0.15279E-13 0.11241E-14
 0.12490E-15 0.69389E-16 0.70777E-15 -.41633E-16 0.13878E-16 0.55511E-16 0.62450E-16 -.55511E-16 0.48572E-16 0.27756E-16
 0.11102E-15 -.13878E-16 0.19845E-14 0.10998E-13 0.11102E-15 0.27894E-14 0.42744E-14 0.19119E-12 0.29143E-15 0.97145E-16
 0.69389E-15 0.19915E-14 0.20534E-12 0.11102E-15 0.83267E-16 0.11796E-15 0.69389E-16 0.10499E-13 0.33307E-15 0.55511E-16
 0.15266E-15 0.11012E-13 0.13878E-16 0.76328E-16 0.69389E-17 0.29976E-14 0.15335E-14 0.24404E-11 0.30489E-13 0.43021E-15
 0.41633E-16 0.10408E-15 0.13878E-16 0.13878E-16 0.41633E-16 0.27756E-16 0.32613E-15 0.13878E-15 0.14225E-14 0.52042E-16
 0.27756E-16 0.27409E-14  0.0000     0.30531E-14 0.69389E-16 0.62967E-10 0.36637E-14 0.11861E-14 0.42293E-14 0.48381E-14
 -.20817E-16 0.42258E-14 0.27756E-16 0.15543E-14 0.31919E-15 0.36637E-14 0.66353E-15 0.55511E-16 0.13661E-15 0.22378E-14
 0.27756E-16 0.19110E-12 0.10519E-13 0.24404E-11 0.22204E-15 0.12776E-14 0.20817E-15 -.39031E-16 0.84585E-14 0.12555E-12
 0.76328E-16 0.69389E-16 0.29143E-15 0.30406E-13 0.13912E-14 0.42188E-14 0.13357E-15 0.84117E-14 0.26396E-13 0.14176E-13
 0.83267E-16 0.13878E-16 -.55511E-16 0.36082E-15 0.97145E-16 0.49231E-14 0.23072E-14 0.12568E-12 0.14176E-13 0.15404E-14
 -.27756E-16  0.0000     0.72164E-15 -.10408E-15 0.83267E-16 0.55511E-16 -.69389E-17 -.15266E-15 0.62450E-16 0.13878E-16
 0.97145E-16 -.69389E-16 0.19984E-14 0.84308E-14 0.55511E-16 0.22690E-14 0.28380E-14 0.24408E-12 0.23592E-15 -.41633E-16
 0.72164E-15 0.19984E-14 0.25453E-12 -.41633E-16 0.27756E-16 -.13878E-16 0.55511E-16 0.11602E-13 0.29143E-15 0.27756E-16
 -.27756E-16 0.84030E-14 -.90206E-16 0.83267E-16 0.55511E-16 0.29698E-14 0.10617E-14 0.23376E-11 0.26756E-13 0.83267E-15
 0.69389E-16 0.48572E-16 -.69389E-17  0.0000     -.83267E-16 0.55511E-16 0.15266E-15 0.12490E-15 0.17521E-14 -.34694E-16
 0.27756E-16 0.22760E-14 -.41633E-16 0.29143E-14 0.13878E-16 0.73244E-10 0.26923E-14 0.12837E-14 0.34556E-14 0.13670E-14
 -.20817E-16 0.28519E-14  0.0000     0.11727E-14 0.21511E-15 0.26090E-14 0.48052E-15 0.55511E-16 0.42501E-16 0.16445E-14
 -.41633E-16 0.24397E-12 0.11643E-13 0.23375E-11 0.20123E-15 0.14017E-14 0.83267E-16 -.78063E-17 0.74350E-14 0.10877E-12
 -.69389E-16 0.27756E-16 0.16653E-15 0.26798E-13 0.17555E-14 0.34833E-14 0.72858E-16 0.74073E-14 0.22739E-13 0.12712E-13
 -.97145E-16 -.19429E-15 -.27756E-16 0.83267E-15 0.55511E-16 0.13513E-14 0.16792E-14 0.10888E-12 0.12740E-13 0.19290E-14
 0.19429E-15 0.97145E-16 0.77716E-15 -.90206E-16 0.97145E-16 0.41633E-16 0.11102E-15 0.13878E-16 0.11102E-15 0.16653E-15
 0.22204E-15 -.55511E-16 0.36082E-15 0.68834E-14 0.76328E-16 0.20539E-14 0.23107E-14 0.24616E-12 0.27756E-15 0.27756E-16
 0.73552E-15 0.35388E-15 0.23070E-12 0.27756E-16 0.27756E-16 0.83267E-16 0.19429E-15 0.65711E-14 0.37470E-15 0.15266E-15
 0.90206E-16 0.70499E-14  0.0000     0.27756E-16 0.83267E-16 0.30809E-14 0.89512E-15 0.21804E-11 0.23065E-13 0.18249E-14
 0.69389E-16 0.55511E-16 -.55511E-16 0.55511E-16 -.13878E-16 0.69389E-16 0.18041E-15 0.55511E-16 0.17555E-14 0.27756E-16
 -.13878E-16 0.19984E-14  0.0000     0.31086E-14 0.13878E-16 0.36868E-09 0.20400E-14 0.11866E-14 0.45519E-14 0.31225E-15
 0.27756E-16 0.21996E-14 0.69389E-16 0.87430E-15 0.16653E-15 0.20539E-14 0.62797E-15 0.12490E-15 0.93675E-16 0.13045E-14
 0.41633E-16 0.24628E-12 0.64879E-14 0.21805E-11 0.16653E-15 0.12525E-14 0.13878E-15 0.29490E-16 0.85487E-14 0.97186E-13
 0.15266E-15 0.20123E-15 0.27756E-15 0.23037E-13 0.16723E-14 0.46074E-14 0.62450E-16 0.85487E-14 0.21760E-13 0.13101E-13
 0.16653E-15 0.55511E-16 0.18041E-15 0.17417E-14 0.55511E-16 0.36776E-15 0.13323E-14 0.97353E-13 0.12879E-13 0.22551E-14
 -.11102E-15 -.15266E-15 0.68001E-15 -.11102E-15 0.55511E-16 0.55511E-16  0.0000     -.41633E-16 -.69389E-16 -.55511E-16
 -.15266E-15 -.16653E-15 0.80491E-15 0.68834E-14 0.69389E-16 0.20817E-14 0.18735E-14 0.32335E-12 0.83267E-16 -.33307E-15
 0.61062E-15 0.91593E-15 0.28977E-12 0.41633E-16 0.83267E-16 -.13878E-16 0.97145E-16 0.10117E-13 0.16653E-15 -.97145E-16
 -.27756E-16 0.68279E-14 0.41633E-16 0.24980E-15 0.41633E-16 0.34001E-14 0.72164E-15 0.20937E-11 0.23453E-13 0.15266E-14
 -.55511E-16 0.20817E-16 0.55511E-16 -.41633E-16 0.13878E-16 0.69389E-16 0.15266E-15 0.13878E-15 0.20400E-14 -.27756E-16
 0.69389E-16 0.20817E-14  0.0000     0.33723E-14 0.69389E-16 0.48901E-08 0.17764E-14 0.11241E-14 0.43299E-14 0.87430E-15
 0.27756E-16 0.18319E-14 -.27756E-16 0.74940E-15 0.20817E-15 0.17347E-14 0.74940E-15 0.19429E-15 0.48572E-16 0.13045E-14
 -.27756E-16 0.32338E-12 0.10131E-13 0.20936E-11 0.97145E-16 0.11796E-14 0.19429E-15 0.27756E-16 0.90761E-14 0.83600E-13
 -.27756E-16 0.41633E-16 0.11102E-15 0.23467E-13 0.19013E-14 0.43576E-14 0.69389E-16 0.91038E-14 0.18777E-13 0.15599E-13
 -.12490E-15 -.11102E-15 -.69389E-16 0.14919E-14 -.55511E-16 0.91593E-15 0.12212E-14 0.83669E-13 0.15599E-13 0.25674E-14
 0.69389E-16 -.13878E-15 0.86042E-15 -.69389E-16 0.41633E-16 0.11102E-15 0.97145E-16 -.83267E-16 -.55511E-16 -.11102E-15
 0.13878E-16  0.0000     0.27756E-15 0.52736E-14 0.69389E-16 0.16931E-14 0.14710E-14 0.34681E-12 0.33307E-15 -.18041E-15
 0.88818E-15 0.29143E-15 0.26606E-12 -.13878E-16 0.11102E-15 0.83267E-16 0.55511E-16 0.89373E-14 0.24980E-15 0.13878E-16
 -.27756E-16 0.52180E-14 -.27756E-16 0.97145E-16 0.41633E-16 0.34417E-14 0.52736E-15 0.19322E-11 0.19776E-13 0.26645E-14
 0.27756E-16  0.0000     0.13878E-16 0.27756E-16 0.27756E-16 0.11102E-15 0.18041E-15 0.83267E-16 0.18596E-14 0.55511E-16
 0.27756E-16 0.16931E-14 0.69389E-16 0.34417E-14 0.13878E-16 0.13310E-10 0.14017E-14 0.12074E-14 0.32890E-14 0.13878E-16
 -.13878E-16 0.13600E-14 0.97145E-16 0.49960E-15 0.16653E-15 0.13323E-14 0.63838E-15 0.12490E-15 0.11102E-15 0.94369E-15
 -.27756E-16 0.34689E-12 0.88540E-14 0.19321E-11 0.15266E-15 0.12212E-14 0.16653E-15 0.27756E-16 0.76605E-14 0.76356E-13
 0.13878E-16 0.27756E-15 0.13878E-15 0.19873E-13 0.18596E-14 0.34001E-14 0.55511E-16 0.75218E-14 0.17875E-13 0.17181E-13
 -.55511E-16 -.27756E-16 0.55511E-16 0.26507E-14 0.83267E-16 0.27756E-16 0.94369E-15 0.76383E-13 0.17139E-13 0.24286E-14
 0.10408E-15 0.13878E-16 0.94369E-15  0.0000     0.11102E-15 0.55511E-16 0.41633E-16  0.0000     0.83267E-16 0.41633E-16
  0.0000     0.12490E-15 0.27756E-16 0.46352E-14 0.11102E-15 0.22204E-14 0.12212E-14 0.38174E-12 0.37470E-15 -.41633E-16
 0.88818E-15 0.55511E-16 0.32981E-12 -.27756E-16 0.11102E-15 0.97145E-16 0.11102E-15 0.68834E-14 0.26368E-15 0.97145E-16
 0.41633E-16 0.47323E-14 -.41633E-16 0.55511E-16 0.41633E-16 0.38997E-14 0.41633E-15 0.18243E-11 0.17958E-13 0.31919E-14
 0.11102E-15 0.83267E-16 -.55511E-16 -.27756E-16 -.13878E-16 0.13878E-16 0.97145E-16 0.13878E-15 0.22204E-14 0.13878E-16
 0.55511E-16 0.21649E-14 0.27756E-16 0.38580E-14 0.13878E-16 0.36876E-10 0.10270E-14 0.10131E-14 0.46907E-14 0.27756E-16
 0.69389E-16 0.10963E-14 -.41633E-16 0.47184E-15 0.12490E-15 0.11519E-14 0.88818E-15 0.97145E-16 0.41633E-16 0.88818E-15
 -.13878E-16 0.38164E-12 0.68001E-14 0.18243E-11 0.11102E-15 0.11102E-14 0.24980E-15 0.13878E-16 0.10214E-13 0.66711E-13
 0.83267E-16 0.34694E-15 0.19429E-15 0.17902E-13 0.23037E-14 0.47740E-14 0.69389E-16 0.10103E-13 0.15279E-13 0.18235E-13
 -.41633E-16 0.55511E-16 0.55511E-16 0.33029E-14 0.13878E-16 0.97145E-16 0.88818E-15 0.66724E-13 0.18249E-13 0.29837E-14
 0.55511E-16 -.13878E-16 0.92981E-15 -.83267E-16 0.27756E-16 0.27756E-16 0.55511E-16 -.41633E-16 -.55511E-16 0.20817E-16
 0.41633E-16 -.69389E-17 0.55511E-16 0.43299E-14 0.27756E-16 0.28588E-14 0.97145E-15 0.44456E-12 0.29837E-15 -.90206E-16
 0.87430E-15 -.55511E-16 0.38503E-12 0.55511E-16 0.83267E-16 -.27756E-16 0.11102E-15 0.65087E-14 0.19429E-15 -.34694E-16
 0.13878E-16 0.43854E-14 -.13878E-16 0.12490E-15 0.27756E-16 0.47740E-14 0.41633E-15 0.16632E-11 0.15279E-13 0.33584E-14
 0.13878E-16 -.13878E-16 -.27756E-16 0.13878E-16 0.13878E-16 0.83267E-16 0.83267E-16 0.69389E-16 0.28727E-14 0.69389E-16
 0.13878E-16 0.27756E-14 0.13878E-16 0.48295E-14 0.41633E-16 0.24637E-10 0.11102E-14 0.90206E-15 0.48433E-14 -.55511E-16
 -.13878E-16 0.97145E-15 0.69389E-16 0.38858E-15 0.12490E-15 0.10825E-14 0.65226E-15 0.69389E-16 0.83267E-16 0.77716E-15
 -.13878E-16 0.44451E-12 0.64948E-14 0.16631E-11 0.27756E-16 0.88818E-15 0.97145E-16 0.83267E-16 0.10672E-13 0.59147E-13
 -.13878E-16 0.34001E-15 0.16653E-15 0.15460E-13 0.27756E-14 0.48850E-14 -.27756E-16 0.10533E-13 0.13156E-13 0.18929E-13
 0.13878E-16 -.20817E-16 0.34694E-16 0.33307E-14 0.27756E-16 -.69389E-16 0.86042E-15 0.59230E-13 0.18957E-13 0.36915E-14
 -.15613E-16 -.24286E-16 0.10339E-14  0.0000     0.55511E-16  0.0000     0.13878E-16 -.13878E-16 0.41633E-16 0.45103E-16
 -.86736E-16 0.31225E-16  0.0000     0.38719E-14 0.13878E-15 0.28172E-14 0.97145E-15 0.52519E-12 0.34694E-15 -.79797E-16
 0.11380E-14 -.69389E-16 0.38639E-12 0.27756E-16 0.69389E-16 0.55511E-16 0.83267E-16 0.71193E-14 0.22204E-15 -.34694E-16
 -.41633E-16 0.38719E-14 0.55511E-16 0.18041E-15  0.0000     0.47878E-14 0.40246E-15 0.15531E-11 0.18235E-13 0.25951E-14
 0.27756E-16 0.55511E-16  0.0000     -.55511E-16 0.55511E-16 0.41633E-16 0.69389E-16  0.0000     0.28172E-14 0.41633E-16
 0.55511E-16 0.27478E-14 0.55511E-16 0.47184E-14  0.0000     0.22855E-10 0.10686E-14 0.95757E-15 0.51903E-14 0.41633E-16
 -.27756E-16 0.10408E-14 0.83267E-16 0.37470E-15 0.11102E-15 0.10825E-14 0.79103E-15 0.22204E-15 0.11102E-15 0.74940E-15
 -.55511E-16 0.52508E-12 0.71332E-14 0.15531E-11 0.41633E-16 0.97145E-15 0.27756E-15 0.27756E-16 0.11213E-13 0.54151E-13
 -.41633E-16 0.48919E-15 0.15266E-15 0.18291E-13 0.26645E-14 0.52180E-14 0.69389E-16 0.11130E-13 0.12296E-13 0.25813E-13
 -.11796E-15 -.69389E-16 0.76328E-16 0.26923E-14 0.55511E-16 0.41633E-16 0.69389E-15 0.54248E-13 0.25910E-13 0.43923E-14
  0.0000     -.11384E-16 0.11111E-14 0.50741E-16 0.17347E-16 0.55294E-16 0.47434E-16 -.28189E-17 -.28623E-16 -.21955E-16
 0.61800E-17 0.60715E-17 0.15938E-15 0.43290E-14 0.57246E-16 0.44851E-14 0.17824E-14 0.57680E-12 0.41850E-15 -.10978E-15
 0.10799E-14 0.70473E-16 0.51193E-12 0.47705E-16 0.91940E-16 0.43368E-17 0.62125E-16 0.85869E-14 0.14181E-15 -.98446E-16
 0.24286E-16 0.43568E-14 0.42501E-16 0.15266E-15 0.51174E-16 0.64775E-14 0.37580E-15 0.14248E-11 0.23984E-13 0.23427E-14