 vasp.5.4.4.18Apr17-6-g9f103f2a35 (build Jun 30 2017 11:15:00) complex          
  
 executed on    STALLO_VASP_5.4.4 date 2019.10.11  11:58:29
 running on    4 total cores
 distrk:  each k-point on    4 cores,    1 groups
 distr:  one band on NCORES_PER_BAND=   2 cores,    2 groups


--------------------------------------------------------------------------------------------------------


 INCAR:
 POTCAR:   PAW_PBE Cu 05Jan2001                   
 POTCAR:   PAW_PBE H 15Jun2001                    
 POTCAR:   PAW_PBE Cu 05Jan2001                   
   VRHFIN =Cu: d10 p1                                                           
   LEXCH  = PE                                                                  
   EATOM  =  1390.9800 eV,  102.2341 Ry                                         
                                                                                
   TITEL  = PAW_PBE Cu 05Jan2001                                                
   LULTRA =        F    use ultrasoft PP ?                                      
   IUNSCR =        1    unscreen: 0-lin 1-nonlin 2-no                           
   RPACOR =    2.000    partial core radius                                     
   POMASS =   63.546; ZVAL   =   11.000    mass and valenz                      
   RCORE  =    2.300    outmost cutoff radius                                   
   RWIGS  =    2.480; RWIGS  =    1.312    wigner-seitz radius (au A)           
   ENMAX  =  273.214; ENMIN  =  204.910 eV                                      
   RCLOC  =    1.712    cutoff for local pot                                    
   LCOR   =        T    correct aug charges                                     
   LPAW   =        T    paw PP                                                  
   EAUG   =  516.456                                                            
   DEXC   =    -.008                                                            
   RMAX   =    2.789    core radius for proj-oper                               
   RAUG   =    1.300    factor for augmentation sphere                          
   RDEP   =    2.302    radius for radial grids                                 
   QCUT   =   -4.481; QGAM   =    8.962    optimization parameters              
                                                                                
   Description                                                                  
     l     E      TYP  RCUT    TYP  RCUT                                        
     2   .000     23  2.300                                                     
     2   .000     23  2.300                                                     
     0   .000     23  2.300                                                     
     0   .000     23  2.300                                                     
     1  -.200     23  2.300                                                     
     1   .000     23  2.300                                                     
     3   .000      7   .000                                                     
  local pseudopotential read in
  partial core-charges read in
  atomic valenz-charges read in
  non local Contribution for L=           2  read in
    real space projection operators read in
  non local Contribution for L=           2  read in
    real space projection operators read in
  non local Contribution for L=           0  read in
    real space projection operators read in
  non local Contribution for L=           0  read in
    real space projection operators read in
  non local Contribution for L=           1  read in
    real space projection operators read in
  non local Contribution for L=           1  read in
    real space projection operators read in
    PAW grid and wavefunctions read in
 
   number of l-projection  operators is LMAX  =           6
   number of lm-projection operators is LMMAX =          18
 
 POTCAR:   PAW_PBE H 15Jun2001                    
   VRHFIN =H: ultrasoft test                                                    
   LEXCH  = PE                                                                  
   EATOM  =    12.4884 eV,     .9179 Ry                                         
                                                                                
   TITEL  = PAW_PBE H 15Jun2001                                                 
   LULTRA =        F    use ultrasoft PP ?                                      
   IUNSCR =        0    unscreen: 0-lin 1-nonlin 2-no                           
   RPACOR =     .000    partial core radius                                     
   POMASS =    1.000; ZVAL   =    1.000    mass and valenz                      
   RCORE  =    1.100    outmost cutoff radius                                   
   RWIGS  =     .700; RWIGS  =     .370    wigner-seitz radius (au A)           
   ENMAX  =  250.000; ENMIN  =  200.000 eV                                      
   RCLOC  =     .701    cutoff for local pot                                    
   LCOR   =        T    correct aug charges                                     
   LPAW   =        T    paw PP                                                  
   EAUG   =  400.000                                                            
   RMAX   =    2.174    core radius for proj-oper                               
   RAUG   =    1.200    factor for augmentation sphere                          
   RDEP   =    1.112    radius for radial grids                                 
   QCUT   =   -5.749; QGAM   =   11.498    optimization parameters              
                                                                                
   Description                                                                  
     l     E      TYP  RCUT    TYP  RCUT                                        
     0   .000     23  1.100                                                     
     0   .500     23  1.100                                                     
     1  -.300     23  1.100                                                     
  local pseudopotential read in
  atomic valenz-charges read in
  non local Contribution for L=           0  read in
    real space projection operators read in
  non local Contribution for L=           0  read in
    real space projection operators read in
  non local Contribution for L=           1  read in
    real space projection operators read in
    PAW grid and wavefunctions read in
 
   number of l-projection  operators is LMAX  =           3
   number of lm-projection operators is LMMAX =           5
 

 ----------------------------------------------------------------------------- 
|                                                                             |
|  ADVICE TO THIS USER RUNNING 'VASP/VAMP'   (HEAR YOUR MASTER'S VOICE ...):  |
|                                                                             |
|      You have a (more or less) 'small supercell' and for smaller cells      |
|      it is recommended  to use the reciprocal-space projection scheme!      |
|      The real space optimization is not  efficient for small cells and it   |
|      is also less accurate ...                                              |
|      Therefore set LREAL=.FALSE. in the  INCAR file                         |
|                                                                             |
 ----------------------------------------------------------------------------- 

 Optimization of the real space projectors (new method)

 maximal supplied QI-value         = 16.25
 optimisation between [QCUT,QGAM] = [  7.96, 16.09] = [ 17.76, 72.49] Ry 
 Optimized for a Real-space Cutoff    1.70 Angstroem

   l    n(q)    QCUT    max X(q) W(low)/X(q) W(high)/X(q)  e(spline) 
   2      7     7.963     4.977    0.65E-04    0.90E-04    0.59E-07
   2      7     7.963    13.467    0.48E-03    0.73E-03    0.12E-06
   0      8     7.963    13.303    0.22E-04    0.12E-04    0.51E-08
   0      8     7.963    44.613    0.10E-03    0.16E-03    0.47E-07
   1      8     7.963     5.276    0.66E-04    0.10E-04    0.22E-07
   1      8     7.963     7.322    0.38E-03    0.18E-03    0.17E-06
 Optimization of the real space projectors (new method)

 maximal supplied QI-value         = 34.20
 optimisation between [QCUT,QGAM] = [  7.87, 16.08] = [ 17.33, 72.37] Ry 
 Optimized for a Real-space Cutoff    1.85 Angstroem

   l    n(q)    QCUT    max X(q) W(low)/X(q) W(high)/X(q)  e(spline) 
   0      9     7.867     4.436    0.44E-04    0.71E-04    0.23E-06
   0      9     7.867    15.341    0.29E-03    0.73E-03    0.99E-06
   1      8     7.867     4.196    0.27E-03    0.13E-02    0.91E-06
 PAW_PBE Cu 05Jan2001                   :
 energy of atom  1       EATOM=-1390.9800
 kinetic energy error for atom=    0.0930 (will be added to EATOM!!)
 PAW_PBE H 15Jun2001                    :
 energy of atom  2       EATOM=  -12.4884
 kinetic energy error for atom=    0.0868 (will be added to EATOM!!)
 
 
 POSCAR: Cu  H                                   
  positions in cartesian coordinates
  velocities in cartesian coordinates
 exchange correlation table for  LEXCH =        8
   RHO(1)=    0.500       N(1)  =     2000
   RHO(2)=  100.500       N(2)  =     4000
 


--------------------------------------------------------------------------------------------------------


 ion  position               nearest neighbor table
   1  0.000  0.000  0.399-   2 2.55   2 2.55   2 2.55
   2  0.333  0.333  0.467-   1 2.55   1 2.55   1 2.55   3 2.56   3 2.56   3 2.56
   3  0.667  0.667  0.536-   2 2.56   2 2.56   2 2.56   4 2.58   4 2.58   4 2.58
   4  0.000  0.000  0.606-   5 1.61   3 2.58   3 2.58   3 2.58
   5  0.000  0.000  0.659-   4 1.61
 
  LATTYP: Found a hexagonal cell.
 ALAT       =     2.5738686835
 C/A-ratio  =    11.7739747694
  
  Lattice vectors:
  
 A1 = (   1.2869343418,  -2.2290356659,   0.0000000000)
 A2 = (  -2.5738686835,   0.0000000000,   0.0000000000)
 A3 = (   0.0000000000,   0.0000000000, -30.3046649396)


Analysis of symmetry for initial positions (statically):
=====================================================================
 Subroutine PRICEL returns:
 Original cell was already a primitive cell.
 

 Routine SETGRP: Setting up the symmetry group for a 
 hexagonal supercell.


 Subroutine GETGRP returns: Found  6 space group operations
 (whereof  6 operations were pure point group operations)
 out of a pool of 24 trial point group operations.


The static configuration has the point symmetry C_3v.


Analysis of symmetry for dynamics (positions and initial velocities):
=====================================================================
 Subroutine PRICEL returns:
 Original cell was already a primitive cell.
 

 Routine SETGRP: Setting up the symmetry group for a 
 hexagonal supercell.


 Subroutine GETGRP returns: Found  6 space group operations
 (whereof  6 operations were pure point group operations)
 out of a pool of 24 trial point group operations.


The dynamic configuration has the point symmetry C_3v.


 Subroutine INISYM returns: Found  6 space group operations
 (whereof  6 operations are pure point group operations),
 and found     1 'primitive' translations

 
 
 KPOINTS: k-density: 4.0                          

Automatic generation of k-mesh.
Space group operators:
 irot       det(A)        alpha          n_x          n_y          n_z        tau_x        tau_y        tau_z
    1     1.000000     0.000001     1.000000     0.000000     0.000000     0.000000     0.000000     0.000000
    2     1.000000   120.000000     0.000000     0.000000     1.000000     0.000000     0.000000     0.000000
    3     1.000000   120.000000     0.000000     0.000000    -1.000000     0.000000     0.000000     0.000000
    4    -1.000000   180.000000     0.500000    -0.866025     0.000000     0.000000     0.000000     0.000000
    5    -1.000000   180.000000     1.000000     0.000000     0.000000     0.000000     0.000000     0.000000
    6    -1.000000   180.000000    -0.500000    -0.866025     0.000000     0.000000     0.000000     0.000000
 
 Subroutine IBZKPT returns following result:
 ===========================================
 
 Found     14 irreducible k-points:
 
 Following reciprocal coordinates:
            Coordinates               Weight
  0.000000  0.000000  0.000000      1.000000
  0.100000  0.000000  0.000000      6.000000
  0.200000 -0.000000  0.000000      6.000000
  0.300000 -0.000000  0.000000      6.000000
  0.400000 -0.000000  0.000000      6.000000
  0.500000 -0.000000  0.000000      3.000000
  0.200000  0.100000  0.000000      6.000000
  0.300000  0.100000  0.000000     12.000000
  0.400000  0.100000  0.000000     12.000000
  0.500000  0.100000  0.000000     12.000000
  0.400000  0.200000  0.000000      6.000000
  0.500000  0.200000  0.000000     12.000000
 -0.400000  0.200000  0.000000      6.000000
 -0.400000  0.300000  0.000000      6.000000
 
 Following cartesian coordinates:
            Coordinates               Weight
  0.000000  0.000000  0.000000      1.000000
  0.038852 -0.022431  0.000000      6.000000
  0.077704 -0.044862  0.000000      6.000000
  0.116556 -0.067294  0.000000      6.000000
  0.155408 -0.089725  0.000000      6.000000
  0.194260 -0.112156  0.000000      3.000000
  0.077704 -0.000000  0.000000      6.000000
  0.116556 -0.022431  0.000000     12.000000
  0.155408 -0.044862  0.000000     12.000000
  0.194260 -0.067294  0.000000     12.000000
  0.155408  0.000000  0.000000      6.000000
  0.194260 -0.022431  0.000000     12.000000
 -0.155408  0.179450  0.000000      6.000000
 -0.155408  0.224312  0.000000      6.000000
 


--------------------------------------------------------------------------------------------------------




 Dimension of arrays:
   k-points           NKPTS =     14   k-points in BZ     NKDIM =     14   number of bands    NBANDS=     28
   number of dos      NEDOS =   2401   number of ions     NIONS =      5
   non local maximal  LDIM  =      6   non local SUM 2l+1 LMDIM =     18
   total plane-waves  NPLWV =  12000
   max r-space proj   IRMAX =   1888   max aug-charges    IRDMAX=   2622
   dimension x,y,z NGX =    10 NGY =   10 NGZ =  120
   dimension x,y,z NGXF=    20 NGYF=   20 NGZF=  240
   support grid    NGXF=    20 NGYF=   20 NGZF=  240
   ions per type =               4   1
   NGX,Y,Z   is equivalent  to a cutoff of   6.46,  6.46,  6.58 a.u.
   NGXF,Y,Z  is equivalent  to a cutoff of  12.92, 12.92, 13.17 a.u.

 SYSTEM =  unknown system                          
 POSCAR =  Cu  H                                   

 Startparameter for this run:
   NWRITE =      2    write-flag & timer
   PREC   = normal    normal or accurate (medium, high low for compatibility)
   ISTART =      0    job   : 0-new  1-cont  2-samecut
   ICHARG =      2    charge: 1-file 2-atom 10-const
   ISPIN  =      1    spin polarized calculation?
   LNONCOLLINEAR =      F non collinear calculations
   LSORBIT =      F    spin-orbit coupling
   INIWAV =      1    electr: 0-lowe 1-rand  2-diag
   LASPH  =      F    aspherical Exc in radial PAW
   METAGGA=      F    non-selfconsistent MetaGGA calc.

 Electronic Relaxation 1
   ENCUT  =  250.0 eV  18.37 Ry    4.29 a.u.   3.32  3.32 39.07*2*pi/ulx,y,z
   ENINI  =  250.0     initial cutoff
   ENAUG  =  516.5 eV  augmentation charge cutoff
   NELM   =     60;   NELMIN=  4; NELMDL=  0     # of ELM steps 
   EDIFF  = 0.1E-05   stopping-criterion for ELM
   LREAL  =      T    real-space projection
   NLSPLINE    = F    spline interpolate recip. space projectors
   LCOMPAT=      F    compatible to vasp.4.4
   GGA_COMPAT  = T    GGA compatible to vasp.4.4-vasp.4.6
   LMAXPAW     = -100 max onsite density
   LMAXMIX     =    2 max onsite mixed and CHGCAR
   VOSKOWN=      0    Vosko Wilk Nusair interpolation
   ROPT   =   -0.00050  -0.00050
 Ionic relaxation
   EDIFFG = 0.1E-04   stopping-criterion for IOM
   NSW    =      0    number of steps for IOM
   NBLOCK =      1;   KBLOCK =      1    inner block; outer block 
   IBRION =     -1    ionic relax: 0-MD 1-quasi-New 2-CG
   NFREE  =      0    steps in history (QN), initial steepest desc. (CG)
   ISIF   =      2    stress and relaxation
   IWAVPR =     10    prediction:  0-non 1-charg 2-wave 3-comb
   ISYM   =      2    0-nonsym 1-usesym 2-fastsym
   LCORR  =      T    Harris-Foulkes like correction to forces

   POTIM  = 0.5000    time-step for ionic-motion
   TEIN   =    0.0    initial temperature
   TEBEG  =    0.0;   TEEND  =   0.0 temperature during run
   SMASS  =  -3.00    Nose mass-parameter (am)
   estimated Nose-frequenzy (Omega)   =  0.10E-29 period in steps =****** mass=  -0.151E-27a.u.
   SCALEE = 1.0000    scale energy and forces
   NPACO  =    256;   APACO  = 16.0  distance and # of slots for P.C.
   PSTRESS=    0.0 pullay stress

  Mass of Ions in am
   POMASS =  63.55  1.00
  Ionic Valenz
   ZVAL   =  11.00  1.00
  Atomic Wigner-Seitz radii
   RWIGS  =  -1.00 -1.00
  virtual crystal weights 
   VCA    =   1.00  1.00
   NELECT =      45.0000    total number of electrons
   NUPDOWN=      -1.0000    fix difference up-down

 DOS related values:
   EMIN   = -17.00;   EMAX   =  7.00  energy-range for DOS
   EFERMI =   0.00
   ISMEAR =     0;   SIGMA  =   0.10  broadening in eV -4-tet -1-fermi 0-gaus

 Electronic relaxation 2 (details)
   IALGO  =     68    algorithm
   LDIAG  =      T    sub-space diagonalisation (order eigenvalues)
   LSUBROT=      F    optimize rotation matrix (better conditioning)
   TURBO    =      0    0=normal 1=particle mesh
   IRESTART =      0    0=no restart 2=restart with 2 vectors
   NREBOOT  =      0    no. of reboots
   NMIN     =      0    reboot dimension
   EREF     =   0.00    reference energy to select bands
   IMIX   =      4    mixing-type and parameters
     AMIX     =   0.40;   BMIX     =  1.00
     AMIX_MAG =   1.60;   BMIX_MAG =  1.00
     AMIN     =   0.10
     WC   =   100.;   INIMIX=   1;  MIXPRE=   1;  MAXMIX= -45

 Intra band minimization:
   WEIMIN = 0.0000     energy-eigenvalue tresh-hold
   EBREAK =  0.89E-08  absolut break condition
   DEPER  =   0.30     relativ break condition  

   TIME   =   0.40     timestep for ELM

  volume/ion in A,a.u.               =      34.77       234.66
  Fermi-wavevector in a.u.,A,eV,Ry     =   1.043297  1.971546 14.809520  1.088469
  Thomas-Fermi vector in A             =   2.178000
 
 Write flags
   LWAVE        =      F    write WAVECAR
   LDOWNSAMPLE  =      F    k-point downsampling of WAVECAR
   LCHARG       =      T    write CHGCAR
   LVTOT        =      F    write LOCPOT, total local potential
   LVHAR        =      F    write LOCPOT, Hartree potential only
   LELF         =      T    write electronic localiz. function (ELF)
   LORBIT       =     11    0 simple, 1 ext, 2 COOP (PROOUT), +10 PAW based schemes


 Dipole corrections
   LMONO  =      F    monopole corrections only (constant potential shift)
   LDIPOL =      F    correct potential (dipole corrections)
   IDIPOL =      0    1-x, 2-y, 3-z, 4-all directions 
   EPSILON=  1.0000000 bulk dielectric constant

 Exchange correlation treatment:
   GGA     =    --    GGA type
   LEXCH   =     8    internal setting for exchange type
   VOSKOWN=      0    Vosko Wilk Nusair interpolation
   LHFCALC =     F    Hartree Fock is set to
   LHFONE  =     F    Hartree Fock one center treatment
   AEXX    =    0.0000 exact exchange contribution

 Linear response parameters
   LEPSILON=     F    determine dielectric tensor
   LRPA    =     F    only Hartree local field effects (RPA)
   LNABLA  =     F    use nabla operator in PAW spheres
   LVEL    =     F    velocity operator in full k-point grid
   LINTERFAST=   F  fast interpolation
   KINTER  =     0    interpolate to denser k-point grid
   CSHIFT  =0.1000    complex shift for real part using Kramers Kronig
   OMEGAMAX=  -1.0    maximum frequency
   DEG_THRESHOLD= 0.2000000E-02 threshold for treating states as degnerate
   RTIME   =   -0.100 relaxation time in fs
  (WPLASMAI=    0.000 imaginary part of plasma frequency in eV, 0.658/RTIME)
   DFIELD  = 0.0000000 0.0000000 0.0000000 field for delta impulse in time
 
 Orbital magnetization related:
   ORBITALMAG=     F  switch on orbital magnetization
   LCHIMAG   =     F  perturbation theory with respect to B field
   DQ        =  0.001000  dq finite difference perturbation B field
   LLRAUG    =     F  two centre corrections for induced B field



--------------------------------------------------------------------------------------------------------


 Static calculation
 charge density and potential will be updated during run
 non-spin polarized calculation
 RMM-DIIS sequential band-by-band and
  variant of blocked Davidson during initial phase
 perform sub-space diagonalisation
    before iterative eigenvector-optimisation
 modified Broyden-mixing scheme, WC =      100.0
 initial mixing is a Kerker type mixing with AMIX =  0.4000 and BMIX =      1.0000
 Hartree-type preconditioning will be used
 using additional bands            5
 real space projection scheme for non local part
 use partial core corrections
 calculate Harris-corrections to forces 
   (improved forces if not selfconsistent)
 use gradient corrections 
 use of overlap-Matrix (Vanderbilt PP)
 Gauss-broadening in eV      SIGMA  =   0.10


--------------------------------------------------------------------------------------------------------


  energy-cutoff  :      250.00
  volume of cell :      173.87
      direct lattice vectors                 reciprocal lattice vectors
     2.573868684  0.000000000  0.000000000     0.388520209 -0.224312248  0.000000000
     1.286934342  2.229035666  0.000000000     0.000000000  0.448624495  0.000000000
     0.000000000  0.000000000 30.304664940     0.000000000  0.000000000  0.032998220

  length of vectors
     2.573868684  2.573868684 30.304664940     0.448624495  0.448624495  0.032998220


 
 k-points in units of 2pi/SCALE and weight: k-density: 4.0                          
   0.00000000  0.00000000  0.00000000       0.010
   0.03885202 -0.02243122  0.00000000       0.060
   0.07770404 -0.04486245  0.00000000       0.060
   0.11655606 -0.06729367  0.00000000       0.060
   0.15540808 -0.08972490  0.00000000       0.060
   0.19426010 -0.11215612  0.00000000       0.030
   0.07770404 -0.00000000  0.00000000       0.060
   0.11655606 -0.02243122  0.00000000       0.120
   0.15540808 -0.04486245  0.00000000       0.120
   0.19426010 -0.06729367  0.00000000       0.120
   0.15540808  0.00000000  0.00000000       0.060
   0.19426010 -0.02243122  0.00000000       0.120
  -0.15540808  0.17944980  0.00000000       0.060
  -0.15540808  0.22431225  0.00000000       0.060
 
 k-points in reciprocal lattice and weights: k-density: 4.0                          
   0.00000000  0.00000000  0.00000000       0.010
   0.10000000  0.00000000  0.00000000       0.060
   0.20000000 -0.00000000  0.00000000       0.060
   0.30000000 -0.00000000  0.00000000       0.060
   0.40000000 -0.00000000  0.00000000       0.060
   0.50000000 -0.00000000  0.00000000       0.030
   0.20000000  0.10000000  0.00000000       0.060
   0.30000000  0.10000000  0.00000000       0.120
   0.40000000  0.10000000  0.00000000       0.120
   0.50000000  0.10000000  0.00000000       0.120
   0.40000000  0.20000000  0.00000000       0.060
   0.50000000  0.20000000  0.00000000       0.120
  -0.40000000  0.20000000  0.00000000       0.060
  -0.40000000  0.30000000  0.00000000       0.060
 
 position of ions in fractional coordinates (direct lattice) 
   0.00000000  0.00000000  0.39881502
   0.33333333  0.33333333  0.46725011
   0.66666666  0.66666667  0.53604203
   0.00000000  0.00000000  0.60568418
   0.00000000  0.00000000  0.65892664
 
 position of ions in cartesian coordinates  (Angst):
   0.00000000  0.00000000 12.08595557
   1.28693434  0.74301189 14.15985791
   2.57386868  1.48602378 16.24457397
   0.00000000  0.00000000 18.35505625
   0.00000000  0.00000000 19.96855112
 


--------------------------------------------------------------------------------------------------------


 k-point  1 :   0.0000 0.0000 0.0000  plane waves:    1609
 k-point  2 :   0.1000 0.0000 0.0000  plane waves:    1589
 k-point  3 :   0.2000-0.0000 0.0000  plane waves:    1586
 k-point  4 :   0.3000-0.0000 0.0000  plane waves:    1542
 k-point  5 :   0.4000-0.0000 0.0000  plane waves:    1568
 k-point  6 :   0.5000-0.0000 0.0000  plane waves:    1570
 k-point  7 :   0.2000 0.1000 0.0000  plane waves:    1579
 k-point  8 :   0.3000 0.1000 0.0000  plane waves:    1569
 k-point  9 :   0.4000 0.1000 0.0000  plane waves:    1552
 k-point 10 :   0.5000 0.1000 0.0000  plane waves:    1549
 k-point 11 :   0.4000 0.2000 0.0000  plane waves:    1545
 k-point 12 :   0.5000 0.2000 0.0000  plane waves:    1549
 k-point 13 :  -0.4000 0.2000 0.0000  plane waves:    1546
 k-point 14 :  -0.4000 0.3000 0.0000  plane waves:    1547

 maximum and minimum number of plane-waves per node :       808      768

 maximum number of plane-waves:      1609
 maximum index in each direction: 
   IXMAX=    3   IYMAX=    3   IZMAX=   39
   IXMIN=   -3   IYMIN=   -3   IZMIN=  -39


 real space projection operators:
  total allocation   :        839.41 KBytes
  max/ min on nodes  :        421.07        418.34


 parallel 3D FFT for wavefunctions:
    minimum data exchange during FFTs selected (reduces bandwidth)
 parallel 3D FFT for charge:
    minimum data exchange during FFTs selected (reduces bandwidth)


 total amount of memory used by VASP MPI-rank0    35969. kBytes
=======================================================================

   base      :      30000. kBytes
   nonlr-proj:        671. kBytes
   fftplans  :        995. kBytes
   grid      :       1592. kBytes
   one-center:         46. kBytes
   wavefun   :       2665. kBytes
 
     INWAV:  cpu time    0.0000: real time    0.0000
 Broyden mixing: mesh for mixing (old mesh)
   NGX =  7   NGY =  7   NGZ = 79
  (NGX  = 20   NGY  = 20   NGZ  =240)
  gives a total of   3871 points

 initial charge density was supplied:
 charge density of overlapping atoms calculated
 number of electron      45.0000000 magnetization 
 keeping initial charge density in first step


--------------------------------------------------------------------------------------------------------


 Maximum index for non-local projection operator          865
 Maximum index for augmentation-charges          590 (set IRDMAX)


--------------------------------------------------------------------------------------------------------


 First call to EWALD:  gamma=   0.318
 Maximum number of real-space cells 6x 6x 1
 Maximum number of reciprocal cells 2x 2x13

    FEWALD:  cpu time    0.0020: real time    0.0015


--------------------------------------- Iteration      1(   1)  ---------------------------------------


    POTLOK:  cpu time    0.0150: real time    0.0448
    SETDIJ:  cpu time    0.0040: real time    0.0040
     EDDAV:  cpu time    0.2740: real time    0.2789
       DOS:  cpu time    0.0030: real time    0.0026
    --------------------------------------------
      LOOP:  cpu time    0.2960: real time    0.3304

 eigenvalue-minimisations  :   800
 total energy-change (2. order) : 0.1977024E+03  (-0.1394370E+04)
 number of electron      45.0000000 magnetization 
 augmentation part       45.0000000 magnetization 

 Free energy of the ion-electron system (eV)
  ---------------------------------------------------
  alpha Z        PSCENC =       120.87645803
  Ewald energy   TEWEN  =     37890.90821111
  -Hartree energ DENC   =    -43015.22831734
  -exchange      EXHF   =         0.00000000
  -V(xc)+E(xc)   XCENC  =       177.06070820
  PAW double counting   =      4328.99049516    -4905.09836044
  entropy T*S    EENTRO =        -0.01429956
  eigenvalues    EBANDS =        24.25786603
  atomic energy  EATOM  =      5575.94961827
  Solvation  Ediel_sol  =         0.00000000
  ---------------------------------------------------
  free energy    TOTEN  =       197.70237946 eV

  energy without entropy =      197.71667901  energy(sigma->0) =      197.70952923


--------------------------------------------------------------------------------------------------------




--------------------------------------- Iteration      1(   2)  ---------------------------------------


     EDDAV:  cpu time    0.2760: real time    0.2769
       DOS:  cpu time    0.0030: real time    0.0026
    --------------------------------------------
      LOOP:  cpu time    0.2790: real time    0.2796

 eigenvalue-minimisations  :   828
 total energy-change (2. order) :-0.2077098E+03  (-0.2021943E+03)
 number of electron      45.0000000 magnetization 
 augmentation part       45.0000000 magnetization 

 Free energy of the ion-electron system (eV)
  ---------------------------------------------------
  alpha Z        PSCENC =       120.87645803
  Ewald energy   TEWEN  =     37890.90821111
  -Hartree energ DENC   =    -43015.22831734
  -exchange      EXHF   =         0.00000000
  -V(xc)+E(xc)   XCENC  =       177.06070820
  PAW double counting   =      4328.99049516    -4905.09836044
  entropy T*S    EENTRO =        -0.02326368
  eigenvalues    EBANDS =      -183.44300603
  atomic energy  EATOM  =      5575.94961827
  Solvation  Ediel_sol  =         0.00000000
  ---------------------------------------------------
  free energy    TOTEN  =       -10.00745673 eV

  energy without entropy =       -9.98419305  energy(sigma->0) =       -9.99582489


--------------------------------------------------------------------------------------------------------




--------------------------------------- Iteration      1(   3)  ---------------------------------------


     EDDAV:  cpu time    0.2830: real time    0.2837
       DOS:  cpu time    0.0020: real time    0.0026
    --------------------------------------------
      LOOP:  cpu time    0.2850: real time    0.2863

 eigenvalue-minimisations  :   852
 total energy-change (2. order) :-0.1039824E+02  (-0.9972949E+01)
 number of electron      45.0000000 magnetization 
 augmentation part       45.0000000 magnetization 

 Free energy of the ion-electron system (eV)
  ---------------------------------------------------
  alpha Z        PSCENC =       120.87645803
  Ewald energy   TEWEN  =     37890.90821111
  -Hartree energ DENC   =    -43015.22831734
  -exchange      EXHF   =         0.00000000
  -V(xc)+E(xc)   XCENC  =       177.06070820
  PAW double counting   =      4328.99049516    -4905.09836044
  entropy T*S    EENTRO =        -0.02031517
  eigenvalues    EBANDS =      -193.84419735
  atomic energy  EATOM  =      5575.94961827
  Solvation  Ediel_sol  =         0.00000000
  ---------------------------------------------------
  free energy    TOTEN  =       -20.40569954 eV

  energy without entropy =      -20.38538437  energy(sigma->0) =      -20.39554195


--------------------------------------------------------------------------------------------------------




--------------------------------------- Iteration      1(   4)  ---------------------------------------


     EDDAV:  cpu time    0.2850: real time    0.2864
       DOS:  cpu time    0.0010: real time    0.0026
    --------------------------------------------
      LOOP:  cpu time    0.2860: real time    0.2890

 eigenvalue-minimisations  :   856
 total energy-change (2. order) :-0.1720398E+00  (-0.1713007E+00)
 number of electron      45.0000000 magnetization 
 augmentation part       45.0000000 magnetization 

 Free energy of the ion-electron system (eV)
  ---------------------------------------------------
  alpha Z        PSCENC =       120.87645803
  Ewald energy   TEWEN  =     37890.90821111
  -Hartree energ DENC   =    -43015.22831734
  -exchange      EXHF   =         0.00000000
  -V(xc)+E(xc)   XCENC  =       177.06070820
  PAW double counting   =      4328.99049516    -4905.09836044
  entropy T*S    EENTRO =        -0.01986780
  eigenvalues    EBANDS =      -194.01668454
  atomic energy  EATOM  =      5575.94961827
  Solvation  Ediel_sol  =         0.00000000
  ---------------------------------------------------
  free energy    TOTEN  =       -20.57773935 eV

  energy without entropy =      -20.55787155  energy(sigma->0) =      -20.56780545


--------------------------------------------------------------------------------------------------------




--------------------------------------- Iteration      1(   5)  ---------------------------------------


     EDDAV:  cpu time    0.3050: real time    0.3051
       DOS:  cpu time    0.0030: real time    0.0026
    CHARGE:  cpu time    0.0170: real time    0.0170
    MIXING:  cpu time    0.0010: real time    0.0010
    --------------------------------------------
      LOOP:  cpu time    0.3260: real time    0.3258

 eigenvalue-minimisations  :   936
 total energy-change (2. order) :-0.1313518E-02  (-0.1313384E-02)
 number of electron      44.9999976 magnetization 
 augmentation part       26.4753818 magnetization 

 Broyden mixing:
  rms(total) = 0.15731E+01    rms(broyden)= 0.15724E+01
  rms(prec ) = 0.16379E+01
  weight for this iteration     100.00

 Free energy of the ion-electron system (eV)
  ---------------------------------------------------
  alpha Z        PSCENC =       120.87645803
  Ewald energy   TEWEN  =     37890.90821111
  -Hartree energ DENC   =    -43015.22831734
  -exchange      EXHF   =         0.00000000
  -V(xc)+E(xc)   XCENC  =       177.06070820
  PAW double counting   =      4328.99049516    -4905.09836044
  entropy T*S    EENTRO =        -0.01986318
  eigenvalues    EBANDS =      -194.01800267
  atomic energy  EATOM  =      5575.94961827
  Solvation  Ediel_sol  =         0.00000000
  ---------------------------------------------------
  free energy    TOTEN  =       -20.57905287 eV

  energy without entropy =      -20.55918969  energy(sigma->0) =      -20.56912128


--------------------------------------------------------------------------------------------------------




--------------------------------------- Iteration      1(   6)  ---------------------------------------


    POTLOK:  cpu time    0.0110: real time    0.0117
    SETDIJ:  cpu time    0.0040: real time    0.0032
    EDDIAG:  cpu time    0.0560: real time    0.0570
  RMM-DIIS:  cpu time    0.1650: real time    0.1653
    ORTHCH:  cpu time    0.0070: real time    0.0072
       DOS:  cpu time    0.0030: real time    0.0027
    CHARGE:  cpu time    0.0170: real time    0.0164
    MIXING:  cpu time    0.0000: real time    0.0007
    --------------------------------------------
      LOOP:  cpu time    0.2630: real time    0.2643

 eigenvalue-minimisations  :   867
 total energy-change (2. order) : 0.8738178E+00  (-0.5060747E+01)
 number of electron      44.9999985 magnetization 
 augmentation part       30.2728434 magnetization 

 Broyden mixing:
  rms(total) = 0.96069E+00    rms(broyden)= 0.96008E+00
  rms(prec ) = 0.10715E+01
  weight for this iteration     100.00

 eigenvalues of (default mixing * dielectric matrix)
  average eigenvalue GAMMA=   0.6249
  0.6249

 Free energy of the ion-electron system (eV)
  ---------------------------------------------------
  alpha Z        PSCENC =       120.87645803
  Ewald energy   TEWEN  =     37890.90821111
  -Hartree energ DENC   =    -42864.59618683
  -exchange      EXHF   =         0.00000000
  -V(xc)+E(xc)   XCENC  =       171.59782292
  PAW double counting   =      4193.41633933    -4731.40072228
  entropy T*S    EENTRO =        -0.00984582
  eigenvalues    EBANDS =      -376.44692980
  atomic energy  EATOM  =      5575.94961827
  Solvation  Ediel_sol  =         0.00000000
  ---------------------------------------------------
  free energy    TOTEN  =       -19.70523507 eV

  energy without entropy =      -19.69538925  energy(sigma->0) =      -19.70031216


--------------------------------------------------------------------------------------------------------




--------------------------------------- Iteration      1(   7)  ---------------------------------------


    POTLOK:  cpu time    0.0110: real time    0.0115
    SETDIJ:  cpu time    0.0040: real time    0.0032
    EDDIAG:  cpu time    0.0550: real time    0.0562
  RMM-DIIS:  cpu time    0.1640: real time    0.1631
    ORTHCH:  cpu time    0.0070: real time    0.0072
       DOS:  cpu time    0.0020: real time    0.0026
    CHARGE:  cpu time    0.0170: real time    0.0166
    MIXING:  cpu time    0.0010: real time    0.0005
    --------------------------------------------
      LOOP:  cpu time    0.2610: real time    0.2610

 eigenvalue-minimisations  :   856
 total energy-change (2. order) : 0.2640818E+01  (-0.9568630E+00)
 number of electron      44.9999983 magnetization 
 augmentation part       28.6543459 magnetization 

 Broyden mixing:
  rms(total) = 0.39644E+00    rms(broyden)= 0.39607E+00
  rms(prec ) = 0.63635E+00
  weight for this iteration     100.00

 eigenvalues of (default mixing * dielectric matrix)
  average eigenvalue GAMMA=   0.4196
  0.6424  0.1967

 Free energy of the ion-electron system (eV)
  ---------------------------------------------------
  alpha Z        PSCENC =       120.87645803
  Ewald energy   TEWEN  =     37890.90821111
  -Hartree energ DENC   =    -42945.66981341
  -exchange      EXHF   =         0.00000000
  -V(xc)+E(xc)   XCENC  =       173.40415220
  PAW double counting   =      4305.22895704    -4869.91068699
  entropy T*S    EENTRO =        -0.01236357
  eigenvalues    EBANDS =      -267.83894981
  atomic energy  EATOM  =      5575.94961827
  Solvation  Ediel_sol  =         0.00000000
  ---------------------------------------------------
  free energy    TOTEN  =       -17.06441714 eV

  energy without entropy =      -17.05205357  energy(sigma->0) =      -17.05823535


--------------------------------------------------------------------------------------------------------




--------------------------------------- Iteration      1(   8)  ---------------------------------------


    POTLOK:  cpu time    0.0110: real time    0.0137
    SETDIJ:  cpu time    0.0040: real time    0.0033
    EDDIAG:  cpu time    0.0550: real time    0.0563
  RMM-DIIS:  cpu time    0.1640: real time    0.1635
    ORTHCH:  cpu time    0.0070: real time    0.0072
       DOS:  cpu time    0.0030: real time    0.0026
    CHARGE:  cpu time    0.0160: real time    0.0164
    MIXING:  cpu time    0.0010: real time    0.0005
    --------------------------------------------
      LOOP:  cpu time    0.2610: real time    0.2635

 eigenvalue-minimisations  :   861
 total energy-change (2. order) : 0.6844159E+00  (-0.2971985E-01)
 number of electron      44.9999978 magnetization 
 augmentation part       28.7468470 magnetization 

 Broyden mixing:
  rms(total) = 0.17749E+00    rms(broyden)= 0.17659E+00
  rms(prec ) = 0.20027E+00
  weight for this iteration     100.00

 eigenvalues of (default mixing * dielectric matrix)
  average eigenvalue GAMMA=   0.5411
  0.8951  0.5394  0.1889

 Free energy of the ion-electron system (eV)
  ---------------------------------------------------
  alpha Z        PSCENC =       120.87645803
  Ewald energy   TEWEN  =     37890.90821111
  -Hartree energ DENC   =    -42940.06008199
  -exchange      EXHF   =         0.00000000
  -V(xc)+E(xc)   XCENC  =       173.38817699
  PAW double counting   =      4313.52220886    -4879.92523947
  entropy T*S    EENTRO =        -0.01104789
  eigenvalues    EBANDS =      -271.02830515
  atomic energy  EATOM  =      5575.94961827
  Solvation  Ediel_sol  =         0.00000000
  ---------------------------------------------------
  free energy    TOTEN  =       -16.38000125 eV

  energy without entropy =      -16.36895336  energy(sigma->0) =      -16.37447730


--------------------------------------------------------------------------------------------------------




--------------------------------------- Iteration      1(   9)  ---------------------------------------


    POTLOK:  cpu time    0.0110: real time    0.0116
    SETDIJ:  cpu time    0.0040: real time    0.0032
    EDDIAG:  cpu time    0.0550: real time    0.0562
  RMM-DIIS:  cpu time    0.1650: real time    0.1645
    ORTHCH:  cpu time    0.0070: real time    0.0072
       DOS:  cpu time    0.0020: real time    0.0027
    CHARGE:  cpu time    0.0180: real time    0.0164
    MIXING:  cpu time    0.0000: real time    0.0010
    --------------------------------------------
      LOOP:  cpu time    0.2620: real time    0.2629

 eigenvalue-minimisations  :   855
 total energy-change (2. order) : 0.6211999E-01  (-0.8078043E-02)
 number of electron      44.9999980 magnetization 
 augmentation part       28.7180571 magnetization 

 Broyden mixing:
  rms(total) = 0.80159E-01    rms(broyden)= 0.80116E-01
  rms(prec ) = 0.85733E-01
  weight for this iteration     100.00

 eigenvalues of (default mixing * dielectric matrix)
  average eigenvalue GAMMA=   0.8175
  1.9121  0.5779  0.5779  0.2022

 Free energy of the ion-electron system (eV)
  ---------------------------------------------------
  alpha Z        PSCENC =       120.87645803
  Ewald energy   TEWEN  =     37890.90821111
  -Hartree energ DENC   =    -42942.09590584
  -exchange      EXHF   =         0.00000000
  -V(xc)+E(xc)   XCENC  =       173.30757187
  PAW double counting   =      4335.78217796    -4905.61492278
  entropy T*S    EENTRO =        -0.01451450
  eigenvalues    EBANDS =      -265.41657538
  atomic energy  EATOM  =      5575.94961827
  Solvation  Ediel_sol  =         0.00000000
  ---------------------------------------------------
  free energy    TOTEN  =       -16.31788126 eV

  energy without entropy =      -16.30336676  energy(sigma->0) =      -16.31062401


--------------------------------------------------------------------------------------------------------




--------------------------------------- Iteration      1(  10)  ---------------------------------------


    POTLOK:  cpu time    0.0120: real time    0.0115
    SETDIJ:  cpu time    0.0030: real time    0.0033
    EDDIAG:  cpu time    0.0560: real time    0.0561
  RMM-DIIS:  cpu time    0.1600: real time    0.1606
    ORTHCH:  cpu time    0.0080: real time    0.0073
       DOS:  cpu time    0.0020: real time    0.0026
    CHARGE:  cpu time    0.0170: real time    0.0164
    MIXING:  cpu time    0.0000: real time    0.0006
    --------------------------------------------
      LOOP:  cpu time    0.2580: real time    0.2584

 eigenvalue-minimisations  :   843
 total energy-change (2. order) : 0.1745319E-01  (-0.2478086E-02)
 number of electron      44.9999979 magnetization 
 augmentation part       28.6995528 magnetization 

 Broyden mixing:
  rms(total) = 0.64225E-01    rms(broyden)= 0.64219E-01
  rms(prec ) = 0.67304E-01
  weight for this iteration     100.00

 eigenvalues of (default mixing * dielectric matrix)
  average eigenvalue GAMMA=   0.7633
  1.9860  0.2019  0.6027  0.6027  0.4231

 Free energy of the ion-electron system (eV)
  ---------------------------------------------------
  alpha Z        PSCENC =       120.87645803
  Ewald energy   TEWEN  =     37890.90821111
  -Hartree energ DENC   =    -42944.95949681
  -exchange      EXHF   =         0.00000000
  -V(xc)+E(xc)   XCENC  =       173.09619038
  PAW double counting   =      4370.14371644    -4944.48797613
  entropy T*S    EENTRO =        -0.01474038
  eigenvalues    EBANDS =      -257.81240899
  atomic energy  EATOM  =      5575.94961827
  Solvation  Ediel_sol  =         0.00000000
  ---------------------------------------------------
  free energy    TOTEN  =       -16.30042807 eV

  energy without entropy =      -16.28568769  energy(sigma->0) =      -16.29305788


--------------------------------------------------------------------------------------------------------




--------------------------------------- Iteration      1(  11)  ---------------------------------------


    POTLOK:  cpu time    0.0120: real time    0.0117
    SETDIJ:  cpu time    0.0030: real time    0.0033
    EDDIAG:  cpu time    0.0570: real time    0.0567
  RMM-DIIS:  cpu time    0.1640: real time    0.1636
    ORTHCH:  cpu time    0.0070: real time    0.0072
       DOS:  cpu time    0.0020: real time    0.0027
    CHARGE:  cpu time    0.0170: real time    0.0164
    MIXING:  cpu time    0.0000: real time    0.0006
    --------------------------------------------
      LOOP:  cpu time    0.2620: real time    0.2622

 eigenvalue-minimisations  :   863
 total energy-change (2. order) : 0.5648287E-02  (-0.1212186E-02)
 number of electron      44.9999980 magnetization 
 augmentation part       28.7202868 magnetization 

 Broyden mixing:
  rms(total) = 0.35973E-01    rms(broyden)= 0.35959E-01
  rms(prec ) = 0.39088E-01
  weight for this iteration     100.00

 eigenvalues of (default mixing * dielectric matrix)
  average eigenvalue GAMMA=   0.8733
  2.3460  1.0918  0.6963  0.2019  0.5254  0.3783

 Free energy of the ion-electron system (eV)
  ---------------------------------------------------
  alpha Z        PSCENC =       120.87645803
  Ewald energy   TEWEN  =     37890.90821111
  -Hartree energ DENC   =    -42945.86494389
  -exchange      EXHF   =         0.00000000
  -V(xc)+E(xc)   XCENC  =       173.01870448
  PAW double counting   =      4376.06822989    -4950.97637047
  entropy T*S    EENTRO =        -0.01567233
  eigenvalues    EBANDS =      -256.25901489
  atomic energy  EATOM  =      5575.94961827
  Solvation  Ediel_sol  =         0.00000000
  ---------------------------------------------------
  free energy    TOTEN  =       -16.29477979 eV

  energy without entropy =      -16.27910746  energy(sigma->0) =      -16.28694362


--------------------------------------------------------------------------------------------------------




--------------------------------------- Iteration      1(  12)  ---------------------------------------


    POTLOK:  cpu time    0.0120: real time    0.0141
    SETDIJ:  cpu time    0.0030: real time    0.0033
    EDDIAG:  cpu time    0.0560: real time    0.0562
  RMM-DIIS:  cpu time    0.1620: real time    0.1625
    ORTHCH:  cpu time    0.0080: real time    0.0072
       DOS:  cpu time    0.0020: real time    0.0026
    CHARGE:  cpu time    0.0170: real time    0.0164
    MIXING:  cpu time    0.0010: real time    0.0006
    --------------------------------------------
      LOOP:  cpu time    0.2610: real time    0.2630

 eigenvalue-minimisations  :   855
 total energy-change (2. order) : 0.2949438E-02  (-0.8088229E-03)
 number of electron      44.9999980 magnetization 
 augmentation part       28.7713541 magnetization 

 Broyden mixing:
  rms(total) = 0.11308E-01    rms(broyden)= 0.11281E-01
  rms(prec ) = 0.15149E-01
  weight for this iteration     100.00

 eigenvalues of (default mixing * dielectric matrix)
  average eigenvalue GAMMA=   0.8952
  2.4175  1.1383  0.8561  0.7844  0.5221  0.2020  0.3460

 Free energy of the ion-electron system (eV)
  ---------------------------------------------------
  alpha Z        PSCENC =       120.87645803
  Ewald energy   TEWEN  =     37890.90821111
  -Hartree energ DENC   =    -42944.93280358
  -exchange      EXHF   =         0.00000000
  -V(xc)+E(xc)   XCENC  =       172.91667096
  PAW double counting   =      4381.69591880    -4956.94257360
  entropy T*S    EENTRO =        -0.01413433
  eigenvalues    EBANDS =      -256.74919600
  atomic energy  EATOM  =      5575.94961827
  Solvation  Ediel_sol  =         0.00000000
  ---------------------------------------------------
  free energy    TOTEN  =       -16.29183035 eV

  energy without entropy =      -16.27769602  energy(sigma->0) =      -16.28476318


--------------------------------------------------------------------------------------------------------




--------------------------------------- Iteration      1(  13)  ---------------------------------------


    POTLOK:  cpu time    0.0110: real time    0.0115
    SETDIJ:  cpu time    0.0040: real time    0.0032
    EDDIAG:  cpu time    0.0550: real time    0.0561
  RMM-DIIS:  cpu time    0.1640: real time    0.1640
    ORTHCH:  cpu time    0.0070: real time    0.0072
       DOS:  cpu time    0.0030: real time    0.0026
    CHARGE:  cpu time    0.0170: real time    0.0164
    MIXING:  cpu time    0.0000: real time    0.0007
    --------------------------------------------
      LOOP:  cpu time    0.2610: real time    0.2617

 eigenvalue-minimisations  :   863
 total energy-change (2. order) : 0.8599231E-03  (-0.5455723E-04)
 number of electron      44.9999980 magnetization 
 augmentation part       28.7606830 magnetization 

 Broyden mixing:
  rms(total) = 0.43239E-02    rms(broyden)= 0.42866E-02
  rms(prec ) = 0.61234E-02
  weight for this iteration     100.00

 eigenvalues of (default mixing * dielectric matrix)
  average eigenvalue GAMMA=   0.9203
  2.3684  1.7573  0.8986  0.7366  0.2020  0.5681  0.5033  0.3279

 Free energy of the ion-electron system (eV)
  ---------------------------------------------------
  alpha Z        PSCENC =       120.87645803
  Ewald energy   TEWEN  =     37890.90821111
  -Hartree energ DENC   =    -42947.09045474
  -exchange      EXHF   =         0.00000000
  -V(xc)+E(xc)   XCENC  =       172.91554101
  PAW double counting   =      4384.69223088    -4960.28764882
  entropy T*S    EENTRO =        -0.01470193
  eigenvalues    EBANDS =      -254.24022423
  atomic energy  EATOM  =      5575.94961827
  Solvation  Ediel_sol  =         0.00000000
  ---------------------------------------------------
  free energy    TOTEN  =       -16.29097043 eV

  energy without entropy =      -16.27626850  energy(sigma->0) =      -16.28361946


--------------------------------------------------------------------------------------------------------




--------------------------------------- Iteration      1(  14)  ---------------------------------------


    POTLOK:  cpu time    0.0110: real time    0.0116
    SETDIJ:  cpu time    0.0040: real time    0.0033
    EDDIAG:  cpu time    0.0560: real time    0.0562
  RMM-DIIS:  cpu time    0.1630: real time    0.1628
    ORTHCH:  cpu time    0.0060: real time    0.0073
       DOS:  cpu time    0.0030: real time    0.0026
    CHARGE:  cpu time    0.0170: real time    0.0164
    MIXING:  cpu time    0.0010: real time    0.0007
    --------------------------------------------
      LOOP:  cpu time    0.2610: real time    0.2608

 eigenvalue-minimisations  :   853
 total energy-change (2. order) : 0.1174905E-03  (-0.2198014E-04)
 number of electron      44.9999980 magnetization 
 augmentation part       28.7579103 magnetization 

 Broyden mixing:
  rms(total) = 0.48912E-02    rms(broyden)= 0.48584E-02
  rms(prec ) = 0.61343E-02
  weight for this iteration     100.00

 eigenvalues of (default mixing * dielectric matrix)
  average eigenvalue GAMMA=   0.9781
  2.4718  2.4718  0.9882  0.7163  0.7163  0.2020  0.5149  0.3387  0.3828

 Free energy of the ion-electron system (eV)
  ---------------------------------------------------
  alpha Z        PSCENC =       120.87645803
  Ewald energy   TEWEN  =     37890.90821111
  -Hartree energ DENC   =    -42948.97518018
  -exchange      EXHF   =         0.00000000
  -V(xc)+E(xc)   XCENC  =       172.92306258
  PAW double counting   =      4385.19368701    -4960.78083839
  entropy T*S    EENTRO =        -0.01497780
  eigenvalues    EBANDS =      -252.37089355
  atomic energy  EATOM  =      5575.94961827
  Solvation  Ediel_sol  =         0.00000000
  ---------------------------------------------------
  free energy    TOTEN  =       -16.29085293 eV

  energy without entropy =      -16.27587513  energy(sigma->0) =      -16.28336403


--------------------------------------------------------------------------------------------------------




--------------------------------------- Iteration      1(  15)  ---------------------------------------


    POTLOK:  cpu time    0.0110: real time    0.0114
    SETDIJ:  cpu time    0.0030: real time    0.0033
    EDDIAG:  cpu time    0.0560: real time    0.0562
  RMM-DIIS:  cpu time    0.1590: real time    0.1587
    ORTHCH:  cpu time    0.0070: real time    0.0072
       DOS:  cpu time    0.0020: real time    0.0026
    CHARGE:  cpu time    0.0170: real time    0.0164
    MIXING:  cpu time    0.0010: real time    0.0007
    --------------------------------------------
      LOOP:  cpu time    0.2560: real time    0.2565

 eigenvalue-minimisations  :   827
 total energy-change (2. order) :-0.6764967E-05  (-0.1703007E-04)
 number of electron      44.9999980 magnetization 
 augmentation part       28.7562371 magnetization 

 Broyden mixing:
  rms(total) = 0.37476E-02    rms(broyden)= 0.37076E-02
  rms(prec ) = 0.49847E-02
  weight for this iteration     100.00

 eigenvalues of (default mixing * dielectric matrix)
  average eigenvalue GAMMA=   1.0806
  3.0187  2.6518  1.2332  0.8315  0.8315  0.7833  0.2020  0.5212  0.3356  0.3969

 Free energy of the ion-electron system (eV)
  ---------------------------------------------------
  alpha Z        PSCENC =       120.87645803
  Ewald energy   TEWEN  =     37890.90821111
  -Hartree energ DENC   =    -42950.96909418
  -exchange      EXHF   =         0.00000000
  -V(xc)+E(xc)   XCENC  =       172.93291478
  PAW double counting   =      4385.26920320    -4960.79923170
  entropy T*S    EENTRO =        -0.01503902
  eigenvalues    EBANDS =      -250.44390018
  atomic energy  EATOM  =      5575.94961827
  Solvation  Ediel_sol  =         0.00000000
  ---------------------------------------------------
  free energy    TOTEN  =       -16.29085970 eV

  energy without entropy =      -16.27582068  energy(sigma->0) =      -16.28334019


--------------------------------------------------------------------------------------------------------




--------------------------------------- Iteration      1(  16)  ---------------------------------------


    POTLOK:  cpu time    0.0110: real time    0.0134
    SETDIJ:  cpu time    0.0040: real time    0.0032
    EDDIAG:  cpu time    0.0550: real time    0.0561
  RMM-DIIS:  cpu time    0.1560: real time    0.1558
    ORTHCH:  cpu time    0.0070: real time    0.0072
       DOS:  cpu time    0.0030: real time    0.0027
    CHARGE:  cpu time    0.0170: real time    0.0164
    MIXING:  cpu time    0.0000: real time    0.0008
    --------------------------------------------
      LOOP:  cpu time    0.2530: real time    0.2556

 eigenvalue-minimisations  :   818
 total energy-change (2. order) :-0.1965202E-03  (-0.9768043E-05)
 number of electron      44.9999980 magnetization 
 augmentation part       28.7581421 magnetization 

 Broyden mixing:
  rms(total) = 0.18310E-02    rms(broyden)= 0.17403E-02
  rms(prec ) = 0.28837E-02
  weight for this iteration     100.00

 eigenvalues of (default mixing * dielectric matrix)
  average eigenvalue GAMMA=   1.1469
  3.1937  2.7701  1.9088  0.9282  0.9282  0.7111  0.7111  0.2020  0.5215  0.3362
  0.4045

 Free energy of the ion-electron system (eV)
  ---------------------------------------------------
  alpha Z        PSCENC =       120.87645803
  Ewald energy   TEWEN  =     37890.90821111
  -Hartree energ DENC   =    -42952.59758871
  -exchange      EXHF   =         0.00000000
  -V(xc)+E(xc)   XCENC  =       172.93744398
  PAW double counting   =      4384.87672118    -4960.33452249
  entropy T*S    EENTRO =        -0.01478329
  eigenvalues    EBANDS =      -248.89261429
  atomic energy  EATOM  =      5575.94961827
  Solvation  Ediel_sol  =         0.00000000
  ---------------------------------------------------
  free energy    TOTEN  =       -16.29105622 eV

  energy without entropy =      -16.27627293  energy(sigma->0) =      -16.28366457


--------------------------------------------------------------------------------------------------------




--------------------------------------- Iteration      1(  17)  ---------------------------------------


    POTLOK:  cpu time    0.0120: real time    0.0115
    SETDIJ:  cpu time    0.0030: real time    0.0032
    EDDIAG:  cpu time    0.0560: real time    0.0562
  RMM-DIIS:  cpu time    0.1500: real time    0.1502
    ORTHCH:  cpu time    0.0080: real time    0.0072
       DOS:  cpu time    0.0020: real time    0.0026
    CHARGE:  cpu time    0.0170: real time    0.0164
    MIXING:  cpu time    0.0000: real time    0.0008
    --------------------------------------------
      LOOP:  cpu time    0.2480: real time    0.2483

 eigenvalue-minimisations  :   789
 total energy-change (2. order) :-0.2191755E-03  (-0.3769993E-05)
 number of electron      44.9999980 magnetization 
 augmentation part       28.7583523 magnetization 

 Broyden mixing:
  rms(total) = 0.16438E-02    rms(broyden)= 0.15474E-02
  rms(prec ) = 0.27671E-02
  weight for this iteration     100.00

 eigenvalues of (default mixing * dielectric matrix)
  average eigenvalue GAMMA=   1.2945
  4.3374  3.0616  2.3616  1.2368  0.2020  0.8976  0.7582  0.7582  0.6567  0.5230
  0.3361  0.4044

 Free energy of the ion-electron system (eV)
  ---------------------------------------------------
  alpha Z        PSCENC =       120.87645803
  Ewald energy   TEWEN  =     37890.90821111
  -Hartree energ DENC   =    -42953.55703469
  -exchange      EXHF   =         0.00000000
  -V(xc)+E(xc)   XCENC  =       172.93651550
  PAW double counting   =      4384.60111867    -4960.07571699
  entropy T*S    EENTRO =        -0.01498371
  eigenvalues    EBANDS =      -247.91546159
  atomic energy  EATOM  =      5575.94961827
  Solvation  Ediel_sol  =         0.00000000
  ---------------------------------------------------
  free energy    TOTEN  =       -16.29127540 eV

  energy without entropy =      -16.27629168  energy(sigma->0) =      -16.28378354


--------------------------------------------------------------------------------------------------------




--------------------------------------- Iteration      1(  18)  ---------------------------------------


    POTLOK:  cpu time    0.0120: real time    0.0114
    SETDIJ:  cpu time    0.0030: real time    0.0033
    EDDIAG:  cpu time    0.0560: real time    0.0562
  RMM-DIIS:  cpu time    0.1430: real time    0.1428
    ORTHCH:  cpu time    0.0060: real time    0.0072
       DOS:  cpu time    0.0030: real time    0.0027
    CHARGE:  cpu time    0.0170: real time    0.0164
    MIXING:  cpu time    0.0010: real time    0.0009
    --------------------------------------------
      LOOP:  cpu time    0.2410: real time    0.2408

 eigenvalue-minimisations  :   736
 total energy-change (2. order) :-0.9298711E-04  (-0.2130722E-05)
 number of electron      44.9999980 magnetization 
 augmentation part       28.7585131 magnetization 

 Broyden mixing:
  rms(total) = 0.73246E-03    rms(broyden)= 0.48825E-03
  rms(prec ) = 0.71410E-03
  weight for this iteration     100.00
  WARNING: grid for Broyden might be to small

 eigenvalues of (default mixing * dielectric matrix)
  average eigenvalue GAMMA=   1.3921
  5.1859  2.9657  2.5393  1.7686  1.0544  0.9222  0.2020  0.8037  0.7335  0.6595
  0.5229  0.3361  0.4036

 Free energy of the ion-electron system (eV)
  ---------------------------------------------------
  alpha Z        PSCENC =       120.87645803
  Ewald energy   TEWEN  =     37890.90821111
  -Hartree energ DENC   =    -42954.27118469
  -exchange      EXHF   =         0.00000000
  -V(xc)+E(xc)   XCENC  =       172.93667517
  PAW double counting   =      4384.42909017    -4959.91219737
  entropy T*S    EENTRO =        -0.01490161
  eigenvalues    EBANDS =      -247.19313745
  atomic energy  EATOM  =      5575.94961827
  Solvation  Ediel_sol  =         0.00000000
  ---------------------------------------------------
  free energy    TOTEN  =       -16.29136838 eV

  energy without entropy =      -16.27646677  energy(sigma->0) =      -16.28391758


--------------------------------------------------------------------------------------------------------




--------------------------------------- Iteration      1(  19)  ---------------------------------------


    POTLOK:  cpu time    0.0110: real time    0.0113
    SETDIJ:  cpu time    0.0040: real time    0.0033
    EDDIAG:  cpu time    0.0550: real time    0.0563
  RMM-DIIS:  cpu time    0.1220: real time    0.1212
    ORTHCH:  cpu time    0.0060: real time    0.0072
       DOS:  cpu time    0.0030: real time    0.0027
    CHARGE:  cpu time    0.0170: real time    0.0164
    MIXING:  cpu time    0.0010: real time    0.0009
    --------------------------------------------
      LOOP:  cpu time    0.2190: real time    0.2192

 eigenvalue-minimisations  :   604
 total energy-change (2. order) :-0.5137786E-04  (-0.5937882E-06)
 number of electron      44.9999980 magnetization 
 augmentation part       28.7586024 magnetization 

 Broyden mixing:
  rms(total) = 0.60530E-03    rms(broyden)= 0.26498E-03
  rms(prec ) = 0.41975E-03
  weight for this iteration     100.00
  WARNING: grid for Broyden might be to small

 eigenvalues of (default mixing * dielectric matrix)
  average eigenvalue GAMMA=   1.5100
  5.8191  3.7251  2.3645  2.1839  1.4865  0.2020  0.9472  0.9472  0.8083  0.7392
  0.6540  0.5229  0.3361  0.4037

 Free energy of the ion-electron system (eV)
  ---------------------------------------------------
  alpha Z        PSCENC =       120.87645803
  Ewald energy   TEWEN  =     37890.90821111
  -Hartree energ DENC   =    -42954.64704034
  -exchange      EXHF   =         0.00000000
  -V(xc)+E(xc)   XCENC  =       172.93634300
  PAW double counting   =      4384.55164909    -4960.04577013
  entropy T*S    EENTRO =        -0.01487517
  eigenvalues    EBANDS =      -246.80601362
  atomic energy  EATOM  =      5575.94961827
  Solvation  Ediel_sol  =         0.00000000
  ---------------------------------------------------
  free energy    TOTEN  =       -16.29141976 eV

  energy without entropy =      -16.27654459  energy(sigma->0) =      -16.28398218


--------------------------------------------------------------------------------------------------------




--------------------------------------- Iteration      1(  20)  ---------------------------------------


    POTLOK:  cpu time    0.0110: real time    0.0112
    SETDIJ:  cpu time    0.0030: real time    0.0032
    EDDIAG:  cpu time    0.0560: real time    0.0572
  RMM-DIIS:  cpu time    0.1080: real time    0.1078
    ORTHCH:  cpu time    0.0070: real time    0.0072
       DOS:  cpu time    0.0030: real time    0.0027
    CHARGE:  cpu time    0.0160: real time    0.0164
    MIXING:  cpu time    0.0010: real time    0.0010
    --------------------------------------------
      LOOP:  cpu time    0.2050: real time    0.2068

 eigenvalue-minimisations  :   508
 total energy-change (2. order) :-0.3409859E-04  (-0.1323788E-06)
 number of electron      44.9999980 magnetization 
 augmentation part       28.7584568 magnetization 

 Broyden mixing:
  rms(total) = 0.56022E-03    rms(broyden)= 0.13479E-03
  rms(prec ) = 0.20262E-03
  weight for this iteration     100.00
  WARNING: grid for Broyden might be to small

 eigenvalues of (default mixing * dielectric matrix)
  average eigenvalue GAMMA=   1.6516
  6.6158  4.3890  2.5915  2.5915  1.6829  1.3776  0.2020  0.9208  0.9208  0.8317
  0.7323  0.6564  0.5229  0.3361  0.4037

 Free energy of the ion-electron system (eV)
  ---------------------------------------------------
  alpha Z        PSCENC =       120.87645803
  Ewald energy   TEWEN  =     37890.90821111
  -Hartree energ DENC   =    -42954.88787360
  -exchange      EXHF   =         0.00000000
  -V(xc)+E(xc)   XCENC  =       172.93671019
  PAW double counting   =      4384.55196177    -4960.04108965
  entropy T*S    EENTRO =        -0.01489106
  eigenvalues    EBANDS =      -246.57055891
  atomic energy  EATOM  =      5575.94961827
  Solvation  Ediel_sol  =         0.00000000
  ---------------------------------------------------
  free energy    TOTEN  =       -16.29145386 eV

  energy without entropy =      -16.27656280  energy(sigma->0) =      -16.28400833


--------------------------------------------------------------------------------------------------------




--------------------------------------- Iteration      1(  21)  ---------------------------------------


    POTLOK:  cpu time    0.0120: real time    0.0129
    SETDIJ:  cpu time    0.0030: real time    0.0032
    EDDIAG:  cpu time    0.0560: real time    0.0562
  RMM-DIIS:  cpu time    0.1070: real time    0.1066
    ORTHCH:  cpu time    0.0060: real time    0.0072
       DOS:  cpu time    0.0030: real time    0.0026
    CHARGE:  cpu time    0.0170: real time    0.0164
    MIXING:  cpu time    0.0010: real time    0.0010
    --------------------------------------------
      LOOP:  cpu time    0.2050: real time    0.2063

 eigenvalue-minimisations  :   499
 total energy-change (2. order) :-0.2134615E-04  (-0.1057099E-06)
 number of electron      44.9999980 magnetization 
 augmentation part       28.7584228 magnetization 

 Broyden mixing:
  rms(total) = 0.57523E-03    rms(broyden)= 0.18761E-03
  rms(prec ) = 0.26763E-03
  weight for this iteration     100.00
  WARNING: grid for Broyden might be to small

 eigenvalues of (default mixing * dielectric matrix)
  average eigenvalue GAMMA=   1.6974
  7.0933  4.7261  2.7483  2.5479  1.9599  1.2795  1.2795  0.2020  0.9249  0.9249
  0.8203  0.7329  0.6565  0.5229  0.3361  0.4037

 Free energy of the ion-electron system (eV)
  ---------------------------------------------------
  alpha Z        PSCENC =       120.87645803
  Ewald energy   TEWEN  =     37890.90821111
  -Hartree energ DENC   =    -42955.02745008
  -exchange      EXHF   =         0.00000000
  -V(xc)+E(xc)   XCENC  =       172.93688775
  PAW double counting   =      4384.59052070    -4960.07667187
  entropy T*S    EENTRO =        -0.01490065
  eigenvalues    EBANDS =      -246.43414846
  atomic energy  EATOM  =      5575.94961827
  Solvation  Ediel_sol  =         0.00000000
  ---------------------------------------------------
  free energy    TOTEN  =       -16.29147521 eV

  energy without entropy =      -16.27657455  energy(sigma->0) =      -16.28402488


--------------------------------------------------------------------------------------------------------




--------------------------------------- Iteration      1(  22)  ---------------------------------------


    POTLOK:  cpu time    0.0110: real time    0.0112
    SETDIJ:  cpu time    0.0030: real time    0.0032
    EDDIAG:  cpu time    0.0560: real time    0.0562
  RMM-DIIS:  cpu time    0.1060: real time    0.1054
    ORTHCH:  cpu time    0.0070: real time    0.0072
       DOS:  cpu time    0.0020: real time    0.0027
    CHARGE:  cpu time    0.0170: real time    0.0164
    MIXING:  cpu time    0.0010: real time    0.0011
    --------------------------------------------
      LOOP:  cpu time    0.2030: real time    0.2034

 eigenvalue-minimisations  :   478
 total energy-change (2. order) :-0.5808174E-05  (-0.2809154E-07)
 number of electron      44.9999980 magnetization 
 augmentation part       28.7584606 magnetization 

 Broyden mixing:
  rms(total) = 0.55536E-03    rms(broyden)= 0.11254E-03
  rms(prec ) = 0.17513E-03
  weight for this iteration     100.00
  WARNING: grid for Broyden might be to small

 eigenvalues of (default mixing * dielectric matrix)
  average eigenvalue GAMMA=   1.8328
  7.9621  5.3633  3.1437  2.6054  2.5478  1.7921  1.2617  0.2020  0.9593  0.9593
  0.8875  0.8202  0.7345  0.6558  0.5229  0.3361  0.4037

 Free energy of the ion-electron system (eV)
  ---------------------------------------------------
  alpha Z        PSCENC =       120.87645803
  Ewald energy   TEWEN  =     37890.90821111
  -Hartree energ DENC   =    -42955.05311601
  -exchange      EXHF   =         0.00000000
  -V(xc)+E(xc)   XCENC  =       172.93693787
  PAW double counting   =      4384.58272023    -4960.06888689
  entropy T*S    EENTRO =        -0.01488432
  eigenvalues    EBANDS =      -246.40853931
  atomic energy  EATOM  =      5575.94961827
  Solvation  Ediel_sol  =         0.00000000
  ---------------------------------------------------
  free energy    TOTEN  =       -16.29148101 eV

  energy without entropy =      -16.27659670  energy(sigma->0) =      -16.28403885


--------------------------------------------------------------------------------------------------------




--------------------------------------- Iteration      1(  23)  ---------------------------------------


    POTLOK:  cpu time    0.0110: real time    0.0112
    SETDIJ:  cpu time    0.0040: real time    0.0032
    EDDIAG:  cpu time    0.0550: real time    0.0560
  RMM-DIIS:  cpu time    0.0910: real time    0.0905
    ORTHCH:  cpu time    0.0070: real time    0.0072
       DOS:  cpu time    0.0020: real time    0.0026
    CHARGE:  cpu time    0.0160: real time    0.0164
    MIXING:  cpu time    0.0020: real time    0.0011
    --------------------------------------------
      LOOP:  cpu time    0.1880: real time    0.1883

 eigenvalue-minimisations  :   289
 total energy-change (2. order) :-0.3151075E-05  (-0.8009225E-08)
 number of electron      44.9999980 magnetization 
 augmentation part       28.7584719 magnetization 

 Broyden mixing:
  rms(total) = 0.54437E-03    rms(broyden)= 0.25871E-04
  rms(prec ) = 0.35843E-04
  weight for this iteration     100.00
  WARNING: grid for Broyden might be to small

 eigenvalues of (default mixing * dielectric matrix)
  average eigenvalue GAMMA=   1.8801
  8.3849  5.6655  3.6290  2.6650  2.3892  1.6866  1.6866  1.2573  0.2020  0.9456
  0.9456  0.9173  0.8134  0.7353  0.6557  0.5229  0.3361  0.4037

 Free energy of the ion-electron system (eV)
  ---------------------------------------------------
  alpha Z        PSCENC =       120.87645803
  Ewald energy   TEWEN  =     37890.90821111
  -Hartree energ DENC   =    -42955.07450035
  -exchange      EXHF   =         0.00000000
  -V(xc)+E(xc)   XCENC  =       172.93684090
  PAW double counting   =      4384.56757249    -4960.05494118
  entropy T*S    EENTRO =        -0.01488953
  eigenvalues    EBANDS =      -246.38585391
  atomic energy  EATOM  =      5575.94961827
  Solvation  Ediel_sol  =         0.00000000
  ---------------------------------------------------
  free energy    TOTEN  =       -16.29148416 eV

  energy without entropy =      -16.27659464  energy(sigma->0) =      -16.28403940


--------------------------------------------------------------------------------------------------------




--------------------------------------- Iteration      1(  24)  ---------------------------------------


    POTLOK:  cpu time    0.0110: real time    0.0113
    SETDIJ:  cpu time    0.0040: real time    0.0032
    EDDIAG:  cpu time    0.0550: real time    0.0562
  RMM-DIIS:  cpu time    0.0870: real time    0.0865
    ORTHCH:  cpu time    0.0070: real time    0.0072
       DOS:  cpu time    0.0020: real time    0.0026
    --------------------------------------------
      LOOP:  cpu time    0.1660: real time    0.1671

 eigenvalue-minimisations  :   202
 total energy-change (2. order) :-0.4935209E-06  (-0.1251682E-08)
 number of electron      44.9999980 magnetization 
 augmentation part       28.7584719 magnetization 

 Free energy of the ion-electron system (eV)
  ---------------------------------------------------
  alpha Z        PSCENC =       120.87645803
  Ewald energy   TEWEN  =     37890.90821111
  -Hartree energ DENC   =    -42955.08558513
  -exchange      EXHF   =         0.00000000
  -V(xc)+E(xc)   XCENC  =       172.93683287
  PAW double counting   =      4384.56642463    -4960.05334559
  entropy T*S    EENTRO =        -0.01489202
  eigenvalues    EBANDS =      -246.37520682
  atomic energy  EATOM  =      5575.94961827
  Solvation  Ediel_sol  =         0.00000000
  ---------------------------------------------------
  free energy    TOTEN  =       -16.29148466 eV

  energy without entropy =      -16.27659264  energy(sigma->0) =      -16.28403865


--------------------------------------------------------------------------------------------------------




 average (electrostatic) potential at core
  the test charge radii are     1.0053  0.5201
  (the norm of the test charge is              1.0000)
       1 -46.0115       2 -46.2106       3 -46.2385       4 -46.3368       5 -38.5653
 
 
 
 E-fermi :  -2.5992     XC(G=0):  -4.4992     alpha+bet : -2.7756


 k-point     1 :       0.0000    0.0000    0.0000
  band No.  band energies     occupation 
      1     -11.3040      2.00000
      2     -10.2061      2.00000
      3      -8.7423      2.00000
      4      -7.6802      2.00000
      5      -7.2319      2.00000
      6      -5.6414      2.00000
      7      -5.5144      2.00000
      8      -5.5049      2.00000
      9      -5.5046      2.00000
     10      -5.4679      2.00000
     11      -5.4676      2.00000
     12      -5.3909      2.00000
     13      -5.3906      2.00000
     14      -5.2295      2.00000
     15      -5.2292      2.00000
     16      -5.0257      2.00000
     17      -4.8090      2.00000
     18      -4.8089      2.00000
     19      -4.6844      2.00000
     20      -4.6844      2.00000
     21      -4.4651      2.00000
     22      -4.4650      2.00000
     23      -4.2029      2.00000
     24      -4.2028      2.00000
     25      -3.1384      2.00000
     26       0.7324      0.00000
     27       1.7761      0.00000
     28       2.3187      0.00000

 k-point     2 :       0.1000    0.0000    0.0000
  band No.  band energies     occupation 
      1     -10.9913      2.00000
      2      -9.9081      2.00000
      3      -8.4682      2.00000
      4      -7.4584      2.00000
      5      -7.1116      2.00000
      6      -5.7499      2.00000
      7      -5.6361      2.00000
      8      -5.5956      2.00000
      9      -5.4667      2.00000
     10      -5.4308      2.00000
     11      -5.4028      2.00000
     12      -5.3941      2.00000
     13      -5.3126      2.00000
     14      -5.2860      2.00000
     15      -5.2298      2.00000
     16      -5.1374      2.00000
     17      -4.8647      2.00000
     18      -4.8505      2.00000
     19      -4.6799      2.00000
     20      -4.6672      2.00000
     21      -4.5057      2.00000
     22      -4.4593      2.00000
     23      -4.1969      2.00000
     24      -4.0041      2.00000
     25      -2.4881      0.11616
     26       0.9801      0.00000
     27       2.0781      0.00000
     28       2.6386      0.00000

 k-point     3 :       0.2000   -0.0000    0.0000
  band No.  band energies     occupation 
      1     -10.0916      2.00000
      2      -9.0730      2.00000
      3      -7.7474      2.00000
      4      -6.9303      2.00000
      5      -6.8158      2.00000
      6      -6.0478      2.00000
      7      -5.8701      2.00000
      8      -5.7685      2.00000
      9      -5.6406      2.00000
     10      -5.5003      2.00000
     11      -5.4366      2.00000
     12      -5.2926      2.00000
     13      -5.2352      2.00000
     14      -5.1300      2.00000
     15      -5.0336      2.00000
     16      -5.0328      2.00000
     17      -4.9572      2.00000
     18      -4.8026      2.00000
     19      -4.7959      2.00000
     20      -4.6371      2.00000
     21      -4.4551      2.00000
     22      -4.3476      2.00000
     23      -4.1882      2.00000
     24      -3.2771      2.00000
     25      -1.2864      0.00000
     26       1.7221      0.00000
     27       2.9859      0.00000
     28       3.6323      0.00000

 k-point     4 :       0.3000   -0.0000    0.0000
  band No.  band energies     occupation 
      1      -8.7801      2.00000
      2      -7.9870      2.00000
      3      -7.0929      2.00000
      4      -6.6754      2.00000
      5      -6.4850      2.00000
      6      -6.3532      2.00000
      7      -6.0360      2.00000
      8      -5.8104      2.00000
      9      -5.6171      2.00000
     10      -5.4208      2.00000
     11      -5.3311      2.00000
     12      -5.2843      2.00000
     13      -5.0942      2.00000
     14      -5.0294      2.00000
     15      -4.9636      2.00000
     16      -4.7556      2.00000
     17      -4.6175      2.00000
     18      -4.5877      2.00000
     19      -4.5312      2.00000
     20      -4.4460      2.00000
     21      -4.3645      2.00000
     22      -4.1736      2.00000
     23      -3.9678      2.00000
     24      -2.3117      0.00005
     25       0.1228      0.00000
     26       2.9035      0.00000
     27       4.4745      0.00000
     28       5.0314      0.00000

 k-point     5 :       0.4000   -0.0000    0.0000
  band No.  band energies     occupation 
      1      -7.6408      2.00000
      2      -7.3193      2.00000
      3      -6.9871      2.00000
      4      -6.7405      2.00000
      5      -6.5837      2.00000
      6      -6.4088      2.00000
      7      -6.0970      2.00000
      8      -5.7998      2.00000
      9      -5.5227      2.00000
     10      -5.4178      2.00000
     11      -5.2484      2.00000
     12      -5.0642      2.00000
     13      -4.8413      2.00000
     14      -4.6255      2.00000
     15      -4.5184      2.00000
     16      -4.3280      2.00000
     17      -4.3081      2.00000
     18      -4.2513      2.00000
     19      -4.1734      2.00000
     20      -4.0970      2.00000
     21      -4.0609      2.00000
     22      -3.6249      2.00000
     23      -3.0236      2.00000
     24      -1.1867      0.00000
     25       0.9039      0.00000
     26       2.4841      0.00000
     27       3.4117      0.00000
     28       4.9156      0.00000

 k-point     6 :       0.5000   -0.0000    0.0000
  band No.  band energies     occupation 
      1      -7.3401      2.00000
      2      -7.1829      2.00000
      3      -6.9132      2.00000
      4      -6.7801      2.00000
      5      -6.7213      2.00000
      6      -6.4418      2.00000
      7      -6.0285      2.00000
      8      -5.8069      2.00000
      9      -5.5751      2.00000
     10      -5.4526      2.00000
     11      -5.1151      2.00000
     12      -5.0819      2.00000
     13      -4.6818      2.00000
     14      -4.6154      2.00000
     15      -4.2963      2.00000
     16      -4.2555      2.00000
     17      -4.1956      2.00000
     18      -4.1586      2.00000
     19      -4.1019      2.00000
     20      -3.9479      2.00000
     21      -2.8305      1.99893
     22      -2.2029      0.00000
     23      -1.7753      0.00000
     24      -1.2336      0.00000
     25      -0.9723      0.00000
     26       1.7346      0.00000
     27       2.8414      0.00000
     28       4.3755      0.00000

 k-point     7 :       0.2000    0.1000    0.0000
  band No.  band energies     occupation 
      1     -10.3835      2.00000
      2      -9.3384      2.00000
      3      -7.9628      2.00000
      4      -7.0696      2.00000
      5      -6.9018      2.00000
      6      -5.8945      2.00000
      7      -5.8679      2.00000
      8      -5.7301      2.00000
      9      -5.6230      2.00000
     10      -5.5376      2.00000
     11      -5.4035      2.00000
     12      -5.3299      2.00000
     13      -5.2660      2.00000
     14      -5.1888      2.00000
     15      -5.0741      2.00000
     16      -5.0242      2.00000
     17      -4.9124      2.00000
     18      -4.8427      2.00000
     19      -4.7902      2.00000
     20      -4.6198      2.00000
     21      -4.5762      2.00000
     22      -4.2982      2.00000
     23      -4.2455      2.00000
     24      -3.4805      2.00000
     25      -1.6307      0.00000
     26       1.4778      0.00000
     27       2.6836      0.00000
     28       3.3120      0.00000

 k-point     8 :       0.3000    0.1000    0.0000
  band No.  band energies     occupation 
      1      -9.2587      2.00000
      2      -8.3433      2.00000
      3      -7.2118      2.00000
      4      -6.6615      2.00000
      5      -6.5200      2.00000
      6      -6.1821      2.00000
      7      -5.9892      2.00000
      8      -5.8963      2.00000
      9      -5.7401      2.00000
     10      -5.6006      2.00000
     11      -5.5093      2.00000
     12      -5.3730      2.00000
     13      -5.2488      2.00000
     14      -5.1313      2.00000
     15      -4.9507      2.00000
     16      -4.8597      2.00000
     17      -4.7552      2.00000
     18      -4.6593      2.00000
     19      -4.5569      2.00000
     20      -4.5039      2.00000
     21      -4.3707      2.00000
     22      -4.2578      2.00000
     23      -4.0306      2.00000
     24      -2.6540      1.56154
     25      -0.3700      0.00000
     26       2.4727      0.00000
     27       3.8935      0.00000
     28       4.5136      0.00000

 k-point     9 :       0.4000    0.1000    0.0000
  band No.  band energies     occupation 
      1      -7.9514      2.00000
      2      -7.4267      2.00000
      3      -6.9015      2.00000
      4      -6.6209      2.00000
      5      -6.3937      2.00000
      6      -6.3543      2.00000
      7      -6.0635      2.00000
      8      -5.8609      2.00000
      9      -5.5787      2.00000
     10      -5.4747      2.00000
     11      -5.3460      2.00000
     12      -5.2693      2.00000
     13      -5.1295      2.00000
     14      -4.9832      2.00000
     15      -4.8863      2.00000
     16      -4.6774      2.00000
     17      -4.5648      2.00000
     18      -4.3914      2.00000
     19      -4.2955      2.00000
     20      -4.1851      2.00000
     21      -3.9823      2.00000
     22      -3.8501      2.00000
     23      -3.2700      2.00000
     24      -1.4830      0.00000
     25       1.0225      0.00000
     26       3.4911      0.00000
     27       4.3938      0.00000
     28       5.4438      0.00000

 k-point    10 :       0.5000    0.1000    0.0000
  band No.  band energies     occupation 
      1      -7.2627      2.00000
      2      -7.0956      2.00000
      3      -6.8415      2.00000
      4      -6.6998      2.00000
      5      -6.5673      2.00000
      6      -6.3771      2.00000
      7      -6.0351      2.00000
      8      -5.8306      2.00000
      9      -5.5681      2.00000
     10      -5.4592      2.00000
     11      -5.3253      2.00000
     12      -5.0138      2.00000
     13      -4.8881      2.00000
     14      -4.7364      2.00000
     15      -4.5726      2.00000
     16      -4.4649      2.00000
     17      -4.3261      2.00000
     18      -4.2622      2.00000
     19      -4.2054      2.00000
     20      -4.0932      2.00000
     21      -2.8070      1.99671
     22      -2.5146      0.23183
     23      -1.9136      0.00000
     24      -0.6048      0.00000
     25       0.2372      0.00000
     26       2.0355      0.00000
     27       3.2022      0.00000
     28       4.6215      0.00000

 k-point    11 :       0.4000    0.2000    0.0000
  band No.  band energies     occupation 
      1      -8.0736      2.00000
      2      -7.4434      2.00000
      3      -6.7806      2.00000
      4      -6.5246      2.00000
      5      -6.2690      2.00000
      6      -6.1461      2.00000
      7      -6.0169      2.00000
      8      -5.8935      2.00000
      9      -5.8010      2.00000
     10      -5.6659      2.00000
     11      -5.5606      2.00000
     12      -5.4620      2.00000
     13      -5.3359      2.00000
     14      -5.1702      2.00000
     15      -4.9387      2.00000
     16      -4.7701      2.00000
     17      -4.6598      2.00000
     18      -4.4959      2.00000
     19      -4.2822      2.00000
     20      -4.1901      2.00000
     21      -3.9310      2.00000
     22      -3.8194      2.00000
     23      -3.2551      2.00000
     24      -1.5624      0.00000
     25       0.9405      0.00000
     26       3.6888      0.00000
     27       5.3702      0.00000
     28       5.8360      0.00000

 k-point    12 :       0.5000    0.2000    0.0000
  band No.  band energies     occupation 
      1      -7.0967      2.00000
      2      -6.9150      2.00000
      3      -6.6884      2.00000
      4      -6.5229      2.00000
      5      -6.3273      2.00000
      6      -6.1947      2.00000
      7      -6.0410      2.00000
      8      -5.8586      2.00000
      9      -5.7273      2.00000
     10      -5.5110      2.00000
     11      -5.3933      2.00000
     12      -5.3234      2.00000
     13      -5.2200      2.00000
     14      -5.1046      2.00000
     15      -4.9190      2.00000
     16      -4.7534      2.00000
     17      -4.5839      2.00000
     18      -4.4224      2.00000
     19      -4.2148      2.00000
     20      -4.0990      2.00000
     21      -2.8628      1.99981
     22      -2.6453      1.48562
     23      -1.8054      0.00000
     24      -0.0765      0.00000
     25       2.0206      0.00000
     26       3.1017      0.00000
     27       4.1484      0.00000
     28       5.4061      0.00000

 k-point    13 :      -0.4000    0.2000    0.0000
  band No.  band energies     occupation 
      1      -6.8817      2.00000
      2      -6.8210      2.00000
      3      -6.5946      2.00000
      4      -6.4824      2.00000
      5      -6.4067      2.00000
      6      -6.2289      2.00000
      7      -6.0694      2.00000
      8      -5.8487      2.00000
      9      -5.6843      2.00000
     10      -5.5591      2.00000
     11      -5.3578      2.00000
     12      -5.1593      2.00000
     13      -5.1043      2.00000
     14      -4.9684      2.00000
     15      -4.9011      2.00000
     16      -4.6900      2.00000
     17      -4.4893      2.00000
     18      -4.2942      2.00000
     19      -4.2723      2.00000
     20      -4.1650      2.00000
     21      -1.9389      0.00000
     22      -0.9714      0.00000
     23      -0.5232      0.00000
     24       0.0231      0.00000
     25       0.5894      0.00000
     26       2.2656      0.00000
     27       3.4850      0.00000
     28       4.9477      0.00000

 k-point    14 :      -0.4000    0.3000    0.0000
  band No.  band energies     occupation 
      1      -6.6297      2.00000
      2      -6.5838      2.00000
      3      -6.4726      2.00000
      4      -6.4484      2.00000
      5      -6.3161      2.00000
      6      -6.2051      2.00000
      7      -6.1197      2.00000
      8      -5.7818      2.00000
      9      -5.7079      2.00000
     10      -5.5391      2.00000
     11      -5.4561      2.00000
     12      -5.3028      2.00000
     13      -5.2480      2.00000
     14      -5.2297      2.00000
     15      -4.8719      2.00000
     16      -4.8062      2.00000
     17      -4.6534      2.00000
     18      -4.3556      2.00000
     19      -4.2725      2.00000
     20      -4.1889      2.00000
     21      -1.8494      0.00000
     22      -0.7140      0.00000
     23       0.2324      0.00000
     24       1.5739      0.00000
     25       2.1561      0.00000
     26       2.2701      0.00000
     27       3.1329      0.00000
     28       3.4514      0.00000


--------------------------------------------------------------------------------------------------------


 soft charge-density along one line, spin component           1
         0         1         2         3         4         5         6         7         8         9
 total charge-density along one line
 
 pseudopotential strength for first ion, spin component:           1
-11.000   0.000   0.000  -0.005   0.000   1.812  -0.000  -0.000
  0.000 -10.965  -0.000   0.000  -0.005  -0.000   1.795   0.000
  0.000  -0.000 -10.961  -0.000   0.000  -0.000   0.000   1.793
 -0.005   0.000  -0.000 -10.965   0.000   0.002  -0.000   0.000
  0.000  -0.005   0.000   0.000 -11.000  -0.000   0.002  -0.000
  1.812  -0.000  -0.000   0.002  -0.000   0.743   0.000   0.000
 -0.000   1.795   0.000  -0.000   0.002   0.000   0.751  -0.000
 -0.000   0.000   1.793   0.000  -0.000   0.000  -0.000   0.752
  0.002  -0.000   0.000   1.795  -0.000  -0.001   0.000  -0.000
 -0.000   0.002  -0.000  -0.000   1.812   0.000  -0.001   0.000
  0.000   0.000  -0.006   0.000   0.000   0.000   0.000   0.002
 -0.000  -0.000   0.000  -0.000  -0.000   0.000   0.000  -0.000
  0.000  -0.010  -0.000  -0.000   0.000  -0.000   0.006  -0.000
 -0.000   0.000  -0.010   0.000  -0.000  -0.000  -0.000   0.006
  0.000  -0.000  -0.000  -0.010   0.000  -0.000  -0.000  -0.000
 -0.000   0.005   0.000   0.000  -0.000   0.000  -0.003  -0.000
  0.000  -0.000   0.005  -0.000   0.000  -0.000   0.000  -0.003
 -0.000   0.000   0.000   0.005  -0.000   0.000  -0.000  -0.000
 total augmentation occupancy for first ion, spin component:           1
  1.927   0.000  -0.000  -0.003  -0.000  -0.000   0.000   0.000   0.010  -0.000   0.000   0.000   0.000  -0.000   0.007   0.000
  0.000   1.935   0.000   0.000  -0.003   0.000  -0.034  -0.000   0.000   0.011  -0.000  -0.000  -0.001   0.000   0.000  -0.005
 -0.000   0.000   1.937   0.000  -0.000   0.000  -0.000  -0.026  -0.000   0.000   0.018   0.037  -0.000   0.035   0.000   0.000
 -0.003   0.000   0.000   1.935  -0.000   0.011  -0.000  -0.000  -0.034   0.000   0.000  -0.000   0.000   0.000  -0.001  -0.000
 -0.000  -0.003  -0.000   0.000   1.927  -0.000   0.010   0.000  -0.000  -0.000  -0.000  -0.000   0.007  -0.000  -0.000  -0.001
 -0.000   0.000   0.000   0.011   0.000   0.059  -0.000  -0.000   0.001  -0.000   0.000   0.000   0.000  -0.000   0.005   0.000
  0.000  -0.034  -0.000  -0.000   0.010   0.000   0.041   0.000   0.000   0.001   0.000   0.000   0.031   0.000   0.000  -0.003
  0.000  -0.000  -0.026  -0.000   0.000  -0.000  -0.000   0.058  -0.000  -0.000  -0.077   0.013  -0.000   0.044  -0.000   0.000
  0.010   0.000  -0.000  -0.034  -0.000   0.001   0.000   0.000   0.041   0.000   0.000   0.000   0.000   0.000   0.031   0.000
  0.000   0.011   0.000  -0.000  -0.000  -0.000   0.001  -0.000  -0.000   0.059   0.000  -0.000   0.005  -0.000  -0.000  -0.000
  0.000   0.000   0.018   0.000  -0.000   0.000   0.000  -0.077   0.000   0.000   1.239  -0.284   0.000   0.070   0.000  -0.000
  0.000  -0.000   0.037  -0.000  -0.000  -0.000   0.000   0.013   0.000  -0.000  -0.284   0.110   0.000  -0.046   0.000  -0.000
  0.000  -0.001  -0.000   0.000   0.007   0.000   0.031  -0.000   0.000   0.005   0.000   0.000   0.168  -0.000   0.000  -0.010
 -0.000   0.000   0.035   0.000  -0.000  -0.000   0.000   0.044   0.000  -0.000   0.070  -0.046  -0.000   0.094   0.000   0.000
  0.007   0.000   0.000  -0.001  -0.000   0.005   0.000   0.000   0.031  -0.000   0.000  -0.000  -0.000   0.000   0.168   0.000
  0.000  -0.005   0.000  -0.000  -0.001   0.000  -0.003   0.000   0.000  -0.000  -0.000   0.000  -0.010   0.000   0.000   0.001
  0.000   0.000  -0.008   0.000   0.000   0.000  -0.000  -0.002   0.000   0.000  -0.013   0.006  -0.000  -0.007   0.000  -0.000
 -0.001   0.000   0.000  -0.005   0.000  -0.000   0.000   0.000  -0.003   0.000  -0.000   0.000   0.000   0.000  -0.010  -0.000


------------------------ aborting loop because EDIFF is reached ----------------------------------------


 


 total charge     
 
# of ion       s       p       d       tot
------------------------------------------
    1        0.455   0.285   9.223   9.963
    2        0.448   0.371   9.219  10.038
    3        0.450   0.382   9.199  10.031
    4        0.471   0.373   9.174  10.017
    5        0.443   0.008   0.000   0.451
--------------------------------------------------
tot          2.266   1.419  36.815  40.500
 
    CHARGE:  cpu time    0.0170: real time    0.0168
    FORLOC:  cpu time    0.0010: real time    0.0014
    FORNL :  cpu time    0.0830: real time    0.0828
    STRESS:  cpu time    0.2520: real time    0.2527
    FORCOR:  cpu time    0.0120: real time    0.0116
    FORHAR:  cpu time    0.0040: real time    0.0031
    MIXING:  cpu time    0.0000: real time    0.0012
    OFIELD:  cpu time    0.0000: real time    0.0000

  FORCE on cell =-STRESS in cart. coord.  units (eV):
  Direction    XX          YY          ZZ          XY          YZ          ZX
  --------------------------------------------------------------------------------------
  Alpha Z   120.87646   120.87646   120.87646
  Ewald   40794.75814 40794.75814-43698.61155     0.00000    -0.00000     0.00000
  Hartree 42117.50620 42117.50619-41279.94181     0.00001    -0.00001    -0.00001
  E(xc)    -252.74739  -252.74589  -252.94390    -0.00130     0.00013     0.00022
  Local  -83181.53228-83181.53790 84712.11489     0.00486    -0.00083    -0.00144
  n-local  -158.19061  -153.10370  -155.69601     2.70303    -0.17414    -0.05160
  augment   226.52945   226.53831   225.34760    -0.00767     0.00268     0.00458
  Kinetic   338.05867   311.62593   322.56692    -9.34901    -0.35236     0.03725
  Fock        0.00000     0.00000     0.00000     0.00000     0.00000     0.00000
  -------------------------------------------------------------------------------------
  Total      -5.41191    -5.41191    -6.28741     0.00000     0.00000     0.00000
  in kB     -49.87099   -49.87099   -57.93879     0.00000     0.00000     0.00000
  external pressure =      -52.56 kB  Pullay stress =        0.00 kB


 VOLUME and BASIS-vectors are now :
 -----------------------------------------------------------------------------
  energy-cutoff  :      250.00
  volume of cell :      173.87
      direct lattice vectors                 reciprocal lattice vectors
     2.573868684  0.000000000  0.000000000     0.388520209 -0.224312248  0.000000000
     1.286934342  2.229035666  0.000000000     0.000000000  0.448624495  0.000000000
     0.000000000  0.000000000 30.304664940     0.000000000  0.000000000  0.032998220

  length of vectors
     2.573868684  2.573868684 30.304664940     0.448624495  0.448624495  0.032998220


 FORCES acting on ions
    electron-ion (+dipol)            ewald-force                    non-local-force                 convergence-correction
 -----------------------------------------------------------------------------------------------
   -.371E-03 -.214E-03 0.422E+04   -.396E-07 0.305E-07 -.422E+04   -.520E-17 -.347E-17 -.127E+01   -.321E-08 -.185E-08 0.453E-03
   -.785E-04 -.455E-04 0.149E+04   0.125E-08 -.963E-09 -.149E+04   -.867E-17 0.000E+00 -.109E+01   -.159E-08 -.922E-09 -.286E-02
   0.555E-04 0.318E-04 -.126E+04   0.110E-06 -.845E-07 0.126E+04   0.434E-17 0.000E+00 -.362E+00   0.859E-09 0.486E-09 -.785E-02
   0.260E-03 0.150E-03 -.396E+04   -.713E-07 0.549E-07 0.396E+04   -.434E-17 -.173E-17 -.365E+01   -.188E-09 -.107E-09 -.643E-02
   -.672E-04 -.388E-04 -.487E+03   -.713E-10 0.549E-10 0.488E+03   0.108E-17 0.000E+00 -.160E+01   0.222E-08 0.128E-08 -.697E-04
 -----------------------------------------------------------------------------------------------
   -.201E-03 -.117E-03 0.798E+01   -.150E-12 0.336E-13 0.796E-12   -.128E-16 -.520E-17 -.798E+01   -.190E-08 -.111E-08 -.168E-01
 
 
 POSITION                                       TOTAL-FORCE (eV/Angst)
 -----------------------------------------------------------------------------------
      0.00000      0.00000     12.08596        -0.000000      0.000000      0.028398
      1.28693      0.74301     14.15986        -0.000000     -0.000000      0.000550
      2.57387      1.48602     16.24457         0.000000     -0.000000      0.006873
      0.00000      0.00000     18.35506         0.000000     -0.000000      0.809350
      0.00000      0.00000     19.96855         0.000000      0.000000     -0.845171
 -----------------------------------------------------------------------------------
    total drift:                               -0.000201     -0.000117     -0.012503


--------------------------------------------------------------------------------------------------------



  FREE ENERGIE OF THE ION-ELECTRON SYSTEM (eV)
  ---------------------------------------------------
  free  energy   TOTEN  =       -16.29148466 eV

  energy  without entropy=      -16.27659264  energy(sigma->0) =      -16.28403865
 


--------------------------------------------------------------------------------------------------------


    POTLOK:  cpu time    0.0150: real time    0.0144


--------------------------------------------------------------------------------------------------------


     LOOP+:  cpu time    6.4970: real time    6.5610
    4ORBIT:  cpu time    0.0000: real time    0.0000
 


 total charge     
 
# of ion       s       p       d       tot
------------------------------------------
    1        0.455   0.285   9.223   9.963
    2        0.448   0.371   9.219  10.038
    3        0.450   0.382   9.199  10.031
    4        0.471   0.373   9.174  10.017
    5        0.443   0.008   0.000   0.451
--------------------------------------------------
tot          2.266   1.419  36.815  40.500
 

 total amount of memory used by VASP MPI-rank0    35969. kBytes
=======================================================================

   base      :      30000. kBytes
   nonlr-proj:        671. kBytes
   fftplans  :        995. kBytes
   grid      :       1592. kBytes
   one-center:         46. kBytes
   wavefun   :       2665. kBytes
 
  
  
 General timing and accounting informations for this job:
 ========================================================
  
                  Total CPU time used (sec):        7.664
                            User time (sec):        7.485
                          System time (sec):        0.179
                         Elapsed time (sec):        7.904
  
                   Maximum memory used (kb):       35664.
                   Average memory used (kb):           0.
  
                          Minor page faults:        12139
                          Major page faults:          187
                 Voluntary context switches:         2873
