PROCAR lm decomposed
# of k-points:   14         # of bands:   28         # of ions:    5

 k-point     1 :    0.00000000 0.00000000 0.00000000     weight = 0.01000000

band     1 # energy  -11.30395184 # occ.  2.00000000
 
ion      s     py     pz     px    dxy    dyz    dz2    dxz  x2-y2    tot
    1  0.059  0.000  0.007  0.000  0.000  0.000  0.000  0.000  0.000  0.065
    2  0.207  0.000  0.001  0.000  0.000  0.000  0.000  0.000  0.000  0.209
    3  0.218  0.000  0.001  0.000  0.000  0.000  0.000  0.000  0.000  0.219
    4  0.085  0.000  0.004  0.000  0.000  0.000  0.000  0.000  0.000  0.089
    5  0.005  0.000  0.000  0.000  0.000  0.000  0.000  0.000  0.000  0.006
tot    0.574  0.000  0.013  0.000  0.000  0.000  0.001  0.000  0.000  0.587
 
band     2 # energy  -10.20607282 # occ.  2.00000000
 
ion      s     py     pz     px    dxy    dyz    dz2    dxz  x2-y2    tot
    1  0.140  0.000  0.007  0.000  0.000  0.000  0.003  0.000  0.000  0.150
    2  0.109  0.000  0.013  0.000  0.000  0.000  0.004  0.000  0.000  0.126
    3  0.043  0.000  0.022  0.000  0.000  0.000  0.002  0.000  0.000  0.067
    4  0.201  0.000  0.000  0.000  0.000  0.000  0.001  0.000  0.000  0.201
    5  0.027  0.000  0.000  0.000  0.000  0.000  0.000  0.000  0.000  0.027
tot    0.520  0.000  0.043  0.000  0.000  0.000  0.009  0.000  0.000  0.572
 
band     3 # energy   -8.74233307 # occ.  2.00000000
 
ion      s     py     pz     px    dxy    dyz    dz2    dxz  x2-y2    tot
    1  0.149  0.000  0.000  0.000  0.000  0.000  0.035  0.000  0.000  0.184
    2  0.008  0.000  0.038  0.000  0.000  0.000  0.003  0.000  0.000  0.049
    3  0.108  0.000  0.011  0.000  0.000  0.000  0.035  0.000  0.000  0.154
    4  0.096  0.000  0.023  0.000  0.000  0.000  0.006  0.000  0.000  0.125
    5  0.057  0.000  0.000  0.000  0.000  0.000  0.000  0.000  0.000  0.058
tot    0.418  0.000  0.073  0.000  0.000  0.000  0.079  0.000  0.000  0.570
 
band     4 # energy   -7.68024978 # occ.  2.00000000
 
ion      s     py     pz     px    dxy    dyz    dz2    dxz  x2-y2    tot
    1  0.076  0.000  0.005  0.000  0.000  0.000  0.118  0.000  0.000  0.199
    2  0.085  0.000  0.001  0.000  0.000  0.000  0.231  0.000  0.000  0.316
    3  0.044  0.000  0.008  0.000  0.000  0.000  0.116  0.000  0.000  0.168
    4  0.003  0.000  0.020  0.000  0.000  0.000  0.000  0.000  0.000  0.023
    5  0.025  0.000  0.000  0.000  0.000  0.000  0.000  0.000  0.000  0.025
tot    0.233  0.000  0.034  0.000  0.000  0.000  0.465  0.000  0.000  0.732
 
band     5 # energy   -7.23186320 # occ.  2.00000000
 
ion      s     py     pz     px    dxy    dyz    dz2    dxz  x2-y2    tot
    1  0.000  0.000  0.000  0.000  0.000  0.000  0.000  0.000  0.000  0.000
    2  0.000  0.000  0.000  0.000  0.000  0.000  0.005  0.000  0.000  0.006
    3  0.002  0.000  0.004  0.000  0.000  0.000  0.063  0.000  0.000  0.069
    4  0.026  0.000  0.028  0.000  0.000  0.000  0.568  0.000  0.000  0.622
    5  0.093  0.000  0.001  0.000  0.000  0.000  0.000  0.000  0.000  0.094
tot    0.121  0.000  0.032  0.000  0.000  0.000  0.637  0.000  0.000  0.791
 
band     6 # energy   -5.64139669 # occ.  2.00000000
 
ion      s     py     pz     px    dxy    dyz    dz2    dxz  x2-y2    tot
    1  0.002  0.000  0.000  0.000  0.000  0.000  0.053  0.000  0.000  0.055
    2  0.000  0.000  0.011  0.000  0.000  0.000  0.075  0.000  0.000  0.087
    3  0.004  0.000  0.000  0.000  0.000  0.000  0.650  0.000  0.000  0.655
    4  0.001  0.000  0.013  0.000  0.000  0.000  0.114  0.000  0.000  0.127
    5  0.003  0.000  0.000  0.000  0.000  0.000  0.000  0.000  0.000  0.003
tot    0.009  0.000  0.025  0.000  0.000  0.000  0.892  0.000  0.000  0.926
 
band     7 # energy   -5.51443873 # occ.  2.00000000
 
ion      s     py     pz     px    dxy    dyz    dz2    dxz  x2-y2    tot
    1  0.000  0.000  0.006  0.000  0.000  0.000  0.365  0.000  0.000  0.371
    2  0.004  0.000  0.001  0.000  0.000  0.000  0.506  0.000  0.000  0.512
    3  0.002  0.000  0.011  0.000  0.000  0.000  0.003  0.000  0.000  0.015
    4  0.000  0.000  0.008  0.000  0.000  0.000  0.022  0.000  0.000  0.030
    5  0.003  0.000  0.000  0.000  0.000  0.000  0.000  0.000  0.000  0.003
tot    0.009  0.000  0.026  0.000  0.000  0.000  0.896  0.000  0.000  0.931
 
band     8 # energy   -5.50492998 # occ.  2.00000000
 
ion      s     py     pz     px    dxy    dyz    dz2    dxz  x2-y2    tot
    1  0.000  0.000  0.000  0.000  0.005  0.004  0.000  0.001  0.016  0.026
    2  0.000  0.000  0.000  0.000  0.068  0.011  0.000  0.004  0.205  0.289
    3  0.000  0.000  0.000  0.000  0.115  0.012  0.000  0.004  0.344  0.475
    4  0.000  0.000  0.000  0.000  0.040  0.011  0.000  0.004  0.119  0.173
    5  0.000  0.000  0.000  0.000  0.000  0.000  0.000  0.000  0.000  0.000
tot    0.000  0.000  0.000  0.000  0.228  0.039  0.000  0.013  0.684  0.964
 
band     9 # energy   -5.50462899 # occ.  2.00000000
 
ion      s     py     pz     px    dxy    dyz    dz2    dxz  x2-y2    tot
    1  0.000  0.000  0.000  0.000  0.016  0.001  0.000  0.004  0.005  0.026
    2  0.000  0.000  0.000  0.000  0.205  0.004  0.000  0.011  0.068  0.289
    3  0.000  0.000  0.000  0.000  0.344  0.004  0.000  0.012  0.115  0.475
    4  0.000  0.000  0.000  0.000  0.119  0.004  0.000  0.011  0.040  0.173
    5  0.000  0.000  0.000  0.000  0.000  0.000  0.000  0.000  0.000  0.000
tot    0.000  0.000  0.000  0.000  0.684  0.013  0.000  0.039  0.228  0.964
 
band    10 # energy   -5.46789365 # occ.  2.00000000
 
ion      s     py     pz     px    dxy    dyz    dz2    dxz  x2-y2    tot
    1  0.000  0.000  0.000  0.000  0.001  0.016  0.000  0.005  0.004  0.027
    2  0.000  0.000  0.000  0.000  0.074  0.054  0.000  0.018  0.221  0.366
    3  0.000  0.000  0.000  0.000  0.081  0.079  0.000  0.026  0.244  0.430
    4  0.000  0.000  0.000  0.000  0.024  0.038  0.000  0.013  0.071  0.145
    5  0.000  0.000  0.000  0.000  0.000  0.000  0.000  0.000  0.000  0.000
tot    0.000  0.000  0.000  0.000  0.180  0.186  0.000  0.062  0.540  0.969
 
band    11 # energy   -5.46762525 # occ.  2.00000000
 
ion      s     py     pz     px    dxy    dyz    dz2    dxz  x2-y2    tot
    1  0.000  0.000  0.000  0.000  0.004  0.005  0.000  0.016  0.001  0.027
    2  0.000  0.000  0.000  0.000  0.221  0.018  0.000  0.054  0.074  0.366
    3  0.000  0.000  0.000  0.000  0.244  0.026  0.000  0.079  0.081  0.430
    4  0.000  0.000  0.000  0.000  0.071  0.013  0.000  0.038  0.024  0.145
    5  0.000  0.000  0.000  0.000  0.000  0.000  0.000  0.000  0.000  0.000
tot    0.000  0.000  0.000  0.000  0.540  0.062  0.000  0.186  0.180  0.969
 
band    12 # energy   -5.39093935 # occ.  2.00000000
 
ion      s     py     pz     px    dxy    dyz    dz2    dxz  x2-y2    tot
    1  0.000  0.000  0.000  0.000  0.005  0.007  0.000  0.002  0.016  0.031
    2  0.000  0.000  0.000  0.000  0.071  0.000  0.000  0.000  0.214  0.285
    3  0.000  0.000  0.000  0.000  0.000  0.004  0.000  0.001  0.000  0.006
    4  0.000  0.000  0.000  0.000  0.161  0.001  0.000  0.000  0.483  0.646
    5  0.000  0.000  0.000  0.000  0.000  0.000  0.000  0.000  0.000  0.000
tot    0.000  0.000  0.000  0.000  0.238  0.012  0.000  0.004  0.713  0.968
 
band    13 # energy   -5.39059491 # occ.  2.00000000
 
ion      s     py     pz     px    dxy    dyz    dz2    dxz  x2-y2    tot
    1  0.000  0.000  0.000  0.000  0.016  0.002  0.000  0.007  0.005  0.031
    2  0.000  0.000  0.000  0.000  0.214  0.000  0.000  0.000  0.071  0.285
    3  0.000  0.000  0.000  0.000  0.000  0.001  0.000  0.004  0.000  0.006
    4  0.000  0.000  0.000  0.000  0.483  0.000  0.000  0.001  0.161  0.646
    5  0.000  0.000  0.000  0.000  0.000  0.000  0.000  0.000  0.000  0.000
tot    0.000  0.000  0.000  0.000  0.713  0.004  0.000  0.012  0.238  0.968
 
band    14 # energy   -5.22947819 # occ.  2.00000000
 
ion      s     py     pz     px    dxy    dyz    dz2    dxz  x2-y2    tot
    1  0.000  0.000  0.000  0.000  0.202  0.006  0.000  0.002  0.607  0.817
    2  0.000  0.000  0.000  0.000  0.001  0.052  0.000  0.017  0.002  0.072
    3  0.000  0.000  0.000  0.000  0.014  0.001  0.000  0.000  0.043  0.059
    4  0.000  0.000  0.000  0.000  0.003  0.005  0.000  0.002  0.010  0.020
    5  0.000  0.000  0.000  0.000  0.000  0.000  0.000  0.000  0.000  0.000
tot    0.000  0.000  0.000  0.000  0.221  0.063  0.000  0.021  0.663  0.969
 
band    15 # energy   -5.22917493 # occ.  2.00000000
 
ion      s     py     pz     px    dxy    dyz    dz2    dxz  x2-y2    tot
    1  0.000  0.000  0.000  0.000  0.607  0.002  0.000  0.006  0.202  0.817
    2  0.000  0.000  0.000  0.000  0.002  0.017  0.000  0.052  0.001  0.072
    3  0.000  0.000  0.000  0.000  0.043  0.000  0.000  0.001  0.014  0.059
    4  0.000  0.000  0.000  0.000  0.010  0.002  0.000  0.005  0.003  0.020
    5  0.000  0.000  0.000  0.000  0.000  0.000  0.000  0.000  0.000  0.000
tot    0.000  0.000  0.000  0.000  0.663  0.021  0.000  0.063  0.221  0.969
 
band    16 # energy   -5.02571882 # occ.  2.00000000
 
ion      s     py     pz     px    dxy    dyz    dz2    dxz  x2-y2    tot
    1  0.026  0.000  0.001  0.000  0.000  0.000  0.307  0.000  0.000  0.334
    2  0.015  0.000  0.035  0.000  0.000  0.000  0.052  0.000  0.000  0.103
    3  0.000  0.000  0.077  0.000  0.000  0.000  0.003  0.000  0.000  0.080
    4  0.007  0.000  0.046  0.000  0.000  0.000  0.133  0.000  0.000  0.187
    5  0.018  0.000  0.000  0.000  0.000  0.000  0.000  0.000  0.000  0.018
tot    0.067  0.000  0.160  0.000  0.000  0.000  0.496  0.000  0.000  0.723
 
band    17 # energy   -4.80895142 # occ.  2.00000000
 
ion      s     py     pz     px    dxy    dyz    dz2    dxz  x2-y2    tot
    1  0.000  0.000  0.000  0.000  0.001  0.002  0.000  0.001  0.003  0.007
    2  0.000  0.000  0.000  0.000  0.009  0.003  0.000  0.001  0.026  0.039
    3  0.000  0.000  0.000  0.000  0.023  0.193  0.000  0.064  0.069  0.350
    4  0.000  0.000  0.000  0.000  0.010  0.412  0.000  0.137  0.029  0.588
    5  0.000  0.000  0.000  0.000  0.000  0.000  0.000  0.000  0.000  0.000
tot    0.000  0.000  0.000  0.000  0.042  0.611  0.000  0.204  0.127  0.984
 
band    18 # energy   -4.80888158 # occ.  2.00000000
 
ion      s     py     pz     px    dxy    dyz    dz2    dxz  x2-y2    tot
    1  0.000  0.000  0.000  0.000  0.003  0.001  0.000  0.003  0.001  0.007
    2  0.000  0.000  0.000  0.000  0.026  0.001  0.000  0.003  0.009  0.039
    3  0.000  0.000  0.000  0.000  0.069  0.064  0.000  0.193  0.023  0.350
    4  0.000  0.000  0.000  0.000  0.029  0.137  0.000  0.412  0.010  0.588
    5  0.000  0.000  0.000  0.000  0.000  0.000  0.000  0.000  0.000  0.000
tot    0.000  0.000  0.000  0.000  0.127  0.204  0.000  0.611  0.042  0.984
 
band    19 # energy   -4.68443621 # occ.  2.00000000
 
ion      s     py     pz     px    dxy    dyz    dz2    dxz  x2-y2    tot
    1  0.000  0.000  0.000  0.000  0.023  0.067  0.000  0.022  0.070  0.183
    2  0.000  0.000  0.000  0.000  0.013  0.363  0.000  0.121  0.038  0.535
    3  0.000  0.000  0.000  0.000  0.004  0.067  0.000  0.022  0.011  0.104
    4  0.000  0.000  0.000  0.000  0.001  0.117  0.000  0.039  0.004  0.162
    5  0.000  0.000  0.000  0.000  0.000  0.000  0.000  0.000  0.000  0.000
tot    0.000  0.000  0.000  0.000  0.041  0.614  0.000  0.205  0.124  0.984
 
band    20 # energy   -4.68437148 # occ.  2.00000000
 
ion      s     py     pz     px    dxy    dyz    dz2    dxz  x2-y2    tot
    1  0.000  0.000  0.000  0.000  0.070  0.022  0.000  0.067  0.023  0.183
    2  0.000  0.000  0.000  0.000  0.038  0.121  0.000  0.363  0.013  0.535
    3  0.000  0.000  0.000  0.000  0.011  0.022  0.000  0.067  0.004  0.104
    4  0.000  0.000  0.000  0.000  0.004  0.039  0.000  0.117  0.001  0.162
    5  0.000  0.000  0.000  0.000  0.000  0.000  0.000  0.000  0.000  0.000
tot    0.000  0.000  0.000  0.000  0.124  0.205  0.000  0.614  0.041  0.984
 
band    21 # energy   -4.46506508 # occ.  2.00000000
 
ion      s     py     pz     px    dxy    dyz    dz2    dxz  x2-y2    tot
    1  0.000  0.000  0.000  0.000  0.001  0.250  0.000  0.083  0.004  0.339
    2  0.000  0.000  0.000  0.000  0.000  0.037  0.000  0.012  0.000  0.050
    3  0.000  0.000  0.000  0.000  0.003  0.292  0.000  0.097  0.009  0.400
    4  0.000  0.000  0.000  0.000  0.003  0.139  0.000  0.046  0.009  0.198
    5  0.000  0.000  0.000  0.000  0.000  0.000  0.000  0.000  0.000  0.000
tot    0.000  0.000  0.000  0.000  0.007  0.718  0.000  0.239  0.022  0.987
 
band    22 # energy   -4.46502129 # occ.  2.00000000
 
ion      s     py     pz     px    dxy    dyz    dz2    dxz  x2-y2    tot
    1  0.000  0.000  0.000  0.000  0.004  0.083  0.000  0.250  0.001  0.339
    2  0.000  0.000  0.000  0.000  0.000  0.012  0.000  0.037  0.000  0.050
    3  0.000  0.000  0.000  0.000  0.009  0.097  0.000  0.292  0.003  0.400
    4  0.000  0.000  0.000  0.000  0.009  0.046  0.000  0.139  0.003  0.198
    5  0.000  0.000  0.000  0.000  0.000  0.000  0.000  0.000  0.000  0.000
tot    0.000  0.000  0.000  0.000  0.022  0.239  0.000  0.718  0.007  0.987
 
band    23 # energy   -4.20289275 # occ.  2.00000000
 
ion      s     py     pz     px    dxy    dyz    dz2    dxz  x2-y2    tot
    1  0.000  0.000  0.000  0.000  0.002  0.386  0.000  0.129  0.006  0.523
    2  0.000  0.000  0.000  0.000  0.006  0.218  0.000  0.073  0.019  0.316
    3  0.000  0.000  0.000  0.000  0.002  0.090  0.000  0.030  0.006  0.129
    4  0.000  0.000  0.000  0.000  0.001  0.015  0.000  0.005  0.002  0.022
    5  0.000  0.000  0.000  0.000  0.000  0.000  0.000  0.000  0.000  0.000
tot    0.000  0.000  0.000  0.000  0.011  0.709  0.000  0.236  0.034  0.990
 
band    24 # energy   -4.20282969 # occ.  2.00000000
 
ion      s     py     pz     px    dxy    dyz    dz2    dxz  x2-y2    tot
    1  0.000  0.000  0.000  0.000  0.006  0.129  0.000  0.386  0.002  0.523
    2  0.000  0.000  0.000  0.000  0.019  0.073  0.000  0.218  0.006  0.316
    3  0.000  0.000  0.000  0.000  0.006  0.030  0.000  0.090  0.002  0.129
    4  0.000  0.000  0.000  0.000  0.002  0.005  0.000  0.015  0.001  0.022
    5  0.000  0.000  0.000  0.000  0.000  0.000  0.000  0.000  0.000  0.000
tot    0.000  0.000  0.000  0.000  0.034  0.236  0.000  0.709  0.011  0.990
 
band    25 # energy   -3.13838881 # occ.  2.00000000
 
ion      s     py     pz     px    dxy    dyz    dz2    dxz  x2-y2    tot
    1  0.020  0.000  0.152  0.000  0.000  0.000  0.030  0.000  0.000  0.202
    2  0.016  0.000  0.076  0.000  0.000  0.000  0.026  0.000  0.000  0.118
    3  0.014  0.000  0.030  0.000  0.000  0.000  0.021  0.000  0.000  0.065
    4  0.011  0.000  0.008  0.000  0.000  0.000  0.024  0.000  0.000  0.042
    5  0.005  0.000  0.000  0.000  0.000  0.000  0.000  0.000  0.000  0.005
tot    0.067  0.000  0.267  0.000  0.000  0.000  0.100  0.000  0.000  0.433
 
band    26 # energy    0.73235490 # occ.  0.00000000
 
ion      s     py     pz     px    dxy    dyz    dz2    dxz  x2-y2    tot
    1  0.008  0.000  0.009  0.000  0.000  0.000  0.008  0.000  0.000  0.025
    2  0.022  0.000  0.012  0.000  0.000  0.000  0.019  0.000  0.000  0.053
    3  0.048  0.000  0.018  0.000  0.000  0.000  0.042  0.000  0.000  0.107
    4  0.089  0.000  0.020  0.000  0.000  0.000  0.089  0.000  0.000  0.198
    5  0.023  0.000  0.006  0.000  0.000  0.000  0.000  0.000  0.000  0.029
tot    0.189  0.000  0.065  0.000  0.000  0.000  0.158  0.000  0.000  0.412
 
band    27 # energy    1.77612405 # occ.  0.00000000
 
ion      s     py     pz     px    dxy    dyz    dz2    dxz  x2-y2    tot
    1  0.013  0.000  0.004  0.000  0.000  0.000  0.013  0.000  0.000  0.030
    2  0.005  0.000  0.005  0.000  0.000  0.000  0.004  0.000  0.000  0.014
    3  0.000  0.000  0.006  0.000  0.000  0.000  0.000  0.000  0.000  0.006
    4  0.001  0.000  0.006  0.000  0.000  0.000  0.001  0.000  0.000  0.008
    5  0.000  0.000  0.000  0.000  0.000  0.000  0.000  0.000  0.000  0.001
tot    0.020  0.000  0.021  0.000  0.000  0.000  0.019  0.000  0.000  0.059
 
band    28 # energy    2.31869366 # occ.  0.00000000
 
ion      s     py     pz     px    dxy    dyz    dz2    dxz  x2-y2    tot
    1  0.002  0.000  0.003  0.000  0.000  0.000  0.002  0.000  0.000  0.006
    2  0.000  0.000  0.003  0.000  0.000  0.000  0.000  0.000  0.000  0.003
    3  0.001  0.000  0.002  0.000  0.000  0.000  0.001  0.000  0.000  0.004
    4  0.003  0.000  0.001  0.000  0.000  0.000  0.003  0.000  0.000  0.007
    5  0.002  0.000  0.000  0.000  0.000  0.000  0.000  0.000  0.000  0.002
tot    0.007  0.000  0.008  0.000  0.000  0.000  0.006  0.000  0.000  0.022
 

 k-point     2 :    0.10000000 0.00000000 0.00000000     weight = 0.06000000

band     1 # energy  -10.99126866 # occ.  2.00000000
 
ion      s     py     pz     px    dxy    dyz    dz2    dxz  x2-y2    tot
    1  0.056  0.000  0.007  0.001  0.000  0.000  0.000  0.000  0.000  0.065
    2  0.201  0.001  0.001  0.004  0.000  0.000  0.000  0.000  0.000  0.208
    3  0.212  0.002  0.001  0.005  0.000  0.000  0.000  0.000  0.000  0.219
    4  0.083  0.001  0.004  0.002  0.000  0.000  0.000  0.000  0.000  0.090
    5  0.006  0.000  0.000  0.000  0.000  0.000  0.000  0.000  0.000  0.006
tot    0.558  0.004  0.012  0.012  0.000  0.000  0.001  0.001  0.000  0.588
 
band     2 # energy   -9.90811411 # occ.  2.00000000
 
ion      s     py     pz     px    dxy    dyz    dz2    dxz  x2-y2    tot
    1  0.134  0.001  0.007  0.003  0.000  0.000  0.002  0.001  0.000  0.149
    2  0.107  0.001  0.013  0.002  0.000  0.000  0.003  0.001  0.000  0.128
    3  0.041  0.000  0.022  0.001  0.000  0.001  0.001  0.002  0.000  0.068
    4  0.194  0.001  0.000  0.004  0.000  0.000  0.000  0.000  0.000  0.200
    5  0.028  0.000  0.000  0.000  0.000  0.000  0.000  0.000  0.000  0.028
tot    0.503  0.003  0.043  0.010  0.000  0.001  0.007  0.004  0.000  0.573
 
band     3 # energy   -8.46815810 # occ.  2.00000000
 
ion      s     py     pz     px    dxy    dyz    dz2    dxz  x2-y2    tot
    1  0.141  0.001  0.000  0.004  0.000  0.000  0.033  0.000  0.000  0.179
    2  0.007  0.000  0.038  0.000  0.000  0.002  0.002  0.005  0.000  0.055
    3  0.103  0.001  0.011  0.003  0.000  0.001  0.034  0.002  0.000  0.154
    4  0.091  0.001  0.024  0.002  0.000  0.001  0.004  0.002  0.000  0.123
    5  0.060  0.000  0.000  0.000  0.000  0.000  0.000  0.000  0.000  0.060
tot    0.402  0.003  0.074  0.009  0.001  0.003  0.072  0.008  0.000  0.571
 
band     4 # energy   -7.45837357 # occ.  2.00000000
 
ion      s     py     pz     px    dxy    dyz    dz2    dxz  x2-y2    tot
    1  0.071  0.001  0.005  0.003  0.001  0.000  0.120  0.000  0.000  0.201
    2  0.076  0.001  0.001  0.003  0.001  0.000  0.238  0.000  0.000  0.320
    3  0.038  0.001  0.008  0.002  0.001  0.000  0.115  0.001  0.000  0.166
    4  0.002  0.000  0.020  0.000  0.000  0.001  0.000  0.003  0.000  0.027
    5  0.025  0.000  0.000  0.000  0.000  0.000  0.000  0.000  0.000  0.025
tot    0.213  0.003  0.034  0.008  0.002  0.002  0.474  0.005  0.001  0.740
 
band     5 # energy   -7.11159675 # occ.  2.00000000
 
ion      s     py     pz     px    dxy    dyz    dz2    dxz  x2-y2    tot
    1  0.000  0.000  0.000  0.000  0.000  0.000  0.000  0.000  0.000  0.000
    2  0.000  0.000  0.000  0.000  0.000  0.000  0.007  0.000  0.000  0.007
    3  0.002  0.000  0.004  0.000  0.001  0.000  0.073  0.000  0.000  0.081
    4  0.025  0.001  0.024  0.002  0.001  0.002  0.572  0.006  0.000  0.634
    5  0.084  0.000  0.001  0.000  0.000  0.000  0.000  0.000  0.000  0.085
tot    0.111  0.001  0.029  0.003  0.002  0.002  0.652  0.007  0.001  0.808
 
band     6 # energy   -5.74993448 # occ.  2.00000000
 
ion      s     py     pz     px    dxy    dyz    dz2    dxz  x2-y2    tot
    1  0.001  0.000  0.002  0.000  0.005  0.001  0.118  0.002  0.002  0.130
    2  0.001  0.000  0.007  0.000  0.094  0.019  0.012  0.057  0.031  0.221
    3  0.003  0.000  0.001  0.000  0.011  0.006  0.381  0.018  0.004  0.423
    4  0.001  0.000  0.010  0.000  0.018  0.006  0.092  0.019  0.006  0.152
    5  0.002  0.000  0.000  0.000  0.000  0.000  0.000  0.000  0.000  0.002
tot    0.006  0.000  0.020  0.001  0.128  0.032  0.603  0.096  0.043  0.929
 
band     7 # energy   -5.63610378 # occ.  2.00000000
 
ion      s     py     pz     px    dxy    dyz    dz2    dxz  x2-y2    tot
    1  0.002  0.000  0.001  0.000  0.025  0.001  0.033  0.002  0.008  0.073
    2  0.002  0.000  0.004  0.001  0.064  0.000  0.325  0.001  0.022  0.419
    3  0.000  0.000  0.013  0.000  0.020  0.038  0.084  0.115  0.007  0.278
    4  0.001  0.000  0.006  0.000  0.102  0.000  0.010  0.000  0.034  0.154
    5  0.003  0.000  0.000  0.000  0.000  0.000  0.000  0.000  0.000  0.003
tot    0.009  0.000  0.025  0.001  0.212  0.040  0.452  0.118  0.071  0.927
 
band     8 # energy   -5.59563011 # occ.  2.00000000
 
ion      s     py     pz     px    dxy    dyz    dz2    dxz  x2-y2    tot
    1  0.000  0.000  0.001  0.000  0.014  0.002  0.033  0.006  0.005  0.061
    2  0.000  0.000  0.001  0.000  0.099  0.012  0.021  0.036  0.033  0.201
    3  0.000  0.000  0.000  0.001  0.417  0.001  0.007  0.003  0.139  0.569
    4  0.000  0.000  0.000  0.000  0.060  0.009  0.006  0.028  0.020  0.124
    5  0.000  0.000  0.000  0.000  0.000  0.000  0.000  0.000  0.000  0.000
tot    0.001  0.000  0.002  0.001  0.590  0.025  0.066  0.074  0.197  0.955
 
band     9 # energy   -5.46672054 # occ.  2.00000000
 
ion      s     py     pz     px    dxy    dyz    dz2    dxz  x2-y2    tot
    1  0.002  0.000  0.002  0.000  0.037  0.013  0.011  0.039  0.012  0.117
    2  0.004  0.000  0.000  0.000  0.168  0.014  0.105  0.042  0.056  0.390
    3  0.001  0.000  0.017  0.000  0.057  0.000  0.011  0.001  0.019  0.108
    4  0.000  0.000  0.011  0.000  0.094  0.028  0.059  0.083  0.031  0.307
    5  0.003  0.000  0.000  0.000  0.000  0.000  0.000  0.000  0.000  0.003
tot    0.010  0.000  0.031  0.001  0.356  0.055  0.187  0.165  0.119  0.924
 
band    10 # energy   -5.43078950 # occ.  2.00000000
 
ion      s     py     pz     px    dxy    dyz    dz2    dxz  x2-y2    tot
    1  0.000  0.000  0.000  0.000  0.069  0.002  0.010  0.006  0.023  0.111
    2  0.000  0.000  0.000  0.000  0.187  0.004  0.013  0.012  0.063  0.279
    3  0.000  0.000  0.000  0.000  0.001  0.002  0.069  0.005  0.000  0.077
    4  0.000  0.000  0.002  0.000  0.350  0.002  0.015  0.006  0.117  0.492
    5  0.000  0.000  0.000  0.000  0.000  0.000  0.000  0.000  0.000  0.000
tot    0.001  0.000  0.002  0.001  0.608  0.010  0.106  0.029  0.204  0.960
 
band    11 # energy   -5.40277503 # occ.  2.00000000
 
ion      s     py     pz     px    dxy    dyz    dz2    dxz  x2-y2    tot
    1  0.000  0.000  0.000  0.000  0.004  0.013  0.000  0.004  0.012  0.034
    2  0.000  0.000  0.000  0.000  0.051  0.042  0.000  0.014  0.154  0.262
    3  0.000  0.000  0.000  0.000  0.106  0.052  0.000  0.018  0.318  0.495
    4  0.000  0.000  0.000  0.000  0.028  0.048  0.000  0.016  0.085  0.177
    5  0.000  0.000  0.000  0.000  0.000  0.000  0.000  0.000  0.000  0.000
tot    0.000  0.001  0.000  0.000  0.190  0.155  0.000  0.052  0.569  0.967
 
band    12 # energy   -5.39409156 # occ.  2.00000000
 
ion      s     py     pz     px    dxy    dyz    dz2    dxz  x2-y2    tot
    1  0.000  0.000  0.000  0.000  0.004  0.009  0.000  0.003  0.012  0.028
    2  0.000  0.000  0.000  0.000  0.075  0.046  0.000  0.015  0.223  0.359
    3  0.000  0.000  0.000  0.000  0.077  0.071  0.000  0.024  0.230  0.402
    4  0.000  0.000  0.000  0.000  0.039  0.018  0.000  0.006  0.116  0.179
    5  0.000  0.000  0.000  0.000  0.000  0.000  0.000  0.000  0.000  0.000
tot    0.000  0.001  0.000  0.000  0.194  0.144  0.000  0.048  0.581  0.967
 
band    13 # energy   -5.31259669 # occ.  2.00000000
 
ion      s     py     pz     px    dxy    dyz    dz2    dxz  x2-y2    tot
    1  0.004  0.000  0.002  0.000  0.055  0.001  0.331  0.002  0.018  0.413
    2  0.001  0.000  0.015  0.000  0.010  0.014  0.081  0.042  0.003  0.167
    3  0.000  0.000  0.014  0.000  0.123  0.014  0.031  0.041  0.041  0.263
    4  0.001  0.000  0.012  0.000  0.002  0.003  0.036  0.008  0.001  0.063
    5  0.005  0.000  0.000  0.000  0.000  0.000  0.000  0.000  0.000  0.005
tot    0.011  0.000  0.044  0.000  0.190  0.031  0.479  0.093  0.063  0.910
 
band    14 # energy   -5.28596946 # occ.  2.00000000
 
ion      s     py     pz     px    dxy    dyz    dz2    dxz  x2-y2    tot
    1  0.000  0.000  0.000  0.000  0.004  0.012  0.000  0.004  0.012  0.033
    2  0.000  0.000  0.000  0.000  0.082  0.001  0.000  0.000  0.245  0.329
    3  0.000  0.000  0.000  0.000  0.000  0.004  0.000  0.001  0.000  0.005
    4  0.000  0.000  0.000  0.000  0.150  0.002  0.000  0.001  0.449  0.603
    5  0.000  0.000  0.000  0.000  0.000  0.000  0.000  0.000  0.000  0.000
tot    0.000  0.001  0.000  0.000  0.236  0.019  0.000  0.006  0.707  0.970
 
band    15 # energy   -5.22981630 # occ.  2.00000000
 
ion      s     py     pz     px    dxy    dyz    dz2    dxz  x2-y2    tot
    1  0.003  0.000  0.000  0.001  0.445  0.001  0.068  0.002  0.149  0.669
    2  0.000  0.000  0.012  0.000  0.008  0.000  0.020  0.001  0.002  0.043
    3  0.000  0.000  0.011  0.000  0.008  0.018  0.023  0.054  0.003  0.116
    4  0.001  0.000  0.003  0.000  0.062  0.004  0.006  0.012  0.020  0.108
    5  0.001  0.000  0.000  0.000  0.000  0.000  0.000  0.000  0.000  0.001
tot    0.006  0.000  0.026  0.001  0.523  0.023  0.116  0.068  0.175  0.938
 
band    16 # energy   -5.13737254 # occ.  2.00000000
 
ion      s     py     pz     px    dxy    dyz    dz2    dxz  x2-y2    tot
    1  0.000  0.001  0.000  0.000  0.186  0.009  0.000  0.003  0.554  0.753
    2  0.000  0.000  0.000  0.000  0.000  0.073  0.000  0.024  0.000  0.097
    3  0.000  0.000  0.000  0.000  0.019  0.003  0.000  0.001  0.057  0.081
    4  0.000  0.000  0.000  0.000  0.005  0.014  0.000  0.005  0.015  0.039
    5  0.000  0.000  0.000  0.000  0.000  0.000  0.000  0.000  0.000  0.000
tot    0.000  0.001  0.000  0.000  0.210  0.099  0.000  0.033  0.627  0.970
 
band    17 # energy   -4.86469137 # occ.  2.00000000
 
ion      s     py     pz     px    dxy    dyz    dz2    dxz  x2-y2    tot
    1  0.000  0.000  0.000  0.000  0.033  0.009  0.003  0.028  0.011  0.085
    2  0.000  0.000  0.001  0.000  0.036  0.022  0.007  0.066  0.012  0.145
    3  0.001  0.000  0.000  0.000  0.061  0.065  0.012  0.193  0.021  0.354
    4  0.000  0.000  0.001  0.000  0.026  0.089  0.001  0.265  0.009  0.389
    5  0.002  0.000  0.000  0.000  0.000  0.000  0.000  0.000  0.000  0.002
tot    0.004  0.000  0.002  0.000  0.156  0.185  0.023  0.553  0.052  0.975
 
band    18 # energy   -4.85046967 # occ.  2.00000000
 
ion      s     py     pz     px    dxy    dyz    dz2    dxz  x2-y2    tot
    1  0.000  0.000  0.000  0.000  0.014  0.016  0.000  0.005  0.041  0.077
    2  0.000  0.000  0.000  0.000  0.011  0.043  0.000  0.014  0.032  0.100
    3  0.000  0.000  0.000  0.000  0.021  0.170  0.000  0.057  0.062  0.309
    4  0.000  0.000  0.000  0.000  0.015  0.328  0.000  0.109  0.043  0.495
    5  0.000  0.000  0.000  0.000  0.000  0.000  0.000  0.000  0.000  0.000
tot    0.000  0.000  0.000  0.000  0.060  0.557  0.000  0.186  0.178  0.981
 
band    19 # energy   -4.67993370 # occ.  2.00000000
 
ion      s     py     pz     px    dxy    dyz    dz2    dxz  x2-y2    tot
    1  0.000  0.000  0.000  0.000  0.027  0.073  0.000  0.024  0.082  0.206
    2  0.000  0.000  0.000  0.000  0.014  0.269  0.000  0.090  0.043  0.416
    3  0.000  0.000  0.000  0.000  0.016  0.043  0.000  0.014  0.047  0.120
    4  0.000  0.000  0.000  0.000  0.002  0.176  0.000  0.059  0.005  0.242
    5  0.000  0.000  0.000  0.000  0.000  0.000  0.000  0.000  0.000  0.000
tot    0.000  0.000  0.000  0.000  0.059  0.562  0.000  0.187  0.177  0.984
 
band    20 # energy   -4.66722446 # occ.  2.00000000
 
ion      s     py     pz     px    dxy    dyz    dz2    dxz  x2-y2    tot
    1  0.001  0.000  0.005  0.000  0.021  0.108  0.004  0.325  0.007  0.471
    2  0.000  0.000  0.005  0.000  0.044  0.036  0.001  0.108  0.014  0.209
    3  0.002  0.000  0.002  0.000  0.008  0.014  0.024  0.042  0.003  0.095
    4  0.000  0.000  0.001  0.000  0.003  0.043  0.003  0.129  0.001  0.181
    5  0.002  0.000  0.000  0.000  0.000  0.000  0.000  0.000  0.000  0.002
tot    0.005  0.000  0.013  0.000  0.076  0.202  0.031  0.605  0.025  0.958
 
band    21 # energy   -4.50568599 # occ.  2.00000000
 
ion      s     py     pz     px    dxy    dyz    dz2    dxz  x2-y2    tot
    1  0.011  0.000  0.013  0.000  0.015  0.069  0.081  0.208  0.005  0.403
    2  0.001  0.000  0.001  0.000  0.009  0.087  0.002  0.261  0.003  0.363
    3  0.001  0.000  0.003  0.000  0.005  0.002  0.012  0.006  0.002  0.030
    4  0.000  0.000  0.004  0.000  0.001  0.024  0.008  0.072  0.000  0.109
    5  0.003  0.000  0.000  0.000  0.000  0.000  0.000  0.000  0.000  0.003
tot    0.017  0.000  0.020  0.001  0.029  0.182  0.103  0.546  0.010  0.908
 
band    22 # energy   -4.45928360 # occ.  2.00000000
 
ion      s     py     pz     px    dxy    dyz    dz2    dxz  x2-y2    tot
    1  0.000  0.000  0.000  0.000  0.002  0.242  0.000  0.081  0.005  0.329
    2  0.000  0.000  0.000  0.000  0.004  0.029  0.000  0.010  0.012  0.055
    3  0.000  0.000  0.000  0.000  0.002  0.300  0.000  0.100  0.005  0.407
    4  0.000  0.000  0.000  0.000  0.004  0.136  0.000  0.045  0.011  0.197
    5  0.000  0.000  0.000  0.000  0.000  0.000  0.000  0.000  0.000  0.000
tot    0.000  0.000  0.000  0.000  0.011  0.707  0.000  0.236  0.033  0.987
 
band    23 # energy   -4.19691433 # occ.  2.00000000
 
ion      s     py     pz     px    dxy    dyz    dz2    dxz  x2-y2    tot
    1  0.000  0.000  0.000  0.000  0.003  0.364  0.000  0.121  0.008  0.496
    2  0.000  0.000  0.000  0.000  0.006  0.234  0.000  0.078  0.018  0.336
    3  0.000  0.000  0.000  0.000  0.002  0.094  0.000  0.031  0.007  0.135