Starting job 28338157 ("jobname") on c15-33 at Fri Oct 11 11:58:28 CEST 2019
 running on    4 total cores
 distrk:  each k-point on    4 cores,    1 groups
 distr:  one band on    2 cores,    2 groups
 using from now: INCAR     
 vasp.5.4.4.18Apr17-6-g9f103f2a35 (build Jun 30 2017 11:15:00) complex          
  
 POSCAR found type information on POSCAR  Cu H 
 POSCAR found :  2 types and       5 ions
 scaLAPACK will be used

 ----------------------------------------------------------------------------- 
|                                                                             |
|  ADVICE TO THIS USER RUNNING 'VASP/VAMP'   (HEAR YOUR MASTER'S VOICE ...):  |
|                                                                             |
|      You have a (more or less) 'small supercell' and for smaller cells      |
|      it is recommended  to use the reciprocal-space projection scheme!      |
|      The real space optimization is not  efficient for small cells and it   |
|      is also less accurate ...                                              |
|      Therefore set LREAL=.FALSE. in the  INCAR file                         |
|                                                                             |
 ----------------------------------------------------------------------------- 

 LDA part: xc-table for Pade appr. of Perdew
 POSCAR, INCAR and KPOINTS ok, starting setup
 FFT: planning ...
 WAVECAR not read
 WARNING: random wavefunctions but no delay for mixing, default for NELMDL
 entering main loop
       N       E                     dE             d eps       ncg     rms          rms(c)
DAV:   1     0.197702379457E+03    0.19770E+03   -0.13944E+04   800   0.926E+02
DAV:   2    -0.100074567294E+02   -0.20771E+03   -0.20219E+03   828   0.264E+02
DAV:   3    -0.204056995381E+02   -0.10398E+02   -0.99729E+01   852   0.767E+01
DAV:   4    -0.205777393478E+02   -0.17204E+00   -0.17130E+00   856   0.899E+00
DAV:   5    -0.205790528661E+02   -0.13135E-02   -0.13134E-02   936   0.557E-01    0.157E+01
RMM:   6    -0.197052350705E+02    0.87382E+00   -0.50607E+01   867   0.696E+01    0.961E+00
RMM:   7    -0.170644171371E+02    0.26408E+01   -0.95686E+00   856   0.304E+01    0.396E+00
RMM:   8    -0.163800012487E+02    0.68442E+00   -0.29720E-01   861   0.428E+00    0.177E+00
RMM:   9    -0.163178812614E+02    0.62120E-01   -0.80780E-02   855   0.258E+00    0.802E-01
RMM:  10    -0.163004280733E+02    0.17453E-01   -0.24781E-02   843   0.125E+00    0.642E-01
RMM:  11    -0.162947797867E+02    0.56483E-02   -0.12122E-02   863   0.992E-01    0.360E-01
RMM:  12    -0.162918303485E+02    0.29494E-02   -0.80882E-03   855   0.749E-01    0.113E-01
RMM:  13    -0.162909704255E+02    0.85992E-03   -0.54557E-04   863   0.199E-01    0.432E-02
RMM:  14    -0.162908529350E+02    0.11749E-03   -0.21980E-04   853   0.112E-01    0.489E-02
RMM:  15    -0.162908596999E+02   -0.67650E-05   -0.17030E-04   827   0.922E-02    0.375E-02
RMM:  16    -0.162910562201E+02   -0.19652E-03   -0.97680E-05   818   0.589E-02    0.183E-02
RMM:  17    -0.162912753956E+02   -0.21918E-03   -0.37700E-05   789   0.318E-02    0.164E-02
RMM:  18    -0.162913683827E+02   -0.92987E-04   -0.21307E-05   736   0.208E-02    0.732E-03
RMM:  19    -0.162914197606E+02   -0.51378E-04   -0.59379E-06   604   0.131E-02    0.605E-03
RMM:  20    -0.162914538592E+02   -0.34099E-04   -0.13238E-06   508   0.667E-03    0.560E-03
RMM:  21    -0.162914752054E+02   -0.21346E-04   -0.10571E-06   499   0.466E-03    0.575E-03
RMM:  22    -0.162914810135E+02   -0.58082E-05   -0.28092E-07   478   0.321E-03    0.555E-03
RMM:  23    -0.162914841646E+02   -0.31511E-05   -0.80092E-08   289   0.160E-03    0.544E-03
RMM:  24    -0.162914846581E+02   -0.49352E-06   -0.12517E-08   202   0.115E-03
   1 F= -.16291485E+02 E0= -.16284039E+02  d E =-.148920E-01

Currently Loaded Modulefiles:
  1) intel/2017.4         2) perf-reports/7.0.6

Job script resource usage:
       JobID  MaxVMSize     MaxRSS 
------------ ---------- ---------- 
28338157.ba+    216884K      2331K 

Job step resource usage:
       JobID    JobName  AllocCPUS  MaxVMSize     MaxRSS    Elapsed ExitCode 
------------ ---------- ---------- ---------- ---------- ---------- -------- 
28338157        jobname          4                         00:00:10      0:0 
28338157.0    pmi_proxy          1    279832K       511K   00:00:08      0:0 

Job 28338157 ("jobname") completed on c15-33 at Fri Oct 11 11:58:37 CEST 2019
