    2    2    1    1
  0.2002172E+02  0.3840156E-09  0.3840156E-09  0.3840156E-09  0.5000000E-15
  1.000000000000000E-004
  CAR 
 unknown system                          
      8     20      8
 
  0.0000000E+00  0.0000000E+00  0.0000000E+00  0.2915452E-02
    1       -6.129181   1.000000
    2        5.840451   1.000000
    3        5.840467   0.999999
    4        5.840467   0.999999
    5        8.406765   0.000000
    6        8.406782   0.000000
    7        8.406782   0.000000
    8        9.201495   0.000000
 
  0.1428571E+00  0.0000000E+00  0.0000000E+00  0.2332362E-01
    1       -5.863008   1.000000
    2        3.905091   1.000000
    3        5.481680   1.000000
    4        5.481693   1.000000
    5        8.282735   0.000000
    6        8.930216   0.000000
    7        8.930233   0.000000
    8       10.866025   0.000000
 
  0.2857143E+00  0.0000000E+00  0.0000000E+00  0.2332362E-01
    1       -5.096007   1.000000
    2        1.281006   1.000000
    3        4.963470   1.000000
    4        4.963485   1.000000
    5        7.748945   0.000000
    6        9.383569   0.000000
    7        9.383598   0.000000
    8       13.304386   0.000000
 
  0.4285714E+00  0.0000000E+00  0.0000000E+00  0.2332362E-01
    1       -4.054019   1.000000
    2       -0.754677   1.000000
    3        4.673726   1.000000
    4        4.673741   1.000000
    5        7.422717   0.000000
    6        9.232499   0.000000
    7        9.232530   0.000000
    8       13.628061   0.000000
 
  0.1428571E+00  0.1428571E+00  0.0000000E+00  0.1749271E-01
    1       -5.773001   1.000000
    2        4.206980   1.000000
    3        4.863596   1.000000
    4        4.863605   1.000000
    5        7.723690   0.000000
    6        9.817203   0.000000
    7        9.817214   0.000000
    8       10.275016   0.000000
 
  0.2857143E+00  0.1428571E+00  0.0000000E+00  0.6997085E-01
    1       -5.165701   1.000000
    2        2.077492   1.000000
    3        4.281220   1.000000
    4        4.319602   1.000000
    5        7.920250   0.000000
    6        9.758084   0.000000
    7       10.413668   0.000000
    8       10.605317   0.000000
 
  0.4285714E+00  0.1428571E+00  0.0000000E+00  0.6997085E-01
    1       -4.155634   1.000000
    2       -0.112917   1.000000
    3        3.591201   1.000000
    4        4.130060   1.000000
    5        7.989962   0.000000
    6        9.676886   0.000000
    7       10.386647   0.000000
    8       11.641179   0.000000
 
 -0.4285714E+00  0.1428571E+00  0.0000000E+00  0.6997085E-01
    1       -3.595365   1.000000
    2       -0.979866   1.000000
    3        3.175355   1.000000
    4        4.328446   1.000000
    5        8.090238   0.000000
    6        9.583543   0.000000
    7        9.985362   0.000000
    8       14.025785   0.000000
 
 -0.2857143E+00  0.1428571E+00  0.0000000E+00  0.6997085E-01
    1       -4.524640   1.000000
    2        0.569183   1.000000
    3        3.178542   1.000000
    4        4.844449   1.000000
    5        8.497710   0.000000
    6        9.746270   0.000000
    7        9.784895   0.000000
    8       12.511772   0.000000
 
 -0.1428571E+00  0.1428571E+00  0.0000000E+00  0.3498542E-01
    1       -5.426605   1.000000
    2        2.698263   1.000000
    3        3.868247   1.000000
    4        5.438973   1.000000
    5        8.904423   0.000000
    6        9.137371   0.000000
    7        9.402641   0.000000
    8       11.485820   0.000000
 
  0.2857143E+00  0.2857143E+00  0.0000000E+00  0.1749271E-01
    1       -4.721312   1.000000
    2        1.676129   1.000000
    3        3.695802   1.000000
    4        3.695811   1.000000
    5        6.774025   0.000000
    6        8.462465   0.000000
    7       12.250322   0.000000
    8       12.250336   0.000000
 
  0.4285714E+00  0.2857143E+00  0.0000000E+00  0.6997085E-01
    1       -3.817628   1.000000
    2        0.169296   1.000000
    3        2.714271   1.000000
    4        3.434513   1.000000
    5        7.058943   0.000000
    6        8.549591   0.000000
    7       12.479939   0.000000
    8       12.640501   0.000000
 
 -0.4285714E+00  0.2857143E+00  0.0000000E+00  0.6997085E-01
    1       -2.897586   1.000000
    2       -1.013302   1.000000
    3        1.759150   1.000000
    4        3.603926   1.000000
    5        7.300588   0.000000
    6       10.798488   0.000000
    7       12.137107   0.000000
    8       12.218314   0.000000
 
 -0.2857143E+00  0.2857143E+00  0.0000000E+00  0.3498542E-01
    1       -3.549451   1.000000
    2       -0.260251   1.000000
    3        1.683893   1.000000
    4        4.154469   1.000000
    5        7.911030   0.000000
    6       11.305263   0.000000
    7       11.658690   0.000000
    8       12.470265   0.000000
 
  0.4285714E+00  0.4285714E+00  0.0000000E+00  0.1749271E-01
    1       -3.032270   1.000000
    2       -0.829607   1.000000
    3        3.061919   1.000000
    4        3.061928   1.000000
    5        6.418146   0.000000
    6        6.935730   0.000000
    7       14.910437   0.000000
    8       14.910452   0.000000
 
 -0.4285714E+00  0.4285714E+00  0.0000000E+00  0.3498542E-01
    1       -2.079994   1.000000
    2       -1.790976   1.000000
    3        2.165149   1.000000
    4        3.123763   1.000000
    5        6.720944   0.000000
    6        7.984181   0.000000
    7       14.680507   0.000000
    8       15.129367   0.000000
 
  0.4285714E+00  0.2857143E+00  0.1428571E+00  0.6997085E-01
    1       -4.412355   1.000000
    2        0.936752   1.000000
    3        2.717034   1.000000
    4        4.046255   1.000000
    5        8.428064   0.000000
    6        9.687680   0.000000
    7        9.992117   0.000000
    8       12.001427   0.000000
 
 -0.4285714E+00  0.2857143E+00  0.1428571E+00  0.1399417E+00
    1       -3.368263   1.000000
    2       -0.600131   1.000000
    3        2.145297   1.000000
    4        3.507112   1.000000
    5        8.915897   0.000000
    6        9.333523   0.000000
    7       11.325566   0.000000
    8       12.457946   0.000000
 
 -0.4285714E+00  0.4285714E+00  0.1428571E+00  0.6997085E-01
    1       -2.826685   1.000000
    2       -0.915265   1.000000
    3        2.232613   1.000000
    4        2.643980   1.000000
    5        8.058517   0.000000
    6        8.427103   0.000000
    7       12.013819   0.000000
    8       14.533782   0.000000
 
 -0.2857143E+00  0.4285714E+00  0.1428571E+00  0.6997085E-01
    1       -2.388384   1.000000
    2       -1.313573   1.000000
    3        1.590954   1.000000
    4        2.736568   1.000000
    5        8.585954   0.000000
    6       10.696302   0.000000
    7       11.500106   0.000000
    8       11.644319   0.000000
