unknown system                          
   1.00000000000000     
     0.000000    2.715400    2.715400
     2.715400    0.000000    2.715400
     2.715400    2.715400    0.000000
   Si
     2
Direct
  0.000000  0.000000  0.000000
  0.250000  0.250000  0.250000
 
   16   16   16
 0.44970E-01 0.10961     0.40020     0.70060     0.80449     0.78728     0.68510     0.54466     0.47644     0.54468    
 0.68504     0.78719     0.80471     0.70065     0.39990     0.10965     0.10961     0.39867     0.75663     0.87345    
 0.88213     0.83190     0.72331     0.60568     0.60582     0.72334     0.83174     0.88214     0.87362     0.75650    
 0.39858     0.10966     0.40020     0.75663     0.89431     0.91731     0.89743     0.83461     0.71098     0.63159    
 0.71080     0.83480     0.89724     0.91734     0.89440     0.75665     0.40011     0.21518     0.70060     0.87345    
 0.91731     0.91479     0.88199     0.78039     0.63310     0.63272     0.78028     0.88215     0.91463     0.91732    
 0.87358     0.70061     0.44003     0.44013     0.80449     0.88213     0.89743     0.88199     0.80479     0.63010    
 0.51947     0.62992     0.80470     0.88214     0.89723     0.88215     0.80467     0.62983     0.51986     0.62994    
 0.78728     0.83190     0.83461     0.78039     0.63010     0.46387     0.46429     0.63000     0.78024     0.83478    
 0.83172     0.78723     0.67826     0.55770     0.55758     0.67815     0.68510     0.72331     0.71098     0.63310    
 0.51947     0.46429     0.51993     0.63288     0.71088     0.72344     0.68503     0.60143     0.49344     0.44212    
 0.49351     0.60143     0.54466     0.60568     0.63159     0.63272     0.62992     0.63000     0.63288     0.63149    
 0.60570     0.54460     0.45618     0.35600     0.28638     0.28640     0.35591     0.45620     0.47644     0.60582    
 0.71080     0.78028     0.80470     0.78024     0.71088     0.60570     0.47656     0.34441     0.23333     0.16001    
 0.13484     0.15995     0.23347     0.34436     0.54468     0.72334     0.83480     0.88215     0.88214     0.83478    
 0.72344     0.54460     0.34441     0.18774     0.98197E-01 0.62110E-01 0.62146E-01 0.98205E-01 0.18762     0.34452    
 0.68504     0.83174     0.89724     0.91463     0.89723     0.83172     0.68503     0.45618     0.23333     0.98197E-01
 0.42987E-01 0.29942E-01 0.42970E-01 0.98195E-01 0.23347     0.45601     0.78719     0.88214     0.91734     0.91732    
 0.88215     0.78723     0.60143     0.35600     0.16001     0.62110E-01 0.29942E-01 0.29925E-01 0.62159E-01 0.15995    
 0.35593     0.60155     0.80471     0.87362     0.89440     0.87358     0.80467     0.67826     0.49344     0.28638    
 0.13484     0.62146E-01 0.42970E-01 0.62159E-01 0.13477     0.28648     0.49347     0.67816     0.70065     0.75650    
 0.75665     0.70061     0.62983     0.55770     0.44212     0.28640     0.15995     0.98205E-01 0.98195E-01 0.15995    
 0.28648     0.44207     0.55758     0.62999     0.39990     0.39858     0.40011     0.44003     0.51986     0.55758    
 0.49351     0.35591     0.23347     0.18762     0.23347     0.35593     0.49347     0.55758     0.51988     0.44017    
 0.10965     0.10966     0.21518     0.44013     0.62994     0.67815     0.60143     0.45620     0.34436     0.34452    
 0.45601     0.60155     0.67816     0.62999     0.44017     0.21510     0.10962     0.39864     0.75648     0.87359    
 0.88225     0.83173     0.72333     0.60568     0.60577     0.72336     0.83175     0.88214     0.87357     0.75655    
 0.39870     0.10964     0.39864     0.79019     0.91580     0.93367     0.91464     0.85640     0.73482     0.65266    
 0.73465     0.85658     0.91462     0.93358     0.91578     0.79047     0.39848     0.18780     0.75648     0.91580    
 0.94675     0.94309     0.91720     0.82641     0.67095     0.67095     0.82634     0.91732     0.94309     0.94666    
 0.91584     0.75658     0.44370     0.44381     0.87359     0.93367     0.94309     0.93346     0.87371     0.68881    
 0.54550     0.68907     0.87357     0.93358     0.94309     0.93359     0.87358     0.68890     0.54564     0.68880    
 0.88225     0.91464     0.91720     0.87371     0.70045     0.43996     0.44029     0.70054     0.87356     0.91733    
 0.91463     0.88215     0.78024     0.63296     0.63289     0.78023     0.83173     0.85640     0.82641     0.68881    
 0.43996     0.31485     0.44003     0.68883     0.82629     0.85658     0.83170     0.75767     0.63350     0.56369    
 0.63343     0.75781     0.72333     0.73482     0.67095     0.54550     0.44029     0.44003     0.54547     0.67108    
 0.73469     0.72341     0.65244     0.53709     0.43844     0.43849     0.53720     0.65230     0.60568     0.65266    
 0.67095     0.68907     0.70054     0.68883     0.67108     0.65266     0.60573     0.51348     0.39411     0.28769    
 0.24557     0.28762     0.39408     0.51360     0.60577     0.73465     0.82634     0.87357     0.87356     0.82629    
 0.73469     0.60573     0.44758     0.29187     0.17747     0.12075     0.12072     0.17756     0.29180     0.44753    
 0.72336     0.85658     0.91732     0.93358     0.91733     0.85658     0.72341     0.51348     0.29187     0.13970    
 0.68670E-01 0.50090E-01 0.68681E-01 0.13963     0.29193     0.51354     0.83175     0.91462     0.94309     0.94309    
 0.91463     0.83170     0.65244     0.39411     0.17747     0.68670E-01 0.33364E-01 0.33351E-01 0.68674E-01 0.17755    
 0.39400     0.65240     0.88214     0.93358     0.94666     0.93359     0.88215     0.75767     0.53709     0.28769    
 0.12075     0.50090E-01 0.33351E-01 0.50110E-01 0.12071     0.28763     0.53721     0.75766     0.87357     0.91578    
 0.91584     0.87358     0.78024     0.63350     0.43844     0.24557     0.12072     0.68681E-01 0.68674E-01 0.12071    
 0.24563     0.43843     0.63342     0.78030     0.75655     0.79047     0.75658     0.68890     0.63296     0.56369    
 0.43849     0.28762     0.17756     0.13963     0.17755     0.28763     0.43843     0.56372     0.63302     0.68883    
 0.39870     0.39848     0.44370     0.54564     0.63289     0.63343     0.53720     0.39408     0.29180     0.29193    
 0.39400     0.53721     0.63342     0.63302     0.54546     0.44368     0.10964     0.18780     0.44381     0.68880    
 0.78023     0.75781     0.65230     0.51360     0.44753     0.51354     0.65240     0.75766     0.78030     0.68883    
 0.44368     0.18793     0.40017     0.75649     0.89455     0.91733     0.89716     0.83477     0.71095     0.63147    
 0.71088     0.83480     0.89723     0.91734     0.89444     0.75668     0.39991     0.21525     0.75649     0.91591    
 0.94666     0.94300     0.91733     0.82641     0.67095     0.67103     0.82630     0.91732     0.94309     0.94666    
 0.91583     0.75650     0.44378     0.44381     0.89455     0.94666     0.95425     0.94666     0.89455     0.71269    
 0.55867     0.71288     0.89439     0.94667     0.95433     0.94667     0.89439     0.71288     0.55867     0.71269    
 0.91733     0.94300     0.94666     0.91591     0.75649     0.44381     0.44378     0.75650     0.91583     0.94666    
 0.94309     0.91732     0.82630     0.67103     0.67095     0.82641     0.89716     0.91733     0.89455     0.75649    
 0.40017     0.21525     0.39991     0.75668     0.89444     0.91734     0.89723     0.83480     0.71088     0.63147    
 0.71095     0.83477     0.83477     0.82641     0.71269     0.44381     0.21525     0.21511     0.44377     0.71290    
 0.82626     0.83477     0.77814     0.66473     0.55124     0.55117     0.66484     0.77802     0.71095     0.67095    
 0.55867     0.44378     0.39991     0.44377     0.55874     0.67094     0.71090     0.66476     0.55148     0.42154    
 0.36394     0.42162     0.55129     0.66484     0.63147     0.67103     0.71288     0.75650     0.75668     0.71290    
 0.67094     0.63155     0.55117     0.42157     0.28786     0.20607     0.20594     0.28792     0.42162     0.55117    
 0.71088     0.82630     0.89439     0.91583     0.89444     0.82626     0.71090     0.55117     0.36400     0.20599    
 0.11521     0.87762E-01 0.11525     0.20594     0.36394     0.55124     0.83480     0.91732     0.94667     0.94666    
 0.91734     0.83477     0.66476     0.42157     0.20599     0.87782E-01 0.45671E-01 0.45669E-01 0.87762E-01 0.20607    
 0.42154     0.66473     0.89723     0.94309     0.95433     0.94309     0.89723     0.77814     0.55148     0.28786    
 0.11521     0.45671E-01 0.29935E-01 0.45671E-01 0.11521     0.28786     0.55148     0.77814     0.91734     0.94666    
 0.94667     0.91732     0.83480     0.66473     0.42154     0.20607     0.87762E-01 0.45669E-01 0.45671E-01 0.87782E-01
 0.20599     0.42157     0.66476     0.83477     0.89444     0.91583     0.89439     0.82630     0.71088     0.55124    
 0.36394     0.20594     0.11525     0.87762E-01 0.11521     0.20599     0.36400     0.55117     0.71090     0.82626    
 0.75668     0.75650     0.71288     0.67103     0.63147     0.55117     0.42162     0.28792     0.20594     0.20607    
 0.28786     0.42157     0.55117     0.63155     0.67094     0.71290     0.39991     0.44378     0.55867     0.67095    
 0.71095     0.66484     0.55129     0.42162     0.36394     0.42154     0.55148     0.66476     0.71090     0.67094    
 0.55874     0.44377     0.21525     0.44381     0.71269     0.82641     0.83477     0.77802     0.66484     0.55117    
 0.55124     0.66473     0.77814     0.83477     0.82626     0.71290     0.44377     0.21511     0.70045     0.87371    
 0.91720     0.91464     0.88225     0.78023     0.63289     0.63296     0.78024     0.88215     0.91463     0.91733    
 0.87356     0.70054     0.44029     0.43996     0.87371     0.93346     0.94309     0.93367     0.87359     0.68880    
 0.54564     0.68890     0.87358     0.93359     0.94309     0.93358     0.87357     0.68907     0.54550     0.68881    
 0.91720     0.94309     0.94675     0.91580     0.75648     0.44381     0.44370     0.75658     0.91584     0.94666    
 0.94309     0.91732     0.82634     0.67095     0.67095     0.82641     0.91464     0.93367     0.91580     0.79019    
 0.39864     0.18780     0.39848     0.79047     0.91578     0.93358     0.91462     0.85658     0.73465     0.65266    
 0.73482     0.85640     0.88225     0.87359     0.75648     0.39864     0.10962     0.10964     0.39870     0.75655    
 0.87357     0.88214     0.83175     0.72336     0.60577     0.60568     0.72333     0.83173     0.78023     0.68880    
 0.44381     0.18780     0.10964     0.18793     0.44368     0.68883     0.78030     0.75766     0.65240     0.51354    
 0.44753     0.51360     0.65230     0.75781     0.63289     0.54564     0.44370     0.39848     0.39870     0.44368    
 0.54546     0.63302     0.63342     0.53721     0.39400     0.29193     0.29180     0.39408     0.53720     0.63343    
 0.63296     0.68890     0.75658     0.79047     0.75655     0.68883     0.63302     0.56372     0.43843     0.28763    
 0.17755     0.13963     0.17756     0.28762     0.43849     0.56369     0.78024     0.87358     0.91584     0.91578    
 0.87357     0.78030     0.63342     0.43843     0.24563     0.12071     0.68674E-01 0.68681E-01 0.12072     0.24557    
 0.43844     0.63350     0.88215     0.93359     0.94666     0.93358     0.88214     0.75766     0.53721     0.28763    
 0.12071     0.50110E-01 0.33351E-01 0.50090E-01 0.12075     0.28769     0.53709     0.75767     0.91463     0.94309    
 0.94309     0.91462     0.83175     0.65240     0.39400     0.17755     0.68674E-01 0.33351E-01 0.33364E-01 0.68670E-01
 0.17747     0.39411     0.65244     0.83170     0.91733     0.93358     0.91732     0.85658     0.72336     0.51354    
 0.29193     0.13963     0.68681E-01 0.50090E-01 0.68670E-01 0.13970     0.29187     0.51348     0.72341     0.85658    
 0.87356     0.87357     0.82634     0.73465     0.60577     0.44753     0.29180     0.17756     0.12072     0.12075    
 0.17747     0.29187     0.44758     0.60573     0.73469     0.82629     0.70054     0.68907     0.67095     0.65266    
 0.60568     0.51360     0.39408     0.28762     0.24557     0.28769     0.39411     0.51348     0.60573     0.65266    
 0.67108     0.68883     0.44029     0.54550     0.67095     0.73482     0.72333     0.65230     0.53720     0.43849    
 0.43844     0.53709     0.65244     0.72341     0.73469     0.67108     0.54547     0.44003     0.43996     0.68881    
 0.82641     0.85640     0.83173     0.75781     0.63343     0.56369     0.63350     0.75767     0.83170     0.85658    
 0.82629     0.68883     0.44003     0.31485     0.80479     0.88199     0.89743     0.88213     0.80449     0.62994    
 0.51986     0.62983     0.80467     0.88215     0.89723     0.88214     0.80470     0.62992     0.51947     0.63010    
 0.88199     0.91479     0.91731     0.87345     0.70060     0.44013     0.44003     0.70061     0.87358     0.91732    
 0.91463     0.88215     0.78028     0.63272     0.63310     0.78039     0.89743     0.91731     0.89431     0.75663    
 0.40020     0.21518     0.40011     0.75665     0.89440     0.91734     0.89724     0.83480     0.71080     0.63159    
 0.71098     0.83461     0.88213     0.87345     0.75663     0.39867     0.10961     0.10966     0.39858     0.75650    
 0.87362     0.88214     0.83174     0.72334     0.60582     0.60568     0.72331     0.83190     0.80449     0.70060    
 0.40020     0.10961     0.44970E-01 0.10965     0.39990     0.70065     0.80471     0.78719     0.68504     0.54468    
 0.47644     0.54466     0.68510     0.78728     0.62994     0.44013     0.21518     0.10966     0.10965     0.21510    
 0.44017     0.62999     0.67816     0.60155     0.45601     0.34452     0.34436     0.45620     0.60143     0.67815    
 0.51986     0.44003     0.40011     0.39858     0.39990     0.44017     0.51988     0.55758     0.49347     0.35593    
 0.23347     0.18762     0.23347     0.35591     0.49351     0.55758     0.62983     0.70061     0.75665     0.75650    
 0.70065     0.62999     0.55758     0.44207     0.28648     0.15995     0.98195E-01 0.98205E-01 0.15995     0.28640    
 0.44212     0.55770     0.80467     0.87358     0.89440     0.87362     0.80471     0.67816     0.49347     0.28648    
 0.13477     0.62159E-01 0.42970E-01 0.62146E-01 0.13484     0.28638     0.49344     0.67826     0.88215     0.91732    
 0.91734     0.88214     0.78719     0.60155     0.35593     0.15995     0.62159E-01 0.29925E-01 0.29942E-01 0.62110E-01
 0.16001     0.35600     0.60143     0.78723     0.89723     0.91463     0.89724     0.83174     0.68504     0.45601    
 0.23347     0.98195E-01 0.42970E-01 0.29942E-01 0.42987E-01 0.98197E-01 0.23333     0.45618     0.68503     0.83172    
 0.88214     0.88215     0.83480     0.72334     0.54468     0.34452     0.18762     0.98205E-01 0.62146E-01 0.62110E-01
 0.98197E-01 0.18774     0.34441     0.54460     0.72344     0.83478     0.80470     0.78028     0.71080     0.60582    
 0.47644     0.34436     0.23347     0.15995     0.13484     0.16001     0.23333     0.34441     0.47656     0.60570    
 0.71088     0.78024     0.62992     0.63272     0.63159     0.60568     0.54466     0.45620     0.35591     0.28640    
 0.28638     0.35600     0.45618     0.54460     0.60570     0.63149     0.63288     0.63000     0.51947     0.63310    
 0.71098     0.72331     0.68510     0.60143     0.49351     0.44212     0.49344     0.60143     0.68503     0.72344    
 0.71088     0.63288     0.51993     0.46429     0.63010     0.78039     0.83461     0.83190     0.78728     0.67815    
 0.55758     0.55770     0.67826     0.78723     0.83172     0.83478     0.78024     0.63000     0.46429     0.46387    
 0.78703     0.83196     0.83452     0.78025     0.63009     0.46423     0.46416     0.62995     0.78025     0.83478    
 0.83173     0.78724     0.67822     0.55759     0.55815     0.67794     0.83196     0.85628     0.82631     0.68910    
 0.44004     0.31460     0.44014     0.68887     0.82627     0.85659     0.83170     0.75766     0.63345     0.56405    
 0.63319     0.75748     0.83452     0.82631     0.71299     0.44373     0.21516     0.21525     0.44367     0.71282    
 0.82633     0.83475     0.77814     0.66470     0.55140     0.55099     0.66468     0.77832     0.78025     0.68910    
 0.44373     0.18778     0.10967     0.18781     0.44370     0.68903     0.78023     0.75764     0.65241     0.51357    
 0.44748     0.51356     0.65249     0.75747     0.63009     0.44004     0.21516     0.10967     0.10962     0.21518    
 0.44031     0.62981     0.67815     0.60156     0.45603     0.34450     0.34437     0.45623     0.60127     0.67825    
 0.46423     0.31460     0.21525     0.18781     0.21518     0.31489     0.46404     0.55190     0.51334     0.38224    
 0.25606     0.20749     0.25609     0.38218     0.51329     0.55206     0.46416     0.44014     0.44367     0.44370    
 0.44031     0.46404     0.48685     0.43796     0.31196     0.18771     0.12050     0.12051     0.18768     0.31204    
 0.43786     0.48694     0.62995     0.68887     0.71282     0.68903     0.62981     0.55190     0.43796     0.28309    
 0.14961     0.76341E-01 0.54853E-01 0.76341E-01 0.14963     0.28301     0.43796     0.55196     0.78025     0.82627    
 0.82633     0.78023     0.67815     0.51334     0.31196     0.14961     0.63388E-01 0.32103E-01 0.32119E-01 0.63352E-01
 0.14975     0.31188     0.51319     0.67829     0.83478     0.85659     0.83475     0.75764     0.60156     0.38224    
 0.18771     0.76341E-01 0.32103E-01 0.21813E-01 0.32108E-01 0.76301E-01 0.18771     0.38242     0.60138     0.75768    
 0.83173     0.83170     0.77814     0.65241     0.45603     0.25606     0.12050     0.54853E-01 0.32119E-01 0.32108E-01
 0.54890E-01 0.12049     0.25593     0.45614     0.65241     0.77809     0.78724     0.75766     0.66470     0.51357    
 0.34450     0.20749     0.12051     0.76341E-01 0.63352E-01 0.76301E-01 0.12049     0.20763     0.34441     0.51350    
 0.66475     0.75768     0.67822     0.63345     0.55140     0.44748     0.34437     0.25609     0.18768     0.14963    
 0.14975     0.18771     0.25593     0.34441     0.44762     0.55121     0.63347     0.67831     0.55759     0.56405    
 0.55099     0.51356     0.45623     0.38218     0.31204     0.28301     0.31188     0.38242     0.45614     0.51350    
 0.55121     0.56375     0.55766     0.55186     0.55815     0.63319     0.66468     0.65249     0.60127     0.51329    
 0.43786     0.43796     0.51319     0.60138     0.65241     0.66475     0.63347     0.55766     0.48669     0.48683    
 0.67794     0.75748     0.77832     0.75747     0.67825     0.55206     0.48694     0.55196     0.67829     0.75768    
 0.77809     0.75768     0.67831     0.55186     0.48683     0.55265     0.68537     0.72310     0.71120     0.63295    
 0.51966     0.46421     0.51989     0.63289     0.71087     0.72345     0.68502     0.60142     0.49352     0.44225    
 0.49258     0.60194     0.72310     0.73506     0.67101     0.54539     0.44008     0.44018     0.54550     0.67107    
 0.73471     0.72337     0.65245     0.53710     0.43852     0.43796     0.53758     0.65266     0.71120     0.67101    
 0.55843     0.44373     0.40018     0.44363     0.55873     0.67100     0.71082     0.66478     0.55151     0.42155    
 0.36377     0.42181     0.55157     0.66452     0.63295     0.54539     0.44373     0.39863     0.39846     0.44382    
 0.54560     0.63276     0.63352     0.53721     0.39401     0.29187     0.29188     0.39415     0.53698     0.63370    
 0.51966     0.44008     0.40018     0.39846     0.40015     0.44017     0.51944     0.55780     0.49354     0.35591    
 0.23344     0.18764     0.23347     0.35582     0.49369     0.55757     0.46421     0.44018     0.44363     0.44382    
 0.44017     0.46378     0.48720     0.43806     0.31190     0.18771     0.12050     0.12051     0.18768     0.31208    
 0.43784     0.48687     0.51989     0.54550     0.55873     0.54560     0.51944     0.48720     0.41212     0.28058    
 0.15584     0.82935E-01 0.60572E-01 0.82927E-01 0.15580     0.28072     0.41199     0.48686     0.63289     0.67107    
 0.67100     0.63276     0.55780     0.43806     0.28058     0.14418     0.66351E-01 0.35510E-01 0.35527E-01 0.66339E-01
 0.14417     0.28062     0.43798     0.55763     0.71087     0.73471     0.71082     0.63352     0.49354     0.31190    
 0.15584     0.66351E-01 0.29066E-01 0.19857E-01 0.29052E-01 0.66373E-01 0.15584     0.31198     0.49341     0.63347    
 0.72345     0.72337     0.66478     0.53721     0.35591     0.18771     0.82935E-01 0.35510E-01 0.19857E-01 0.19864E-01
 0.35512E-01 0.82871E-01 0.18774     0.35603     0.53713     0.66475     0.68502     0.65245     0.55151     0.39401    
 0.23344     0.12050     0.60572E-01 0.35527E-01 0.29052E-01 0.35512E-01 0.60621E-01 0.12049     0.23333     0.39413    
 0.55148     0.65242     0.60142     0.53710     0.42155     0.29187     0.18764     0.12051     0.82927E-01 0.66339E-01
 0.66373E-01 0.82871E-01 0.12049     0.18775     0.29184     0.42152     0.53713     0.60138     0.49352     0.43852    
 0.36377     0.29188     0.23347     0.18768     0.15580     0.14417     0.15584     0.18774     0.23333     0.29184    
 0.36396     0.43846     0.49342     0.51314     0.44225     0.43796     0.42181     0.39415     0.35582     0.31208    
 0.28072     0.28062     0.31198     0.35603     0.39413     0.42152     0.43846     0.44218     0.43790     0.43816    
 0.49258     0.53758     0.55157     0.53698     0.49369     0.43784     0.41199     0.43798     0.49341     0.53713    
 0.55148     0.53713     0.49342     0.43790     0.41226     0.43800     0.60194     0.65266     0.66452     0.63370    
 0.55757     0.48687     0.48686     0.55763     0.63347     0.66475     0.65242     0.60138     0.51314     0.43816    
 0.43800     0.51217     0.54423     0.60603     0.63117     0.63294     0.63001     0.62991     0.63285     0.63152    
 0.60570     0.54459     0.45621     0.35601     0.28628     0.28626     0.35712     0.45552     0.60603     0.65234    
 0.67100     0.68911     0.70059     0.68877     0.67113     0.65262     0.60571     0.51351     0.39410     0.28766    
 0.24550     0.28822     0.39363     0.51322     0.63117     0.67100     0.71305     0.75661     0.75650     0.71295    
 0.67090     0.63149     0.55132     0.42151     0.28786     0.20603     0.20613     0.28771     0.42138     0.55146    
 0.63294     0.68911     0.75661     0.79023     0.75672     0.68878     0.63289     0.56407     0.43831     0.28760    
 0.17755     0.13966     0.17752     0.28752     0.43872     0.56342     0.63001     0.70059     0.75650     0.75672    
 0.70045     0.62979     0.55820     0.44182     0.28638     0.15997     0.98209E-01 0.98189E-01 0.15995     0.28647    
 0.44196     0.55768     0.62991     0.68877     0.71295     0.68878     0.62979     0.55270     0.43754     0.28286    
 0.14967     0.76345E-01 0.54847E-01 0.76345E-01 0.14964     0.28297     0.43796     0.55207     0.63285     0.67113    
 0.67090     0.63289     0.55820     0.43754     0.28035     0.14428     0.66343E-01 0.35511E-01 0.35526E-01 0.66341E-01
 0.14416     0.28063     0.43800     0.55760     0.63152     0.65262     0.63149     0.56407     0.44182     0.28286    
 0.14428     0.63450E-01 0.28757E-01 0.19839E-01 0.28747E-01 0.63525E-01 0.14408     0.28301     0.44217     0.56374    
 0.60570     0.60571     0.55132     0.43831     0.28638     0.14967     0.66343E-01 0.28757E-01 0.16028E-01 0.16036E-01
 0.28737E-01 0.66370E-01 0.14970     0.28633     0.43846     0.55122     0.54459     0.51351     0.42151     0.28760    
 0.15997     0.76345E-01 0.35511E-01 0.19839E-01 0.16036E-01 0.19845E-01 0.35519E-01 0.76296E-01 0.15998     0.28767    
 0.42152     0.51351     0.45621     0.39410     0.28786     0.17755     0.98209E-01 0.54847E-01 0.35526E-01 0.28747E-01
 0.28737E-01 0.35519E-01 0.54884E-01 0.98196E-01 0.17748     0.28791     0.39413     0.45613     0.35601     0.28766    
 0.20603     0.13966     0.98189E-01 0.76345E-01 0.66341E-01 0.63525E-01 0.66370E-01 0.76296E-01 0.98196E-01 0.13971    
 0.20601     0.28767     0.35604     0.38243     0.28628     0.24550     0.20613     0.17752     0.15995     0.14964    
 0.14416     0.14408     0.14970     0.15998     0.17748     0.20601     0.24556     0.28634     0.31195     0.31194    
 0.28626     0.28822     0.28771     0.28752     0.28647     0.28297     0.28063     0.28301     0.28633     0.28767    
 0.28791     0.28767     0.28634     0.28299     0.28073     0.28276     0.35712     0.39363     0.42138     0.43872    
 0.44196     0.43796     0.43800     0.44217     0.43846     0.42152     0.39413     0.35604     0.31195     0.28073    
 0.28038     0.31184     0.45552     0.51322     0.55146     0.56342     0.55768     0.55207     0.55760     0.56374    
 0.55122     0.51351     0.45613     0.38243     0.31194     0.28276     0.31184     0.38377     0.47691     0.60539    
 0.71121     0.78025     0.80453     0.78026     0.71095     0.60565     0.47656     0.34443     0.23330     0.16000    
 0.13492     0.16010     0.23230     0.34493     0.60539     0.73501     0.82629     0.87344     0.87358     0.82639    
 0.73461     0.60577     0.44762     0.29181     0.17748     0.12076     0.12078     0.17704     0.29220     0.44795    
 0.71121     0.82629     0.89429     0.91581     0.89454     0.82616     0.71101     0.55124     0.36383     0.20602    
 0.11523     0.87768E-01 0.11514     0.20609     0.36419     0.55090     0.78025     0.87344     0.91581     0.91590    
 0.87347     0.78044     0.63357     0.43790     0.24577     0.12072     0.68677E-01 0.68656E-01 0.12076     0.24564    
 0.43824     0.63378     0.80453     0.87358     0.89454     0.87347     0.80485     0.67837     0.49251     0.28679    
 0.13484     0.62154E-01 0.42963E-01 0.62153E-01 0.13485     0.28630     0.49360     0.67827     0.78026     0.82639    
 0.82616     0.78044     0.67837     0.51218     0.31240     0.14985     0.63348E-01 0.32105E-01 0.32119E-01 0.63353E-01
 0.14973     0.31193     0.51320     0.67820     0.71095     0.73461     0.71101     0.63357     0.49251     0.31240    
 0.15614     0.66284E-01 0.29068E-01 0.19857E-01 0.29052E-01 0.66370E-01 0.15585     0.31197     0.49338     0.63348    
 0.60565     0.60577     0.55124     0.43790     0.28679     0.14985     0.66284E-01 0.28762E-01 0.16026E-01 0.16037E-01
 0.28735E-01 0.66374E-01 0.14970     0.28634     0.43846     0.55124     0.47656     0.44762     0.36383     0.24577    
 0.13484     0.63348E-01 0.29068E-01 0.16026E-01 0.12894E-01 0.16030E-01 0.29051E-01 0.63376E-01 0.13486     0.24556    
 0.36396     0.44760     0.34443     0.29181     0.20602     0.12072     0.62154E-01 0.32105E-01 0.19857E-01 0.16037E-01
 0.16030E-01 0.19864E-01 0.32106E-01 0.62123E-01 0.12075     0.20601     0.29184     0.34442     0.23330     0.17748    
 0.11523     0.68677E-01 0.42963E-01 0.32119E-01 0.29052E-01 0.28735E-01 0.29051E-01 0.32106E-01 0.42993E-01 0.68669E-01
 0.11520     0.17747     0.23333     0.25592     0.16000     0.12076     0.87768E-01 0.68656E-01 0.62153E-01 0.63353E-01
 0.66370E-01 0.66374E-01 0.63376E-01 0.62123E-01 0.68669E-01 0.87791E-01 0.12075     0.15998     0.18774     0.18773    
 0.13492     0.12078     0.11514     0.12076     0.13485     0.14973     0.15585     0.14970     0.13486     0.12075    
 0.11520     0.12075     0.13488     0.14969     0.15586     0.14967     0.16010     0.17704     0.20609     0.24564    
 0.28630     0.31193     0.31197     0.28634     0.24556     0.20601     0.17747     0.15998     0.14969     0.14410    
 0.14408     0.14987     0.23230     0.29220     0.36419     0.43824     0.49360     0.51320     0.49338     0.43846    
 0.36396     0.29184     0.23333     0.18774     0.15586     0.14408     0.15611     0.18789     0.34493     0.44795    
 0.55090     0.63378     0.67827     0.67820     0.63348     0.55124     0.44760     0.34442     0.25592     0.18773    
 0.14967     0.14987     0.18789     0.25463     0.54416     0.72373     0.83454     0.88215     0.88226     0.83477    
 0.72333     0.54467     0.34441     0.18773     0.98208E-01 0.62119E-01 0.62097E-01 0.98084E-01 0.18864     0.34403    
 0.72373     0.85632     0.91733     0.93368     0.91733     0.85644     0.72355     0.51340     0.29184     0.13973    
 0.68669E-01 0.50079E-01 0.68637E-01 0.14008     0.29160     0.51311     0.83454     0.91733     0.94676     0.94666    
 0.91722     0.83492     0.66459     0.42144     0.20618     0.87757E-01 0.45668E-01 0.45657E-01 0.87873E-01 0.20591    
 0.42129     0.66504     0.88215     0.93368     0.94666     0.93347     0.88230     0.75741     0.53699     0.28825    
 0.12062     0.50099E-01 0.33352E-01 0.50104E-01 0.12072     0.28760     0.53732     0.75743     0.88226     0.91733    
 0.91722     0.88230     0.78693     0.60126     0.35715     0.15972     0.62113E-01 0.29931E-01 0.29947E-01 0.62102E-01
 0.16001     0.35607     0.60127     0.78723     0.83477     0.85644     0.83492     0.75741     0.60126     0.38379    
 0.18733     0.76196E-01 0.32120E-01 0.21814E-01 0.32105E-01 0.76304E-01 0.18772     0.38239     0.60138     0.75777    
 0.72333     0.72355     0.66459     0.53699     0.35715     0.18733     0.82698E-01 0.35552E-01 0.19853E-01 0.19867E-01
 0.35510E-01 0.82878E-01 0.18773     0.35603     0.53715     0.66475     0.54467     0.51340     0.42144     0.28825    
 0.15972     0.76196E-01 0.35552E-01 0.19837E-01 0.16036E-01 0.19844E-01 0.35520E-01 0.76295E-01 0.15997     0.28768    
 0.42152     0.51347     0.34441     0.29184     0.20618     0.12062     0.62113E-01 0.32120E-01 0.19853E-01 0.16036E-01
 0.16030E-01 0.19864E-01 0.32106E-01 0.62123E-01 0.12075     0.20600     0.29183     0.34442     0.18773     0.13973    