       N       E                     dE             d eps       ncg     rms          rms(c)
DAV:   1     0.100703531960E+01    0.10070E+01   -0.22389E+03   320   0.438E+02
DAV:   2    -0.108788943624E+02   -0.11886E+02   -0.11446E+02   536   0.624E+01
DAV:   3    -0.109960489217E+02   -0.11715E+00   -0.11715E+00   360   0.780E+00
DAV:   4    -0.109964905170E+02   -0.44160E-03   -0.44160E-03   560   0.517E-01
DAV:   5    -0.109964908350E+02   -0.31800E-06   -0.31800E-06   336   0.101E-02    0.301E+00
RMM:   6    -0.108712917123E+02    0.12520E+00   -0.53019E-02   323   0.138E+00    0.179E+00
RMM:   7    -0.108144081426E+02    0.56884E-01   -0.10945E-01   325   0.208E+00    0.152E-01
RMM:   8    -0.108156568450E+02   -0.12487E-02   -0.21744E-03   348   0.342E-01    0.227E-02
RMM:   9    -0.108157517530E+02   -0.94908E-04   -0.14383E-04   366   0.900E-02    0.125E-02
RMM:  10    -0.108157715269E+02   -0.19774E-04   -0.45944E-05   338   0.513E-02    0.263E-03
RMM:  11    -0.108157699393E+02    0.15876E-05   -0.14948E-06   290   0.915E-03    0.550E-04
RMM:  12    -0.108157697975E+02    0.14184E-06   -0.22345E-07   189   0.389E-03
   1 F= -.10815770E+02 E0= -.10815770E+02  d E =0.000000E+00
