 vasp.5.4.1 05Feb16 (build Mar 02 2016 14:09:44) complex                        
  
 executed on   Abel-impi-ifc-cuda date 2019.09.27  09:42:23
 running on    4 total cores
 distrk:  each k-point on    4 cores,    1 groups
 distr:  one band on NCORES_PER_BAND=   4 cores,    1 groups


--------------------------------------------------------------------------------------------------------


 INCAR:
 POTCAR:   PAW_PBE Si 05Jan2001                   
 POTCAR:   PAW_PBE Si 05Jan2001                   
   VRHFIN =Si: s2p2                                                             
   LEXCH  = PE                                                                  
   EATOM  =   103.0669 eV,    7.5752 Ry                                         
                                                                                
   TITEL  = PAW_PBE Si 05Jan2001                                                
   LULTRA =        F    use ultrasoft PP ?                                      
   IUNSCR =        1    unscreen: 0-lin 1-nonlin 2-no                           
   RPACOR =    1.500    partial core radius                                     
   POMASS =   28.085; ZVAL   =    4.000    mass and valenz                      
   RCORE  =    1.900    outmost cutoff radius                                   
   RWIGS  =    2.480; RWIGS  =    1.312    wigner-seitz radius (au A)           
   ENMAX  =  245.345; ENMIN  =  184.009 eV                                      
   ICORE  =        2    local potential                                         
   LCOR   =        T    correct aug charges                                     
   LPAW   =        T    paw PP                                                  
   EAUG   =  322.069                                                            
   DEXC   =    -.007                                                            
   RMAX   =    2.944    core radius for proj-oper                               
   RAUG   =    1.300    factor for augmentation sphere                          
   RDEP   =    1.993    radius for radial grids                                 
   QCUT   =   -4.246; QGAM   =    8.493    optimization parameters              
                                                                                
   Description                                                                  
     l     E      TYP  RCUT    TYP  RCUT                                        
     0   .000     23  1.900                                                     
     0   .000     23  1.900                                                     
     1   .000     23  1.900                                                     
     1   .000     23  1.900                                                     
     2   .000      7  1.900                                                     
  local pseudopotential read in
  partial core-charges read in
  atomic valenz-charges read in
  non local Contribution for L=           0  read in
    real space projection operators read in
  non local Contribution for L=           0  read in
    real space projection operators read in
  non local Contribution for L=           1  read in
    real space projection operators read in
  non local Contribution for L=           1  read in
    real space projection operators read in
    PAW grid and wavefunctions read in
 
   number of l-projection  operators is LMAX  =           4
   number of lm-projection operators is LMMAX =           8
 

 ----------------------------------------------------------------------------- 
|                                                                             |
|  ADVICE TO THIS USER RUNNING 'VASP/VAMP'   (HEAR YOUR MASTER'S VOICE ...):  |
|                                                                             |
|      You have a (more or less) 'small supercell' and for smaller cells      |
|      it is recommended  to use the reciprocal-space projection scheme!      |
|      The real space optimization is not  efficient for small cells and it   |
|      is also less accurate ...                                              |
|      Therefore set LREAL=.FALSE. in the  INCAR file                         |
|                                                                             |
 ----------------------------------------------------------------------------- 

 Optimization of the real space projectors (new method)

 maximal supplied QI-value         = 19.84
 optimisation between [QCUT,QGAM] = [  7.94, 16.07] = [ 17.64, 72.34] Ry 
 Optimized for a Real-space Cutoff    1.55 Angstroem

   l    n(q)    QCUT    max X(q) W(low)/X(q) W(high)/X(q)  e(spline) 
   0      7     7.937     8.708    0.25E-04    0.20E-04    0.11E-07
   0      7     7.937   106.241    0.95E-04    0.31E-03    0.13E-06
   1      7     7.937     5.901    0.19E-04    0.32E-04    0.50E-07
   1      7     7.937    73.241    0.39E-03    0.64E-03    0.12E-06
 PAW_PBE Si 05Jan2001                   :
 energy of atom  1       EATOM= -103.0669
 kinetic energy error for atom=    0.0052 (will be added to EATOM!!)
 
 
 POSCAR: Si_bulk_icsd_60385                      
  positions in direct lattice
  velocities in cartesian coordinates
 exchange correlation table for  LEXCH =        8
   RHO(1)=    0.500       N(1)  =     2000
   RHO(2)=  100.500       N(2)  =     4000
 


--------------------------------------------------------------------------------------------------------


 ion  position               nearest neighbor table
   1  0.000  0.000  0.000-   2 2.35   2 2.35   2 2.35   2 2.35
   2  0.250  0.250  0.250-   1 2.35   1 2.35   1 2.35   1 2.35
 
  LATTYP: Found a face centered cubic cell.
 ALAT       =     5.4308000000
  
  Lattice vectors:
  
 A1 = (   0.0000000000,   2.7154000000,   2.7154000000)
 A2 = (   2.7154000000,   0.0000000000,   2.7154000000)
 A3 = (   2.7154000000,   2.7154000000,   0.0000000000)


Analysis of symmetry for initial positions (statically):
=====================================================================
 Subroutine PRICEL returns:
 Original cell was already a primitive cell.
 

 Routine SETGRP: Setting up the symmetry group for a 
 face centered cubic supercell.


 Subroutine GETGRP returns: Found 48 space group operations
 (whereof 24 operations were pure point group operations)
 out of a pool of 48 trial point group operations.


The static configuration has the point symmetry T_d .
 The point group associated with its full space group is O_h .


Analysis of symmetry for dynamics (positions and initial velocities):
=====================================================================
 Subroutine PRICEL returns:
 Original cell was already a primitive cell.
 

 Routine SETGRP: Setting up the symmetry group for a 
 face centered cubic supercell.


 Subroutine GETGRP returns: Found 48 space group operations
 (whereof 24 operations were pure point group operations)
 out of a pool of 48 trial point group operations.


The dynamic configuration has the point symmetry T_d .
 The point group associated with its full space group is O_h .


 Subroutine INISYM returns: Found 48 space group operations
 (whereof 24 operations are pure point group operations),
 and found     1 'primitive' translations

 
 
 KPOINTS: k-density: 4.0                          

Automatic generation of k-mesh.
Space group operators:
 irot       det(A)        alpha          n_x          n_y          n_z        tau_x        tau_y        tau_z
    1     1.000000     0.000000     1.000000     0.000000     0.000000     0.000000     0.000000     0.000000
    2     1.000000   120.000000    -0.577350    -0.577350    -0.577350     0.000000     0.000000     0.000000
    3     1.000000   120.000000     0.577350     0.577350     0.577350     0.000000     0.000000     0.000000
    4    -1.000000    90.000000     0.000000     0.000000    -1.000000     0.000000     0.000000     0.000000
    5    -1.000000   180.000000     0.000000     0.707107     0.707107     0.000000     0.000000     0.000000
    6    -1.000000    90.000000     0.000000     1.000000     0.000000     0.000000     0.000000     0.000000
    7     1.000000   180.000000     0.000000     0.000000     1.000000     0.000000     0.000000     0.000000
    8     1.000000   120.000000    -0.577350     0.577350     0.577350     0.000000     0.000000     0.000000
    9     1.000000   120.000000    -0.577350     0.577350    -0.577350     0.000000     0.000000     0.000000
   10    -1.000000    90.000000     0.000000     0.000000     1.000000     0.000000     0.000000     0.000000
   11    -1.000000    90.000000    -1.000000     0.000000     0.000000     0.000000     0.000000     0.000000
   12    -1.000000   180.000000     0.707107     0.000000     0.707107     0.000000     0.000000     0.000000
   13     1.000000   120.000000     0.577350    -0.577350     0.577350     0.000000     0.000000     0.000000
   14     1.000000   120.000000    -0.577350    -0.577350     0.577350     0.000000     0.000000     0.000000
   15     1.000000   180.000000     1.000000     0.000000     0.000000     0.000000     0.000000     0.000000
   16    -1.000000    90.000000     0.000000    -1.000000     0.000000     0.000000     0.000000     0.000000
   17    -1.000000   180.000000     0.707107     0.707107     0.000000     0.000000     0.000000     0.000000
   18    -1.000000    90.000000     1.000000     0.000000     0.000000     0.000000     0.000000     0.000000
   19     1.000000   120.000000     0.577350    -0.577350    -0.577350     0.000000     0.000000     0.000000
   20     1.000000   180.000000     0.000000     1.000000     0.000000     0.000000     0.000000     0.000000
   21     1.000000   120.000000     0.577350     0.577350    -0.577350     0.000000     0.000000     0.000000
   22    -1.000000   180.000000     0.000000    -0.707107     0.707107     0.000000     0.000000     0.000000
   23    -1.000000   180.000000     0.707107    -0.707107     0.000000     0.000000     0.000000     0.000000
   24    -1.000000   180.000000     0.707107     0.000000    -0.707107     0.000000     0.000000     0.000000
   25    -1.000000     0.000000     1.000000     0.000000     0.000000     0.250000     0.250000     0.250000
   26    -1.000000   120.000000    -0.577350    -0.577350    -0.577350     0.250000     0.250000     0.250000
   27    -1.000000   120.000000     0.577350     0.577350     0.577350     0.250000     0.250000     0.250000
   28     1.000000    90.000000     0.000000     0.000000    -1.000000     0.250000     0.250000     0.250000
   29     1.000000   180.000000     0.000000     0.707107     0.707107     0.250000     0.250000     0.250000
   30     1.000000    90.000000     0.000000     1.000000     0.000000     0.250000     0.250000     0.250000
   31    -1.000000   180.000000     0.000000     0.000000     1.000000     0.250000     0.250000     0.250000
   32    -1.000000   120.000000    -0.577350     0.577350     0.577350     0.250000     0.250000     0.250000
   33    -1.000000   120.000000    -0.577350     0.577350    -0.577350     0.250000     0.250000     0.250000
   34     1.000000    90.000000     0.000000     0.000000     1.000000     0.250000     0.250000     0.250000
   35     1.000000    90.000000    -1.000000     0.000000     0.000000     0.250000     0.250000     0.250000
   36     1.000000   180.000000     0.707107     0.000000     0.707107     0.250000     0.250000     0.250000
   37    -1.000000   120.000000     0.577350    -0.577350     0.577350     0.250000     0.250000     0.250000
   38    -1.000000   120.000000    -0.577350    -0.577350     0.577350     0.250000     0.250000     0.250000
   39    -1.000000   180.000000     1.000000     0.000000     0.000000     0.250000     0.250000     0.250000
   40     1.000000    90.000000     0.000000    -1.000000     0.000000     0.250000     0.250000     0.250000
   41     1.000000   180.000000     0.707107     0.707107     0.000000     0.250000     0.250000     0.250000
   42     1.000000    90.000000     1.000000     0.000000     0.000000     0.250000     0.250000     0.250000
   43    -1.000000   120.000000     0.577350    -0.577350    -0.577350     0.250000     0.250000     0.250000
   44    -1.000000   180.000000     0.000000     1.000000     0.000000     0.250000     0.250000     0.250000
   45    -1.000000   120.000000     0.577350     0.577350    -0.577350     0.250000     0.250000     0.250000
   46     1.000000   180.000000     0.000000    -0.707107     0.707107     0.250000     0.250000     0.250000
   47     1.000000   180.000000     0.707107    -0.707107     0.000000     0.250000     0.250000     0.250000
   48     1.000000   180.000000     0.707107     0.000000    -0.707107     0.250000     0.250000     0.250000
 
 Subroutine IBZKPT returns following result:
 ===========================================
 
 Found     20 irreducible k-points:
 
 Following reciprocal coordinates:
            Coordinates               Weight
  0.000000  0.000000  0.000000      1.000000
  0.142857  0.000000  0.000000      8.000000
  0.285714  0.000000  0.000000      8.000000
  0.428571  0.000000  0.000000      8.000000
  0.142857  0.142857  0.000000      6.000000
  0.285714  0.142857  0.000000     24.000000
  0.428571  0.142857  0.000000     24.000000
 -0.428571  0.142857  0.000000     24.000000
 -0.285714  0.142857  0.000000     24.000000
 -0.142857  0.142857  0.000000     12.000000
  0.285714  0.285714  0.000000      6.000000
  0.428571  0.285714  0.000000     24.000000
 -0.428571  0.285714  0.000000     24.000000
 -0.285714  0.285714  0.000000     12.000000
  0.428571  0.428571  0.000000      6.000000
 -0.428571  0.428571  0.000000     12.000000
  0.428571  0.285714  0.142857     24.000000
 -0.428571  0.285714  0.142857     48.000000
 -0.428571  0.428571  0.142857     24.000000
 -0.285714  0.428571  0.142857     24.000000
 
 Following cartesian coordinates:
            Coordinates               Weight
  0.000000  0.000000  0.000000      1.000000
 -0.026305  0.026305  0.026305      8.000000
 -0.052610  0.052610  0.052610      8.000000
 -0.078915  0.078915  0.078915      8.000000
  0.000000  0.000000  0.052610      6.000000
 -0.026305  0.026305  0.078915     24.000000
 -0.052610  0.052610  0.105220     24.000000
  0.105220 -0.105220 -0.052610     24.000000
  0.078915 -0.078915 -0.026305     24.000000
  0.052610 -0.052610  0.000000     12.000000
  0.000000  0.000000  0.105220      6.000000
 -0.026305  0.026305  0.131525     24.000000
  0.131525 -0.131525 -0.026305     24.000000
  0.105220 -0.105220  0.000000     12.000000
  0.000000  0.000000  0.157830      6.000000
  0.157830 -0.157830  0.000000     12.000000
  0.000000  0.052610  0.105220     24.000000
  0.157830 -0.105220 -0.052610     48.000000
  0.184135 -0.131525 -0.026305     24.000000
  0.157830 -0.105220  0.000000     24.000000
 
 TETIRR: Found     58 inequivalent tetrahedra from     2058


--------------------------------------------------------------------------------------------------------




 Dimension of arrays:
   k-points           NKPTS =     20   k-points in BZ     NKDIM =     20   number of bands    NBANDS=      8
   number of dos      NEDOS =   2401   number of ions     NIONS =      2
   non local maximal  LDIM  =      4   non local SUM 2l+1 LMDIM =      8
   total plane-waves  NPLWV =   4096
   max r-space proj   IRMAX =   1650   max aug-charges    IRDMAX=   3619
   dimension x,y,z NGX =    16 NGY =   16 NGZ =   16
   dimension x,y,z NGXF=    32 NGYF=   32 NGZF=   32
   support grid    NGXF=    32 NGYF=   32 NGZF=   32
   ions per type =               2
 NGX,Y,Z   is equivalent  to a cutoff of   6.93,  6.93,  6.93 a.u.
 NGXF,Y,Z  is equivalent  to a cutoff of  13.85, 13.85, 13.85 a.u.


 I would recommend the setting:
   dimension x,y,z NGX =    15 NGY =   15 NGZ =   15
 SYSTEM =  unknown system                          
 POSCAR =  Si_bulk_icsd_60385                      

 Startparameter for this run:
   NWRITE =      2    write-flag & timer
   PREC   = normal    normal or accurate (medium, high low for compatibility)
   ISTART =      0    job   : 0-new  1-cont  2-samecut
   ICHARG =      2    charge: 1-file 2-atom 10-const
   ISPIN  =      1    spin polarized calculation?
   LNONCOLLINEAR =      F non collinear calculations
   LSORBIT =      F    spin-orbit coupling
   INIWAV =      1    electr: 0-lowe 1-rand  2-diag
   LASPH  =      F    aspherical Exc in radial PAW
   METAGGA=      F    non-selfconsistent MetaGGA calc.

 Electronic Relaxation 1
   ENCUT  =  250.0 eV  18.37 Ry    4.29 a.u.   4.95  4.95  4.95*2*pi/ulx,y,z
   ENINI  =  250.0     initial cutoff
   ENAUG  =  322.1 eV  augmentation charge cutoff
   NELM   =     60;   NELMIN=  4; NELMDL=  0     # of ELM steps 
   EDIFF  = 0.1E-05   stopping-criterion for ELM
   LREAL  =      T    real-space projection
   NLSPLINE    = F    spline interpolate recip. space projectors
   LCOMPAT=      F    compatible to vasp.4.4
   GGA_COMPAT  = T    GGA compatible to vasp.4.4-vasp.4.6
   LMAXPAW     = -100 max onsite density
   LMAXMIX     =    2 max onsite mixed and CHGCAR
   VOSKOWN=      0    Vosko Wilk Nusair interpolation
   ROPT   =   -0.00050
 Ionic relaxation
   EDIFFG = 0.1E-04   stopping-criterion for IOM
   NSW    =      0    number of steps for IOM
   NBLOCK =      1;   KBLOCK =      1    inner block; outer block 
   IBRION =     -1    ionic relax: 0-MD 1-quasi-New 2-CG
   NFREE  =      0    steps in history (QN), initial steepest desc. (CG)
   ISIF   =      2    stress and relaxation
   IWAVPR =     10    prediction:  0-non 1-charg 2-wave 3-comb
   ISYM   =      2    0-nonsym 1-usesym 2-fastsym
   LCORR  =      T    Harris-Foulkes like correction to forces

   POTIM  = 0.5000    time-step for ionic-motion
   TEIN   =    0.0    initial temperature
   TEBEG  =    0.0;   TEEND  =   0.0 temperature during run
   SMASS  =  -3.00    Nose mass-parameter (am)
   estimated Nose-frequenzy (Omega)   =  0.10E-29 period in steps =****** mass=  -0.337E-27a.u.
   SCALEE = 1.0000    scale energy and forces
   NPACO  =    256;   APACO  = 16.0  distance and # of slots for P.C.
   PSTRESS=    0.0 pullay stress

  Mass of Ions in am
   POMASS =  28.09
  Ionic Valenz
   ZVAL   =   4.00
  Atomic Wigner-Seitz radii
   RWIGS  =  -1.00
  virtual crystal weights 
   VCA    =   1.00
   NELECT =       8.0000    total number of electrons
   NUPDOWN=      -1.0000    fix difference up-down

 DOS related values:
   EMIN   = -12.00;   EMAX   = 12.00  energy-range for DOS
   EFERMI =   0.00
   ISMEAR =    -5;   SIGMA  =   0.20  broadening in eV -4-tet -1-fermi 0-gaus

 Electronic relaxation 2 (details)
   IALGO  =     68    algorithm
   LDIAG  =      T    sub-space diagonalisation (order eigenvalues)
   LSUBROT=      F    optimize rotation matrix (better conditioning)
   TURBO    =      0    0=normal 1=particle mesh
   IRESTART =      0    0=no restart 2=restart with 2 vectors
   NREBOOT  =      0    no. of reboots
   NMIN     =      0    reboot dimension
   EREF     =   0.00    reference energy to select bands
   IMIX   =      4    mixing-type and parameters
     AMIX     =   0.40;   BMIX     =  1.00
     AMIX_MAG =   1.60;   BMIX_MAG =  1.00
     AMIN     =   0.10
     WC   =   100.;   INIMIX=   1;  MIXPRE=   1;  MAXMIX= -45

 Intra band minimization:
   WEIMIN = 0.0000     energy-eigenvalue tresh-hold
   EBREAK =  0.31E-07  absolut break condition
   DEPER  =   0.30     relativ break condition  

   TIME   =   0.40     timestep for ELM

  volume/ion in A,a.u.               =      20.02       135.11
  Fermi-wavevector in a.u.,A,eV,Ry     =   0.957035  1.808533 12.461786  0.915915
  Thomas-Fermi vector in A             =   2.086016
 
 Write flags
   LWAVE  =      F    write WAVECAR
   LCHARG =      T    write CHGCAR
   LVTOT  =      F    write LOCPOT, total local potential
   LVHAR  =      F    write LOCPOT, Hartree potential only
   LELF   =      T    write electronic localiz. function (ELF)
   LORBIT =     11    0 simple, 1 ext, 2 COOP (PROOUT)


 Dipole corrections
   LMONO  =      F    monopole corrections only (constant potential shift)
   LDIPOL =      F    correct potential (dipole corrections)
   IDIPOL =      0    1-x, 2-y, 3-z, 4-all directions 
   EPSILON=  1.0000000 bulk dielectric constant

 Exchange correlation treatment:
   GGA     =    --    GGA type
   LEXCH   =     8    internal setting for exchange type
   VOSKOWN=      0    Vosko Wilk Nusair interpolation
   LHFCALC =     F    Hartree Fock is set to
   LHFONE  =     F    Hartree Fock one center treatment
   AEXX    =    0.0000 exact exchange contribution

 Linear response parameters
   LEPSILON=     F    determine dielectric tensor
   LRPA    =     F    only Hartree local field effects (RPA)
   LNABLA  =     F    use nabla operator in PAW spheres
   LVEL    =     F    velocity operator in full k-point grid
   LINTERFAST=   F  fast interpolation
   KINTER  =     0    interpolate to denser k-point grid
   CSHIFT  =0.1000    complex shift for real part using Kramers Kronig
   OMEGAMAX=  -1.0    maximum frequency
   DEG_THRESHOLD= 0.2000000E-02 threshold for treating states as degnerate
   RTIME   =    0.100 relaxation time in fs

 Orbital magnetization related:
   ORBITALMAG=     F  switch on orbital magnetization
   LCHIMAG   =     F  perturbation theory with respect to B field
   DQ        =  0.001000  dq finite difference perturbation B field



--------------------------------------------------------------------------------------------------------


 Static calculation
 charge density and potential will be updated during run
 non-spin polarized calculation
 RMM-DIIS sequential band-by-band and
  variant of blocked Davidson during initial phase
 perform sub-space diagonalisation
    before iterative eigenvector-optimisation
 modified Broyden-mixing scheme, WC =      100.0
 initial mixing is a Kerker type mixing with AMIX =  0.4000 and BMIX =      1.0000
 Hartree-type preconditioning will be used
 using additional bands            4
 real space projection scheme for non local part
 use partial core corrections
 calculate Harris-corrections to forces 
   (improved forces if not selfconsistent)
 use gradient corrections 
 use of overlap-Matrix (Vanderbilt PP)
 Fermi weights with tetrahedron method with Bloechl corrections


--------------------------------------------------------------------------------------------------------


  energy-cutoff  :      250.00
  volume of cell :       40.04
      direct lattice vectors                 reciprocal lattice vectors
     0.000000000  2.715400000  2.715400000    -0.184134934  0.184134934  0.184134934
     2.715400000  0.000000000  2.715400000     0.184134934 -0.184134934  0.184134934
     2.715400000  2.715400000  0.000000000     0.184134934  0.184134934 -0.184134934

  length of vectors
     3.840155507  3.840155507  3.840155507     0.318931061  0.318931061  0.318931061


 
 k-points in units of 2pi/SCALE and weight: k-density: 4.0                          
   0.00000000  0.00000000  0.00000000       0.003
  -0.02630499  0.02630499  0.02630499       0.023
  -0.05260998  0.05260998  0.05260998       0.023
  -0.07891497  0.07891497  0.07891497       0.023
   0.00000000  0.00000000  0.05260998       0.017
  -0.02630499  0.02630499  0.07891497       0.070
  -0.05260998  0.05260998  0.10521996       0.070
   0.10521996 -0.10521996 -0.05260998       0.070
   0.07891497 -0.07891497 -0.02630499       0.070
   0.05260998 -0.05260998  0.00000000       0.035
   0.00000000  0.00000000  0.10521996       0.017
  -0.02630499  0.02630499  0.13152495       0.070
   0.13152495 -0.13152495 -0.02630499       0.070
   0.10521996 -0.10521996  0.00000000       0.035
   0.00000000  0.00000000  0.15782994       0.017
   0.15782994 -0.15782994  0.00000000       0.035
   0.00000000  0.05260998  0.10521996       0.070
   0.15782994 -0.10521996 -0.05260998       0.140
   0.18413493 -0.13152495 -0.02630499       0.070
   0.15782994 -0.10521996  0.00000000       0.070
 
 k-points in reciprocal lattice and weights: k-density: 4.0                          
   0.00000000  0.00000000  0.00000000       0.003
   0.14285714  0.00000000  0.00000000       0.023
   0.28571429  0.00000000  0.00000000       0.023
   0.42857143  0.00000000  0.00000000       0.023
   0.14285714  0.14285714  0.00000000       0.017
   0.28571429  0.14285714  0.00000000       0.070
   0.42857143  0.14285714  0.00000000       0.070
  -0.42857143  0.14285714  0.00000000       0.070
  -0.28571429  0.14285714  0.00000000       0.070
  -0.14285714  0.14285714  0.00000000       0.035
   0.28571429  0.28571429  0.00000000       0.017
   0.42857143  0.28571429  0.00000000       0.070
  -0.42857143  0.28571429  0.00000000       0.070
  -0.28571429  0.28571429  0.00000000       0.035
   0.42857143  0.42857143  0.00000000       0.017
  -0.42857143  0.42857143  0.00000000       0.035
   0.42857143  0.28571429  0.14285714       0.070
  -0.42857143  0.28571429  0.14285714       0.140
  -0.42857143  0.42857143  0.14285714       0.070
  -0.28571429  0.42857143  0.14285714       0.070
 
 position of ions in fractional coordinates (direct lattice) 
   0.00000000  0.00000000  0.00000000
   0.25000000  0.25000000  0.25000000
 
 position of ions in cartesian coordinates  (Angst):
   0.00000000  0.00000000  0.00000000
   1.35770000  1.35770000  1.35770000
 


--------------------------------------------------------------------------------------------------------


 k-point  1 :   0.0000 0.0000 0.0000  plane waves:     339
 k-point  2 :   0.1429 0.0000 0.0000  plane waves:     344
 k-point  3 :   0.2857 0.0000 0.0000  plane waves:     353
 k-point  4 :   0.4286 0.0000 0.0000  plane waves:     356
 k-point  5 :   0.1429 0.1429 0.0000  plane waves:     351
 k-point  6 :   0.2857 0.1429 0.0000  plane waves:     354
 k-point  7 :   0.4286 0.1429 0.0000  plane waves:     357
 k-point  8 :  -0.4286 0.1429 0.0000  plane waves:     365
 k-point  9 :  -0.2857 0.1429 0.0000  plane waves:     356
 k-point 10 :  -0.1429 0.1429 0.0000  plane waves:     361
 k-point 11 :   0.2857 0.2857 0.0000  plane waves:     347
 k-point 12 :   0.4286 0.2857 0.0000  plane waves:     359
 k-point 13 :  -0.4286 0.2857 0.0000  plane waves:     359
 k-point 14 :  -0.2857 0.2857 0.0000  plane waves:     361
 k-point 15 :   0.4286 0.4286 0.0000  plane waves:     359
 k-point 16 :  -0.4286 0.4286 0.0000  plane waves:     359
 k-point 17 :   0.4286 0.2857 0.1429  plane waves:     358
 k-point 18 :  -0.4286 0.2857 0.1429  plane waves:     363
 k-point 19 :  -0.4286 0.4286 0.1429  plane waves:     358
 k-point 20 :  -0.2857 0.4286 0.1429  plane waves:     363

 maximum and minimum number of plane-waves per node :        97       77

 maximum number of plane-waves:       365
 maximum index in each direction: 
   IXMAX=    5   IYMAX=    4   IZMAX=    4
   IXMIN=   -5   IYMIN=   -5   IZMIN=   -5

 WARNING: aliasing errors must be expected set NGX to  22 to avoid them
 WARNING: aliasing errors must be expected set NGY to  20 to avoid them
 WARNING: aliasing errors must be expected set NGZ to  20 to avoid them
 aliasing errors are usually negligible using standard VASP settings
 and one can safely disregard these warnings

 real space projection operators:
  total allocation   :        188.12 KBytes
  max/ min on nodes  :         50.50         44.38


 parallel 3D FFT for wavefunctions:
    minimum data exchange during FFTs selected (reduces bandwidth)
 parallel 3D FFT for charge:
    minimum data exchange during FFTs selected (reduces bandwidth)


 total amount of memory used by VASP on root node    31127. kBytes
========================================================================

   base      :      30000. kBytes
   nonlr-proj:        106. kBytes
   fftplans  :        314. kBytes
   grid      :        451. kBytes
   one-center:          3. kBytes
   wavefun   :        253. kBytes
 
     INWAV:  cpu time    0.0000: real time    0.0002
 Broyden mixing: mesh for mixing (old mesh)
   NGX =  9   NGY =  9   NGZ =  9
  (NGX  = 32   NGY  = 32   NGZ  = 32)
  gives a total of    729 points

 initial charge density was supplied:
 charge density of overlapping atoms calculated
 number of electron       8.0000000 magnetization 
 keeping initial charge density in first step


--------------------------------------------------------------------------------------------------------


 Maximum index for non-local projection operator          355
 Maximum index for augmentation-charges          847 (set IRDMAX)


--------------------------------------------------------------------------------------------------------


 First call to EWALD:  gamma=   0.518
 Maximum number of real-space cells 3x 3x 3
 Maximum number of reciprocal cells 3x 3x 3

 FEWALD executed in parallel
    FEWALD:  cpu time    0.0020: real time    0.0015


----------------------------------------- Iteration    1(   1)  ---------------------------------------


    POTLOK:  cpu time    0.0050: real time    0.0052
    SETDIJ:  cpu time    0.0020: real time    0.0021
     EDDAV:  cpu time    0.0490: real time    0.0519
 BZINTS: Fermi energy:  8.934621;  8.000000 electrons
         Band energy:  14.475321;  BLOECHL correction: -0.257724
       DOS:  cpu time    0.0010: real time    0.0013
    --------------------------------------------
      LOOP:  cpu time    0.0600: real time    0.1268

 eigenvalue-minimisations  :   320
 total energy-change (2. order) : 0.1007035E+01  (-0.2238863E+03)
 number of electron       8.0000000 magnetization 
 augmentation part        8.0000000 magnetization 

 Free energy of the ion-electron system (eV)
  ---------------------------------------------------
  alpha Z        PSCENC =         3.36265555
  Ewald energy   TEWEN  =      -228.52985570
  -Hartree energ DENC   =       -11.00771605
  -exchange      EXHF   =         0.00000000
  -V(xc)+E(xc)   XCENC  =       -18.60355020
  PAW double counting   =        65.95520812      -30.76852678
  entropy T*S    EENTRO =         0.00000000
  eigenvalues    EBANDS =        14.47532116
  atomic energy  EATOM  =       206.12349923
  Solvation  Ediel_sol  =         0.00000000
  ---------------------------------------------------
  free energy    TOTEN  =         1.00703532 eV

  energy without entropy =        1.00703532  energy(sigma->0) =        1.00703532


--------------------------------------------------------------------------------------------------------




----------------------------------------- Iteration    1(   2)  ---------------------------------------


     EDDAV:  cpu time    0.0790: real time    0.0795
 BZINTS: Fermi energy:  5.340000;  8.000000 electrons
         Band energy:   2.589391;  BLOECHL correction:  0.000000
       DOS:  cpu time    0.0010: real time    0.0011
    --------------------------------------------
      LOOP:  cpu time    0.0810: real time    0.0832

 eigenvalue-minimisations  :   536
 total energy-change (2. order) :-0.1188593E+02  (-0.1144646E+02)
 number of electron       8.0000000 magnetization 
 augmentation part        8.0000000 magnetization 

 Free energy of the ion-electron system (eV)
  ---------------------------------------------------
  alpha Z        PSCENC =         3.36265555
  Ewald energy   TEWEN  =      -228.52985570
  -Hartree energ DENC   =       -11.00771605
  -exchange      EXHF   =         0.00000000
  -V(xc)+E(xc)   XCENC  =       -18.60355020
  PAW double counting   =        65.95520812      -30.76852678
  entropy T*S    EENTRO =         0.00000000
  eigenvalues    EBANDS =         2.58939148
  atomic energy  EATOM  =       206.12349923
  Solvation  Ediel_sol  =         0.00000000
  ---------------------------------------------------
  free energy    TOTEN  =       -10.87889436 eV

  energy without entropy =      -10.87889436  energy(sigma->0) =      -10.87889436


--------------------------------------------------------------------------------------------------------




----------------------------------------- Iteration    1(   3)  ---------------------------------------


     EDDAV:  cpu time    0.0520: real time    0.0532
 BZINTS: Fermi energy:  5.280000;  8.000000 electrons
         Band energy:   2.472237;  BLOECHL correction:  0.000000
       DOS:  cpu time    0.0010: real time    0.0011
    --------------------------------------------
      LOOP:  cpu time    0.0540: real time    0.0573

 eigenvalue-minimisations  :   360
 total energy-change (2. order) :-0.1171546E+00  (-0.1171546E+00)
 number of electron       8.0000000 magnetization 
 augmentation part        8.0000000 magnetization 

 Free energy of the ion-electron system (eV)
  ---------------------------------------------------
  alpha Z        PSCENC =         3.36265555
  Ewald energy   TEWEN  =      -228.52985570
  -Hartree energ DENC   =       -11.00771605
  -exchange      EXHF   =         0.00000000
  -V(xc)+E(xc)   XCENC  =       -18.60355020
  PAW double counting   =        65.95520812      -30.76852678
  entropy T*S    EENTRO =         0.00000000
  eigenvalues    EBANDS =         2.47223692
  atomic energy  EATOM  =       206.12349923
  Solvation  Ediel_sol  =         0.00000000
  ---------------------------------------------------
  free energy    TOTEN  =       -10.99604892 eV

  energy without entropy =      -10.99604892  energy(sigma->0) =      -10.99604892


--------------------------------------------------------------------------------------------------------




----------------------------------------- Iteration    1(   4)  ---------------------------------------


     EDDAV:  cpu time    0.0830: real time    0.0826
 BZINTS: Fermi energy:  5.280000;  8.000000 electrons
         Band energy:   2.471795;  BLOECHL correction:  0.000000
       DOS:  cpu time    0.0010: real time    0.0011
    --------------------------------------------
      LOOP:  cpu time    0.0850: real time    0.0906

 eigenvalue-minimisations  :   560
 total energy-change (2. order) :-0.4415952E-03  (-0.4415952E-03)
 number of electron       8.0000000 magnetization 
 augmentation part        8.0000000 magnetization 

 Free energy of the ion-electron system (eV)
  ---------------------------------------------------
  alpha Z        PSCENC =         3.36265555
  Ewald energy   TEWEN  =      -228.52985570
  -Hartree energ DENC   =       -11.00771605
  -exchange      EXHF   =         0.00000000
  -V(xc)+E(xc)   XCENC  =       -18.60355020
  PAW double counting   =        65.95520812      -30.76852678
  entropy T*S    EENTRO =         0.00000000
  eigenvalues    EBANDS =         2.47179533
  atomic energy  EATOM  =       206.12349923
  Solvation  Ediel_sol  =         0.00000000
  ---------------------------------------------------
  free energy    TOTEN  =       -10.99649052 eV

  energy without entropy =      -10.99649052  energy(sigma->0) =      -10.99649052


--------------------------------------------------------------------------------------------------------




----------------------------------------- Iteration    1(   5)  ---------------------------------------


     EDDAV:  cpu time    0.0490: real time    0.0499
 BZINTS: Fermi energy:  5.280000;  8.000000 electrons
         Band energy:   2.471795;  BLOECHL correction:  0.000000
       DOS:  cpu time    0.0010: real time    0.0011
    CHARGE:  cpu time    0.0030: real time    0.0026
    MIXING:  cpu time    0.0010: real time    0.0004
    --------------------------------------------
      LOOP:  cpu time    0.0550: real time    0.0572

 eigenvalue-minimisations  :   336
 total energy-change (2. order) :-0.3179994E-06  (-0.3179994E-06)
 number of electron       7.9999994 magnetization 
 augmentation part       -0.4691176 magnetization 

 Broyden mixing:
  rms(total) = 0.30095E+00    rms(broyden)= 0.30091E+00
  rms(prec ) = 0.87353E+00
  weight for this iteration     100.00

 Free energy of the ion-electron system (eV)
  ---------------------------------------------------
  alpha Z        PSCENC =         3.36265555
  Ewald energy   TEWEN  =      -228.52985570
  -Hartree energ DENC   =       -11.00771605
  -exchange      EXHF   =         0.00000000
  -V(xc)+E(xc)   XCENC  =       -18.60355020
  PAW double counting   =        65.95520812      -30.76852678
  entropy T*S    EENTRO =         0.00000000
  eigenvalues    EBANDS =         2.47179501
  atomic energy  EATOM  =       206.12349923
  Solvation  Ediel_sol  =         0.00000000
  ---------------------------------------------------
  free energy    TOTEN  =       -10.99649083 eV

  energy without entropy =      -10.99649083  energy(sigma->0) =      -10.99649083


--------------------------------------------------------------------------------------------------------




----------------------------------------- Iteration    1(   6)  ---------------------------------------


    POTLOK:  cpu time    0.0040: real time    0.0044
    SETDIJ:  cpu time    0.0010: real time    0.0014
    EDDIAG:  cpu time    0.0090: real time    0.0087
  RMM-DIIS:  cpu time    0.0390: real time    0.0403
    ORTHCH:  cpu time    0.0000: real time    0.0005
 BZINTS: Fermi energy:  5.510000;  8.000000 electrons
         Band energy:   3.969561;  BLOECHL correction:  0.000000
       DOS:  cpu time    0.0020: real time    0.0011
    CHARGE:  cpu time    0.0020: real time    0.0025
    MIXING:  cpu time    0.0010: real time    0.0005
    --------------------------------------------
      LOOP:  cpu time    0.0580: real time    0.0628

 eigenvalue-minimisations  :   323
 total energy-change (2. order) : 0.1251991E+00  (-0.5301936E-02)
 number of electron       7.9999994 magnetization 
 augmentation part       -0.4632357 magnetization 

 Broyden mixing:
  rms(total) = 0.17856E+00    rms(broyden)= 0.17856E+00
  rms(prec ) = 0.51542E+00
  weight for this iteration     100.00

 eigenvalues of (default mixing * dielectric matrix)
  average eigenvalue GAMMA=   2.4390
  2.4390

 Free energy of the ion-electron system (eV)
  ---------------------------------------------------
  alpha Z        PSCENC =         3.36265555
  Ewald energy   TEWEN  =      -228.52985570
  -Hartree energ DENC   =       -12.50833181
  -exchange      EXHF   =         0.00000000
  -V(xc)+E(xc)   XCENC  =       -18.36226934
  PAW double counting   =        70.20047848      -35.12702895
  entropy T*S    EENTRO =         0.00000000
  eigenvalues    EBANDS =         3.96956084
  atomic energy  EATOM  =       206.12349923
  Solvation  Ediel_sol  =         0.00000000
  ---------------------------------------------------
  free energy    TOTEN  =       -10.87129171 eV

  energy without entropy =      -10.87129171  energy(sigma->0) =      -10.87129171


--------------------------------------------------------------------------------------------------------




----------------------------------------- Iteration    1(   7)  ---------------------------------------


    POTLOK:  cpu time    0.0050: real time    0.0044
    SETDIJ:  cpu time    0.0000: real time    0.0014
    EDDIAG:  cpu time    0.0080: real time    0.0078
  RMM-DIIS:  cpu time    0.0390: real time    0.0395
    ORTHCH:  cpu time    0.0020: real time    0.0005
 BZINTS: Fermi energy:  5.850000;  8.000000 electrons
         Band energy:   6.209176;  BLOECHL correction:  0.000000
       DOS:  cpu time    0.0000: real time    0.0011
    CHARGE:  cpu time    0.0030: real time    0.0025
    MIXING:  cpu time    0.0000: real time    0.0003
    --------------------------------------------
      LOOP:  cpu time    0.0570: real time    0.0602

 eigenvalue-minimisations  :   325
 total energy-change (2. order) : 0.5688357E-01  (-0.1094508E-01)
 number of electron       7.9999994 magnetization 
 augmentation part       -0.4561106 magnetization 

 Broyden mixing:
  rms(total) = 0.15200E-01    rms(broyden)= 0.15199E-01
  rms(prec ) = 0.39583E-01
  weight for this iteration     100.00

 eigenvalues of (default mixing * dielectric matrix)
  average eigenvalue GAMMA=   2.4795
  2.4795  2.4795

 Free energy of the ion-electron system (eV)
  ---------------------------------------------------
  alpha Z        PSCENC =         3.36265555
  Ewald energy   TEWEN  =      -228.52985570
  -Hartree energ DENC   =       -14.94118710
  -exchange      EXHF   =         0.00000000
  -V(xc)+E(xc)   XCENC  =       -17.96564080
  PAW double counting   =        75.91586164      -40.98891676
  entropy T*S    EENTRO =         0.00000000
  eigenvalues    EBANDS =         6.20917581
  atomic energy  EATOM  =       206.12349923
  Solvation  Ediel_sol  =         0.00000000
  ---------------------------------------------------
  free energy    TOTEN  =       -10.81440814 eV

  energy without entropy =      -10.81440814  energy(sigma->0) =      -10.81440814


--------------------------------------------------------------------------------------------------------




----------------------------------------- Iteration    1(   8)  ---------------------------------------


    POTLOK:  cpu time    0.0040: real time    0.0043
    SETDIJ:  cpu time    0.0010: real time    0.0014
    EDDIAG:  cpu time    0.0080: real time    0.0077
  RMM-DIIS:  cpu time    0.0440: real time    0.0431
    ORTHCH:  cpu time    0.0000: real time    0.0005
 BZINTS: Fermi energy:  5.840000;  8.000000 electrons
         Band energy:   6.136267;  BLOECHL correction:  0.000000
       DOS:  cpu time    0.0010: real time    0.0011
    CHARGE:  cpu time    0.0030: real time    0.0025
    MIXING:  cpu time    0.0000: real time    0.0003
    --------------------------------------------
      LOOP:  cpu time    0.0620: real time    0.0643

 eigenvalue-minimisations  :   348
 total energy-change (2. order) :-0.1248702E-02  (-0.2174431E-03)
 number of electron       7.9999994 magnetization 
 augmentation part       -0.4570547 magnetization 

 Broyden mixing:
  rms(total) = 0.22711E-02    rms(broyden)= 0.22708E-02
  rms(prec ) = 0.70353E-02
  weight for this iteration     100.00

 eigenvalues of (default mixing * dielectric matrix)
  average eigenvalue GAMMA=   2.1480
  1.3467  2.8054  2.2919

 Free energy of the ion-electron system (eV)
  ---------------------------------------------------
  alpha Z        PSCENC =         3.36265555
  Ewald energy   TEWEN  =      -228.52985570
  -Hartree energ DENC   =       -14.90676545
  -exchange      EXHF   =         0.00000000
  -V(xc)+E(xc)   XCENC  =       -17.95766077
  PAW double counting   =        74.99856451      -40.04236099
  entropy T*S    EENTRO =         0.00000000
  eigenvalues    EBANDS =         6.13626678
  atomic energy  EATOM  =       206.12349923
  Solvation  Ediel_sol  =         0.00000000
  ---------------------------------------------------
  free energy    TOTEN  =       -10.81565684 eV

  energy without entropy =      -10.81565684  energy(sigma->0) =      -10.81565684


--------------------------------------------------------------------------------------------------------




----------------------------------------- Iteration    1(   9)  ---------------------------------------


    POTLOK:  cpu time    0.0040: real time    0.0043
    SETDIJ:  cpu time    0.0020: real time    0.0014
    EDDIAG:  cpu time    0.0070: real time    0.0077
  RMM-DIIS:  cpu time    0.0460: real time    0.0456
    ORTHCH:  cpu time    0.0010: real time    0.0005
 BZINTS: Fermi energy:  5.840000;  8.000000 electrons
         Band energy:   6.155507;  BLOECHL correction:  0.000000
       DOS:  cpu time    0.0010: real time    0.0011
    CHARGE:  cpu time    0.0030: real time    0.0025
    MIXING:  cpu time    0.0000: real time    0.0002
    --------------------------------------------
      LOOP:  cpu time    0.0640: real time    0.0663

 eigenvalue-minimisations  :   366
 total energy-change (2. order) :-0.9490806E-04  (-0.1438348E-04)
 number of electron       7.9999994 magnetization 
 augmentation part       -0.4571745 magnetization 

 Broyden mixing:
  rms(total) = 0.12518E-02    rms(broyden)= 0.12516E-02
  rms(prec ) = 0.32939E-02
  weight for this iteration     100.00

 eigenvalues of (default mixing * dielectric matrix)
  average eigenvalue GAMMA=   2.4022
  1.0149  3.5619  2.3069  2.7250

 Free energy of the ion-electron system (eV)
  ---------------------------------------------------
  alpha Z        PSCENC =         3.36265555
  Ewald energy   TEWEN  =      -228.52985570
  -Hartree energ DENC   =       -14.93152787
  -exchange      EXHF   =         0.00000000
  -V(xc)+E(xc)   XCENC  =       -17.95302077
  PAW double counting   =        74.96194653      -40.00495597
  entropy T*S    EENTRO =         0.00000000
  eigenvalues    EBANDS =         6.15550725
  atomic energy  EATOM  =       206.12349923
  Solvation  Ediel_sol  =         0.00000000
  ---------------------------------------------------
  free energy    TOTEN  =       -10.81575175 eV

  energy without entropy =      -10.81575175  energy(sigma->0) =      -10.81575175


--------------------------------------------------------------------------------------------------------




----------------------------------------- Iteration    1(  10)  ---------------------------------------


    POTLOK:  cpu time    0.0040: real time    0.0043
    SETDIJ:  cpu time    0.0010: real time    0.0014
    EDDIAG:  cpu time    0.0080: real time    0.0078
  RMM-DIIS:  cpu time    0.0420: real time    0.0418
    ORTHCH:  cpu time    0.0010: real time    0.0005
 BZINTS: Fermi energy:  5.850000;  8.000000 electrons
         Band energy:   6.171467;  BLOECHL correction:  0.000000
       DOS:  cpu time    0.0000: real time    0.0011
    CHARGE:  cpu time    0.0030: real time    0.0025
    MIXING:  cpu time    0.0000: real time    0.0003
    --------------------------------------------
      LOOP:  cpu time    0.0590: real time    0.0678

 eigenvalue-minimisations  :   338
 total energy-change (2. order) :-0.1977389E-04  (-0.4594431E-05)
 number of electron       7.9999994 magnetization 
 augmentation part       -0.4571131 magnetization 

 Broyden mixing:
  rms(total) = 0.26273E-03    rms(broyden)= 0.26258E-03
  rms(prec ) = 0.80576E-03
  weight for this iteration     100.00

 eigenvalues of (default mixing * dielectric matrix)
  average eigenvalue GAMMA=   2.0415
  3.1610  2.6085  2.2080  0.9699  1.2604

 Free energy of the ion-electron system (eV)
  ---------------------------------------------------
  alpha Z        PSCENC =         3.36265555
  Ewald energy   TEWEN  =      -228.52985570
  -Hartree energ DENC   =       -14.94555893
  -exchange      EXHF   =         0.00000000
  -V(xc)+E(xc)   XCENC  =       -17.95271937
  PAW double counting   =        74.99110008      -40.03635948
  entropy T*S    EENTRO =         0.00000000
  eigenvalues    EBANDS =         6.17146710
  atomic energy  EATOM  =       206.12349923
  Solvation  Ediel_sol  =         0.00000000
  ---------------------------------------------------
  free energy    TOTEN  =       -10.81577153 eV

  energy without entropy =      -10.81577153  energy(sigma->0) =      -10.81577153


--------------------------------------------------------------------------------------------------------




----------------------------------------- Iteration    1(  11)  ---------------------------------------


    POTLOK:  cpu time    0.0040: real time    0.0043
    SETDIJ:  cpu time    0.0000: real time    0.0014
    EDDIAG:  cpu time    0.0080: real time    0.0077
  RMM-DIIS:  cpu time    0.0370: real time    0.0373
    ORTHCH:  cpu time    0.0020: real time    0.0005
 BZINTS: Fermi energy:  5.840000;  8.000000 electrons
         Band energy:   6.166158;  BLOECHL correction: -0.000000
       DOS:  cpu time    0.0000: real time    0.0011
    CHARGE:  cpu time    0.0030: real time    0.0025
    MIXING:  cpu time    0.0000: real time    0.0003
    --------------------------------------------
      LOOP:  cpu time    0.0560: real time    0.0587

 eigenvalue-minimisations  :   290
 total energy-change (2. order) : 0.1587589E-05  (-0.1494838E-06)
 number of electron       7.9999994 magnetization 
 augmentation part       -0.4571465 magnetization 

 Broyden mixing:
  rms(total) = 0.55011E-04    rms(broyden)= 0.54916E-04
  rms(prec ) = 0.13300E-03
  weight for this iteration     100.00

 eigenvalues of (default mixing * dielectric matrix)
  average eigenvalue GAMMA=   2.0644
  3.3174  2.7201  2.2349  2.2349  0.9394  0.9394

 Free energy of the ion-electron system (eV)
  ---------------------------------------------------
  alpha Z        PSCENC =         3.36265555
  Ewald energy   TEWEN  =      -228.52985570
  -Hartree energ DENC   =       -14.94087904
  -exchange      EXHF   =         0.00000000
  -V(xc)+E(xc)   XCENC  =       -17.95300727
  PAW double counting   =        74.97135397      -40.01569441
  entropy T*S    EENTRO =         0.00000000
  eigenvalues    EBANDS =         6.16615774
  atomic energy  EATOM  =       206.12349923
  Solvation  Ediel_sol  =         0.00000000
  ---------------------------------------------------
  free energy    TOTEN  =       -10.81576994 eV

  energy without entropy =      -10.81576994  energy(sigma->0) =      -10.81576994


--------------------------------------------------------------------------------------------------------




----------------------------------------- Iteration    1(  12)  ---------------------------------------


    POTLOK:  cpu time    0.0040: real time    0.0043
    SETDIJ:  cpu time    0.0010: real time    0.0014
    EDDIAG:  cpu time    0.0080: real time    0.0077
  RMM-DIIS:  cpu time    0.0250: real time    0.0247
    ORTHCH:  cpu time    0.0000: real time    0.0004
 BZINTS: Fermi energy:  5.840000;  8.000000 electrons
         Band energy:   6.166091;  BLOECHL correction: -0.000000
       DOS:  cpu time    0.0010: real time    0.0011
    --------------------------------------------
      LOOP:  cpu time    0.0400: real time    0.0435

 eigenvalue-minimisations  :   189
 total energy-change (2. order) : 0.1418432E-06  (-0.2234511E-07)
 number of electron       7.9999994 magnetization 
 augmentation part       -0.4571465 magnetization 

 Free energy of the ion-electron system (eV)
  ---------------------------------------------------
  alpha Z        PSCENC =         3.36265555
  Ewald energy   TEWEN  =      -228.52985570
  -Hartree energ DENC   =       -14.94086559
  -exchange      EXHF   =         0.00000000
  -V(xc)+E(xc)   XCENC  =       -17.95305937
  PAW double counting   =        74.96999013      -40.01422546
  entropy T*S    EENTRO =         0.00000000
  eigenvalues    EBANDS =         6.16609143
  atomic energy  EATOM  =       206.12349923
  Solvation  Ediel_sol  =         0.00000000
  ---------------------------------------------------
  free energy    TOTEN  =       -10.81576980 eV

  energy without entropy =      -10.81576980  energy(sigma->0) =      -10.81576980


--------------------------------------------------------------------------------------------------------




 average (electrostatic) potential at core
  the test charge radii are     0.9892
  (the norm of the test charge is              1.0000)
       1 -83.2470       2 -83.2470
 
 
 
 E-fermi :   5.8400     XC(G=0):  -9.4076     alpha+bet :-11.9792


 k-point     1 :       0.0000    0.0000    0.0000
  band No.  band energies     occupation 
      1      -6.1292      2.00000
      2       5.8405      2.00000
      3       5.8405      2.00000
      4       5.8405      2.00000
      5       8.4068      0.00000
      6       8.4068      0.00000
      7       8.4068      0.00000
      8       9.2015      0.00000

 k-point     2 :       0.1429    0.0000    0.0000
  band No.  band energies     occupation 
      1      -5.8630      2.00000
      2       3.9051      2.00000
      3       5.4817      2.00000
      4       5.4817      2.00000
      5       8.2827      0.00000
      6       8.9302      0.00000
      7       8.9302      0.00000
      8      10.8660      0.00000

 k-point     3 :       0.2857    0.0000    0.0000
  band No.  band energies     occupation 
      1      -5.0960      2.00000
      2       1.2810      2.00000
      3       4.9635      2.00000
      4       4.9635      2.00000
      5       7.7489      0.00000
      6       9.3836      0.00000
      7       9.3836      0.00000
      8      13.3044      0.00000

 k-point     4 :       0.4286    0.0000    0.0000
  band No.  band energies     occupation 
      1      -4.0540      2.00000
      2      -0.7547      2.00000
      3       4.6737      2.00000
      4       4.6737      2.00000
      5       7.4227      0.00000
      6       9.2325      0.00000
      7       9.2325      0.00000
      8      13.6281      0.00000

 k-point     5 :       0.1429    0.1429    0.0000
  band No.  band energies     occupation 
      1      -5.7730      2.00000
      2       4.2070      2.00000
      3       4.8636      2.00000
      4       4.8636      2.00000
      5       7.7237      0.00000
      6       9.8172      0.00000
      7       9.8172      0.00000
      8      10.2750      0.00000

 k-point     6 :       0.2857    0.1429    0.0000
  band No.  band energies     occupation 
      1      -5.1657      2.00000
      2       2.0775      2.00000
      3       4.2812      2.00000
      4       4.3196      2.00000
      5       7.9202      0.00000
      6       9.7581      0.00000
      7      10.4137      0.00000
      8      10.6053      0.00000

 k-point     7 :       0.4286    0.1429    0.0000
  band No.  band energies     occupation 
      1      -4.1556      2.00000
      2      -0.1129      2.00000
      3       3.5912      2.00000
      4       4.1301      2.00000
      5       7.9900      0.00000
      6       9.6769      0.00000
      7      10.3866      0.00000
      8      11.6412      0.00000

 k-point     8 :      -0.4286    0.1429    0.0000
  band No.  band energies     occupation 
      1      -3.5954      2.00000
      2      -0.9799      2.00000
      3       3.1754      2.00000
      4       4.3284      2.00000
      5       8.0902      0.00000
      6       9.5835      0.00000
      7       9.9854      0.00000
      8      14.0258      0.00000

 k-point     9 :      -0.2857    0.1429    0.0000
  band No.  band energies     occupation 
      1      -4.5246      2.00000
      2       0.5692      2.00000
      3       3.1785      2.00000
      4       4.8444      2.00000
      5       8.4977      0.00000
      6       9.7463      0.00000
      7       9.7849      0.00000
      8      12.5118      0.00000

 k-point    10 :      -0.1429    0.1429    0.0000
  band No.  band energies     occupation 
      1      -5.4266      2.00000
      2       2.6983      2.00000
      3       3.8682      2.00000
      4       5.4390      2.00000
      5       8.9044      0.00000
      6       9.1374      0.00000
      7       9.4026      0.00000
      8      11.4858      0.00000

 k-point    11 :       0.2857    0.2857    0.0000
  band No.  band energies     occupation 
      1      -4.7213      2.00000
      2       1.6761      2.00000
      3       3.6958      2.00000
      4       3.6958      2.00000
      5       6.7740      0.00000
      6       8.4625      0.00000
      7      12.2503      0.00000
      8      12.2503      0.00000

 k-point    12 :       0.4286    0.2857    0.0000
  band No.  band energies     occupation 
      1      -3.8176      2.00000
      2       0.1693      2.00000
      3       2.7143      2.00000
      4       3.4345      2.00000
      5       7.0589      0.00000
      6       8.5496      0.00000
      7      12.4799      0.00000
      8      12.6405      0.00000

 k-point    13 :      -0.4286    0.2857    0.0000
  band No.  band energies     occupation 
      1      -2.8976      2.00000
      2      -1.0133      2.00000
      3       1.7592      2.00000
      4       3.6039      2.00000
      5       7.3006      0.00000
      6      10.7985      0.00000
      7      12.1371      0.00000
      8      12.2183      0.00000

 k-point    14 :      -0.2857    0.2857    0.0000
  band No.  band energies     occupation 
      1      -3.5495      2.00000
      2      -0.2603      2.00000
      3       1.6839      2.00000
      4       4.1545      2.00000
      5       7.9110      0.00000
      6      11.3053      0.00000
      7      11.6587      0.00000
      8      12.4703      0.00000

 k-point    15 :       0.4286    0.4286    0.0000
  band No.  band energies     occupation 
      1      -3.0323      2.00000
      2      -0.8296      2.00000
      3       3.0619      2.00000
      4       3.0619      2.00000
      5       6.4181      0.00000
      6       6.9357      0.00000
      7      14.9104      0.00000
      8      14.9105      0.00000

 k-point    16 :      -0.4286    0.4286    0.0000
  band No.  band energies     occupation 
      1      -2.0800      2.00000
      2      -1.7910      2.00000
      3       2.1651      2.00000
      4       3.1238      2.00000
      5       6.7209      0.00000
      6       7.9842      0.00000
      7      14.6805      0.00000
      8      15.1294      0.00000

 k-point    17 :       0.4286    0.2857    0.1429
  band No.  band energies     occupation 
      1      -4.4124      2.00000
      2       0.9368      2.00000
      3       2.7170      2.00000
      4       4.0463      2.00000
      5       8.4281      0.00000
      6       9.6877      0.00000
      7       9.9921      0.00000
      8      12.0014      0.00000

 k-point    18 :      -0.4286    0.2857    0.1429
  band No.  band energies     occupation 
      1      -3.3683      2.00000
      2      -0.6001      2.00000
      3       2.1453      2.00000
      4       3.5071      2.00000
      5       8.9159      0.00000
      6       9.3335      0.00000
      7      11.3256      0.00000
      8      12.4579      0.00000

 k-point    19 :      -0.4286    0.4286    0.1429
  band No.  band energies     occupation 
      1      -2.8267      2.00000
      2      -0.9153      2.00000
      3       2.2326      2.00000
      4       2.6440      2.00000
      5       8.0585      0.00000
      6       8.4271      0.00000
      7      12.0138      0.00000
      8      14.5338      0.00000

 k-point    20 :      -0.2857    0.4286    0.1429
  band No.  band energies     occupation 
      1      -2.3884      2.00000
      2      -1.3136      2.00000
      3       1.5910      2.00000
      4       2.7366      2.00000
      5       8.5860      0.00000
      6      10.6963      0.00000
      7      11.5001      0.00000
      8      11.6443      0.00000


--------------------------------------------------------------------------------------------------------


 soft charge-density along one line, spin component           1
         0         1         2         3         4         5         6         7         8         9
 total charge-density along one line
 
 pseudopotential strength for first ion, spin component:           1
 18.415  -0.001  -0.000  -0.000  -0.000   0.000   0.000   0.000
 -0.001   0.006   0.000   0.000   0.000  -0.000  -0.000  -0.000
 -0.000   0.000   4.179  -0.000  -0.000  -0.005   0.000   0.000
 -0.000   0.000  -0.000   4.179  -0.000   0.000  -0.005   0.000
 -0.000   0.000  -0.000  -0.000   4.179   0.000   0.000  -0.005
  0.000  -0.000  -0.005   0.000   0.000   0.005  -0.000  -0.000
  0.000  -0.000   0.000  -0.005   0.000  -0.000   0.005  -0.000
  0.000  -0.000   0.000   0.000  -0.005  -0.000  -0.000   0.005
 total augmentation occupancy for first ion, spin component:           1
  1.489  -0.852  -0.000  -0.000   0.000  -0.000   0.000   0.000
 -0.852   0.857   0.000   0.000   0.000   0.000   0.000   0.000
 -0.000   0.000   1.030  -0.000   0.000  -0.651  -0.000   0.000
  0.000   0.000   0.000   1.030   0.000  -0.000  -0.651   0.000
  0.000   0.000   0.000   0.000   1.030   0.000  -0.000  -0.651
  0.000  -0.000  -0.651   0.000   0.000   0.470   0.000  -0.000
 -0.000  -0.000  -0.000  -0.651   0.000   0.000   0.470  -0.000
  0.000   0.000   0.000   0.000  -0.651   0.000  -0.000   0.470


------------------------ aborting loop because EDIFF is reached ----------------------------------------


 


 total charge     
 
# of ion     s       p       d       tot
----------------------------------------
  1        0.753   0.956   0.000   1.709
  2        0.753   0.956   0.000   1.709
------------------------------------------------
tot        1.506   1.911   0.000   3.417
 
    CHARGE:  cpu time    0.0030: real time    0.0025
    FORLOC:  cpu time    0.0000: real time    0.0002
    FORNL :  cpu time    0.0180: real time    0.0181
    STRESS:  cpu time    0.0540: real time    0.0547
    FORCOR:  cpu time    0.0050: real time    0.0045
    FORHAR:  cpu time    0.0010: real time    0.0008
    MIXING:  cpu time    0.0000: real time    0.0003
    OFIELD:  cpu time    0.0000: real time    0.0000

  FORCE on cell =-STRESS in cart. coord.  units (eV):
  Direction    XX          YY          ZZ          XY          YZ          ZX
  --------------------------------------------------------------------------------------
  Alpha Z     3.36266     3.36266     3.36266
  Ewald     -76.17665   -76.17665   -76.17665     0.00000     0.00000     0.00000
  Hartree     4.98046     4.98046     4.98046    -0.00000    -0.00000    -0.00000
  E(xc)     -25.38957   -25.38957   -25.38957     0.00001     0.00001     0.00001
  Local     -29.35379   -29.35379   -29.35379     0.00005     0.00005     0.00005
  n-local    79.18422    80.17291    74.44678     2.31750    -1.18522     0.65742
  augment   -11.60911   -11.60911   -11.60911    -0.00004    -0.00004    -0.00004
  Kinetic    58.64401    56.39047    55.01920     3.52739    -0.80787     0.96762
  Fock        0.00000     0.00000     0.00000     0.00000     0.00000     0.00000
  -------------------------------------------------------------------------------------
  Total       0.43319     0.43319     0.43319     0.00000     0.00000     0.00000
  in kB      17.33225    17.33225    17.33225     0.00000     0.00000     0.00000
  external pressure =       17.33 kB  Pullay stress =        0.00 kB


 VOLUME and BASIS-vectors are now :
 -----------------------------------------------------------------------------
  energy-cutoff  :      250.00
  volume of cell :       40.04
      direct lattice vectors                 reciprocal lattice vectors
     0.000000000  2.715400000  2.715400000    -0.184134934  0.184134934  0.184134934
     2.715400000  0.000000000  2.715400000     0.184134934 -0.184134934  0.184134934
     2.715400000  2.715400000  0.000000000     0.184134934  0.184134934 -0.184134934

  length of vectors
     3.840155507  3.840155507  3.840155507     0.318931061  0.318931061  0.318931061


 FORCES acting on ions
    electron-ion (+dipol)            ewald-force                    non-local-force                 convergence-correction
 -----------------------------------------------------------------------------------------------
   0.282E-05 0.282E-05 0.275E-05   -.703E-14 -.499E-14 -.139E-13   -.625E-16 -.486E-16 -.763E-16   0.219E-07 0.219E-07 0.219E-07
   -.282E-05 -.282E-05 -.275E-05   0.670E-14 0.473E-14 0.138E-13   0.555E-16 0.555E-16 0.798E-16   -.219E-07 -.219E-07 -.219E-07
 -----------------------------------------------------------------------------------------------
   0.177E-13 0.230E-13 0.160E-13   -.326E-15 -.260E-15 -.869E-16   -.694E-17 0.694E-17 0.347E-17   0.259E-14 0.280E-14 0.427E-15
 
 
 POSITION                                       TOTAL-FORCE (eV/Angst)
 -----------------------------------------------------------------------------------
      0.00000      0.00000      0.00000        -0.000000     -0.000000     -0.000000
      1.35770      1.35770      1.35770         0.000000      0.000000      0.000000
 -----------------------------------------------------------------------------------
    total drift:                                0.000000      0.000000      0.000000


--------------------------------------------------------------------------------------------------------



  FREE ENERGIE OF THE ION-ELECTRON SYSTEM (eV)
  ---------------------------------------------------
  free  energy   TOTEN  =       -10.81576980 eV

  energy  without entropy=      -10.81576980  energy(sigma->0) =      -10.81576980
 


--------------------------------------------------------------------------------------------------------


    POTLOK:  cpu time    0.0050: real time    0.0059


--------------------------------------------------------------------------------------------------------


     LOOP+:  cpu time    0.8569: real time    2.6329
    4ORBIT:  cpu time    0.0000: real time    0.0000
 


 total charge     
 
# of ion     s       p       d       tot
----------------------------------------
  1        0.753   0.956   0.000   1.709
  2        0.753   0.956   0.000   1.709
------------------------------------------------
tot        1.506   1.911   0.000   3.417
 
 BZINTS: Fermi energy:  5.840000;  8.000000 electrons
         Band energy:   6.166091;  BLOECHL correction: -0.000000

 total amount of memory used by VASP on root node    31127. kBytes
========================================================================

   base      :      30000. kBytes
   nonlr-proj:        106. kBytes
   fftplans  :        314. kBytes
   grid      :        451. kBytes
   one-center:          3. kBytes
   wavefun   :        253. kBytes
 
  
  
 General timing and accounting informations for this job:
 ========================================================
  
                  Total CPU time used (sec):        1.574
                            User time (sec):        1.524
                          System time (sec):        0.050
                         Elapsed time (sec):        6.073
  
                   Maximum memory used (kb):       24156.
                   Average memory used (kb):           0.
  
                          Minor page faults:         6050
                          Major page faults:          220
                 Voluntary context switches:         1998
