PROCAR lm decomposed
# of k-points:   20         # of bands:   8         # of ions:   2

 k-point    1 :    0.00000000 0.00000000 0.00000000     weight = 0.00291545

band   1 # energy   -6.12918067 # occ.  2.00000000
 
ion      s     py     pz     px    dxy    dyz    dz2    dxz    dx2    tot
  1  0.215  0.000  0.000  0.000  0.000  0.000  0.000  0.000  0.000  0.215
  2  0.215  0.000  0.000  0.000  0.000  0.000  0.000  0.000  0.000  0.215
tot  0.429  0.000  0.000  0.000  0.000  0.000  0.000  0.000  0.000  0.429
 
band   2 # energy    5.84045078 # occ.  1.99999989
 
ion      s     py     pz     px    dxy    dyz    dz2    dxz    dx2    tot
  1  0.000  0.073  0.073  0.073  0.000  0.000  0.000  0.000  0.000  0.219
  2  0.000  0.073  0.073  0.073  0.000  0.000  0.000  0.000  0.000  0.219
tot  0.000  0.146  0.146  0.146  0.000  0.000  0.000  0.000  0.000  0.439
 
band   3 # energy    5.84046650 # occ.  1.99999823
 
ion      s     py     pz     px    dxy    dyz    dz2    dxz    dx2    tot
  1  0.000  0.110  0.000  0.110  0.000  0.000  0.000  0.000  0.000  0.219
  2  0.000  0.110  0.000  0.110  0.000  0.000  0.000  0.000  0.000  0.219
tot  0.000  0.219  0.000  0.219  0.000  0.000  0.000  0.000  0.000  0.439
 
band   4 # energy    5.84046651 # occ.  1.99999823
 
ion      s     py     pz     px    dxy    dyz    dz2    dxz    dx2    tot
  1  0.000  0.037  0.146  0.037  0.000  0.000  0.000  0.000  0.000  0.219
  2  0.000  0.037  0.146  0.037  0.000  0.000  0.000  0.000  0.000  0.219
tot  0.000  0.073  0.292  0.073  0.000  0.000  0.000  0.000  0.000  0.439
 
band   5 # energy    8.40676542 # occ.  0.00000000
 
ion      s     py     pz     px    dxy    dyz    dz2    dxz    dx2    tot
  1  0.000  0.051  0.051  0.051  0.000  0.000  0.000  0.000  0.000  0.154
  2  0.000  0.051  0.051  0.051  0.000  0.000  0.000  0.000  0.000  0.154
tot  0.000  0.102  0.102  0.102  0.000  0.000  0.000  0.000  0.000  0.307
 
band   6 # energy    8.40678170 # occ.  0.00000000
 
ion      s     py     pz     px    dxy    dyz    dz2    dxz    dx2    tot
  1  0.000  0.077  0.000  0.077  0.000  0.000  0.000  0.000  0.000  0.154
  2  0.000  0.077  0.000  0.077  0.000  0.000  0.000  0.000  0.000  0.154
tot  0.000  0.154  0.000  0.154  0.000  0.000  0.000  0.000  0.000  0.307
 
band   7 # energy    8.40678170 # occ.  0.00000000
 
ion      s     py     pz     px    dxy    dyz    dz2    dxz    dx2    tot
  1  0.000  0.026  0.102  0.026  0.000  0.000  0.000  0.000  0.000  0.154
  2  0.000  0.026  0.102  0.026  0.000  0.000  0.000  0.000  0.000  0.154
tot  0.000  0.051  0.205  0.051  0.000  0.000  0.000  0.000  0.000  0.307
 
band   8 # energy    9.20149550 # occ.  0.00000000
 
ion      s     py     pz     px    dxy    dyz    dz2    dxz    dx2    tot
  1  0.361  0.000  0.000  0.000  0.000  0.000  0.000  0.000  0.000  0.361
  2  0.361  0.000  0.000  0.000  0.000  0.000  0.000  0.000  0.000  0.361
tot  0.722  0.000  0.000  0.000  0.000  0.000  0.000  0.000  0.000  0.722
 

 k-point    2 :    0.14285714 0.00000000 0.00000000     weight = 0.02332362

band   1 # energy   -5.86300786 # occ.  2.00000000
 
ion      s     py     pz     px    dxy    dyz    dz2    dxz    dx2    tot
  1  0.213  0.001  0.001  0.001  0.000  0.000  0.000  0.000  0.000  0.216
  2  0.213  0.001  0.001  0.001  0.000  0.000  0.000  0.000  0.000  0.216
tot  0.427  0.002  0.002  0.002  0.000  0.000  0.000  0.000  0.000  0.432
 
band   2 # energy    3.90509051 # occ.  2.00000001
 
ion      s     py     pz     px    dxy    dyz    dz2    dxz    dx2    tot
  1  0.069  0.051  0.051  0.051  0.000  0.000  0.000  0.000  0.000  0.222
  2  0.069  0.051  0.051  0.051  0.000  0.000  0.000  0.000  0.000  0.222
tot  0.137  0.102  0.102  0.102  0.000  0.000  0.000  0.000  0.000  0.444
 
band   3 # energy    5.48167977 # occ.  1.99999993
 
ion      s     py     pz     px    dxy    dyz    dz2    dxz    dx2    tot
  1  0.000  0.036  0.036  0.144  0.000  0.000  0.000  0.000  0.000  0.216
  2  0.000  0.036  0.036  0.144  0.000  0.000  0.000  0.000  0.000  0.216
tot  0.000  0.072  0.072  0.288  0.000  0.000  0.000  0.000  0.000  0.432
 
band   4 # energy    5.48169289 # occ.  1.99999993
 
ion      s     py     pz     px    dxy    dyz    dz2    dxz    dx2    tot
  1  0.000  0.108  0.108  0.000  0.000  0.000  0.000  0.000  0.000  0.216
  2  0.000  0.108  0.108  0.000  0.000  0.000  0.000  0.000  0.000  0.216
tot  0.000  0.216  0.216  0.000  0.000  0.000  0.000  0.000  0.000  0.432
 
band   5 # energy    8.28273534 # occ.  0.00000000
 
ion      s     py     pz     px    dxy    dyz    dz2    dxz    dx2    tot
  1  0.115  0.028  0.028  0.028  0.000  0.000  0.000  0.000  0.000  0.199
  2  0.115  0.028  0.028  0.028  0.000  0.000  0.000  0.000  0.000  0.199
tot  0.229  0.056  0.056  0.056  0.000  0.000  0.000  0.000  0.000  0.398
 
band   6 # energy    8.93021627 # occ.  0.00000000
 
ion      s     py     pz     px    dxy    dyz    dz2    dxz    dx2    tot
  1  0.000  0.026  0.026  0.105  0.000  0.000  0.000  0.000  0.000  0.157
  2  0.000  0.026  0.026  0.105  0.000  0.000  0.000  0.000  0.000  0.157
tot  0.000  0.052  0.052  0.210  0.000  0.000  0.000  0.000  0.000  0.314
 
band   7 # energy    8.93023288 # occ.  0.00000000
 
ion      s     py     pz     px    dxy    dyz    dz2    dxz    dx2    tot
  1  0.000  0.079  0.079  0.000  0.000  0.000  0.000  0.000  0.000  0.157
  2  0.000  0.079  0.079  0.000  0.000  0.000  0.000  0.000  0.000  0.157
tot  0.000  0.157  0.157  0.000  0.000  0.000  0.000  0.000  0.000  0.314
 
band   8 # energy   10.86602456 # occ.  0.00000000
 
ion      s     py     pz     px    dxy    dyz    dz2    dxz    dx2    tot
  1  0.191  0.036  0.036  0.036  0.000  0.000  0.000  0.000  0.000  0.298
  2  0.191  0.036  0.036  0.036  0.000  0.000  0.000  0.000  0.000  0.298
tot  0.382  0.071  0.071  0.071  0.000  0.000  0.000  0.000  0.000  0.595
 

 k-point    3 :    0.28571429 0.00000000 0.00000000     weight = 0.02332362

band   1 # energy   -5.09600710 # occ.  2.00000000
 
ion      s     py     pz     px    dxy    dyz    dz2    dxz    dx2    tot
  1  0.211  0.003  0.003  0.003  0.000  0.000  0.000  0.000  0.000  0.222
  2  0.211  0.003  0.003  0.003  0.000  0.000  0.000  0.000  0.000  0.222
tot  0.423  0.007  0.007  0.007  0.000  0.000  0.000  0.000  0.000  0.443
 
band   2 # energy    1.28100623 # occ.  2.00000000
 
ion      s     py     pz     px    dxy    dyz    dz2    dxz    dx2    tot
  1  0.101  0.038  0.038  0.038  0.000  0.000  0.000  0.000  0.000  0.215
  2  0.101  0.038  0.038  0.038  0.000  0.000  0.000  0.000  0.000  0.215
tot  0.201  0.076  0.076  0.076  0.000  0.000  0.000  0.000  0.000  0.429
 
band   3 # energy    4.96347027 # occ.  2.00000000
 
ion      s     py     pz     px    dxy    dyz    dz2    dxz    dx2    tot
  1  0.000  0.036  0.036  0.145  0.000  0.000  0.000  0.000  0.000  0.217
  2  0.000  0.036  0.036  0.145  0.000  0.000  0.000  0.000  0.000  0.217
tot  0.000  0.072  0.072  0.290  0.000  0.000  0.000  0.000  0.000  0.435
 
band   4 # energy    4.96348517 # occ.  2.00000000
 
ion      s     py     pz     px    dxy    dyz    dz2    dxz    dx2    tot
  1  0.000  0.109  0.109  0.000  0.000  0.000  0.000  0.000  0.000  0.217
  2  0.000  0.109  0.109  0.000  0.000  0.000  0.000  0.000  0.000  0.217
tot  0.000  0.217  0.217  0.000  0.000  0.000  0.000  0.000  0.000  0.435
 
band   5 # energy    7.74894547 # occ.  0.00000000
 
ion      s     py     pz     px    dxy    dyz    dz2    dxz    dx2    tot
  1  0.165  0.014  0.014  0.014  0.000  0.000  0.000  0.000  0.000  0.206
  2  0.165  0.014  0.014  0.014  0.000  0.000  0.000  0.000  0.000  0.206
tot  0.330  0.027  0.027  0.027  0.000  0.000  0.000  0.000  0.000  0.411
 
band   6 # energy    9.38356933 # occ.  0.00000000
 
ion      s     py     pz     px    dxy    dyz    dz2    dxz    dx2    tot
  1  0.000  0.022  0.022  0.087  0.000  0.000  0.000  0.000  0.000  0.130
  2  0.000  0.022  0.022  0.087  0.000  0.000  0.000  0.000  0.000  0.130
tot  0.000  0.043  0.043  0.173  0.000  0.000  0.000  0.000  0.000  0.260
 
band   7 # energy    9.38359763 # occ.  0.00000000
 
ion      s     py     pz     px    dxy    dyz    dz2    dxz    dx2    tot
  1  0.000  0.065  0.065  0.000  0.000  0.000  0.000  0.000  0.000  0.130
  2  0.000  0.065  0.065  0.000  0.000  0.000  0.000  0.000  0.000  0.130
tot  0.000  0.130  0.130  0.000  0.000  0.000  0.000  0.000  0.000  0.260
 
band   8 # energy   13.30438634 # occ.  0.00000000
 
ion      s     py     pz     px    dxy    dyz    dz2    dxz    dx2    tot
  1  0.074  0.058  0.047  0.055  0.000  0.000  0.000  0.000  0.000  0.233
  2  0.074  0.048  0.060  0.051  0.000  0.000  0.000  0.000  0.000  0.233
tot  0.147  0.106  0.107  0.106  0.000  0.000  0.000  0.000  0.000  0.466
 

 k-point    4 :    0.42857143 0.00000000 0.00000000     weight = 0.02332362

band   1 # energy   -4.05401867 # occ.  2.00000000
 
ion      s     py     pz     px    dxy    dyz    dz2    dxz    dx2    tot
  1  0.219  0.005  0.005  0.005  0.000  0.000  0.000  0.000  0.000  0.234
  2  0.219  0.005  0.005  0.005  0.000  0.000  0.000  0.000  0.000  0.234
tot  0.438  0.010  0.010  0.010  0.000  0.000  0.000  0.000  0.000  0.468
 
band   2 # energy   -0.75467667 # occ.  2.00000000
 
ion      s     py     pz     px    dxy    dyz    dz2    dxz    dx2    tot
  1  0.104  0.032  0.032  0.032  0.000  0.000  0.000  0.000  0.000  0.200
  2  0.104  0.032  0.032  0.032  0.000  0.000  0.000  0.000  0.000  0.200
tot  0.208  0.064  0.064  0.064  0.000  0.000  0.000  0.000  0.000  0.400
 
band   3 # energy    4.67372618 # occ.  2.00000000
 
ion      s     py     pz     px    dxy    dyz    dz2    dxz    dx2    tot
  1  0.000  0.037  0.037  0.147  0.000  0.000  0.000  0.000  0.000  0.221
  2  0.000  0.037  0.037  0.147  0.000  0.000  0.000  0.000  0.000  0.221
tot  0.000  0.074  0.074  0.294  0.000  0.000  0.000  0.000  0.000  0.441
 
band   4 # energy    4.67374136 # occ.  2.00000000
 
ion      s     py     pz     px    dxy    dyz    dz2    dxz    dx2    tot
  1  0.000  0.110  0.110  0.000  0.000  0.000  0.000  0.000  0.000  0.221
  2  0.000  0.110  0.110  0.000  0.000  0.000  0.000  0.000  0.000  0.221
tot  0.000  0.221  0.221  0.000  0.000  0.000  0.000  0.000  0.000  0.441
 
band   5 # energy    7.42271711 # occ.  0.00000000
 
ion      s     py     pz     px    dxy    dyz    dz2    dxz    dx2    tot
  1  0.185  0.007  0.007  0.007  0.000  0.000  0.000  0.000  0.000  0.207
  2  0.185  0.007  0.007  0.007  0.000  0.000  0.000  0.000  0.000  0.207
tot  0.371  0.015  0.015  0.015  0.000  0.000  0.000  0.000  0.000  0.414
 
band   6 # energy    9.23249892 # occ.  0.00000000
 
ion      s     py     pz     px    dxy    dyz    dz2    dxz    dx2    tot
  1  0.000  0.017  0.017  0.066  0.000  0.000  0.000  0.000  0.000  0.099
  2  0.000  0.017  0.017  0.066  0.000  0.000  0.000  0.000  0.000  0.099
tot  0.000  0.033  0.033  0.132  0.000  0.000  0.000  0.000  0.000  0.199
 
band   7 # energy    9.23252972 # occ.  0.00000000
 
ion      s     py     pz     px    dxy    dyz    dz2    dxz    dx2    tot
  1  0.000  0.050  0.050  0.000  0.000  0.000  0.000  0.000  0.000  0.099
  2  0.000  0.050  0.050  0.000  0.000  0.000  0.000  0.000  0.000  0.099
tot  0.000  0.099  0.099  0.000  0.000  0.000  0.000  0.000  0.000  0.199
 
band   8 # energy   13.62806096 # occ.  0.00000000
 
ion      s     py     pz     px    dxy    dyz    dz2    dxz    dx2    tot
  1  0.005  0.020  0.020  0.020  0.000  0.000  0.000  0.000  0.000  0.065
  2  0.005  0.020  0.020  0.020  0.000  0.000  0.000  0.000  0.000  0.065
tot  0.010  0.040  0.040  0.040  0.000  0.000  0.000  0.000  0.000  0.130
 

 k-point    5 :    0.14285714 0.14285714 0.00000000     weight = 0.01749271

band   1 # energy   -5.77300130 # occ.  2.00000000
 
ion      s     py     pz     px    dxy    dyz    dz2    dxz    dx2    tot
  1  0.213  0.000  0.004  0.000  0.000  0.000  0.000  0.000  0.000  0.217
  2  0.213  0.000  0.004  0.000  0.000  0.000  0.000  0.000  0.000  0.217
tot  0.425  0.000  0.008  0.000  0.000  0.000  0.000  0.000  0.000  0.433
 
band   2 # energy    4.20697985 # occ.  2.00000000
 
ion      s     py     pz     px    dxy    dyz    dz2    dxz    dx2    tot
  1  0.109  0.000  0.140  0.000  0.000  0.000  0.000  0.000  0.000  0.249
  2  0.109  0.000  0.140  0.000  0.000  0.000  0.000  0.000  0.000  0.249
tot  0.218  0.000  0.280  0.000  0.000  0.000  0.000  0.000  0.000  0.498
 
band   3 # energy    4.86359602 # occ.  2.00000038
 
ion      s     py     pz     px    dxy    dyz    dz2    dxz    dx2    tot
  1  0.000  0.103  0.000  0.103  0.000  0.000  0.000  0.000  0.000  0.205
  2  0.000  0.103  0.000  0.103  0.000  0.000  0.000  0.000  0.000  0.205
tot  0.000  0.205  0.000  0.205  0.000  0.000  0.000  0.000  0.000  0.410
 
band   4 # energy    4.86360548 # occ.  2.00000038
 
ion      s     py     pz     px    dxy    dyz    dz2    dxz    dx2    tot
  1  0.000  0.103  0.000  0.103  0.000  0.000  0.000  0.000  0.000  0.205
  2  0.000  0.103  0.000  0.103  0.000  0.000  0.000  0.000  0.000  0.205
tot  0.000  0.205  0.000  0.205  0.000  0.000  0.000  0.000  0.000  0.410
 
band   5 # energy    7.72368990 # occ.  0.00000000
 
ion      s     py     pz     px    dxy    dyz    dz2    dxz    dx2    tot
  1  0.025  0.000  0.113  0.000  0.000  0.000  0.000  0.000  0.000  0.137
  2  0.025  0.000  0.113  0.000  0.000  0.000  0.000  0.000  0.000  0.137
tot  0.049  0.000  0.226  0.000  0.000  0.000  0.000  0.000  0.000  0.275
 
band   6 # energy    9.81720284 # occ.  0.00000000
 
ion      s     py     pz     px    dxy    dyz    dz2    dxz    dx2    tot
  1  0.000  0.084  0.000  0.083  0.000  0.000  0.000  0.000  0.000  0.167
  2  0.000  0.083  0.000  0.084  0.000  0.000  0.000  0.000  0.000  0.167
tot  0.000  0.167  0.000  0.167  0.000  0.000  0.000  0.000  0.000  0.334
 
band   7 # energy    9.81721434 # occ.  0.00000000
 
ion      s     py     pz     px    dxy    dyz    dz2    dxz    dx2    tot
  1  0.000  0.083  0.000  0.084  0.000  0.000  0.000  0.000  0.000  0.167
  2  0.000  0.084  0.000  0.083  0.000  0.000  0.000  0.000  0.000  0.167
tot  0.000  0.167  0.000  0.167  0.000  0.000  0.000  0.000  0.000  0.334
 
band   8 # energy   10.27501645 # occ.  0.00000000
 
ion      s     py     pz     px    dxy    dyz    dz2    dxz    dx2    tot
  1  0.177  0.000  0.076  0.000  0.000  0.000  0.000  0.000  0.000  0.252
  2  0.177  0.000  0.076  0.000  0.000  0.000  0.000  0.000  0.000  0.252
tot  0.353  0.000  0.151  0.000  0.000  0.000  0.000  0.000  0.000  0.504
 

 k-point    6 :    0.28571429 0.14285714 0.00000000     weight = 0.06997085

band   1 # energy   -5.16570073 # occ.  2.00000000
 
ion      s     py     pz     px    dxy    dyz    dz2    dxz    dx2    tot
  1  0.210  0.001  0.008  0.001  0.000  0.000  0.000  0.000  0.000  0.221
  2  0.210  0.001  0.008  0.001  0.000  0.000  0.000  0.000  0.000  0.221
tot  0.421  0.002  0.017  0.002  0.000  0.000  0.000  0.000  0.000  0.441
 
band   2 # energy    2.07749236 # occ.  2.00000000
 
ion      s     py     pz     px    dxy    dyz    dz2    dxz    dx2    tot
  1  0.116  0.031  0.055  0.031  0.000  0.000  0.000  0.000  0.000  0.232
  2  0.116  0.031  0.055  0.031  0.000  0.000  0.000  0.000  0.000  0.232
tot  0.233  0.061  0.109  0.061  0.000  0.000  0.000  0.000  0.000  0.465
 
band   3 # energy    4.28121965 # occ.  2.00000000
 
ion      s     py     pz     px    dxy    dyz    dz2    dxz    dx2    tot
  1  0.031  0.049  0.082  0.049  0.000  0.000  0.000  0.000  0.000  0.210
  2  0.031  0.049  0.082  0.049  0.000  0.000  0.000  0.000  0.000  0.210
tot  0.061  0.097  0.164  0.097  0.000  0.000  0.000  0.000  0.000  0.419
 
band   4 # energy    4.31960248 # occ.  2.00000000
 
ion      s     py     pz     px    dxy    dyz    dz2    dxz    dx2    tot
  1  0.000  0.102  0.000  0.102  0.000  0.000  0.000  0.000  0.000  0.205
  2  0.000  0.102  0.000  0.102  0.000  0.000  0.000  0.000  0.000  0.205
tot  0.000  0.205  0.000  0.205  0.000  0.000  0.000  0.000  0.000  0.409
 
band   5 # energy    7.92024988 # occ.  0.00000000
 
ion      s     py     pz     px    dxy    dyz    dz2    dxz    dx2    tot
  1  0.036  0.012  0.077  0.012  0.000  0.000  0.000  0.000  0.000  0.137
  2  0.036  0.012  0.077  0.012  0.000  0.000  0.000  0.000  0.000  0.137
tot  0.071  0.025  0.154  0.025  0.000  0.000  0.000  0.000  0.000  0.275
 
band   6 # energy    9.75808421 # occ.  0.00000000
 
ion      s     py     pz     px    dxy    dyz    dz2    dxz    dx2    tot
  1  0.096  0.039  0.038  0.039  0.000  0.000  0.000  0.000  0.000  0.212
  2  0.096  0.039  0.038  0.039  0.000  0.000  0.000  0.000  0.000  0.212
tot  0.193  0.078  0.076  0.078  0.000  0.000  0.000  0.000  0.000  0.425
 
band   7 # energy   10.41366757 # occ.  0.00000000
 
ion      s     py     pz     px    dxy    dyz    dz2    dxz    dx2    tot
  1  0.006  0.027  0.008  0.027  0.000  0.000  0.000  0.000  0.000  0.067
  2  0.006  0.027  0.008  0.027  0.000  0.000  0.000  0.000  0.000  0.067
tot  0.013  0.053  0.015  0.053  0.000  0.000  0.000  0.000  0.000  0.135
 
band   8 # energy   10.60531681 # occ.  0.00000000
 
ion      s     py     pz     px    dxy    dyz    dz2    dxz    dx2    tot
  1  0.000  0.076  0.000  0.076  0.000  0.000  0.000  0.000  0.000  0.152
  2  0.000  0.076  0.000  0.076  0.000  0.000  0.000  0.000  0.000  0.152
tot  0.000  0.152  0.000  0.152  0.000  0.000  0.000  0.000  0.000  0.304
 

 k-point    7 :    0.42857143 0.14285714 0.00000000     weight = 0.06997085

band   1 # energy   -4.15563418 # occ.  2.00000000
 
ion      s     py     pz     px    dxy    dyz    dz2    dxz    dx2    tot
  1  0.212  0.003  0.012  0.003  0.000  0.000  0.000  0.000  0.000  0.230
  2  0.212  0.003  0.012  0.003  0.000  0.000  0.000  0.000  0.000  0.230
tot  0.424  0.006  0.024  0.006  0.000  0.000  0.000  0.000  0.000  0.460
 
band   2 # energy   -0.11291691 # occ.  2.00000000
 
ion      s     py     pz     px    dxy    dyz    dz2    dxz    dx2    tot
  1  0.121  0.031  0.032  0.031  0.000  0.000  0.000  0.000  0.000  0.215
  2  0.121  0.031  0.032  0.031  0.000  0.000  0.000  0.000  0.000  0.215
tot  0.242  0.062  0.063  0.062  0.000  0.000  0.000  0.000  0.000  0.430
 
band   3 # energy    3.59120068 # occ.  2.00000000
 
ion      s     py     pz     px    dxy    dyz    dz2    dxz    dx2    tot
  1  0.041  0.034  0.098  0.034  0.000  0.000  0.000  0.000  0.000  0.207
  2  0.041  0.034  0.098  0.034  0.000  0.000  0.000  0.000  0.000  0.207
tot  0.081  0.068  0.197  0.068  0.000  0.000  0.000  0.000  0.000  0.413
 
band   4 # energy    4.13005999 # occ.  2.00000000
 
ion      s     py     pz     px    dxy    dyz    dz2    dxz    dx2    tot
  1  0.000  0.104  0.000  0.104  0.000  0.000  0.000  0.000  0.000  0.209
  2  0.000  0.104  0.000  0.104  0.000  0.000  0.000  0.000  0.000  0.209
tot  0.000  0.209  0.000  0.209  0.000  0.000  0.000  0.000  0.000  0.417
 
band   5 # energy    7.98996245 # occ.  0.00000000
 
ion      s     py     pz     px    dxy    dyz    dz2    dxz    dx2    tot
  1  0.066  0.005  0.059  0.005  0.000  0.000  0.000  0.000  0.000  0.135
  2  0.066  0.005  0.059  0.005  0.000  0.000  0.000  0.000  0.000  0.135
tot  0.132  0.010  0.119  0.010  0.000  0.000  0.000  0.000  0.000  0.270
 
band   6 # energy    9.67688589 # occ.  0.00000000
 
ion      s     py     pz     px    dxy    dyz    dz2    dxz    dx2    tot
  1  0.062  0.036  0.031  0.036  0.000  0.000  0.000  0.000  0.000  0.165
  2  0.062  0.036  0.031  0.036  0.000  0.000  0.000  0.000  0.000  0.165
tot  0.123  0.073  0.061  0.073  0.000  0.000  0.000  0.000  0.000  0.329
 
band   7 # energy   10.38664674 # occ.  0.00000000
 
ion      s     py     pz     px    dxy    dyz    dz2    dxz    dx2    tot
  1  0.000  0.057  0.000  0.057  0.000  0.000  0.000  0.000  0.000  0.115
  2  0.000  0.057  0.000  0.057  0.000  0.000  0.000  0.000  0.000  0.115
tot  0.000  0.115  0.000  0.115  0.000  0.000  0.000  0.000  0.000  0.229
 
band   8 # energy   11.64117939 # occ.  0.00000000
 
ion      s     py     pz     px    dxy    dyz    dz2    dxz    dx2    tot
  1  0.021  0.034  0.021  0.034  0.000  0.000  0.000  0.000  0.000  0.109
  2  0.021  0.034  0.021  0.034  0.000  0.000  0.000  0.000  0.000  0.109
tot  0.043  0.067  0.041  0.067  0.000  0.000  0.000  0.000  0.000  0.219
 

 k-point    8 :   -0.42857143 0.14285714 0.00000000     weight = 0.06997085

band   1 # energy   -3.59536509 # occ.  2.00000000
 
ion      s     py     pz     px    dxy    dyz    dz2    dxz    dx2    tot
  1  0.222  0.006  0.006  0.006  0.000  0.000  0.000  0.000  0.000  0.240
  2  0.222  0.006  0.006  0.006  0.000  0.000  0.000  0.000  0.000  0.240
tot  0.445  0.012  0.012  0.012  0.000  0.000  0.000  0.000  0.000  0.480
 
band   2 # energy   -0.97986586 # occ.  2.00000000
 
ion      s     py     pz     px    dxy    dyz    dz2    dxz    dx2    tot
  1  0.112  0.028  0.034  0.028  0.000  0.000  0.000  0.000  0.000  0.203
  2  0.112  0.028  0.034  0.028  0.000  0.000  0.000  0.000  0.000  0.203
tot  0.225  0.057  0.068  0.057  0.000  0.000  0.000  0.000  0.000  0.406
 
band   3 # energy    3.17535529 # occ.  2.00000000
 
ion      s     py     pz     px    dxy    dyz    dz2    dxz    dx2    tot
  1  0.039  0.033  0.097  0.033  0.000  0.000  0.000  0.000  0.000  0.201
  2  0.039  0.033  0.097  0.033  0.000  0.000  0.000  0.000  0.000  0.201
tot  0.079  0.066  0.193  0.066  0.000  0.000  0.000  0.000  0.000  0.403
 
band   4 # energy    4.32844637 # occ.  2.00000000
 
ion      s     py     pz     px    dxy    dyz    dz2    dxz    dx2    tot
  1  0.000  0.107  0.000  0.107  0.000  0.000  0.000  0.000  0.000  0.214
  2  0.000  0.107  0.000  0.107  0.000  0.000  0.000  0.000  0.000  0.214
tot  0.000  0.214  0.000  0.214  0.000  0.000  0.000  0.000  0.000  0.428
 
band   5 # energy    8.09023849 # occ.  0.00000000
 
ion      s     py     pz     px    dxy    dyz    dz2    dxz    dx2    tot
  1  0.088  0.001  0.058  0.001  0.000  0.000  0.000  0.000  0.000  0.148
  2  0.088  0.001  0.058  0.001  0.000  0.000  0.000  0.000  0.000  0.148
tot  0.176  0.002  0.117  0.002  0.000  0.000  0.000  0.000  0.000  0.296
 
band   6 # energy    9.58354307 # occ.  0.00000000
 
ion      s     py     pz     px    dxy    dyz    dz2    dxz    dx2    tot
  1  0.049  0.026  0.043  0.026  0.000  0.000  0.000  0.000  0.000  0.143
  2  0.049  0.026  0.043  0.026  0.000  0.000  0.000  0.000  0.000  0.143
tot  0.097  0.052  0.086  0.052  0.000  0.000  0.000  0.000  0.000  0.287
 
band   7 # energy    9.98536241 # occ.  0.00000000
 
ion      s     py     pz     px    dxy    dyz    dz2    dxz    dx2    tot
  1  0.000  0.052  0.000  0.052  0.000  0.000  0.000  0.000  0.000  0.105
  2  0.000  0.052  0.000  0.052  0.000  0.000  0.000  0.000  0.000  0.105
tot  0.000  0.105  0.000  0.105  0.000  0.000  0.000  0.000  0.000  0.210
 
band   8 # energy   14.02578460 # occ.  0.00000000
 
ion      s     py     pz     px    dxy    dyz    dz2    dxz    dx2    tot
  1  0.004  0.041  0.047  0.041  0.000  0.000  0.000  0.000  0.000  0.135
  2  0.004  0.041  0.047  0.041  0.000  0.000  0.000  0.000  0.000  0.135
tot  0.009  0.083  0.095  0.083  0.000  0.000  0.000  0.000  0.000  0.269
 

 k-point    9 :   -0.28571429 0.14285714 0.00000000     weight = 0.06997085

band   1 # energy   -4.52464034 # occ.  2.00000000
 
ion      s     py     pz     px    dxy    dyz    dz2    dxz    dx2    tot
  1  0.211  0.007  0.002  0.007  0.000  0.000  0.000  0.000  0.000  0.226
  2  0.211  0.007  0.002  0.007  0.000  0.000  0.000  0.000  0.000  0.226
tot  0.421  0.014  0.003  0.014  0.000  0.000  0.000  0.000  0.000  0.452
 
band   2 # energy    0.56918257 # occ.  2.00000000
 
ion      s     py     pz     px    dxy    dyz    dz2    dxz    dx2    tot
  1  0.121  0.030  0.039  0.030  0.000  0.000  0.000  0.000  0.000  0.221
  2  0.121  0.030  0.039  0.030  0.000  0.000  0.000  0.000  0.000  0.221
tot  0.242  0.061  0.079  0.061  0.000  0.000  0.000  0.000  0.000  0.442
 
band   3 # energy    3.17854177 # occ.  2.00000000
 
ion      s     py     pz     px    dxy    dyz    dz2    dxz    dx2    tot
  1  0.029  0.035  0.095  0.035  0.000  0.000  0.000  0.000  0.000  0.194
  2  0.029  0.035  0.095  0.035  0.000  0.000  0.000  0.000  0.000  0.194
tot  0.059  0.069  0.191  0.069  0.000  0.000  0.000  0.000  0.000  0.388
 
band   4 # energy    4.84444947 # occ.  2.00000000
 
ion      s     py     pz     px    dxy    dyz    dz2    dxz    dx2    tot
  1  0.000  0.110  0.000  0.110  0.000  0.000  0.000  0.000  0.000  0.219
  2  0.000  0.110  0.000  0.110  0.000  0.000  0.000  0.000  0.000  0.219
tot  0.000  0.219  0.000  0.219  0.000  0.000  0.000  0.000  0.000  0.439
 
band   5 # energy    8.49771022 # occ.  0.00000000
 
ion      s     py     pz     px    dxy    dyz    dz2    dxz    dx2    tot
  1  0.103  0.000  0.072  0.000  0.000  0.000  0.000  0.000  0.000  0.175
  2  0.103  0.000  0.072  0.000  0.000  0.000  0.000  0.000  0.000  0.175
tot  0.205  0.000  0.145  0.000  0.000  0.000  0.000  0.000  0.000  0.350
 
band   6 # energy    9.74627040 # occ.  0.00000000
 
ion      s     py     pz     px    dxy    dyz    dz2    dxz    dx2    tot
  1  0.000  0.064  0.000  0.064  0.000  0.000  0.000  0.000  0.000  0.127
  2  0.000  0.064  0.000  0.064  0.000  0.000  0.000  0.000  0.000  0.127
tot  0.000  0.127  0.000  0.127  0.000  0.000  0.000  0.000  0.000  0.254
 
band   7 # energy    9.78489536 # occ.  0.00000000
 
ion      s     py     pz     px    dxy    dyz    dz2    dxz    dx2    tot
  1  0.028  0.018  0.069  0.018  0.000  0.000  0.000  0.000  0.000  0.133
  2  0.028  0.018  0.069  0.018  0.000  0.000  0.000  0.000  0.000  0.133
tot  0.055  0.036  0.137  0.036  0.000  0.000  0.000  0.000  0.000  0.265
 
band   8 # energy   12.51177215 # occ.  0.00000000
 
ion      s     py     pz     px    dxy    dyz    dz2    dxz    dx2    tot
  1  0.049  0.034  0.055  0.028  0.000  0.000  0.000  0.000  0.000  0.165
  2  0.049  0.028  0.055  0.034  0.000  0.000  0.000  0.000  0.000  0.165
tot  0.097  0.062  0.110  0.062  0.000  0.000  0.000  0.000  0.000  0.331
 

 k-point   10 :   -0.14285714 0.14285714 0.00000000     weight = 0.03498542

band   1 # energy   -5.42660493 # occ.  2.00000000
 
ion      s     py     pz     px    dxy    dyz    dz2    dxz    dx2    tot
  1  0.211  0.004  0.000  0.004  0.000  0.000  0.000  0.000  0.000  0.219
  2  0.211  0.004  0.000  0.004  0.000  0.000  0.000  0.000  0.000  0.219
tot  0.423  0.007  0.000  0.007  0.000  0.000  0.000  0.000  0.000  0.438
 
band   2 # energy    2.69826295 # occ.  2.00000000
 
ion      s     py     pz     px    dxy    dyz    dz2    dxz    dx2    tot
  1  0.111  0.046  0.033  0.046  0.000  0.000  0.000  0.000  0.000  0.236
  2  0.111  0.046  0.033  0.046  0.000  0.000  0.000  0.000  0.000  0.236
tot  0.222  0.092  0.065  0.092  0.000  0.000  0.000  0.000  0.000  0.471
 
band   3 # energy    3.86824746 # occ.  2.00000000
 
ion      s     py     pz     px    dxy    dyz    dz2    dxz    dx2    tot
  1  0.009  0.031  0.116  0.031  0.000  0.000  0.000  0.000  0.000  0.188
  2  0.009  0.031  0.116  0.031  0.000  0.000  0.000  0.000  0.000  0.188
tot  0.019  0.063  0.233  0.063  0.000  0.000  0.000  0.000  0.000  0.377
 
band   4 # energy    5.43897342 # occ.  2.00000000
 
ion      s     py     pz     px    dxy    dyz    dz2    dxz    dx2    tot
  1  0.000  0.112  0.000  0.112  0.000  0.000  0.000  0.000  0.000  0.223
  2  0.000  0.112  0.000  0.112  0.000  0.000  0.000  0.000  0.000  0.223
tot  0.000  0.223  0.000  0.223  0.000  0.000  0.000  0.000  0.000  0.447
 
band   5 # energy    8.90442266 # occ.  0.00000000
 
ion      s     py     pz     px    dxy    dyz    dz2    dxz    dx2    tot
  1  0.103  0.000  0.098  0.000  0.000  0.000  0.000  0.000  0.000  0.202
  2  0.103  0.000  0.098  0.000  0.000  0.000  0.000  0.000  0.000  0.202
tot  0.206  0.000  0.197  0.000  0.000  0.000  0.000  0.000  0.000  0.403
 
band   6 # energy    9.13737137 # occ.  0.00000000
 
ion      s     py     pz     px    dxy    dyz    dz2    dxz    dx2    tot
  1  0.000  0.076  0.000  0.076  0.000  0.000  0.000  0.000  0.000  0.152
  2  0.000  0.076  0.000  0.076  0.000  0.000  0.000  0.000  0.000  0.152
tot  0.000  0.152  0.000  0.152  0.000  0.000  0.000  0.000  0.000  0.304
 
band   7 # energy    9.40264053 # occ.  0.00000000
 
ion      s     py     pz     px    dxy    dyz    dz2    dxz    dx2    tot
  1  0.028  0.016  0.096  0.016  0.000  0.000  0.000  0.000  0.000  0.156
  2  0.028  0.016  0.096  0.016  0.000  0.000  0.000  0.000  0.000  0.156
tot  0.056  0.031  0.193  0.031  0.000  0.000  0.000  0.000  0.000  0.311
 
band   8 # energy   11.48582033 # occ.  0.00000000
 
ion      s     py     pz     px    dxy    dyz    dz2    dxz    dx2    tot
  1  0.084  0.051  0.000  0.051  0.000  0.000  0.000  0.000  0.000  0.187
  2  0.084  0.051  0.000  0.051  0.000  0.000  0.000  0.000  0.000  0.187
tot  0.167  0.102  0.001  0.102  0.000  0.000  0.000  0.000  0.000  0.373
 

 k-point   11 :    0.28571429 0.28571429 0.00000000     weight = 0.01749271

band   1 # energy   -4.72131227 # occ.  2.00000000
 
ion      s     py     pz     px    dxy    dyz    dz2    dxz    dx2    tot
  1  0.207  0.000  0.016  0.000  0.000  0.000  0.000  0.000  0.000  0.223
  2  0.207  0.000  0.016  0.000  0.000  0.000  0.000  0.000  0.000  0.223
tot  0.415  0.000  0.031  0.000  0.000  0.000  0.000  0.000  0.000  0.446
 
band   2 # energy    1.67612856 # occ.  2.00000000
 
ion      s     py     pz     px    dxy    dyz    dz2    dxz    dx2    tot
  1  0.165  0.000  0.092  0.000  0.000  0.000  0.000  0.000  0.000  0.257
  2  0.165  0.000  0.092  0.000  0.000  0.000  0.000  0.000  0.000  0.257
tot  0.330  0.000  0.183  0.000  0.000  0.000  0.000  0.000  0.000  0.514
 
band   3 # energy    3.69580228 # occ.  2.00000000
 
ion      s     py     pz     px    dxy    dyz    dz2    dxz    dx2    tot
  1  0.000  0.101  0.000  0.101  0.000  0.000  0.000  0.000  0.000  0.201