<?xml version="1.0" encoding="ISO-8859-1"?>
<modeling>
 <generator>
  <i name="program" type="string">vasp </i>
  <i name="version" type="string">5.4.1  </i>
  <i name="subversion" type="string">05Feb16 (build Mar 02 2016 14:09:44) complex                          parallel </i>
  <i name="platform" type="string">Abel-impi-ifc-cuda </i>
  <i name="date" type="string">2019 09 27 </i>
  <i name="time" type="string">09:42:23 </i>
 </generator>
 <incar>
  <i type="string" name="PREC">normal    ! low/normal/accurate</i>
  <i type="string" name="ALGO"> Fast      ! Algorithm for electronic re</i>
  <i type="int" name="ISPIN">     1</i>
  <i type="int" name="NELMIN">     4</i>
  <i name="EDIFF">      0.00000100</i>
  <i type="int" name="NSW">     0</i>
  <i name="ENCUT">    250.00000000</i>
  <i type="int" name="NEDOS">  2401</i>
  <i type="string" name="LREAL"> Auto      ! Projection in reciprocal sp</i>
  <i name="EMIN">    -12.00000000</i>
  <i name="EMAX">     12.00000000</i>
  <i type="int" name="ISMEAR">    -5</i>
  <i name="SIGMA">      0.20000000</i>
  <i type="logical" name="LWAVE"> F  </i>
  <i type="logical" name="LORBIT"> F  </i>
  <i type="logical" name="LELF"> T  </i>
  <v type="int" name="KPOINT_BSE">    -1     0     0     0</v>
 </incar>
 <kpoints>
  <generation param="Gamma">
   <v type="int" name="divisions">       7        7        7 </v>
   <v name="usershift">      0.00000000       0.00000000       0.00000000 </v>
   <v name="genvec1">      0.14285714       0.00000000       0.00000000 </v>
   <v name="genvec2">      0.00000000       0.14285714       0.00000000 </v>
   <v name="genvec3">      0.00000000       0.00000000       0.14285714 </v>
   <v name="shift">      0.00000000       0.00000000       0.00000000 </v>
  </generation>
  <varray name="kpointlist" >
   <v>       0.00000000       0.00000000       0.00000000 </v>
   <v>       0.14285714       0.00000000       0.00000000 </v>
   <v>       0.28571429       0.00000000       0.00000000 </v>
   <v>       0.42857143       0.00000000       0.00000000 </v>
   <v>       0.14285714       0.14285714       0.00000000 </v>
   <v>       0.28571429       0.14285714       0.00000000 </v>
   <v>       0.42857143       0.14285714       0.00000000 </v>
   <v>      -0.42857143       0.14285714       0.00000000 </v>
   <v>      -0.28571429       0.14285714       0.00000000 </v>
   <v>      -0.14285714       0.14285714       0.00000000 </v>
   <v>       0.28571429       0.28571429       0.00000000 </v>
   <v>       0.42857143       0.28571429       0.00000000 </v>
   <v>      -0.42857143       0.28571429       0.00000000 </v>
   <v>      -0.28571429       0.28571429       0.00000000 </v>
   <v>       0.42857143       0.42857143       0.00000000 </v>
   <v>      -0.42857143       0.42857143       0.00000000 </v>
   <v>       0.42857143       0.28571429       0.14285714 </v>
   <v>      -0.42857143       0.28571429       0.14285714 </v>
   <v>      -0.42857143       0.42857143       0.14285714 </v>
   <v>      -0.28571429       0.42857143       0.14285714 </v>
  </varray>
  <varray name="weights" >
   <v>       0.00291545 </v>
   <v>       0.02332362 </v>
   <v>       0.02332362 </v>
   <v>       0.02332362 </v>
   <v>       0.01749271 </v>
   <v>       0.06997085 </v>
   <v>       0.06997085 </v>
   <v>       0.06997085 </v>
   <v>       0.06997085 </v>
   <v>       0.03498542 </v>
   <v>       0.01749271 </v>
   <v>       0.06997085 </v>
   <v>       0.06997085 </v>
   <v>       0.03498542 </v>
   <v>       0.01749271 </v>
   <v>       0.03498542 </v>
   <v>       0.06997085 </v>
   <v>       0.13994169 </v>
   <v>       0.06997085 </v>
   <v>       0.06997085 </v>
  </varray>
  <varray name="tetrahedronlist"  type="int" >
   <v type="int" >       24        1        2        2        5 </v>
   <v type="int" >       48        2        5        6       10 </v>
   <v type="int" >       48        2        3        6       10 </v>
   <v type="int" >       24        2        2        5       10 </v>
   <v type="int" >       48        3        6        7        9 </v>
   <v type="int" >       48        3        4        7        9 </v>
   <v type="int" >       48        3        6        9       10 </v>
   <v type="int" >       48        4        7        8        8 </v>
   <v type="int" >       24        4        4        8        8 </v>
   <v type="int" >       48        4        7        8        9 </v>
   <v type="int" >       24        5        6        6       11 </v>
   <v type="int" >       24        5        6        6       10 </v>
   <v type="int" >       48        6       11       12       17 </v>
   <v type="int" >       48        6        7       12       17 </v>
   <v type="int" >       48        6        7        9       17 </v>
   <v type="int" >       24        6        6       11       17 </v>
   <v type="int" >       24        6        6       10       17 </v>
   <v type="int" >       48        6        9       10       17 </v>
   <v type="int" >       48        7       12       13       18 </v>
   <v type="int" >       48        7        8       13       18 </v>
   <v type="int" >       48        7        8        8       18 </v>
   <v type="int" >       48        7       12       17       18 </v>
   <v type="int" >       48        7        9       17       18 </v>
   <v type="int" >       48        7        8        9       18 </v>
   <v type="int" >       48        8       13       14       18 </v>
   <v type="int" >       48        8        9       14       18 </v>
   <v type="int" >       48        8       13       18       18 </v>
   <v type="int" >       24        8        8       18       18 </v>
   <v type="int" >       24        9        9       14       17 </v>
   <v type="int" >       24        9        9       10       17 </v>
   <v type="int" >       48        9       14       17       18 </v>
   <v type="int" >       24       11       12       12       15 </v>
   <v type="int" >       24       11       12       12       17 </v>
   <v type="int" >       48       12       15       16       19 </v>
   <v type="int" >       48       12       13       16       19 </v>
   <v type="int" >       48       12       13       18       19 </v>
   <v type="int" >       24       12       12       15       19 </v>
   <v type="int" >       24       12       12       17       19 </v>
   <v type="int" >       48       12       17       18       19 </v>
   <v type="int" >       24       13       13       16       20 </v>
   <v type="int" >       24       13       13       14       20 </v>
   <v type="int" >       48       13       14       18       20 </v>
   <v type="int" >       48       13       16       19       20 </v>
   <v type="int" >       48       13       18       19       20 </v>
   <v type="int" >       48       13       18       18       20 </v>
   <v type="int" >       24       14       18       18       20 </v>
   <v type="int" >       24       14       17       18       18 </v>
   <v type="int" >       12       15       15       16       16 </v>
   <v type="int" >       24       15       16       16       19 </v>
   <v type="int" >       12       16       16       19       19 </v>
   <v type="int" >       24       16       19       19       20 </v>
   <v type="int" >       24       17       18       18       19 </v>
   <v type="int" >       48       18       19       20       20 </v>
   <v type="int" >       24       18       18       20       20 </v>
   <v type="int" >       24       18       18       19       20 </v>
   <v type="int" >       12       19       19       20       20 </v>
   <v type="int" >       24       19       20       20       20 </v>
   <v type="int" >        6       20       20       20       20 </v>
  </varray>
  <i name="volumeweight">      0.00048591 </i>
 </kpoints>
 <parameters>
  <separator name="general" >
   <i type="string" name="SYSTEM">unknown system</i>
   <i type="logical" name="LCOMPAT"> F  </i>
  </separator>
  <separator name="electronic" >
   <i type="string" name="PREC">normal</i>
   <i name="ENMAX">    250.00000000</i>
   <i name="ENAUG">    322.06900000</i>
   <i name="EDIFF">      0.00000100</i>
   <i type="int" name="IALGO">    68</i>
   <i type="int" name="IWAVPR">    10</i>
   <i type="int" name="NBANDS">     8</i>
   <i name="NELECT">      8.00000000</i>
   <i type="int" name="TURBO">     0</i>
   <i type="int" name="IRESTART">     0</i>
   <i type="int" name="NREBOOT">     0</i>
   <i type="int" name="NMIN">     0</i>
   <i name="EREF">      0.00000000</i>
   <separator name="electronic smearing" >
    <i type="int" name="ISMEAR">    -5</i>
    <i name="SIGMA">      0.20000000</i>
    <i name="KSPACING">      0.50000000</i>
    <i type="logical" name="KGAMMA"> T  </i>
   </separator>
   <separator name="electronic projectors" >
    <i type="logical" name="LREAL"> T  </i>
    <v name="ROPT">     -0.00050000</v>
    <i type="int" name="LMAXPAW">  -100</i>
    <i type="int" name="LMAXMIX">     2</i>
    <i type="logical" name="NLSPLINE"> F  </i>
   </separator>
   <separator name="electronic startup" >
    <i type="int" name="ISTART">     0</i>
    <i type="int" name="ICHARG">     2</i>
    <i type="int" name="INIWAV">     1</i>
   </separator>
   <separator name="electronic spin" >
    <i type="int" name="ISPIN">     1</i>
    <i type="logical" name="LNONCOLLINEAR"> F  </i>
    <v name="MAGMOM">      1.00000000      1.00000000</v>
    <i name="NUPDOWN">     -1.00000000</i>
    <i type="logical" name="LSORBIT"> F  </i>
    <v name="SAXIS">      0.00000000      0.00000000      1.00000000</v>
    <i type="logical" name="LSPIRAL"> F  </i>
    <v name="QSPIRAL">      0.00000000      0.00000000      0.00000000</v>
    <i type="logical" name="LZEROZ"> F  </i>
   </separator>
   <separator name="electronic exchange-correlation" >
    <i type="logical" name="LASPH"> F  </i>
    <i type="logical" name="LMETAGGA"> F  </i>
   </separator>
   <separator name="electronic convergence" >
    <i type="int" name="NELM">    60</i>
    <i type="int" name="NELMDL">     0</i>
    <i type="int" name="NELMIN">     4</i>
    <i name="ENINI">    250.00000000</i>
    <separator name="electronic convergence detail" >
     <i type="logical" name="LDIAG"> T  </i>
     <i type="logical" name="LSUBROT"> F  </i>
     <i name="WEIMIN">      0.00000000</i>
     <i name="EBREAK">      0.00000003</i>
     <i name="DEPER">      0.30000000</i>
     <i type="int" name="NRMM">     4</i>
     <i name="TIME">      0.40000000</i>
    </separator>
   </separator>
   <separator name="electronic mixer" >
    <i name="AMIX">      0.40000000</i>
    <i name="BMIX">      1.00000000</i>
    <i name="AMIN">      0.10000000</i>
    <i name="AMIX_MAG">      1.60000000</i>
    <i name="BMIX_MAG">      1.00000000</i>
    <separator name="electronic mixer details" >
     <i type="int" name="IMIX">     4</i>
     <i type="logical" name="MIXFIRST"> F  </i>
     <i type="int" name="MAXMIX">   -45</i>
     <i name="WC">    100.00000000</i>
     <i type="int" name="INIMIX">     1</i>
     <i type="int" name="MIXPRE">     1</i>
     <i type="int" name="MREMOVE">     5</i>
    </separator>
   </separator>
   <separator name="electronic dipolcorrection" >
    <i type="logical" name="LDIPOL"> F  </i>
    <i type="logical" name="LMONO"> F  </i>
    <i type="int" name="IDIPOL">     0</i>
    <i name="EPSILON">      1.00000000</i>
    <v name="DIPOL">   -100.00000000   -100.00000000   -100.00000000</v>
    <i name="EFIELD">      0.00000000</i>
   </separator>
  </separator>
  <separator name="grids" >
   <i type="int" name="NGX">    16</i>
   <i type="int" name="NGY">    16</i>
   <i type="int" name="NGZ">    16</i>
   <i type="int" name="NGXF">    32</i>
   <i type="int" name="NGYF">    32</i>
   <i type="int" name="NGZF">    32</i>
   <i type="logical" name="ADDGRID"> F  </i>
  </separator>
  <separator name="ionic" >
   <i type="int" name="NSW">     0</i>
   <i type="int" name="IBRION">    -1</i>
   <i type="int" name="ISIF">     2</i>
   <i name="PSTRESS">      0.00000000</i>
   <i name="EDIFFG">      0.00001000</i>
   <i type="int" name="NFREE">     0</i>
   <i name="POTIM">      0.50000000</i>
   <i name="SMASS">     -3.00000000</i>
   <i name="SCALEE">      1.00000000</i>
  </separator>
  <separator name="ionic md" >
   <i name="TEBEG">      0.00010000</i>
   <i name="TEEND">      0.00010000</i>
   <i type="int" name="NBLOCK">     1</i>
   <i type="int" name="KBLOCK">     1</i>
   <i type="int" name="NPACO">   256</i>
   <i name="APACO">     16.00000000</i>
  </separator>
  <separator name="symmetry" >
   <i type="int" name="ISYM">     2</i>
   <i name="SYMPREC">      0.00001000</i>
  </separator>
  <separator name="dos" >
   <i type="logical" name="LORBIT"> F  </i>
   <v name="RWIGS">     -1.00000000</v>
   <i type="int" name="NEDOS">  2401</i>
   <i name="EMIN">    -12.00000000</i>
   <i name="EMAX">     12.00000000</i>
   <i name="EFERMI">      0.00000000</i>
  </separator>
  <separator name="writing" >
   <i type="int" name="NWRITE">     2</i>
   <i type="logical" name="LWAVE"> F  </i>
   <i type="logical" name="LCHARG"> T  </i>
   <i type="logical" name="LPARD"> F  </i>
   <i type="logical" name="LVTOT"> F  </i>
   <i type="logical" name="LVHAR"> F  </i>
   <i type="logical" name="LELF"> T  </i>
   <i type="logical" name="LOPTICS"> F  </i>
   <v name="STM">      0.00000000      0.00000000      0.00000000      0.00000000      0.00000000      0.00000000      0.00000000</v>
  </separator>
  <separator name="performance" >
   <i type="int" name="NPAR">     1</i>
   <i type="int" name="NSIM">     4</i>
   <i type="int" name="NBLK">    -1</i>
   <i type="logical" name="LPLANE"> T  </i>
   <i type="logical" name="LSCALAPACK"> F  </i>
   <i type="logical" name="LSCAAWARE"> F  </i>
   <i type="logical" name="LSCALU"> F  </i>
   <i type="logical" name="LASYNC"> F  </i>
   <i type="logical" name="LORBITALREAL"> F  </i>
  </separator>
  <separator name="miscellaneous" >
   <i type="int" name="IDIOT">     3</i>
   <i type="logical" name="LMUSIC"> F  </i>
   <v name="POMASS">     28.08500000</v>
   <v name="DARWINR">      0.00000000</v>
   <v name="DARWINV">      1.00000000</v>
   <i type="logical" name="LCORR"> T  </i>
  </separator>
  <i type="logical" name="GGA_COMPAT"> T  </i>
  <i type="logical" name="LBERRY"> F  </i>
  <i type="int" name="ICORELEVEL">     0</i>
  <i type="logical" name="LDAU"> F  </i>
  <i type="int" name="I_CONSTRAINED_M">     0</i>
  <separator name="electronic exchange-correlation" >
   <i type="string" name="GGA">--</i>
   <i type="int" name="VOSKOWN">     0</i>
   <i type="logical" name="LHFCALC"> F  </i>
   <i type="string" name="PRECFOCK"></i>
   <i type="logical" name="LSYMGRAD"> F  </i>
   <i type="logical" name="LHFONE"> F  </i>
   <i type="logical" name="LRHFCALC"> F  </i>
   <i type="logical" name="LTHOMAS"> F  </i>
   <i type="logical" name="LMODELHF"> F  </i>
   <i name="ENCUT4O">     -1.00000000</i>
   <i type="int" name="EXXOEP">     0</i>
   <i type="int" name="FOURORBIT">     0</i>
   <i name="AEXX">      0.00000000</i>
   <i name="HFALPHA">      0.00000000</i>
   <i name="MCALPHA">      0.00000000</i>
   <i name="ALDAX">      1.00000000</i>
   <i name="AGGAX">      1.00000000</i>
   <i name="ALDAC">      1.00000000</i>
   <i name="AGGAC">      1.00000000</i>
   <i type="int" name="NKREDX">     1</i>
   <i type="int" name="NKREDY">     1</i>
   <i type="int" name="NKREDZ">     1</i>
   <i type="logical" name="SHIFTRED"> F  </i>
   <i type="logical" name="ODDONLY"> F  </i>
   <i type="logical" name="EVENONLY"> F  </i>
   <i type="int" name="LMAXFOCK">     0</i>
   <i type="int" name="NMAXFOCKAE">     0</i>
   <i type="logical" name="LFOCKAEDFT"> F  </i>
   <i name="HFSCREEN">      0.00000000</i>
   <i name="HFSCREENC">      0.00000000</i>
   <i type="int" name="NBANDSGWLOW">     0</i>
  </separator>
  <separator name="vdW DFT" >
   <i type="logical" name="LUSE_VDW"> F  </i>
   <i name="Zab_VDW">     -0.84910000</i>
   <i name="PARAM1">      0.12340000</i>
   <i name="PARAM2">      1.00000000</i>
   <i name="PARAM3">      0.00000000</i>
  </separator>
  <separator name="model GW" >
   <i type="int" name="MODEL_GW">     0</i>
   <i name="MODEL_EPS0">     12.01303359</i>
   <i name="MODEL_ALPHA">      1.00000000</i>
  </separator>
  <separator name="linear response parameters" >
   <i type="logical" name="LEPSILON"> F  </i>
   <i type="logical" name="LRPA"> F  </i>
   <i type="logical" name="LNABLA"> F  </i>
   <i type="logical" name="LVEL"> F  </i>
   <i type="int" name="KINTER">     0</i>
   <i name="CSHIFT">      0.10000000</i>
   <i name="OMEGAMAX">     -1.00000000</i>
   <i name="DEG_THRESHOLD">      0.00200000</i>
  </separator>
  <separator name="orbital magnetization" >
   <i type="logical" name="NUCIND"> F  </i>
   <v name="MAGPOS">      0.00000000      0.00000000      0.00000000</v>
   <i type="logical" name="LNICSALL"> T  </i>
   <i type="logical" name="ORBITALMAG"> F  </i>
   <i type="logical" name="LMAGBLOCH"> F  </i>
   <i type="logical" name="LCHIMAG"> F  </i>
   <i type="logical" name="LGAUGE"> T  </i>
   <i type="int" name="MAGATOM">     0</i>
   <v name="MAGDIPOL">      0.00000000      0.00000000      0.00000000</v>
   <v name="AVECCONST">      0.00000000      0.00000000      0.00000000</v>
  </separator>
  <separator name="response functions" >
   <i type="logical" name="LADDER"> F  </i>
   <i type="logical" name="LFXC"> F  </i>
   <i type="logical" name="LHARTREE"> T  </i>
   <i type="int" name="IBSE">     0</i>
   <v type="int" name="KPOINT">    -1     0     0     0</v>
   <i type="logical" name="LTCTE"> F  </i>
   <i type="logical" name="LTETE"> F  </i>
   <i type="logical" name="LTRIPLET"> F  </i>
   <i type="logical" name="LFXCEPS"> F  </i>
   <i type="logical" name="LFXHEG"> F  </i>
   <i type="int" name="NATURALO">     0</i>
   <i type="logical" name="L2ORDER"> F  </i>
   <i type="logical" name="LUSEW"> F  </i>
   <i name="ENCUTGW">     -2.00000000</i>
   <i name="ENCUTGWSOFT">     -2.00000000</i>
   <i name="ENCUTLF">     -1.00000000</i>
   <i type="int" name="LMAXMP2">    -1</i>
   <i name="SCISSOR">      0.00000000</i>
   <i type="int" name="NOMEGA">     0</i>
   <i type="int" name="NOMEGAR">     0</i>
   <i type="int" name="NBANDSGW">    -1</i>
   <i type="int" name="NBANDSO">    -1</i>
   <i type="int" name="NBANDSV">    -1</i>
   <i type="int" name="NELM">     1</i>
   <i type="int" name="NELMHF">     1</i>
   <i type="int" name="DIM">     3</i>
   <i type="int" name="ANTIRES">     0</i>
   <i name="OMEGAMAX">    -30.00000000</i>
   <i name="OMEGAMIN">    -30.00000000</i>
   <i name="OMEGATL">   -200.00000000</i>
   <i type="int" name="OMEGAGRID">     0</i>
   <i name="CSHIFT">     -0.10000000</i>
   <i type="logical" name="SELFENERGY"> F  </i>
   <i type="logical" name="LSPECTRAL"> F  </i>
   <i type="logical" name="LSPECTRALGW"> F  </i>
   <i type="logical" name="LSINGLES"> F  </i>
   <i type="logical" name="LFERMIGW"> F  </i>
   <i type="logical" name="ODDONLYGW"> F  </i>
   <i type="logical" name="EVENONLYGW"> F  </i>
   <i type="int" name="NKREDLFX">     1</i>
   <i type="int" name="NKREDLFY">     1</i>
   <i type="int" name="NKREDLFZ">     1</i>
   <i type="int" name="MAXMEM">  1800</i>
   <i type="int" name="TELESCOPE">     0</i>
   <i type="int" name="TAUPAR">     1</i>
   <i type="int" name="OMEGAPAR">    -1</i>
   <i name="LAMBDA">      1.00000000</i>
  </separator>
  <separator name="External order field" >
   <i name="OFIELD_KAPPA">      0.00000000</i>
   <v name="OFIELD_K">      0.00000000      0.00000000      0.00000000</v>
   <i name="OFIELD_Q6_NEAR">      0.00000000</i>
   <i name="OFIELD_Q6_FAR">      0.00000000</i>
   <i name="OFIELD_A">      0.00000000</i>
  </separator>
 </parameters>
 <atominfo>
  <atoms>       2 </atoms>
  <types>       1 </types>
  <array name="atoms" >
   <dimension dim="1">ion</dimension>
   <field type="string">element</field>
   <field type="int">atomtype</field>
   <set>
    <rc><c>Si</c><c>   1</c></rc>
    <rc><c>Si</c><c>   1</c></rc>
   </set>
  </array>
  <array name="atomtypes" >
   <dimension dim="1">type</dimension>
   <field type="int">atomspertype</field>
   <field type="string">element</field>
   <field>mass</field>
   <field>valence</field>
   <field type="string">pseudopotential</field>
   <set>
    <rc><c>   2</c><c>Si</c><c>     28.08500000</c><c>      4.00000000</c><c> PAW_PBE Si 05Jan2001                   </c></rc>
   </set>
  </array>
 </atominfo>
 <structure name="initialpos" >
  <crystal>
   <varray name="basis" >
    <v>       0.00000000       2.71540000       2.71540000 </v>
    <v>       2.71540000       0.00000000       2.71540000 </v>
    <v>       2.71540000       2.71540000       0.00000000 </v>
   </varray>
   <i name="volume">     40.04344530 </i>
   <varray name="rec_basis" >
    <v>      -0.18413493       0.18413493       0.18413493 </v>
    <v>       0.18413493      -0.18413493       0.18413493 </v>
    <v>       0.18413493       0.18413493      -0.18413493 </v>
   </varray>
  </crystal>
  <varray name="positions" >
   <v>       0.00000000       0.00000000       0.00000000 </v>
   <v>       0.25000000       0.25000000       0.25000000 </v>
  </varray>
 </structure>
 <calculation>
  <scstep>
   <time name="dav">    0.05    0.05</time>
   <time name="total">    0.06    0.13</time>
   <energy>
    <i name="alphaZ">      3.36265555 </i>
    <i name="ewald">   -228.52985570 </i>
    <i name="hartreedc">    -11.00771605 </i>
    <i name="XCdc">    -18.60355020 </i>
    <i name="pawpsdc">     65.95520812 </i>
    <i name="pawaedc">    -30.76852678 </i>
    <i name="eentropy">      0.00000000 </i>
    <i name="bandstr">     14.47532116 </i>
    <i name="atom">    206.12349923 </i>
    <i name="e_fr_energy">      1.00703532 </i>
    <i name="e_wo_entrp">      1.00703532 </i>
    <i name="e_0_energy">      1.00703532 </i>
   </energy>
  </scstep>
  <scstep>
   <time name="dav">    0.08    0.08</time>
   <time name="total">    0.08    0.08</time>
   <energy>
    <i name="e_fr_energy">    -10.87889436 </i>
    <i name="e_wo_entrp">    -10.87889436 </i>
    <i name="e_0_energy">    -10.87889436 </i>
   </energy>
  </scstep>
  <scstep>
   <time name="dav">    0.05    0.05</time>
   <time name="total">    0.05    0.06</time>
   <energy>
    <i name="e_fr_energy">    -10.99604892 </i>
    <i name="e_wo_entrp">    -10.99604892 </i>
    <i name="e_0_energy">    -10.99604892 </i>
   </energy>
  </scstep>
  <scstep>
   <time name="dav">    0.08    0.08</time>
   <time name="total">    0.08    0.09</time>
   <energy>
    <i name="e_fr_energy">    -10.99649052 </i>
    <i name="e_wo_entrp">    -10.99649052 </i>
    <i name="e_0_energy">    -10.99649052 </i>
   </energy>
  </scstep>
  <scstep>
   <time name="dav">    0.05    0.05</time>
   <time name="total">    0.05    0.06</time>
   <energy>
    <i name="e_fr_energy">    -10.99649083 </i>
    <i name="e_wo_entrp">    -10.99649083 </i>
    <i name="e_0_energy">    -10.99649083 </i>
   </energy>
  </scstep>
  <scstep>
   <time name="diag">    0.01    0.01</time>
   <time name="diis">    0.04    0.04</time>
   <time name="orth">    0.00    0.00</time>
   <time name="total">    0.06    0.06</time>
   <energy>
    <i name="e_fr_energy">    -10.87129171 </i>
    <i name="e_wo_entrp">    -10.87129171 </i>
    <i name="e_0_energy">    -10.87129171 </i>
   </energy>
  </scstep>
  <scstep>
   <time name="diag">    0.01    0.01</time>
   <time name="diis">    0.04    0.04</time>
   <time name="orth">    0.00    0.00</time>
   <time name="total">    0.06    0.06</time>
   <energy>
    <i name="e_fr_energy">    -10.81440814 </i>
    <i name="e_wo_entrp">    -10.81440814 </i>
    <i name="e_0_energy">    -10.81440814 </i>
   </energy>
  </scstep>
  <scstep>
   <time name="diag">    0.01    0.01</time>
   <time name="diis">    0.04    0.04</time>
   <time name="orth">    0.00    0.00</time>
   <time name="total">    0.06    0.06</time>
   <energy>
    <i name="e_fr_energy">    -10.81565684 </i>
    <i name="e_wo_entrp">    -10.81565684 </i>
    <i name="e_0_energy">    -10.81565684 </i>
   </energy>
  </scstep>
  <scstep>
   <time name="diag">    0.01    0.01</time>
   <time name="diis">    0.05    0.05</time>
   <time name="orth">    0.00    0.00</time>
   <time name="total">    0.06    0.07</time>
   <energy>
    <i name="e_fr_energy">    -10.81575175 </i>
    <i name="e_wo_entrp">    -10.81575175 </i>
    <i name="e_0_energy">    -10.81575175 </i>
   </energy>
  </scstep>
  <scstep>
   <time name="diag">    0.01    0.01</time>
   <time name="diis">    0.04    0.04</time>
   <time name="orth">    0.00    0.00</time>
   <time name="total">    0.06    0.07</time>
   <energy>
    <i name="e_fr_energy">    -10.81577153 </i>
    <i name="e_wo_entrp">    -10.81577153 </i>
    <i name="e_0_energy">    -10.81577153 </i>
   </energy>
  </scstep>
  <scstep>
   <time name="diag">    0.01    0.01</time>
   <time name="diis">    0.04    0.04</time>
   <time name="orth">    0.00    0.00</time>
   <time name="total">    0.06    0.06</time>
   <energy>
    <i name="e_fr_energy">    -10.81576994 </i>
    <i name="e_wo_entrp">    -10.81576994 </i>
    <i name="e_0_energy">    -10.81576994 </i>
   </energy>
  </scstep>
  <scstep>
   <time name="diag">    0.01    0.01</time>
   <time name="diis">    0.02    0.02</time>
   <time name="orth">    0.00    0.00</time>
   <time name="total">    0.04    0.04</time>
   <energy>
    <i name="alphaZ">      3.36265555 </i>
    <i name="ewald">   -228.52985570 </i>
    <i name="hartreedc">    -14.94086559 </i>
    <i name="XCdc">    -17.95305937 </i>
    <i name="pawpsdc">     74.96999013 </i>
    <i name="pawaedc">    -40.01422546 </i>
    <i name="eentropy">      0.00000000 </i>
    <i name="bandstr">      6.16609143 </i>
    <i name="atom">    206.12349923 </i>
    <i name="e_fr_energy">    -10.81576980 </i>
    <i name="e_wo_entrp">    -10.81576980 </i>
    <i name="e_0_energy">    -10.81576980 </i>
   </energy>
  </scstep>
  <structure>
   <crystal>
    <varray name="basis" >
     <v>       0.00000000       2.71540000       2.71540000 </v>
     <v>       2.71540000       0.00000000       2.71540000 </v>
     <v>       2.71540000       2.71540000       0.00000000 </v>
    </varray>
    <i name="volume">     40.04344530 </i>
    <varray name="rec_basis" >
     <v>      -0.18413493       0.18413493       0.18413493 </v>
     <v>       0.18413493      -0.18413493       0.18413493 </v>
     <v>       0.18413493       0.18413493      -0.18413493 </v>
    </varray>
   </crystal>
   <varray name="positions" >
    <v>       0.00000000       0.00000000       0.00000000 </v>
    <v>       0.25000000       0.25000000       0.25000000 </v>
   </varray>
  </structure>
  <varray name="forces" >
   <v>      -0.00000000      -0.00000000      -0.00000000 </v>
   <v>       0.00000000       0.00000000       0.00000000 </v>
  </varray>
  <varray name="stress" >
   <v>      17.33225036       0.00000000       0.00000000 </v>
   <v>       0.00000000      17.33225036       0.00000000 </v>
   <v>      -0.00000000       0.00000000      17.33225036 </v>
  </varray>
  <energy>
   <i name="e_fr_energy">    -10.81576980 </i>
   <i name="e_wo_entrp">    -10.81576980 </i>
   <i name="e_0_energy">      0.00000000 </i>
  </energy>
  <time name="totalsc">    0.86    2.63</time>
  <eigenvalues>
   <array>
    <dimension dim="1">band</dimension>
    <dimension dim="2">kpoint</dimension>
    <dimension dim="3">spin</dimension>
    <field>eigene</field>
    <field>occ</field>
    <set>
     <set comment="spin 1">
      <set comment="kpoint 1">
       <r>   -6.1292    1.0000 </r>
       <r>    5.8405    1.0000 </r>
       <r>    5.8405    1.0000 </r>
       <r>    5.8405    1.0000 </r>
       <r>    8.4068    0.0000 </r>
       <r>    8.4068    0.0000 </r>
       <r>    8.4068    0.0000 </r>
       <r>    9.2015    0.0000 </r>
      </set>
      <set comment="kpoint 2">
       <r>   -5.8630    1.0000 </r>
       <r>    3.9051    1.0000 </r>
       <r>    5.4817    1.0000 </r>
       <r>    5.4817    1.0000 </r>
       <r>    8.2827    0.0000 </r>
       <r>    8.9302    0.0000 </r>
       <r>    8.9302    0.0000 </r>
       <r>   10.8660    0.0000 </r>
      </set>
      <set comment="kpoint 3">
       <r>   -5.0960    1.0000 </r>
       <r>    1.2810    1.0000 </r>
       <r>    4.9635    1.0000 </r>
       <r>    4.9635    1.0000 </r>
       <r>    7.7489    0.0000 </r>
       <r>    9.3836    0.0000 </r>
       <r>    9.3836    0.0000 </r>
       <r>   13.3044    0.0000 </r>
      </set>
      <set comment="kpoint 4">
       <r>   -4.0540    1.0000 </r>
       <r>   -0.7547    1.0000 </r>
       <r>    4.6737    1.0000 </r>
       <r>    4.6737    1.0000 </r>
       <r>    7.4227    0.0000 </r>
       <r>    9.2325    0.0000 </r>
       <r>    9.2325    0.0000 </r>
       <r>   13.6281    0.0000 </r>
      </set>
      <set comment="kpoint 5">
       <r>   -5.7730    1.0000 </r>
       <r>    4.2070    1.0000 </r>
       <r>    4.8636    1.0000 </r>
       <r>    4.8636    1.0000 </r>
       <r>    7.7237    0.0000 </r>
       <r>    9.8172    0.0000 </r>
       <r>    9.8172    0.0000 </r>
       <r>   10.2750    0.0000 </r>
      </set>
      <set comment="kpoint 6">
       <r>   -5.1657    1.0000 </r>
       <r>    2.0775    1.0000 </r>
       <r>    4.2812    1.0000 </r>
       <r>    4.3196    1.0000 </r>
       <r>    7.9202    0.0000 </r>
       <r>    9.7581    0.0000 </r>
       <r>   10.4137    0.0000 </r>
       <r>   10.6053    0.0000 </r>
      </set>
      <set comment="kpoint 7">
       <r>   -4.1556    1.0000 </r>
       <r>   -0.1129    1.0000 </r>
       <r>    3.5912    1.0000 </r>
       <r>    4.1301    1.0000 </r>
       <r>    7.9900    0.0000 </r>
       <r>    9.6769    0.0000 </r>
       <r>   10.3866    0.0000 </r>
       <r>   11.6412    0.0000 </r>
      </set>
      <set comment="kpoint 8">
       <r>   -3.5954    1.0000 </r>
       <r>   -0.9799    1.0000 </r>
       <r>    3.1754    1.0000 </r>
       <r>    4.3284    1.0000 </r>
       <r>    8.0902    0.0000 </r>
       <r>    9.5835    0.0000 </r>
       <r>    9.9854    0.0000 </r>
       <r>   14.0258    0.0000 </r>
      </set>
      <set comment="kpoint 9">
       <r>   -4.5246    1.0000 </r>
       <r>    0.5692    1.0000 </r>
       <r>    3.1785    1.0000 </r>
       <r>    4.8444    1.0000 </r>
       <r>    8.4977    0.0000 </r>
       <r>    9.7463    0.0000 </r>
       <r>    9.7849    0.0000 </r>
       <r>   12.5118    0.0000 </r>
      </set>
      <set comment="kpoint 10">
       <r>   -5.4266    1.0000 </r>
       <r>    2.6983    1.0000 </r>
       <r>    3.8682    1.0000 </r>
       <r>    5.4390    1.0000 </r>
       <r>    8.9044    0.0000 </r>
       <r>    9.1374    0.0000 </r>
       <r>    9.4026    0.0000 </r>
       <r>   11.4858    0.0000 </r>
      </set>
      <set comment="kpoint 11">
       <r>   -4.7213    1.0000 </r>
       <r>    1.6761    1.0000 </r>
       <r>    3.6958    1.0000 </r>
       <r>    3.6958    1.0000 </r>
       <r>    6.7740    0.0000 </r>
       <r>    8.4625    0.0000 </r>
       <r>   12.2503    0.0000 </r>
       <r>   12.2503    0.0000 </r>
      </set>
      <set comment="kpoint 12">
       <r>   -3.8176    1.0000 </r>
       <r>    0.1693    1.0000 </r>
       <r>    2.7143    1.0000 </r>
       <r>    3.4345    1.0000 </r>
       <r>    7.0589    0.0000 </r>
       <r>    8.5496    0.0000 </r>
       <r>   12.4799    0.0000 </r>
       <r>   12.6405    0.0000 </r>
      </set>
      <set comment="kpoint 13">
       <r>   -2.8976    1.0000 </r>
       <r>   -1.0133    1.0000 </r>
       <r>    1.7592    1.0000 </r>
       <r>    3.6039    1.0000 </r>
       <r>    7.3006    0.0000 </r>
       <r>   10.7985    0.0000 </r>
       <r>   12.1371    0.0000 </r>
       <r>   12.2183    0.0000 </r>
      </set>
      <set comment="kpoint 14">
       <r>   -3.5495    1.0000 </r>
       <r>   -0.2603    1.0000 </r>
       <r>    1.6839    1.0000 </r>
       <r>    4.1545    1.0000 </r>
       <r>    7.9110    0.0000 </r>
       <r>   11.3053    0.0000 </r>
       <r>   11.6587    0.0000 </r>
       <r>   12.4703    0.0000 </r>
      </set>
      <set comment="kpoint 15">
       <r>   -3.0323    1.0000 </r>
       <r>   -0.8296    1.0000 </r>
       <r>    3.0619    1.0000 </r>
       <r>    3.0619    1.0000 </r>
       <r>    6.4181    0.0000 </r>
       <r>    6.9357    0.0000 </r>
       <r>   14.9104    0.0000 </r>
       <r>   14.9105    0.0000 </r>
      </set>
      <set comment="kpoint 16">
       <r>   -2.0800    1.0000 </r>
       <r>   -1.7910    1.0000 </r>
       <r>    2.1651    1.0000 </r>
       <r>    3.1238    1.0000 </r>
       <r>    6.7209    0.0000 </r>
       <r>    7.9842    0.0000 </r>
       <r>   14.6805    0.0000 </r>
       <r>   15.1294    0.0000 </r>
      </set>
      <set comment="kpoint 17">
       <r>   -4.4124    1.0000 </r>
       <r>    0.9368    1.0000 </r>
       <r>    2.7170    1.0000 </r>
       <r>    4.0463    1.0000 </r>
       <r>    8.4281    0.0000 </r>
       <r>    9.6877    0.0000 </r>
       <r>    9.9921    0.0000 </r>
       <r>   12.0014    0.0000 </r>
      </set>
      <set comment="kpoint 18">
       <r>   -3.3683    1.0000 </r>
       <r>   -0.6001    1.0000 </r>
       <r>    2.1453    1.0000 </r>
       <r>    3.5071    1.0000 </r>
       <r>    8.9159    0.0000 </r>
       <r>    9.3335    0.0000 </r>
       <r>   11.3256    0.0000 </r>
       <r>   12.4579    0.0000 </r>
      </set>
      <set comment="kpoint 19">
       <r>   -2.8267    1.0000 </r>
       <r>   -0.9153    1.0000 </r>
       <r>    2.2326    1.0000 </r>
       <r>    2.6440    1.0000 </r>
       <r>    8.0585    0.0000 </r>
       <r>    8.4271    0.0000 </r>
       <r>   12.0138    0.0000 </r>
       <r>   14.5338    0.0000 </r>
      </set>
      <set comment="kpoint 20">
       <r>   -2.3884    1.0000 </r>
       <r>   -1.3136    1.0000 </r>
       <r>    1.5910    1.0000 </r>
       <r>    2.7366    1.0000 </r>
       <r>    8.5860    0.0000 </r>
       <r>   10.6963    0.0000 </r>
       <r>   11.5001    0.0000 </r>
       <r>   11.6443    0.0000 </r>
      </set>
     </set>
    </set>
   </array>
  </eigenvalues>
  <separator name="orbital magnetization" >
   <v name="MAGDIPOLOUT">      0.00000000      0.00000000      0.00000000</v>
  </separator>
  <dos>
   <i name="efermi">      5.84000000 </i>
   <total>
    <array>
     <dimension dim="1">gridpoints</dimension>
     <dimension dim="2">spin</dimension>
     <field>energy</field>
     <field>total</field>
     <field>integrated</field>
     <set>
      <set comment="spin 1">
       <r>   -12.0000     0.0000     0.0000 </r>
       <r>   -11.9900     0.0000     0.0000 </r>
       <r>   -11.9800     0.0000     0.0000 </r>
       <r>   -11.9700     0.0000     0.0000 </r>
       <r>   -11.9600     0.0000     0.0000 </r>
       <r>   -11.9500     0.0000     0.0000 </r>
       <r>   -11.9400     0.0000     0.0000 </r>
       <r>   -11.9300     0.0000     0.0000 </r>
       <r>   -11.9200     0.0000     0.0000 </r>
       <r>   -11.9100     0.0000     0.0000 </r>
       <r>   -11.9000     0.0000     0.0000 </r>
       <r>   -11.8900     0.0000     0.0000 </r>
       <r>   -11.8800     0.0000     0.0000 </r>
       <r>   -11.8700     0.0000     0.0000 </r>
       <r>   -11.8600     0.0000     0.0000 </r>
       <r>   -11.8500     0.0000     0.0000 </r>
       <r>   -11.8400     0.0000     0.0000 </r>
       <r>   -11.8300     0.0000     0.0000 </r>
       <r>   -11.8200     0.0000     0.0000 </r>
       <r>   -11.8100     0.0000     0.0000 </r>
       <r>   -11.8000     0.0000     0.0000 </r>
       <r>   -11.7900     0.0000     0.0000 </r>
       <r>   -11.7800     0.0000     0.0000 </r>
       <r>   -11.7700     0.0000     0.0000 </r>
       <r>   -11.7600     0.0000     0.0000 </r>
       <r>   -11.7500     0.0000     0.0000 </r>
       <r>   -11.7400     0.0000     0.0000 </r>
       <r>   -11.7300     0.0000     0.0000 </r>
       <r>   -11.7200     0.0000     0.0000 </r>
       <r>   -11.7100     0.0000     0.0000 </r>
       <r>   -11.7000     0.0000     0.0000 </r>
       <r>   -11.6900     0.0000     0.0000 </r>
       <r>   -11.6800     0.0000     0.0000 </r>
       <r>   -11.6700     0.0000     0.0000 </r>
       <r>   -11.6600     0.0000     0.0000 </r>
       <r>   -11.6500     0.0000     0.0000 </r>
       <r>   -11.6400     0.0000     0.0000 </r>
       <r>   -11.6300     0.0000     0.0000 </r>
       <r>   -11.6200     0.0000     0.0000 </r>
       <r>   -11.6100     0.0000     0.0000 </r>
       <r>   -11.6000     0.0000     0.0000 </r>
       <r>   -11.5900     0.0000     0.0000 </r>
       <r>   -11.5800     0.0000     0.0000 </r>
       <r>   -11.5700     0.0000     0.0000 </r>
       <r>   -11.5600     0.0000     0.0000 </r>
       <r>   -11.5500     0.0000     0.0000 </r>
       <r>   -11.5400     0.0000     0.0000 </r>
       <r>   -11.5300     0.0000     0.0000 </r>
       <r>   -11.5200     0.0000     0.0000 </r>
       <r>   -11.5100     0.0000     0.0000 </r>
       <r>   -11.5000     0.0000     0.0000 </r>
       <r>   -11.4900     0.0000     0.0000 </r>
       <r>   -11.4800     0.0000     0.0000 </r>
       <r>   -11.4700     0.0000     0.0000 </r>
       <r>   -11.4600     0.0000     0.0000 </r>
       <r>   -11.4500     0.0000     0.0000 </r>
       <r>   -11.4400     0.0000     0.0000 </r>
       <r>   -11.4300     0.0000     0.0000 </r>
       <r>   -11.4200     0.0000     0.0000 </r>
       <r>   -11.4100     0.0000     0.0000 </r>
       <r>   -11.4000     0.0000     0.0000 </r>
       <r>   -11.3900     0.0000     0.0000 </r>
       <r>   -11.3800     0.0000     0.0000 </r>
       <r>   -11.3700     0.0000     0.0000 </r>
       <r>   -11.3600     0.0000     0.0000 </r>
       <r>   -11.3500     0.0000     0.0000 </r>
       <r>   -11.3400     0.0000     0.0000 </r>
       <r>   -11.3300     0.0000     0.0000 </r>
       <r>   -11.3200     0.0000     0.0000 </r>
       <r>   -11.3100     0.0000     0.0000 </r>
       <r>   -11.3000     0.0000     0.0000 </r>
       <r>   -11.2900     0.0000     0.0000 </r>
       <r>   -11.2800     0.0000     0.0000 </r>
       <r>   -11.2700     0.0000     0.0000 </r>
       <r>   -11.2600     0.0000     0.0000 </r>
       <r>   -11.2500     0.0000     0.0000 </r>
       <r>   -11.2400     0.0000     0.0000 </r>
       <r>   -11.2300     0.0000     0.0000 </r>
       <r>   -11.2200     0.0000     0.0000 </r>
       <r>   -11.2100     0.0000     0.0000 </r>
       <r>   -11.2000     0.0000     0.0000 </r>
       <r>   -11.1900     0.0000     0.0000 </r>
       <r>   -11.1800     0.0000     0.0000 </r>
       <r>   -11.1700     0.0000     0.0000 </r>
       <r>   -11.1600     0.0000     0.0000 </r>
       <r>   -11.1500     0.0000     0.0000 </r>
       <r>   -11.1400     0.0000     0.0000 </r>
       <r>   -11.1300     0.0000     0.0000 </r>
       <r>   -11.1200     0.0000     0.0000 </r>
       <r>   -11.1100     0.0000     0.0000 </r>
       <r>   -11.1000     0.0000     0.0000 </r>
       <r>   -11.0900     0.0000     0.0000 </r>
       <r>   -11.0800     0.0000     0.0000 </r>
       <r>   -11.0700     0.0000     0.0000 </r>
       <r>   -11.0600     0.0000     0.0000 </r>
       <r>   -11.0500     0.0000     0.0000 </r>
       <r>   -11.0400     0.0000     0.0000 </r>
       <r>   -11.0300     0.0000     0.0000 </r>
       <r>   -11.0200     0.0000     0.0000 </r>
       <r>   -11.0100     0.0000     0.0000 </r>
       <r>   -11.0000     0.0000     0.0000 </r>
       <r>   -10.9900     0.0000     0.0000 </r>
       <r>   -10.9800     0.0000     0.0000 </r>
       <r>   -10.9700     0.0000     0.0000 </r>
       <r>   -10.9600     0.0000     0.0000 </r>
       <r>   -10.9500     0.0000     0.0000 </r>
       <r>   -10.9400     0.0000     0.0000 </r>
       <r>   -10.9300     0.0000     0.0000 </r>
       <r>   -10.9200     0.0000     0.0000 </r>
       <r>   -10.9100     0.0000     0.0000 </r>
       <r>   -10.9000     0.0000     0.0000 </r>
       <r>   -10.8900     0.0000     0.0000 </r>
       <r>   -10.8800     0.0000     0.0000 </r>
       <r>   -10.8700     0.0000     0.0000 </r>
       <r>   -10.8600     0.0000     0.0000 </r>
       <r>   -10.8500     0.0000     0.0000 </r>
       <r>   -10.8400     0.0000     0.0000 </r>
       <r>   -10.8300     0.0000     0.0000 </r>
       <r>   -10.8200     0.0000     0.0000 </r>
       <r>   -10.8100     0.0000     0.0000 </r>
       <r>   -10.8000     0.0000     0.0000 </r>
       <r>   -10.7900     0.0000     0.0000 </r>
       <r>   -10.7800     0.0000     0.0000 </r>
       <r>   -10.7700     0.0000     0.0000 </r>
       <r>   -10.7600     0.0000     0.0000 </r>
       <r>   -10.7500     0.0000     0.0000 </r>
       <r>   -10.7400     0.0000     0.0000 </r>
       <r>   -10.7300     0.0000     0.0000 </r>
       <r>   -10.7200     0.0000     0.0000 </r>
       <r>   -10.7100     0.0000     0.0000 </r>
       <r>   -10.7000     0.0000     0.0000 </r>
       <r>   -10.6900     0.0000     0.0000 </r>
       <r>   -10.6800     0.0000     0.0000 </r>
       <r>   -10.6700     0.0000     0.0000 </r>
       <r>   -10.6600     0.0000     0.0000 </r>
       <r>   -10.6500     0.0000     0.0000 </r>
       <r>   -10.6400     0.0000     0.0000 </r>
       <r>   -10.6300     0.0000     0.0000 </r>
       <r>   -10.6200     0.0000     0.0000 </r>
       <r>   -10.6100     0.0000     0.0000 </r>
       <r>   -10.6000     0.0000     0.0000 </r>
       <r>   -10.5900     0.0000     0.0000 </r>
       <r>   -10.5800     0.0000     0.0000 </r>
       <r>   -10.5700     0.0000     0.0000 </r>
       <r>   -10.5600     0.0000     0.0000 </r>
       <r>   -10.5500     0.0000     0.0000 </r>
       <r>   -10.5400     0.0000     0.0000 </r>
       <r>   -10.5300     0.0000     0.0000 </r>
       <r>   -10.5200     0.0000     0.0000 </r>
       <r>   -10.5100     0.0000     0.0000 </r>
       <r>   -10.5000     0.0000     0.0000 </r>
       <r>   -10.4900     0.0000     0.0000 </r>
       <r>   -10.4800     0.0000     0.0000 </r>
       <r>   -10.4700     0.0000     0.0000 </r>
       <r>   -10.4600     0.0000     0.0000 </r>
       <r>   -10.4500     0.0000     0.0000 </r>
       <r>   -10.4400     0.0000     0.0000 </r>
       <r>   -10.4300     0.0000     0.0000 </r>
       <r>   -10.4200     0.0000     0.0000 </r>
       <r>   -10.4100     0.0000     0.0000 </r>
       <r>   -10.4000     0.0000     0.0000 </r>
       <r>   -10.3900     0.0000     0.0000 </r>
       <r>   -10.3800     0.0000     0.0000 </r>
       <r>   -10.3700     0.0000     0.0000 </r>
       <r>   -10.3600     0.0000     0.0000 </r>
       <r>   -10.3500     0.0000     0.0000 </r>
       <r>   -10.3400     0.0000     0.0000 </r>
       <r>   -10.3300     0.0000     0.0000 </r>
       <r>   -10.3200     0.0000     0.0000 </r>
       <r>   -10.3100     0.0000     0.0000 </r>
       <r>   -10.3000     0.0000     0.0000 </r>
       <r>   -10.2900     0.0000     0.0000 </r>
       <r>   -10.2800     0.0000     0.0000 </r>
       <r>   -10.2700     0.0000     0.0000 </r>
       <r>   -10.2600     0.0000     0.0000 </r>
       <r>   -10.2500     0.0000     0.0000 </r>
       <r>   -10.2400     0.0000     0.0000 </r>
       <r>   -10.2300     0.0000     0.0000 </r>
       <r>   -10.2200     0.0000     0.0000 </r>
       <r>   -10.2100     0.0000     0.0000 </r>
       <r>   -10.2000     0.0000     0.0000 </r>
       <r>   -10.1900     0.0000     0.0000 </r>
       <r>   -10.1800     0.0000     0.0000 </r>
       <r>   -10.1700     0.0000     0.0000 </r>
       <r>   -10.1600     0.0000     0.0000 </r>
       <r>   -10.1500     0.0000     0.0000 </r>
       <r>   -10.1400     0.0000     0.0000 </r>
       <r>   -10.1300     0.0000     0.0000 </r>
       <r>   -10.1200     0.0000     0.0000 </r>
       <r>   -10.1100     0.0000     0.0000 </r>
       <r>   -10.1000     0.0000     0.0000 </r>
       <r>   -10.0900     0.0000     0.0000 </r>
       <r>   -10.0800     0.0000     0.0000 </r>
       <r>   -10.0700     0.0000     0.0000 </r>
       <r>   -10.0600     0.0000     0.0000 </r>
       <r>   -10.0500     0.0000     0.0000 </r>
       <r>   -10.0400     0.0000     0.0000 </r>
       <r>   -10.0300     0.0000     0.0000 </r>
       <r>   -10.0200     0.0000     0.0000 </r>
       <r>   -10.0100     0.0000     0.0000 </r>
       <r>   -10.0000     0.0000     0.0000 </r>
       <r>    -9.9900     0.0000     0.0000 </r>
       <r>    -9.9800     0.0000     0.0000 </r>
       <r>    -9.9700     0.0000     0.0000 </r>
       <r>    -9.9600     0.0000     0.0000 </r>
       <r>    -9.9500     0.0000     0.0000 </r>
       <r>    -9.9400     0.0000     0.0000 </r>
       <r>    -9.9300     0.0000     0.0000 </r>
       <r>    -9.9200     0.0000     0.0000 </r>
       <r>    -9.9100     0.0000     0.0000 </r>
       <r>    -9.9000     0.0000     0.0000 </r>
       <r>    -9.8900     0.0000     0.0000 </r>
       <r>    -9.8800     0.0000     0.0000 </r>
       <r>    -9.8700     0.0000     0.0000 </r>
       <r>    -9.8600     0.0000     0.0000 </r>
       <r>    -9.8500     0.0000     0.0000 </r>
       <r>    -9.8400     0.0000     0.0000 </r>
       <r>    -9.8300     0.0000     0.0000 </r>
       <r>    -9.8200     0.0000     0.0000 </r>
       <r>    -9.8100     0.0000     0.0000 </r>
       <r>    -9.8000     0.0000     0.0000 </r>
       <r>    -9.7900     0.0000     0.0000 </r>
       <r>    -9.7800     0.0000     0.0000 </r>
       <r>    -9.7700     0.0000     0.0000 </r>
       <r>    -9.7600     0.0000     0.0000 </r>
       <r>    -9.7500     0.0000     0.0000 </r>
       <r>    -9.7400     0.0000     0.0000 </r>
       <r>    -9.7300     0.0000     0.0000 </r>
       <r>    -9.7200     0.0000     0.0000 </r>
       <r>    -9.7100     0.0000     0.0000 </r>
       <r>    -9.7000     0.0000     0.0000 </r>
       <r>    -9.6900     0.0000     0.0000 </r>
       <r>    -9.6800     0.0000     0.0000 </r>
       <r>    -9.6700     0.0000     0.0000 </r>
       <r>    -9.6600     0.0000     0.0000 </r>
       <r>    -9.6500     0.0000     0.0000 </r>
       <r>    -9.6400     0.0000     0.0000 </r>
       <r>    -9.6300     0.0000     0.0000 </r>
       <r>    -9.6200     0.0000     0.0000 </r>
       <r>    -9.6100     0.0000     0.0000 </r>
       <r>    -9.6000     0.0000     0.0000 </r>
       <r>    -9.5900     0.0000     0.0000 </r>
       <r>    -9.5800     0.0000     0.0000 </r>
       <r>    -9.5700     0.0000     0.0000 </r>
       <r>    -9.5600     0.0000     0.0000 </r>
       <r>    -9.5500     0.0000     0.0000 </r>
       <r>    -9.5400     0.0000     0.0000 </r>
       <r>    -9.5300     0.0000     0.0000 </r>
       <r>    -9.5200     0.0000     0.0000 </r>
       <r>    -9.5100     0.0000     0.0000 </r>
       <r>    -9.5000     0.0000     0.0000 </r>
       <r>    -9.4900     0.0000     0.0000 </r>
       <r>    -9.4800     0.0000     0.0000 </r>
       <r>    -9.4700     0.0000     0.0000 </r>
       <r>    -9.4600     0.0000     0.0000 </r>
       <r>    -9.4500     0.0000     0.0000 </r>
       <r>    -9.4400     0.0000     0.0000 </r>
       <r>    -9.4300     0.0000     0.0000 </r>
       <r>    -9.4200     0.0000     0.0000 </r>
       <r>    -9.4100     0.0000     0.0000 </r>
       <r>    -9.4000     0.0000     0.0000 </r>
       <r>    -9.3900     0.0000     0.0000 </r>
       <r>    -9.3800     0.0000     0.0000 </r>
       <r>    -9.3700     0.0000     0.0000 </r>
       <r>    -9.3600     0.0000     0.0000 </r>
       <r>    -9.3500     0.0000     0.0000 </r>
       <r>    -9.3400     0.0000     0.0000 </r>
       <r>    -9.3300     0.0000     0.0000 </r>
       <r>    -9.3200     0.0000     0.0000 </r>
       <r>    -9.3100     0.0000     0.0000 </r>
       <r>    -9.3000     0.0000     0.0000 </r>
       <r>    -9.2900     0.0000     0.0000 </r>
       <r>    -9.2800     0.0000     0.0000 </r>
       <r>    -9.2700     0.0000     0.0000 </r>
       <r>    -9.2600     0.0000     0.0000 </r>
       <r>    -9.2500     0.0000     0.0000 </r>
       <r>    -9.2400     0.0000     0.0000 </r>
       <r>    -9.2300     0.0000     0.0000 </r>
       <r>    -9.2200     0.0000     0.0000 </r>
       <r>    -9.2100     0.0000     0.0000 </r>
       <r>    -9.2000     0.0000     0.0000 </r>
       <r>    -9.1900     0.0000     0.0000 </r>
       <r>    -9.1800     0.0000     0.0000 </r>
       <r>    -9.1700     0.0000     0.0000 </r>
       <r>    -9.1600     0.0000     0.0000 </r>
       <r>    -9.1500     0.0000     0.0000 </r>
       <r>    -9.1400     0.0000     0.0000 </r>
       <r>    -9.1300     0.0000     0.0000 </r>
       <r>    -9.1200     0.0000     0.0000 </r>
       <r>    -9.1100     0.0000     0.0000 </r>
       <r>    -9.1000     0.0000     0.0000 </r>
       <r>    -9.0900     0.0000     0.0000 </r>
       <r>    -9.0800     0.0000     0.0000 </r>
       <r>    -9.0700     0.0000     0.0000 </r>
       <r>    -9.0600     0.0000     0.0000 </r>
       <r>    -9.0500     0.0000     0.0000 </r>
       <r>    -9.0400     0.0000     0.0000 </r>
       <r>    -9.0300     0.0000     0.0000 </r>
       <r>    -9.0200     0.0000     0.0000 </r>
       <r>    -9.0100     0.0000     0.0000 </r>
       <r>    -9.0000     0.0000     0.0000 </r>
       <r>    -8.9900     0.0000     0.0000 </r>
       <r>    -8.9800     0.0000     0.0000 </r>
       <r>    -8.9700     0.0000     0.0000 </r>
       <r>    -8.9600     0.0000     0.0000 </r>
       <r>    -8.9500     0.0000     0.0000 </r>
       <r>    -8.9400     0.0000     0.0000 </r>
       <r>    -8.9300     0.0000     0.0000 </r>
       <r>    -8.9200     0.0000     0.0000 </r>
       <r>    -8.9100     0.0000     0.0000 </r>
       <r>    -8.9000     0.0000     0.0000 </r>
       <r>    -8.8900     0.0000     0.0000 </r>
       <r>    -8.8800     0.0000     0.0000 </r>
       <r>    -8.8700     0.0000     0.0000 </r>
       <r>    -8.8600     0.0000     0.0000 </r>
       <r>    -8.8500     0.0000     0.0000 </r>
       <r>    -8.8400     0.0000     0.0000 </r>
       <r>    -8.8300     0.0000     0.0000 </r>
       <r>    -8.8200     0.0000     0.0000 </r>
       <r>    -8.8100     0.0000     0.0000 </r>
       <r>    -8.8000     0.0000     0.0000 </r>
       <r>    -8.7900     0.0000     0.0000 </r>
       <r>    -8.7800     0.0000     0.0000 </r>
       <r>    -8.7700     0.0000     0.0000 </r>
       <r>    -8.7600     0.0000     0.0000 </r>
       <r>    -8.7500     0.0000     0.0000 </r>
       <r>    -8.7400     0.0000     0.0000 </r>
       <r>    -8.7300     0.0000     0.0000 </r>
       <r>    -8.7200     0.0000     0.0000 </r>
       <r>    -8.7100     0.0000     0.0000 </r>
       <r>    -8.7000     0.0000     0.0000 </r>
       <r>    -8.6900     0.0000     0.0000 </r>
       <r>    -8.6800     0.0000     0.0000 </r>
       <r>    -8.6700     0.0000     0.0000 </r>
       <r>    -8.6600     0.0000     0.0000 </r>
       <r>    -8.6500     0.0000     0.0000 </r>
       <r>    -8.6400     0.0000     0.0000 </r>
       <r>    -8.6300     0.0000     0.0000 </r>
       <r>    -8.6200     0.0000     0.0000 </r>
       <r>    -8.6100     0.0000     0.0000 </r>
       <r>    -8.6000     0.0000     0.0000 </r>
       <r>    -8.5900     0.0000     0.0000 </r>
       <r>    -8.5800     0.0000     0.0000 </r>
       <r>    -8.5700     0.0000     0.0000 </r>
       <r>    -8.5600     0.0000     0.0000 </r>
       <r>    -8.5500     0.0000     0.0000 </r>
       <r>    -8.5400     0.0000     0.0000 </r>
       <r>    -8.5300     0.0000     0.0000 </r>
       <r>    -8.5200     0.0000     0.0000 </r>
       <r>    -8.5100     0.0000     0.0000 </r>
       <r>    -8.5000     0.0000     0.0000 </r>
       <r>    -8.4900     0.0000     0.0000 </r>
       <r>    -8.4800     0.0000     0.0000 </r>
       <r>    -8.4700     0.0000     0.0000 </r>
       <r>    -8.4600     0.0000     0.0000 </r>
       <r>    -8.4500     0.0000     0.0000 </r>
       <r>    -8.4400     0.0000     0.0000 </r>
       <r>    -8.4300     0.0000     0.0000 </r>
       <r>    -8.4200     0.0000     0.0000 </r>
       <r>    -8.4100     0.0000     0.0000 </r>
       <r>    -8.4000     0.0000     0.0000 </r>
       <r>    -8.3900     0.0000     0.0000 </r>
       <r>    -8.3800     0.0000     0.0000 </r>
       <r>    -8.3700     0.0000     0.0000 </r>
       <r>    -8.3600     0.0000     0.0000 </r>
       <r>    -8.3500     0.0000     0.0000 </r>
       <r>    -8.3400     0.0000     0.0000 </r>
       <r>    -8.3300     0.0000     0.0000 </r>
       <r>    -8.3200     0.0000     0.0000 </r>
       <r>    -8.3100     0.0000     0.0000 </r>
       <r>    -8.3000     0.0000     0.0000 </r>
       <r>    -8.2900     0.0000     0.0000 </r>
       <r>    -8.2800     0.0000     0.0000 </r>
       <r>    -8.2700     0.0000     0.0000 </r>
       <r>    -8.2600     0.0000     0.0000 </r>
       <r>    -8.2500     0.0000     0.0000 </r>
       <r>    -8.2400     0.0000     0.0000 </r>
       <r>    -8.2300     0.0000     0.0000 </r>
       <r>    -8.2200     0.0000     0.0000 </r>
       <r>    -8.2100     0.0000     0.0000 </r>
       <r>    -8.2000     0.0000     0.0000 </r>
       <r>    -8.1900     0.0000     0.0000 </r>
       <r>    -8.1800     0.0000     0.0000 </r>
       <r>    -8.1700     0.0000     0.0000 </r>
       <r>    -8.1600     0.0000     0.0000 </r>
       <r>    -8.1500     0.0000     0.0000 </r>
       <r>    -8.1400     0.0000     0.0000 </r>
       <r>    -8.1300     0.0000     0.0000 </r>
       <r>    -8.1200     0.0000     0.0000 </r>
       <r>    -8.1100     0.0000     0.0000 </r>
       <r>    -8.1000     0.0000     0.0000 </r>
       <r>    -8.0900     0.0000     0.0000 </r>
       <r>    -8.0800     0.0000     0.0000 </r>
       <r>    -8.0700     0.0000     0.0000 </r>
       <r>    -8.0600     0.0000     0.0000 </r>
       <r>    -8.0500     0.0000     0.0000 </r>
       <r>    -8.0400     0.0000     0.0000 </r>
       <r>    -8.0300     0.0000     0.0000 </r>
       <r>    -8.0200     0.0000     0.0000 </r>
       <r>    -8.0100     0.0000     0.0000 </r>
       <r>    -8.0000     0.0000     0.0000 </r>
       <r>    -7.9900     0.0000     0.0000 </r>
       <r>    -7.9800     0.0000     0.0000 </r>
       <r>    -7.9700     0.0000     0.0000 </r>
       <r>    -7.9600     0.0000     0.0000 </r>
       <r>    -7.9500     0.0000     0.0000 </r>
       <r>    -7.9400     0.0000     0.0000 </r>
       <r>    -7.9300     0.0000     0.0000 </r>
       <r>    -7.9200     0.0000     0.0000 </r>
       <r>    -7.9100     0.0000     0.0000 </r>
       <r>    -7.9000     0.0000     0.0000 </r>
       <r>    -7.8900     0.0000     0.0000 </r>
       <r>    -7.8800     0.0000     0.0000 </r>
       <r>    -7.8700     0.0000     0.0000 </r>
       <r>    -7.8600     0.0000     0.0000 </r>
       <r>    -7.8500     0.0000     0.0000 </r>
       <r>    -7.8400     0.0000     0.0000 </r>
       <r>    -7.8300     0.0000     0.0000 </r>
       <r>    -7.8200     0.0000     0.0000 </r>
       <r>    -7.8100     0.0000     0.0000 </r>
       <r>    -7.8000     0.0000     0.0000 </r>
       <r>    -7.7900     0.0000     0.0000 </r>
       <r>    -7.7800     0.0000     0.0000 </r>
       <r>    -7.7700     0.0000     0.0000 </r>
       <r>    -7.7600     0.0000     0.0000 </r>
       <r>    -7.7500     0.0000     0.0000 </r>
       <r>    -7.7400     0.0000     0.0000 </r>
       <r>    -7.7300     0.0000     0.0000 </r>
       <r>    -7.7200     0.0000     0.0000 </r>
       <r>    -7.7100     0.0000     0.0000 </r>
       <r>    -7.7000     0.0000     0.0000 </r>
       <r>    -7.6900     0.0000     0.0000 </r>
       <r>    -7.6800     0.0000     0.0000 </r>
       <r>    -7.6700     0.0000     0.0000 </r>
       <r>    -7.6600     0.0000     0.0000 </r>
       <r>    -7.6500     0.0000     0.0000 </r>
       <r>    -7.6400     0.0000     0.0000 </r>
       <r>    -7.6300     0.0000     0.0000 </r>
       <r>    -7.6200     0.0000     0.0000 </r>
       <r>    -7.6100     0.0000     0.0000 </r>
       <r>    -7.6000     0.0000     0.0000 </r>
       <r>    -7.5900     0.0000     0.0000 </r>
       <r>    -7.5800     0.0000     0.0000 </r>
       <r>    -7.5700     0.0000     0.0000 </r>
       <r>    -7.5600     0.0000     0.0000 </r>
       <r>    -7.5500     0.0000     0.0000 </r>
       <r>    -7.5400     0.0000     0.0000 </r>
       <r>    -7.5300     0.0000     0.0000 </r>
       <r>    -7.5200     0.0000     0.0000 </r>
       <r>    -7.5100     0.0000     0.0000 </r>
       <r>    -7.5000     0.0000     0.0000 </r>
       <r>    -7.4900     0.0000     0.0000 </r>
       <r>    -7.4800     0.0000     0.0000 </r>
       <r>    -7.4700     0.0000     0.0000 </r>
       <r>    -7.4600     0.0000     0.0000 </r>
       <r>    -7.4500     0.0000     0.0000 </r>
       <r>    -7.4400     0.0000     0.0000 </r>
       <r>    -7.4300     0.0000     0.0000 </r>
       <r>    -7.4200     0.0000     0.0000 </r>
       <r>    -7.4100     0.0000     0.0000 </r>
       <r>    -7.4000     0.0000     0.0000 </r>
       <r>    -7.3900     0.0000     0.0000 </r>
       <r>    -7.3800     0.0000     0.0000 </r>
       <r>    -7.3700     0.0000     0.0000 </r>
       <r>    -7.3600     0.0000     0.0000 </r>
       <r>    -7.3500     0.0000     0.0000 </r>
       <r>    -7.3400     0.0000     0.0000 </r>
       <r>    -7.3300     0.0000     0.0000 </r>
       <r>    -7.3200     0.0000     0.0000 </r>
       <r>    -7.3100     0.0000     0.0000 </r>
       <r>    -7.3000     0.0000     0.0000 </r>
       <r>    -7.2900     0.0000     0.0000 </r>
       <r>    -7.2800     0.0000     0.0000 </r>
       <r>    -7.2700     0.0000     0.0000 </r>
       <r>    -7.2600     0.0000     0.0000 </r>
       <r>    -7.2500     0.0000     0.0000 </r>
       <r>    -7.2400     0.0000     0.0000 </r>
       <r>    -7.2300     0.0000     0.0000 </r>
       <r>    -7.2200     0.0000     0.0000 </r>
       <r>    -7.2100     0.0000     0.0000 </r>
       <r>    -7.2000     0.0000     0.0000 </r>
       <r>    -7.1900     0.0000     0.0000 </r>
       <r>    -7.1800     0.0000     0.0000 </r>
       <r>    -7.1700     0.0000     0.0000 </r>
       <r>    -7.1600     0.0000     0.0000 </r>
       <r>    -7.1500     0.0000     0.0000 </r>
       <r>    -7.1400     0.0000     0.0000 </r>
       <r>    -7.1300     0.0000     0.0000 </r>
       <r>    -7.1200     0.0000     0.0000 </r>
       <r>    -7.1100     0.0000     0.0000 </r>
       <r>    -7.1000     0.0000     0.0000 </r>
       <r>    -7.0900     0.0000     0.0000 </r>
       <r>    -7.0800     0.0000     0.0000 </r>
       <r>    -7.0700     0.0000     0.0000 </r>
       <r>    -7.0600     0.0000     0.0000 </r>
       <r>    -7.0500     0.0000     0.0000 </r>
       <r>    -7.0400     0.0000     0.0000 </r>
       <r>    -7.0300     0.0000     0.0000 </r>
       <r>    -7.0200     0.0000     0.0000 </r>
       <r>    -7.0100     0.0000     0.0000 </r>
       <r>    -7.0000     0.0000     0.0000 </r>
       <r>    -6.9900     0.0000     0.0000 </r>
       <r>    -6.9800     0.0000     0.0000 </r>
       <r>    -6.9700     0.0000     0.0000 </r>
       <r>    -6.9600     0.0000     0.0000 </r>
       <r>    -6.9500     0.0000     0.0000 </r>
       <r>    -6.9400     0.0000     0.0000 </r>
       <r>    -6.9300     0.0000     0.0000 </r>
       <r>    -6.9200     0.0000     0.0000 </r>
       <r>    -6.9100     0.0000     0.0000 </r>
       <r>    -6.9000     0.0000     0.0000 </r>
       <r>    -6.8900     0.0000     0.0000 </r>
       <r>    -6.8800     0.0000     0.0000 </r>
       <r>    -6.8700     0.0000     0.0000 </r>
       <r>    -6.8600     0.0000     0.0000 </r>
       <r>    -6.8500     0.0000     0.0000 </r>
       <r>    -6.8400     0.0000     0.0000 </r>
       <r>    -6.8300     0.0000     0.0000 </r>
       <r>    -6.8200     0.0000     0.0000 </r>
       <r>    -6.8100     0.0000     0.0000 </r>
       <r>    -6.8000     0.0000     0.0000 </r>
       <r>    -6.7900     0.0000     0.0000 </r>
       <r>    -6.7800     0.0000     0.0000 </r>
       <r>    -6.7700     0.0000     0.0000 </r>
       <r>    -6.7600     0.0000     0.0000 </r>
       <r>    -6.7500     0.0000     0.0000 </r>
       <r>    -6.7400     0.0000     0.0000 </r>
       <r>    -6.7300     0.0000     0.0000 </r>
       <r>    -6.7200     0.0000     0.0000 </r>
       <r>    -6.7100     0.0000     0.0000 </r>
       <r>    -6.7000     0.0000     0.0000 </r>
       <r>    -6.6900     0.0000     0.0000 </r>
       <r>    -6.6800     0.0000     0.0000 </r>
       <r>    -6.6700     0.0000     0.0000 </r>
       <r>    -6.6600     0.0000     0.0000 </r>
       <r>    -6.6500     0.0000     0.0000 </r>
       <r>    -6.6400     0.0000     0.0000 </r>
       <r>    -6.6300     0.0000     0.0000 </r>
       <r>    -6.6200     0.0000     0.0000 </r>
       <r>    -6.6100     0.0000     0.0000 </r>
       <r>    -6.6000     0.0000     0.0000 </r>
       <r>    -6.5900     0.0000     0.0000 </r>
       <r>    -6.5800     0.0000     0.0000 </r>
       <r>    -6.5700     0.0000     0.0000 </r>
       <r>    -6.5600     0.0000     0.0000 </r>
       <r>    -6.5500     0.0000     0.0000 </r>
       <r>    -6.5400     0.0000     0.0000 </r>
       <r>    -6.5300     0.0000     0.0000 </r>
       <r>    -6.5200     0.0000     0.0000 </r>
       <r>    -6.5100     0.0000     0.0000 </r>
       <r>    -6.5000     0.0000     0.0000 </r>
       <r>    -6.4900     0.0000     0.0000 </r>
       <r>    -6.4800     0.0000     0.0000 </r>
       <r>    -6.4700     0.0000     0.0000 </r>
       <r>    -6.4600     0.0000     0.0000 </r>
       <r>    -6.4500     0.0000     0.0000 </r>
       <r>    -6.4400     0.0000     0.0000 </r>
       <r>    -6.4300     0.0000     0.0000 </r>
       <r>    -6.4200     0.0000     0.0000 </r>
       <r>    -6.4100     0.0000     0.0000 </r>
       <r>    -6.4000     0.0000     0.0000 </r>
       <r>    -6.3900     0.0000     0.0000 </r>
       <r>    -6.3800     0.0000     0.0000 </r>
       <r>    -6.3700     0.0000     0.0000 </r>
       <r>    -6.3600     0.0000     0.0000 </r>
       <r>    -6.3500     0.0000     0.0000 </r>
       <r>    -6.3400     0.0000     0.0000 </r>
       <r>    -6.3300     0.0000     0.0000 </r>
       <r>    -6.3200     0.0000     0.0000 </r>
       <r>    -6.3100     0.0000     0.0000 </r>
       <r>    -6.3000     0.0000     0.0000 </r>
       <r>    -6.2900     0.0000     0.0000 </r>
       <r>    -6.2800     0.0000     0.0000 </r>
       <r>    -6.2700     0.0000     0.0000 </r>
       <r>    -6.2600     0.0000     0.0000 </r>
       <r>    -6.2500     0.0000     0.0000 </r>
       <r>    -6.2400     0.0000     0.0000 </r>
       <r>    -6.2300     0.0000     0.0000 </r>
       <r>    -6.2200     0.0000     0.0000 </r>
       <r>    -6.2100     0.0000     0.0000 </r>
       <r>    -6.2000     0.0000     0.0000 </r>
       <r>    -6.1900     0.0000     0.0000 </r>
       <r>    -6.1800     0.0000     0.0000 </r>
       <r>    -6.1700     0.0000     0.0000 </r>
       <r>    -6.1600     0.0000     0.0000 </r>
       <r>    -6.1500     0.0000     0.0000 </r>
       <r>    -6.1400     0.0000     0.0000 </r>
       <r>    -6.1300     0.0000     0.0000 </r>
       <r>    -6.1200     0.0002     0.0000 </r>
       <r>    -6.1100     0.0010     0.0000 </r>
       <r>    -6.1000     0.0024     0.0000 </r>
       <r>    -6.0900     0.0043     0.0001 </r>
       <r>    -6.0800     0.0067     0.0001 </r>
       <r>    -6.0700     0.0097     0.0002 </r>
       <r>    -6.0600     0.0133     0.0003 </r>
       <r>    -6.0500     0.0174     0.0005 </r>
       <r>    -6.0400     0.0221     0.0007 </r>
       <r>    -6.0300     0.0273     0.0009 </r>
       <r>    -6.0200     0.0331     0.0012 </r>
       <r>    -6.0100     0.0394     0.0016 </r>
       <r>    -6.0000     0.0463     0.0020 </r>
       <r>    -5.9900     0.0537     0.0025 </r>
       <r>    -5.9800     0.0617     0.0031 </r>
       <r>    -5.9700     0.0703     0.0037 </r>
       <r>    -5.9600     0.0794     0.0045 </r>
       <r>    -5.9500     0.0890     0.0053 </r>
       <r>    -5.9400     0.0992     0.0063 </r>
       <r>    -5.9300     0.1100     0.0073 </r>
       <r>    -5.9200     0.1213     0.0085 </r>
       <r>    -5.9100     0.1332     0.0097 </r>
       <r>    -5.9000     0.1456     0.0111 </r>
       <r>    -5.8900     0.1586     0.0126 </r>
       <r>    -5.8800     0.1722     0.0143 </r>
       <r>    -5.8700     0.1863     0.0161 </r>
       <r>    -5.8600     0.1941     0.0180 </r>
       <r>    -5.8500     0.1870     0.0199 </r>
       <r>    -5.8400     0.1812     0.0218 </r>
       <r>    -5.8300     0.1766     0.0235 </r>
       <r>    -5.8200     0.1732     0.0253 </r>
       <r>    -5.8100     0.1710     0.0270 </r>
       <r>    -5.8000     0.1700     0.0287 </r>
       <r>    -5.7900     0.1703     0.0304 </r>
       <r>    -5.7800     0.1718     0.0321 </r>
       <r>    -5.7700     0.1744     0.0339 </r>
       <r>    -5.7600     0.1773     0.0356 </r>
       <r>    -5.7500     0.1803     0.0374 </r>
       <r>    -5.7400     0.1833     0.0392 </r>
       <r>    -5.7300     0.1863     0.0411 </r>
       <r>    -5.7200     0.1893     0.0430 </r>
       <r>    -5.7100     0.1924     0.0449 </r>
       <r>    -5.7000     0.1955     0.0468 </r>
       <r>    -5.6900     0.1986     0.0488 </r>
       <r>    -5.6800     0.2017     0.0508 </r>
       <r>    -5.6700     0.2048     0.0528 </r>
       <r>    -5.6600     0.2080     0.0549 </r>
       <r>    -5.6500     0.2112     0.0570 </r>
       <r>    -5.6400     0.2144     0.0591 </r>
       <r>    -5.6300     0.2176     0.0613 </r>
       <r>    -5.6200     0.2208     0.0634 </r>
       <r>    -5.6100     0.2241     0.0657 </r>
       <r>    -5.6000     0.2274     0.0679 </r>
       <r>    -5.5900     0.2307     0.0702 </r>
       <r>    -5.5800     0.2340     0.0725 </r>
       <r>    -5.5700     0.2374     0.0749 </r>
       <r>    -5.5600     0.2407     0.0773 </r>
       <r>    -5.5500     0.2441     0.0797 </r>
       <r>    -5.5400     0.2475     0.0822 </r>
       <r>    -5.5300     0.2510     0.0847 </r>
       <r>    -5.5200     0.2544     0.0872 </r>
       <r>    -5.5100     0.2579     0.0898 </r>
       <r>    -5.5000     0.2614     0.0923 </r>
       <r>    -5.4900     0.2649     0.0950 </r>
       <r>    -5.4800     0.2685     0.0976 </r>
       <r>    -5.4700     0.2721     0.1003 </r>
       <r>    -5.4600     0.2756     0.1031 </r>
       <r>    -5.4500     0.2792     0.1059 </r>
       <r>    -5.4400     0.2829     0.1087 </r>
       <r>    -5.4300     0.2865     0.1115 </r>
       <r>    -5.4200     0.2902     0.1144 </r>
       <r>    -5.4100     0.2937     0.1173 </r>
       <r>    -5.4000     0.2971     0.1203 </r>
       <r>    -5.3900     0.3004     0.1233 </r>
       <r>    -5.3800     0.3035     0.1263 </r>
       <r>    -5.3700     0.3066     0.1293 </r>
       <r>    -5.3600     0.3095     0.1324 </r>
       <r>    -5.3500     0.3123     0.1355 </r>
       <r>    -5.3400     0.3150     0.1387 </r>
       <r>    -5.3300     0.3175     0.1418 </r>
       <r>    -5.3200     0.3200     0.1450 </r>
       <r>    -5.3100     0.3223     0.1482 </r>
       <r>    -5.3000     0.3245     0.1515 </r>
       <r>    -5.2900     0.3265     0.1547 </r>
       <r>    -5.2800     0.3285     0.1580 </r>
       <r>    -5.2700     0.3303     0.1613 </r>
       <r>    -5.2600     0.3320     0.1646 </r>
       <r>    -5.2500     0.3336     0.1679 </r>
       <r>    -5.2400     0.3351     0.1713 </r>
       <r>    -5.2300     0.3364     0.1746 </r>
       <r>    -5.2200     0.3376     0.1780 </r>
       <r>    -5.2100     0.3387     0.1814 </r>
       <r>    -5.2000     0.3397     0.1848 </r>
       <r>    -5.1900     0.3405     0.1882 </r>
       <r>    -5.1800     0.3413     0.1916 </r>
       <r>    -5.1700     0.3419     0.1950 </r>
       <r>    -5.1600     0.3428     0.1984 </r>
       <r>    -5.1500     0.3442     0.2018 </r>
       <r>    -5.1400     0.3457     0.2053 </r>
       <r>    -5.1300     0.3475     0.2088 </r>
       <r>    -5.1200     0.3493     0.2122 </r>
       <r>    -5.1100     0.3514     0.2158 </r>
       <r>    -5.1000     0.3536     0.2193 </r>
       <r>    -5.0900     0.3559     0.2228 </r>
       <r>    -5.0800     0.3582     0.2264 </r>
       <r>    -5.0700     0.3606     0.2300 </r>
       <r>    -5.0600     0.3630     0.2336 </r>
       <r>    -5.0500     0.3654     0.2372 </r>
       <r>    -5.0400     0.3677     0.2409 </r>
       <r>    -5.0300     0.3701     0.2446 </r>
       <r>    -5.0200     0.3725     0.2483 </r>
       <r>    -5.0100     0.3750     0.2521 </r>
       <r>    -5.0000     0.3774     0.2558 </r>
       <r>    -4.9900     0.3798     0.2596 </r>
       <r>    -4.9800     0.3822     0.2634 </r>
       <r>    -4.9700     0.3847     0.2672 </r>
       <r>    -4.9600     0.3871     0.2711 </r>
       <r>    -4.9500     0.3896     0.2750 </r>
       <r>    -4.9400     0.3921     0.2789 </r>
       <r>    -4.9300     0.3946     0.2828 </r>
       <r>    -4.9200     0.3970     0.2868 </r>
       <r>    -4.9100     0.3995     0.2908 </r>
       <r>    -4.9000     0.4020     0.2948 </r>
       <r>    -4.8900     0.4046     0.2988 </r>
       <r>    -4.8800     0.4071     0.3029 </r>
       <r>    -4.8700     0.4096     0.3070 </r>
       <r>    -4.8600     0.4122     0.3111 </r>
       <r>    -4.8500     0.4147     0.3152 </r>
       <r>    -4.8400     0.4173     0.3194 </r>
       <r>    -4.8300     0.4198     0.3235 </r>
       <r>    -4.8200     0.4224     0.3278 </r>
       <r>    -4.8100     0.4250     0.3320 </r>
       <r>    -4.8000     0.4276     0.3363 </r>
       <r>    -4.7900     0.4302     0.3405 </r>
       <r>    -4.7800     0.4328     0.3449 </r>
       <r>    -4.7700     0.4354     0.3492 </r>
       <r>    -4.7600     0.4380     0.3536 </r>
       <r>    -4.7500     0.4406     0.3580 </r>
       <r>    -4.7400     0.4433     0.3624 </r>
       <r>    -4.7300     0.4459     0.3668 </r>
       <r>    -4.7200     0.4486     0.3713 </r>
       <r>    -4.7100     0.4512     0.3758 </r>
       <r>    -4.7000     0.4539     0.3803 </r>
       <r>    -4.6900     0.4566     0.3849 </r>
       <r>    -4.6800     0.4593     0.3895 </r>
       <r>    -4.6700     0.4620     0.3941 </r>
       <r>    -4.6600     0.4647     0.3987 </r>
       <r>    -4.6500     0.4675     0.4034 </r>
       <r>    -4.6400     0.4702     0.4080 </r>
       <r>    -4.6300     0.4729     0.4128 </r>
       <r>    -4.6200     0.4757     0.4175 </r>
       <r>    -4.6100     0.4785     0.4223 </r>
       <r>    -4.6000     0.4813     0.4271 </r>
       <r>    -4.5900     0.4840     0.4319 </r>
       <r>    -4.5800     0.4868     0.4367 </r>
       <r>    -4.5700     0.4897     0.4416 </r>
       <r>    -4.5600     0.4925     0.4465 </r>
       <r>    -4.5500     0.4953     0.4515 </r>
       <r>    -4.5400     0.4982     0.4564 </r>
       <r>    -4.5300     0.5010     0.4614 </r>
       <r>    -4.5200     0.5034     0.4665 </r>
       <r>    -4.5100     0.5053     0.4715 </r>
       <r>    -4.5000     0.5074     0.4766 </r>
       <r>    -4.4900     0.5095     0.4817 </r>
       <r>    -4.4800     0.5118     0.4868 </r>
       <r>    -4.4700     0.5142     0.4919 </r>
       <r>    -4.4600     0.5167     0.4970 </r>
       <r>    -4.4500     0.5193     0.5022 </r>
       <r>    -4.4400     0.5220     0.5074 </r>
       <r>    -4.4300     0.5248     0.5127 </r>
       <r>    -4.4200     0.5278     0.5179 </r>
       <r>    -4.4100     0.5308     0.5232 </r>
       <r>    -4.4000     0.5340     0.5286 </r>
       <r>    -4.3900     0.5371     0.5339 </r>
       <r>    -4.3800     0.5403     0.5393 </r>
       <r>    -4.3700     0.5435     0.5447 </r>
       <r>    -4.3600     0.5468     0.5502 </r>
       <r>    -4.3500     0.5501     0.5556 </r>
       <r>    -4.3400     0.5535     0.5612 </r>
       <r>    -4.3300     0.5568     0.5667 </r>
       <r>    -4.3200     0.5603     0.5723 </r>
       <r>    -4.3100     0.5637     0.5779 </r>
       <r>    -4.3000     0.5672     0.5836 </r>
       <r>    -4.2900     0.5708     0.5893 </r>
       <r>    -4.2800     0.5743     0.5950 </r>
       <r>    -4.2700     0.5780     0.6008 </r>
       <r>    -4.2600     0.5816     0.6066 </r>
       <r>    -4.2500     0.5853     0.6124 </r>
       <r>    -4.2400     0.5890     0.6183 </r>
       <r>    -4.2300     0.5928     0.6242 </r>
       <r>    -4.2200     0.5966     0.6301 </r>
       <r>    -4.2100     0.6005     0.6361 </r>
       <r>    -4.2000     0.6044     0.6421 </r>
       <r>    -4.1900     0.6083     0.6482 </r>
       <r>    -4.1800     0.6123     0.6543 </r>
       <r>    -4.1700     0.6163     0.6604 </r>
       <r>    -4.1600     0.6203     0.6666 </r>
       <r>    -4.1500     0.6244     0.6728 </r>
       <r>    -4.1400     0.6289     0.6791 </r>
       <r>    -4.1300     0.6337     0.6854 </r>
       <r>    -4.1200     0.6389     0.6918 </r>
       <r>    -4.1100     0.6445     0.6982 </r>
       <r>    -4.1000     0.6504     0.7047 </r>
       <r>    -4.0900     0.6567     0.7112 </r>
       <r>    -4.0800     0.6634     0.7178 </r>
       <r>    -4.0700     0.6704     0.7245 </r>
       <r>    -4.0600     0.6778     0.7312 </r>
       <r>    -4.0500     0.6882     0.7380 </r>
       <r>    -4.0400     0.7021     0.7450 </r>
       <r>    -4.0300     0.7156     0.7521 </r>
       <r>    -4.0200     0.7285     0.7593 </r>
       <r>    -4.0100     0.7410     0.7667 </r>
       <r>    -4.0000     0.7529     0.7741 </r>
       <r>    -3.9900     0.7642     0.7817 </r>
       <r>    -3.9800     0.7751     0.7894 </r>
       <r>    -3.9700     0.7854     0.7972 </r>
       <r>    -3.9600     0.7953     0.8051 </r>
       <r>    -3.9500     0.8046     0.8131 </r>
       <r>    -3.9400     0.8133     0.8212 </r>
       <r>    -3.9300     0.8216     0.8294 </r>
       <r>    -3.9200     0.8293     0.8376 </r>
       <r>    -3.9100     0.8366     0.8460 </r>
       <r>    -3.9000     0.8433     0.8544 </r>
       <r>    -3.8900     0.8495     0.8628 </r>
       <r>    -3.8800     0.8551     0.8713 </r>
       <r>    -3.8700     0.8603     0.8799 </r>
       <r>    -3.8600     0.8649     0.8886 </r>
       <r>    -3.8500     0.8690     0.8972 </r>
       <r>    -3.8400     0.8726     0.9059 </r>
       <r>    -3.8300     0.8757     0.9147 </r>
       <r>    -3.8200     0.8782     0.9234 </r>
       <r>    -3.8100     0.8803     0.9322 </r>
       <r>    -3.8000     0.8818     0.9410 </r>
       <r>    -3.7900     0.8828     0.9499 </r>
       <r>    -3.7800     0.8833     0.9587 </r>
       <r>    -3.7700     0.8833     0.9675 </r>
       <r>    -3.7600     0.8827     0.9764 </r>
       <r>    -3.7500     0.8816     0.9852 </r>
       <r>    -3.7400     0.8799     0.9940 </r>
       <r>    -3.7300     0.8778     1.0028 </r>
       <r>    -3.7200     0.8750     1.0115 </r>
       <r>    -3.7100     0.8718     1.0203 </r>
       <r>    -3.7000     0.8680     1.0290 </r>
       <r>    -3.6900     0.8637     1.0376 </r>
       <r>    -3.6800     0.8589     1.0463 </r>
       <r>    -3.6700     0.8535     1.0548 </r>
       <r>    -3.6600     0.8476     1.0633 </r>
       <r>    -3.6500     0.8412     1.0718 </r>
       <r>    -3.6400     0.8342     1.0801 </r>
       <r>    -3.6300     0.8267     1.0884 </r>
       <r>    -3.6200     0.8187     1.0967 </r>
       <r>    -3.6100     0.8102     1.1048 </r>
       <r>    -3.6000     0.8011     1.1129 </r>
       <r>    -3.5900     0.8037     1.1209 </r>
       <r>    -3.5800     0.8167     1.1290 </r>
       <r>    -3.5700     0.8296     1.1372 </r>
       <r>    -3.5600     0.8424     1.1456 </r>
       <r>    -3.5500     0.8551     1.1541 </r>
       <r>    -3.5400     0.8671     1.1627 </r>
       <r>    -3.5300     0.8776     1.1714 </r>
       <r>    -3.5200     0.8866     1.1802 </r>
       <r>    -3.5100     0.8941     1.1891 </r>
       <r>    -3.5000     0.9000     1.1981 </r>
       <r>    -3.4900     0.9044     1.2071 </r>
       <r>    -3.4800     0.9073     1.2162 </r>
       <r>    -3.4700     0.9086     1.2253 </r>
       <r>    -3.4600     0.9085     1.2343 </r>
       <r>    -3.4500     0.9068     1.2434 </r>
       <r>    -3.4400     0.9036     1.2525 </r>
       <r>    -3.4300     0.8988     1.2615 </r>
       <r>    -3.4200     0.8926     1.2704 </r>
       <r>    -3.4100     0.8848     1.2793 </r>
       <r>    -3.4000     0.8755     1.2881 </r>
       <r>    -3.3900     0.8647     1.2968 </r>
       <r>    -3.3800     0.8523     1.3054 </r>
       <r>    -3.3700     0.8385     1.3139 </r>
       <r>    -3.3600     0.8304     1.3222 </r>
       <r>    -3.3500     0.8238     1.3305 </r>
       <r>    -3.3400     0.8173     1.3387 </r>
       <r>    -3.3300     0.8110     1.3468 </r>
       <r>    -3.3200     0.8048     1.3549 </r>
       <r>    -3.3100     0.7987     1.3629 </r>
       <r>    -3.3000     0.7927     1.3709 </r>
       <r>    -3.2900     0.7868     1.3788 </r>
       <r>    -3.2800     0.7810     1.3866 </r>
       <r>    -3.2700     0.7754     1.3944 </r>
       <r>    -3.2600     0.7699     1.4021 </r>
       <r>    -3.2500     0.7644     1.4098 </r>
       <r>    -3.2400     0.7592     1.4174 </r>
       <r>    -3.2300     0.7540     1.4250 </r>
       <r>    -3.2200     0.7489     1.4325 </r>
       <r>    -3.2100     0.7440     1.4400 </r>
       <r>    -3.2000     0.7392     1.4474 </r>
       <r>    -3.1900     0.7345     1.4547 </r>
       <r>    -3.1800     0.7299     1.4621 </r>
       <r>    -3.1700     0.7254     1.4693 </r>
       <r>    -3.1600     0.7210     1.4766 </r>
       <r>    -3.1500     0.7168     1.4838 </r>
       <r>    -3.1400     0.7127     1.4909 </r>
       <r>    -3.1300     0.7087     1.4980 </r>
       <r>    -3.1200     0.7048     1.5051 </r>
       <r>    -3.1100     0.7010     1.5121 </r>
       <r>    -3.1000     0.6974     1.5191 </r>
       <r>    -3.0900     0.6939     1.5261 </r>
       <r>    -3.0800     0.6904     1.5330 </r>
       <r>    -3.0700     0.6872     1.5399 </r>
       <r>    -3.0600     0.6840     1.5467 </r>
       <r>    -3.0500     0.6809     1.5536 </r>
       <r>    -3.0400     0.6780     1.5603 </r>
       <r>    -3.0300     0.6753     1.5671 </r>
       <r>    -3.0200     0.6734     1.5739 </r>
       <r>    -3.0100     0.6715     1.5806 </r>
       <r>    -3.0000     0.6697     1.5873 </r>
       <r>    -2.9900     0.6680     1.5940 </r>
       <r>    -2.9800     0.6664     1.6006 </r>
       <r>    -2.9700     0.6649     1.6073 </r>
       <r>    -2.9600     0.6635     1.6139 </r>
       <r>    -2.9500     0.6622     1.6206 </r>
       <r>    -2.9400     0.6610     1.6272 </r>
       <r>    -2.9300     0.6598     1.6338 </r>
       <r>    -2.9200     0.6588     1.6404 </r>
       <r>    -2.9100     0.6578     1.6470 </r>
       <r>    -2.9000     0.6570     1.6535 </r>
       <r>    -2.8900     0.6554     1.6601 </r>
       <r>    -2.8800     0.6534     1.6667 </r>
       <r>    -2.8700     0.6510     1.6732 </r>
       <r>    -2.8600     0.6484     1.6797 </r>
       <r>    -2.8500     0.6454     1.6861 </r>
       <r>    -2.8400     0.6421     1.6926 </r>
       <r>    -2.8300     0.6385     1.6990 </r>
       <r>    -2.8200     0.6406     1.7054 </r>
       <r>    -2.8100     0.6453     1.7118 </r>
       <r>    -2.8000     0.6496     1.7183 </r>
       <r>    -2.7900     0.6533     1.7248 </r>
       <r>    -2.7800     0.6566     1.7313 </r>
[...]
       </set>
       <set comment="band 5">
        <r>  0.1029  0.0002  0.0983  0.0002  0.0000  0.0000  0.0000  0.0000  0.0000 </r>
        <r>  0.1029  0.0002  0.0983  0.0002  0.0000  0.0000  0.0000  0.0000  0.0000 </r>
       </set>
       <set comment="band 6">
        <r>  0.0000  0.0759  0.0000  0.0759  0.0000  0.0000  0.0000  0.0000  0.0000 </r>
        <r>  0.0000  0.0759  0.0000  0.0759  0.0000  0.0000  0.0000  0.0000  0.0000 </r>
       </set>
       <set comment="band 7">
        <r>  0.0279  0.0156  0.0965  0.0156  0.0000  0.0000  0.0000  0.0000  0.0000 </r>
        <r>  0.0279  0.0156  0.0965  0.0156  0.0000  0.0000  0.0000  0.0000  0.0000 </r>
       </set>
       <set comment="band 8">
        <r>  0.0837  0.0512  0.0004  0.0512  0.0000  0.0000  0.0000  0.0000  0.0000 </r>
        <r>  0.0837  0.0512  0.0004  0.0512  0.0000  0.0000  0.0000  0.0000  0.0000 </r>
       </set>
      </set>
      <set comment="kpoint 11">
       <set comment="band 1">
        <r>  0.2074  0.0000  0.0156  0.0000  0.0000  0.0000  0.0000  0.0000  0.0000 </r>
        <r>  0.2074  0.0000  0.0156  0.0000  0.0000  0.0000  0.0000  0.0000  0.0000 </r>
       </set>
       <set comment="band 2">
        <r>  0.1651  0.0000  0.0916  0.0000  0.0000  0.0000  0.0000  0.0000  0.0000 </r>
        <r>  0.1651  0.0000  0.0916  0.0000  0.0000  0.0000  0.0000  0.0000  0.0000 </r>
       </set>
       <set comment="band 3">
        <r>  0.0000  0.1005  0.0000  0.1005  0.0000  0.0000  0.0000  0.0000  0.0000 </r>
        <r>  0.0000  0.1005  0.0000  0.1005  0.0000  0.0000  0.0000  0.0000  0.0000 </r>
       </set>
       <set comment="band 4">
        <r>  0.0000  0.1005  0.0000  0.1005  0.0000  0.0000  0.0000  0.0000  0.0000 </r>
        <r>  0.0000  0.1005  0.0000  0.1005  0.0000  0.0000  0.0000  0.0000  0.0000 </r>
       </set>
       <set comment="band 5">
        <r>  0.0473  0.0000  0.0687  0.0000  0.0000  0.0000  0.0000  0.0000  0.0000 </r>
        <r>  0.0473  0.0000  0.0687  0.0000  0.0000  0.0000  0.0000  0.0000  0.0000 </r>
       </set>
       <set comment="band 6">
        <r>  0.0451  0.0000  0.0342  0.0000  0.0000  0.0000  0.0000  0.0000  0.0000 </r>
        <r>  0.0451  0.0000  0.0342  0.0000  0.0000  0.0000  0.0000  0.0000  0.0000 </r>
       </set>
       <set comment="band 7">
        <r>  0.0000  0.0846  0.0000  0.0846  0.0000  0.0000  0.0000  0.0000  0.0000 </r>
        <r>  0.0000  0.0847  0.0000  0.0845  0.0000  0.0000  0.0000  0.0000  0.0000 </r>
       </set>
       <set comment="band 8">
        <r>  0.0000  0.0846  0.0000  0.0846  0.0000  0.0000  0.0000  0.0000  0.0000 </r>
        <r>  0.0000  0.0845  0.0000  0.0847  0.0000  0.0000  0.0000  0.0000  0.0000 </r>
       </set>
      </set>
      <set comment="kpoint 12">
       <set comment="band 1">
        <r>  0.2052  0.0008  0.0228  0.0008  0.0000  0.0000  0.0000  0.0000  0.0000 </r>
        <r>  0.2052  0.0008  0.0228  0.0008  0.0000  0.0000  0.0000  0.0000  0.0000 </r>
       </set>
       <set comment="band 2">
        <r>  0.1739  0.0090  0.0569  0.0090  0.0000  0.0000  0.0000  0.0000  0.0000 </r>
        <r>  0.1739  0.0090  0.0569  0.0090  0.0000  0.0000  0.0000  0.0000  0.0000 </r>
       </set>
       <set comment="band 3">
        <r>  0.0107  0.0687  0.0333  0.0687  0.0000  0.0000  0.0000  0.0000  0.0000 </r>
        <r>  0.0107  0.0687  0.0333  0.0687  0.0000  0.0000  0.0000  0.0000  0.0000 </r>
       </set>
       <set comment="band 4">
        <r>  0.0000  0.1008  0.0000  0.1008  0.0000  0.0000  0.0000  0.0000  0.0000 </r>
        <r>  0.0000  0.1008  0.0000  0.1008  0.0000  0.0000  0.0000  0.0000  0.0000 </r>
       </set>
       <set comment="band 5">
        <r>  0.0470  0.0050  0.0480  0.0050  0.0000  0.0000  0.0000  0.0000  0.0000 </r>
        <r>  0.0470  0.0050  0.0480  0.0050  0.0000  0.0000  0.0000  0.0000  0.0000 </r>
       </set>
       <set comment="band 6">
        <r>  0.0374  0.0182  0.0237  0.0182  0.0000  0.0000  0.0000  0.0000  0.0000 </r>
        <r>  0.0374  0.0182  0.0237  0.0182  0.0000  0.0000  0.0000  0.0000  0.0000 </r>
       </set>
       <set comment="band 7">
        <r>  0.0415  0.0554  0.0316  0.0554  0.0000  0.0000  0.0000  0.0000  0.0000 </r>
        <r>  0.0415  0.0554  0.0316  0.0554  0.0000  0.0000  0.0000  0.0000  0.0000 </r>
       </set>
       <set comment="band 8">
        <r>  0.0000  0.0667  0.0000  0.0667  0.0000  0.0000  0.0000  0.0000  0.0000 </r>
        <r>  0.0000  0.0667  0.0000  0.0667  0.0000  0.0000  0.0000  0.0000  0.0000 </r>
       </set>
      </set>
      <set comment="kpoint 13">
       <set comment="band 1">
        <r>  0.2156  0.0041  0.0195  0.0041  0.0000  0.0000  0.0000  0.0000  0.0000 </r>
        <r>  0.2156  0.0041  0.0195  0.0041  0.0000  0.0000  0.0000  0.0000  0.0000 </r>
       </set>
       <set comment="band 2">
        <r>  0.1651  0.0149  0.0382  0.0149  0.0000  0.0000  0.0000  0.0000  0.0000 </r>
        <r>  0.1651  0.0149  0.0382  0.0149  0.0000  0.0000  0.0000  0.0000  0.0000 </r>
       </set>
       <set comment="band 3">
        <r>  0.0150  0.0472  0.0587  0.0472  0.0000  0.0000  0.0000  0.0000  0.0000 </r>
        <r>  0.0150  0.0472  0.0587  0.0472  0.0000  0.0000  0.0000  0.0000  0.0000 </r>
       </set>
       <set comment="band 4">
        <r>  0.0000  0.1023  0.0000  0.1023  0.0000  0.0000  0.0000  0.0000  0.0000 </r>
        <r>  0.0000  0.1023  0.0000  0.1023  0.0000  0.0000  0.0000  0.0000  0.0000 </r>
       </set>
       <set comment="band 5">
        <r>  0.0530  0.0014  0.0434  0.0014  0.0000  0.0000  0.0000  0.0000  0.0000 </r>
        <r>  0.0530  0.0014  0.0434  0.0014  0.0000  0.0000  0.0000  0.0000  0.0000 </r>
       </set>
       <set comment="band 6">
        <r>  0.0156  0.0383  0.0084  0.0383  0.0000  0.0000  0.0000  0.0000  0.0000 </r>
        <r>  0.0156  0.0383  0.0084  0.0383  0.0000  0.0000  0.0000  0.0000  0.0000 </r>
       </set>
       <set comment="band 7">
        <r>  0.0000  0.0601  0.0000  0.0601  0.0000  0.0000  0.0000  0.0000  0.0000 </r>
        <r>  0.0000  0.0601  0.0000  0.0601  0.0000  0.0000  0.0000  0.0000  0.0000 </r>
       </set>
       <set comment="band 8">
        <r>  0.0623  0.0329  0.0686  0.0329  0.0000  0.0000  0.0000  0.0000  0.0000 </r>
        <r>  0.0624  0.0329  0.0686  0.0329  0.0000  0.0000  0.0000  0.0000  0.0000 </r>
       </set>
      </set>
      <set comment="kpoint 14">
       <set comment="band 1">
        <r>  0.2119  0.0093  0.0049  0.0093  0.0000  0.0000  0.0000  0.0000  0.0000 </r>
        <r>  0.2119  0.0093  0.0049  0.0093  0.0000  0.0000  0.0000  0.0000  0.0000 </r>
       </set>
       <set comment="band 2">
        <r>  0.1651  0.0166  0.0418  0.0166  0.0000  0.0000  0.0000  0.0000  0.0000 </r>
        <r>  0.1651  0.0166  0.0418  0.0166  0.0000  0.0000  0.0000  0.0000  0.0000 </r>
       </set>
       <set comment="band 3">
        <r>  0.0105  0.0396  0.0739  0.0396  0.0000  0.0000  0.0000  0.0000  0.0000 </r>
        <r>  0.0105  0.0396  0.0739  0.0396  0.0000  0.0000  0.0000  0.0000  0.0000 </r>
       </set>
       <set comment="band 4">
        <r>  0.0000  0.1051  0.0000  0.1051  0.0000  0.0000  0.0000  0.0000  0.0000 </r>
        <r>  0.0000  0.1051  0.0000  0.1051  0.0000  0.0000  0.0000  0.0000  0.0000 </r>
       </set>
       <set comment="band 5">
        <r>  0.0588  0.0018  0.0515  0.0018  0.0000  0.0000  0.0000  0.0000  0.0000 </r>
        <r>  0.0588  0.0018  0.0515  0.0018  0.0000  0.0000  0.0000  0.0000  0.0000 </r>
       </set>
       <set comment="band 6">
        <r>  0.0000  0.0756  0.0000  0.0756  0.0000  0.0000  0.0000  0.0000  0.0000 </r>
        <r>  0.0000  0.0756  0.0000  0.0756  0.0000  0.0000  0.0000  0.0000  0.0000 </r>
       </set>
       <set comment="band 7">
        <r>  0.0253  0.0002  0.0945  0.0002  0.0000  0.0000  0.0000  0.0000  0.0000 </r>
        <r>  0.0253  0.0002  0.0945  0.0002  0.0000  0.0000  0.0000  0.0000  0.0000 </r>
       </set>
       <set comment="band 8">
        <r>  0.0731  0.0523  0.0322  0.0521  0.0000  0.0000  0.0000  0.0000  0.0000 </r>
        <r>  0.0731  0.0523  0.0322  0.0521  0.0000  0.0000  0.0000  0.0000  0.0000 </r>
       </set>
      </set>
      <set comment="kpoint 15">
       <set comment="band 1">
        <r>  0.1992  0.0000  0.0344  0.0000  0.0000  0.0000  0.0000  0.0000  0.0000 </r>
        <r>  0.1992  0.0000  0.0344  0.0000  0.0000  0.0000  0.0000  0.0000  0.0000 </r>
       </set>
       <set comment="band 2">
        <r>  0.1875  0.0000  0.0593  0.0000  0.0000  0.0000  0.0000  0.0000  0.0000 </r>
        <r>  0.1875  0.0000  0.0593  0.0000  0.0000  0.0000  0.0000  0.0000  0.0000 </r>
       </set>
       <set comment="band 3">
        <r>  0.0000  0.1001  0.0000  0.1001  0.0000  0.0000  0.0000  0.0000  0.0000 </r>
        <r>  0.0000  0.1001  0.0000  0.1001  0.0000  0.0000  0.0000  0.0000  0.0000 </r>
       </set>
       <set comment="band 4">
        <r>  0.0000  0.1001  0.0000  0.1001  0.0000  0.0000  0.0000  0.0000  0.0000 </r>
        <r>  0.0000  0.1001  0.0000  0.1001  0.0000  0.0000  0.0000  0.0000  0.0000 </r>
       </set>
       <set comment="band 5">
        <r>  0.0539  0.0000  0.0431  0.0000  0.0000  0.0000  0.0000  0.0000  0.0000 </r>
        <r>  0.0539  0.0000  0.0431  0.0000  0.0000  0.0000  0.0000  0.0000  0.0000 </r>
       </set>
       <set comment="band 6">
        <r>  0.0488  0.0000  0.0313  0.0000  0.0000  0.0000  0.0000  0.0000  0.0000 </r>
        <r>  0.0488  0.0000  0.0313  0.0000  0.0000  0.0000  0.0000  0.0000  0.0000 </r>
       </set>
       <set comment="band 7">
        <r>  0.0000  0.0868  0.0000  0.0871  0.0000  0.0000  0.0000  0.0000  0.0000 </r>
        <r>  0.0000  0.0869  0.0000  0.0870  0.0000  0.0000  0.0000  0.0000  0.0000 </r>
       </set>
       <set comment="band 8">
        <r>  0.0000  0.0871  0.0000  0.0868  0.0000  0.0000  0.0000  0.0000  0.0000 </r>
        <r>  0.0000  0.0870  0.0000  0.0869  0.0000  0.0000  0.0000  0.0000  0.0000 </r>
       </set>
      </set>
      <set comment="kpoint 16">
       <set comment="band 1">
        <r>  0.2036  0.0013  0.0384  0.0013  0.0000  0.0000  0.0000  0.0000  0.0000 </r>
        <r>  0.2036  0.0013  0.0384  0.0013  0.0000  0.0000  0.0000  0.0000  0.0000 </r>
       </set>
       <set comment="band 2">
        <r>  0.1908  0.0019  0.0456  0.0019  0.0000  0.0000  0.0000  0.0000  0.0000 </r>
        <r>  0.1908  0.0019  0.0456  0.0019  0.0000  0.0000  0.0000  0.0000  0.0000 </r>
       </set>
       <set comment="band 3">
        <r>  0.0023  0.0748  0.0201  0.0748  0.0000  0.0000  0.0000  0.0000  0.0000 </r>
        <r>  0.0023  0.0748  0.0201  0.0748  0.0000  0.0000  0.0000  0.0000  0.0000 </r>
       </set>
       <set comment="band 4">
        <r>  0.0000  0.1005  0.0000  0.1005  0.0000  0.0000  0.0000  0.0000  0.0000 </r>
        <r>  0.0000  0.1005  0.0000  0.1005  0.0000  0.0000  0.0000  0.0000  0.0000 </r>
       </set>
       <set comment="band 5">
        <r>  0.0524  0.0003  0.0367  0.0003  0.0000  0.0000  0.0000  0.0000  0.0000 </r>
        <r>  0.0524  0.0003  0.0367  0.0003  0.0000  0.0000  0.0000  0.0000  0.0000 </r>
       </set>
       <set comment="band 6">
        <r>  0.0380  0.0234  0.0232  0.0234  0.0000  0.0000  0.0000  0.0000  0.0000 </r>
        <r>  0.0380  0.0234  0.0232  0.0234  0.0000  0.0000  0.0000  0.0000  0.0000 </r>
       </set>
       <set comment="band 7">
        <r>  0.0000  0.0898  0.0000  0.0900  0.0000  0.0000  0.0000  0.0000  0.0000 </r>
        <r>  0.0000  0.0896  0.0000  0.0901  0.0000  0.0000  0.0000  0.0000  0.0000 </r>
       </set>
       <set comment="band 8">
        <r>  0.0291  0.0941  0.0242  0.0925  0.0000  0.0000  0.0000  0.0000  0.0000 </r>
        <r>  0.0269  0.0931  0.0281  0.0914  0.0000  0.0000  0.0000  0.0000  0.0000 </r>
       </set>
      </set>
      <set comment="kpoint 17">
       <set comment="band 1">
        <r>  0.2082  0.0027  0.0142  0.0009  0.0000  0.0000  0.0000  0.0000  0.0000 </r>
        <r>  0.2082  0.0027  0.0142  0.0009  0.0000  0.0000  0.0000  0.0000  0.0000 </r>
       </set>
       <set comment="band 2">
        <r>  0.1556  0.0143  0.0477  0.0282  0.0000  0.0000  0.0000  0.0000  0.0000 </r>
        <r>  0.1556  0.0143  0.0477  0.0282  0.0000  0.0000  0.0000  0.0000  0.0000 </r>
       </set>
       <set comment="band 3">
        <r>  0.0119  0.0517  0.0209  0.0940  0.0000  0.0000  0.0000  0.0000  0.0000 </r>
        <r>  0.0119  0.0517  0.0209  0.0940  0.0000  0.0000  0.0000  0.0000  0.0000 </r>
       </set>
       <set comment="band 4">
        <r>  0.0067  0.1038  0.0603  0.0310  0.0000  0.0000  0.0000  0.0000  0.0000 </r>
        <r>  0.0067  0.1038  0.0603  0.0310  0.0000  0.0000  0.0000  0.0000  0.0000 </r>
       </set>
       <set comment="band 5">
        <r>  0.0288  0.0263  0.0512  0.0288  0.0000  0.0000  0.0000  0.0000  0.0000 </r>
        <r>  0.0288  0.0263  0.0512  0.0288  0.0000  0.0000  0.0000  0.0000  0.0000 </r>
       </set>
       <set comment="band 6">
        <r>  0.0505  0.0157  0.0247  0.0140  0.0000  0.0000  0.0000  0.0000  0.0000 </r>
        <r>  0.0505  0.0157  0.0247  0.0140  0.0000  0.0000  0.0000  0.0000  0.0000 </r>
       </set>
       <set comment="band 7">
        <r>  0.0405  0.0479  0.0084  0.0502  0.0000  0.0000  0.0000  0.0000  0.0000 </r>
        <r>  0.0405  0.0479  0.0084  0.0502  0.0000  0.0000  0.0000  0.0000  0.0000 </r>
       </set>
       <set comment="band 8">
        <r>  0.0066  0.0573  0.0119  0.0837  0.0000  0.0000  0.0000  0.0000  0.0000 </r>
        <r>  0.0066  0.0572  0.0119  0.0837  0.0000  0.0000  0.0000  0.0000  0.0000 </r>
       </set>
      </set>
      <set comment="kpoint 18">
       <set comment="band 1">
        <r>  0.2133  0.0034  0.0162  0.0048  0.0000  0.0000  0.0000  0.0000  0.0000 </r>
        <r>  0.2133  0.0034  0.0162  0.0048  0.0000  0.0000  0.0000  0.0000  0.0000 </r>
       </set>
       <set comment="band 2">
        <r>  0.1528  0.0157  0.0285  0.0327  0.0000  0.0000  0.0000  0.0000  0.0000 </r>
        <r>  0.1528  0.0157  0.0285  0.0327  0.0000  0.0000  0.0000  0.0000  0.0000 </r>
       </set>
       <set comment="band 3">
        <r>  0.0280  0.0397  0.0427  0.0702  0.0000  0.0000  0.0000  0.0000  0.0000 </r>
        <r>  0.0280  0.0397  0.0427  0.0702  0.0000  0.0000  0.0000  0.0000  0.0000 </r>
       </set>
       <set comment="band 4">
        <r>  0.0022  0.0989  0.0548  0.0351  0.0000  0.0000  0.0000  0.0000  0.0000 </r>
        <r>  0.0022  0.0989  0.0548  0.0351  0.0000  0.0000  0.0000  0.0000  0.0000 </r>
       </set>
       <set comment="band 5">
        <r>  0.0347  0.0324  0.0349  0.0180  0.0000  0.0000  0.0000  0.0000  0.0000 </r>
        <r>  0.0347  0.0324  0.0349  0.0180  0.0000  0.0000  0.0000  0.0000  0.0000 </r>
       </set>
       <set comment="band 6">
        <r>  0.0430  0.0391  0.0123  0.0366  0.0000  0.0000  0.0000  0.0000  0.0000 </r>
        <r>  0.0430  0.0391  0.0123  0.0366  0.0000  0.0000  0.0000  0.0000  0.0000 </r>
       </set>
       <set comment="band 7">
        <r>  0.0323  0.0385  0.0227  0.0339  0.0000  0.0000  0.0000  0.0000  0.0000 </r>
        <r>  0.0323  0.0385  0.0227  0.0339  0.0000  0.0000  0.0000  0.0000  0.0000 </r>
       </set>
       <set comment="band 8">
        <r>  0.0175  0.0374  0.0300  0.0559  0.0000  0.0000  0.0000  0.0000  0.0000 </r>
        <r>  0.0175  0.0374  0.0300  0.0559  0.0000  0.0000  0.0000  0.0000  0.0000 </r>
       </set>
      </set>
      <set comment="kpoint 19">
       <set comment="band 1">
        <r>  0.2041  0.0008  0.0298  0.0034  0.0000  0.0000  0.0000  0.0000  0.0000 </r>
        <r>  0.2041  0.0008  0.0298  0.0034  0.0000  0.0000  0.0000  0.0000  0.0000 </r>
       </set>
       <set comment="band 2">
        <r>  0.1929  0.0007  0.0443  0.0120  0.0000  0.0000  0.0000  0.0000  0.0000 </r>
        <r>  0.1929  0.0007  0.0443  0.0120  0.0000  0.0000  0.0000  0.0000  0.0000 </r>
       </set>
       <set comment="band 3">
        <r>  0.0066  0.0682  0.0182  0.0808  0.0000  0.0000  0.0000  0.0000  0.0000 </r>
        <r>  0.0066  0.0682  0.0182  0.0808  0.0000  0.0000  0.0000  0.0000  0.0000 </r>
       </set>
       <set comment="band 4">
        <r>  0.0000  0.0869  0.0273  0.0627  0.0000  0.0000  0.0000  0.0000  0.0000 </r>
        <r>  0.0000  0.0869  0.0273  0.0627  0.0000  0.0000  0.0000  0.0000  0.0000 </r>
       </set>
       <set comment="band 5">
        <r>  0.0366  0.0301  0.0302  0.0211  0.0000  0.0000  0.0000  0.0000  0.0000 </r>
        <r>  0.0366  0.0301  0.0302  0.0211  0.0000  0.0000  0.0000  0.0000  0.0000 </r>
       </set>
       <set comment="band 6">
        <r>  0.0369  0.0297  0.0199  0.0134  0.0000  0.0000  0.0000  0.0000  0.0000 </r>
        <r>  0.0369  0.0297  0.0199  0.0134  0.0000  0.0000  0.0000  0.0000  0.0000 </r>
       </set>
       <set comment="band 7">
        <r>  0.0321  0.0542  0.0253  0.0361  0.0000  0.0000  0.0000  0.0000  0.0000 </r>
        <r>  0.0321  0.0542  0.0253  0.0361  0.0000  0.0000  0.0000  0.0000  0.0000 </r>
       </set>
       <set comment="band 8">
        <r>  0.0165  0.0786  0.0231  0.0624  0.0000  0.0000  0.0000  0.0000  0.0000 </r>
        <r>  0.0165  0.0786  0.0231  0.0624  0.0000  0.0000  0.0000  0.0000  0.0000 </r>
       </set>
      </set>
      <set comment="kpoint 20">
       <set comment="band 1">
        <r>  0.2127  0.0016  0.0176  0.0150  0.0000  0.0000  0.0000  0.0000  0.0000 </r>
        <r>  0.2127  0.0016  0.0176  0.0150  0.0000  0.0000  0.0000  0.0000  0.0000 </r>
       </set>
       <set comment="band 2">
        <r>  0.1912  0.0023  0.0362  0.0156  0.0000  0.0000  0.0000  0.0000  0.0000 </r>
        <r>  0.1912  0.0023  0.0362  0.0156  0.0000  0.0000  0.0000  0.0000  0.0000 </r>
       </set>
       <set comment="band 3">
        <r>  0.0008  0.0602  0.0522  0.0450  0.0000  0.0000  0.0000  0.0000  0.0000 </r>
        <r>  0.0008  0.0602  0.0522  0.0450  0.0000  0.0000  0.0000  0.0000  0.0000 </r>
       </set>
       <set comment="band 4">
        <r>  0.0028  0.0820  0.0221  0.0715  0.0000  0.0000  0.0000  0.0000  0.0000 </r>
        <r>  0.0028  0.0820  0.0221  0.0715  0.0000  0.0000  0.0000  0.0000  0.0000 </r>
       </set>
       <set comment="band 5">
        <r>  0.0355  0.0388  0.0259  0.0120  0.0000  0.0000  0.0000  0.0000  0.0000 </r>
        <r>  0.0355  0.0388  0.0259  0.0120  0.0000  0.0000  0.0000  0.0000  0.0000 </r>
       </set>
       <set comment="band 6">
        <r>  0.0030  0.0819  0.0005  0.0047  0.0000  0.0000  0.0000  0.0000  0.0000 </r>
        <r>  0.0030  0.0819  0.0005  0.0047  0.0000  0.0000  0.0000  0.0000  0.0000 </r>
       </set>
       <set comment="band 7">
        <r>  0.0458  0.0066  0.0517  0.0647  0.0000  0.0000  0.0000  0.0000  0.0000 </r>
        <r>  0.0458  0.0066  0.0517  0.0647  0.0000  0.0000  0.0000  0.0000  0.0000 </r>
       </set>
       <set comment="band 8">
        <r>  0.0385  0.0411  0.0304  0.0238  0.0000  0.0000  0.0000  0.0000  0.0000 </r>
        <r>  0.0385  0.0411  0.0304  0.0238  0.0000  0.0000  0.0000  0.0000  0.0000 </r>
       </set>
      </set>
     </set>
    </set>
   </array>
  </projected>
 </calculation>
 <structure name="finalpos" >
  <crystal>
   <varray name="basis" >
    <v>       0.00000000       2.71540000       2.71540000 </v>
    <v>       2.71540000       0.00000000       2.71540000 </v>
    <v>       2.71540000       2.71540000       0.00000000 </v>
   </varray>
   <i name="volume">     40.04344530 </i>
   <varray name="rec_basis" >
    <v>      -0.18413493       0.18413493       0.18413493 </v>
    <v>       0.18413493      -0.18413493       0.18413493 </v>
    <v>       0.18413493       0.18413493      -0.18413493 </v>
   </varray>
  </crystal>
  <varray name="positions" >
   <v>       0.00000000       0.00000000       0.00000000 </v>
   <v>       0.25000000       0.25000000       0.25000000 </v>
  </varray>
 </structure>
</modeling>
