  20  20   0   0
  0.1957362E+02  0.3905268E-09  0.3905268E-09  0.2566844E-08  0.5000000E-15
  1.000000000000000E-004
  CAR 
 unknown system                          
      9.85571523    -35.86025869  301      0.59823051      1.00000000
    -35.860  0.0000E+00  0.0000E+00
    -35.708  0.0000E+00  0.0000E+00
    -35.555  0.0000E+00  0.0000E+00
    -35.403  0.0000E+00  0.0000E+00
    -35.251  0.0000E+00  0.0000E+00
    -35.098  0.0000E+00  0.0000E+00
    -34.946  0.0000E+00  0.0000E+00
    -34.794  0.0000E+00  0.0000E+00
    -34.641  0.0000E+00  0.0000E+00
    -34.489  0.0000E+00  0.0000E+00
    -34.336  0.0000E+00  0.0000E+00
    -34.184  0.0000E+00  0.0000E+00
    -34.032  0.0000E+00  0.0000E+00
    -33.879  0.0000E+00  0.0000E+00
    -33.727  0.0000E+00  0.2000E+01
    -33.574  0.0000E+00  0.2000E+01
    -33.422  0.0000E+00  0.2000E+01
    -33.270  0.0000E+00  0.2000E+01
    -33.117  0.0000E+00  0.2000E+01
    -32.965  0.0000E+00  0.2000E+01
    -32.813  0.0000E+00  0.2000E+01
    -32.660  0.1361E+02  0.6009E+01
    -32.508  0.0000E+00  0.8000E+01
    -32.355  0.0000E+00  0.8000E+01
    -32.203  0.0000E+00  0.8000E+01
    -32.051  0.0000E+00  0.8000E+01
    -31.898  0.0000E+00  0.8000E+01
    -31.746  0.0000E+00  0.8000E+01
    -31.593  0.0000E+00  0.8000E+01
    -31.441  0.0000E+00  0.8000E+01
    -31.289  0.0000E+00  0.8000E+01
    -31.136  0.0000E+00  0.8000E+01
    -30.984  0.0000E+00  0.8000E+01
    -30.832  0.0000E+00  0.8000E+01
    -30.679  0.0000E+00  0.8000E+01
    -30.527  0.0000E+00  0.8000E+01
    -30.374  0.0000E+00  0.8000E+01
    -30.222  0.0000E+00  0.8000E+01
    -30.070  0.0000E+00  0.8000E+01
    -29.917  0.0000E+00  0.8000E+01
    -29.765  0.0000E+00  0.8000E+01
    -29.612  0.0000E+00  0.8000E+01
    -29.460  0.0000E+00  0.8000E+01
    -29.308  0.0000E+00  0.8000E+01
    -29.155  0.0000E+00  0.8000E+01
    -29.003  0.0000E+00  0.8000E+01
    -28.850  0.0000E+00  0.8000E+01
    -28.698  0.0000E+00  0.8000E+01
    -28.546  0.0000E+00  0.8000E+01
    -28.393  0.0000E+00  0.8000E+01
    -28.241  0.0000E+00  0.8000E+01
    -28.089  0.0000E+00  0.8000E+01
    -27.936  0.0000E+00  0.8000E+01
    -27.784  0.0000E+00  0.8000E+01
    -27.631  0.0000E+00  0.8000E+01
    -27.479  0.0000E+00  0.8000E+01
    -27.327  0.0000E+00  0.8000E+01
    -27.174  0.0000E+00  0.8000E+01
    -27.022  0.0000E+00  0.8000E+01
    -26.869  0.0000E+00  0.8000E+01
    -26.717  0.0000E+00  0.8000E+01
    -26.565  0.0000E+00  0.8000E+01
    -26.412  0.0000E+00  0.8000E+01
    -26.260  0.0000E+00  0.8000E+01
    -26.108  0.0000E+00  0.8000E+01
    -25.955  0.0000E+00  0.8000E+01
    -25.803  0.0000E+00  0.8000E+01
    -25.650  0.0000E+00  0.8000E+01
    -25.498  0.0000E+00  0.8000E+01
    -25.346  0.0000E+00  0.8000E+01
    -25.193  0.0000E+00  0.8000E+01
    -25.041  0.0000E+00  0.8000E+01
    -24.888  0.0000E+00  0.8000E+01
    -24.736  0.0000E+00  0.8000E+01
    -24.584  0.0000E+00  0.8000E+01
    -24.431  0.0000E+00  0.8000E+01
    -24.279  0.0000E+00  0.8000E+01
    -24.126  0.0000E+00  0.8000E+01
    -23.974  0.0000E+00  0.8000E+01
    -23.822  0.0000E+00  0.8000E+01
    -23.669  0.0000E+00  0.8000E+01
    -23.517  0.0000E+00  0.8000E+01
    -23.365  0.0000E+00  0.8000E+01
    -23.212  0.0000E+00  0.8000E+01
    -23.060  0.0000E+00  0.8000E+01
    -22.907  0.0000E+00  0.8000E+01
    -22.755  0.0000E+00  0.8000E+01
    -22.603  0.0000E+00  0.8000E+01
    -22.450  0.0000E+00  0.8000E+01
    -22.298  0.0000E+00  0.8000E+01
    -22.145  0.0000E+00  0.8000E+01
    -21.993  0.0000E+00  0.8000E+01
    -21.841  0.0000E+00  0.8000E+01
    -21.688  0.0000E+00  0.8000E+01
    -21.536  0.0000E+00  0.8000E+01
    -21.384  0.0000E+00  0.8000E+01
    -21.231  0.0000E+00  0.8000E+01
    -21.079  0.0000E+00  0.8000E+01
    -20.926  0.0000E+00  0.8000E+01
    -20.774  0.0000E+00  0.8000E+01
    -20.622  0.0000E+00  0.8000E+01
    -20.469  0.0000E+00  0.8000E+01
    -20.317  0.0000E+00  0.8000E+01
    -20.164  0.0000E+00  0.8000E+01
    -20.012  0.0000E+00  0.8000E+01
    -19.860  0.0000E+00  0.8000E+01
    -19.707  0.0000E+00  0.8000E+01
    -19.555  0.0000E+00  0.8000E+01
    -19.403  0.0000E+00  0.8000E+01
    -19.250  0.0000E+00  0.8000E+01
    -19.098  0.0000E+00  0.8000E+01
    -18.945  0.0000E+00  0.8000E+01
    -18.793  0.0000E+00  0.8000E+01
    -18.641  0.0000E+00  0.8000E+01
    -18.488  0.0000E+00  0.8000E+01
    -18.336  0.0000E+00  0.8000E+01
    -18.183  0.0000E+00  0.8000E+01
    -18.031  0.0000E+00  0.8000E+01
    -17.879  0.0000E+00  0.8000E+01
    -17.726  0.0000E+00  0.8000E+01
    -17.574  0.1155E+02  0.8870E+01
    -17.421  0.1285E+02  0.1048E+02
    -17.269  0.6794E+01  0.1184E+02
    -17.117  0.4536E+01  0.1290E+02
    -16.964  0.7237E+01  0.1420E+02
    -16.812  0.4088E+01  0.1527E+02
    -16.660  0.3232E+02  0.1668E+02
    -16.507  0.4310E+02  0.2160E+02
    -16.355  0.4252E+01  0.2640E+02
    -16.202  0.2310E+02  0.2779E+02
    -16.050  0.6704E+01  0.2946E+02
    -15.898  0.2866E+02  0.3166E+02
    -15.745  0.1136E+02  0.3313E+02
    -15.593  0.1624E-01  0.3600E+02
    -15.440  0.2699E+00  0.3602E+02
    -15.288  0.1299E+01  0.3619E+02
    -15.136  0.2346E+01  0.3648E+02
    -14.983  0.5445E+01  0.3711E+02
    -14.831  0.3577E+02  0.4005E+02
    -14.679  0.5196E+02  0.4540E+02
    -14.526  0.2521E+02  0.4977E+02
    -14.374  0.1938E+02  0.5475E+02
    -14.221  0.0000E+00  0.5600E+02
    -14.069  0.0000E+00  0.5600E+02
    -13.917  0.0000E+00  0.5600E+02
    -13.764  0.0000E+00  0.5600E+02
    -13.612  0.0000E+00  0.5600E+02
    -13.459  0.0000E+00  0.5600E+02
    -13.307  0.0000E+00  0.5600E+02
    -13.155  0.0000E+00  0.5600E+02
    -13.002  0.0000E+00  0.5600E+02
    -12.850  0.0000E+00  0.5600E+02
    -12.697  0.0000E+00  0.5600E+02
    -12.545  0.0000E+00  0.5600E+02
    -12.393  0.0000E+00  0.5600E+02
    -12.240  0.0000E+00  0.5600E+02
    -12.088  0.0000E+00  0.5600E+02
    -11.936  0.0000E+00  0.5600E+02
    -11.783  0.0000E+00  0.5600E+02
    -11.631  0.0000E+00  0.5600E+02
    -11.478  0.0000E+00  0.5600E+02
    -11.326  0.0000E+00  0.5600E+02
    -11.174  0.0000E+00  0.5600E+02
    -11.021  0.0000E+00  0.5600E+02
    -10.869  0.0000E+00  0.5600E+02
    -10.716  0.0000E+00  0.5600E+02
    -10.564  0.0000E+00  0.5600E+02
    -10.412  0.0000E+00  0.5600E+02
    -10.259  0.0000E+00  0.5600E+02
    -10.107  0.0000E+00  0.5600E+02
     -9.955  0.0000E+00  0.5600E+02
     -9.802  0.0000E+00  0.5600E+02
     -9.650  0.0000E+00  0.5600E+02
     -9.497  0.0000E+00  0.5600E+02
     -9.345  0.0000E+00  0.5600E+02
     -9.193  0.0000E+00  0.5600E+02
     -9.040  0.0000E+00  0.5600E+02
     -8.888  0.0000E+00  0.5600E+02
     -8.735  0.0000E+00  0.5600E+02
     -8.583  0.0000E+00  0.5600E+02
     -8.431  0.0000E+00  0.5600E+02
     -8.278  0.0000E+00  0.5600E+02
     -8.126  0.0000E+00  0.5600E+02
     -7.974  0.0000E+00  0.5600E+02
     -7.821  0.0000E+00  0.5600E+02
     -7.669  0.0000E+00  0.5600E+02
     -7.516  0.0000E+00  0.5600E+02
     -7.364  0.0000E+00  0.5600E+02
     -7.212  0.0000E+00  0.5600E+02
     -7.059  0.0000E+00  0.5600E+02
     -6.907  0.0000E+00  0.5600E+02
     -6.754  0.0000E+00  0.5600E+02
     -6.602  0.0000E+00  0.5600E+02
     -6.450  0.0000E+00  0.5600E+02
     -6.297  0.0000E+00  0.5600E+02
     -6.145  0.0000E+00  0.5600E+02
     -5.992  0.0000E+00  0.5600E+02
     -5.840  0.0000E+00  0.5600E+02
     -5.688  0.0000E+00  0.5600E+02
     -5.535  0.0000E+00  0.5600E+02
     -5.383  0.0000E+00  0.5600E+02
     -5.231  0.0000E+00  0.5600E+02
     -5.078  0.0000E+00  0.5600E+02
     -4.926  0.0000E+00  0.5600E+02
     -4.773  0.0000E+00  0.5600E+02
     -4.621  0.0000E+00  0.5600E+02
     -4.469  0.8468E+01  0.5694E+02
     -4.316  0.2439E+02  0.5902E+02
     -4.164  0.1481E+02  0.6163E+02
     -4.011  0.1295E+02  0.6412E+02
     -3.859  0.1228E+02  0.6636E+02
     -3.707  0.1437E+02  0.6869E+02
     -3.554  0.1553E+02  0.7117E+02
     -3.402  0.1834E+02  0.7410E+02
     -3.250  0.2127E+02  0.7720E+02
     -3.097  0.2728E+02  0.8099E+02
     -2.945  0.2038E+02  0.8475E+02
     -2.792  0.1236E+02  0.8733E+02
     -2.640  0.1381E+02  0.8947E+02
     -2.488  0.1206E+02  0.9149E+02
     -2.335  0.1331E+02  0.9337E+02
     -2.183  0.1223E+02  0.9537E+02
     -2.030  0.1141E+02  0.9705E+02
     -1.878  0.1046E+02  0.9863E+02
     -1.726  0.2366E+02  0.1001E+03
     -1.573  0.1490E+02  0.1022E+03
     -1.421  0.2575E+02  0.1044E+03
     -1.269  0.2647E+02  0.1078E+03
     -1.116  0.2699E+02  0.1107E+03
     -0.964  0.2447E+02  0.1146E+03
     -0.811  0.1345E+02  0.1175E+03
     -0.659  0.2547E+02  0.1201E+03
     -0.507  0.1728E+02  0.1230E+03
     -0.354  0.1394E+02  0.1252E+03
     -0.202  0.7153E+01  0.1269E+03
     -0.049  0.1303E+01  0.1274E+03
      0.103  0.1148E+01  0.1276E+03
      0.255  0.9627E+00  0.1277E+03
      0.408  0.7144E+00  0.1279E+03
      0.560  0.0000E+00  0.1280E+03
      0.713  0.0000E+00  0.1280E+03
      0.865  0.0000E+00  0.1280E+03
      1.017  0.0000E+00  0.1280E+03
      1.170  0.0000E+00  0.1280E+03
      1.322  0.0000E+00  0.1280E+03
      1.474  0.0000E+00  0.1280E+03
      1.627  0.1557E+00  0.1280E+03
      1.779  0.1841E+01  0.1281E+03
      1.932  0.3624E+01  0.1286E+03
      2.084  0.4631E+01  0.1292E+03
      2.236  0.4046E+01  0.1299E+03
      2.389  0.8125E+01  0.1307E+03
      2.541  0.7794E+01  0.1319E+03
      2.694  0.6816E+01  0.1330E+03
      2.846  0.9224E+01  0.1341E+03
      2.998  0.1060E+02  0.1356E+03
      3.151  0.1285E+02  0.1375E+03
      3.303  0.1243E+02  0.1394E+03
      3.455  0.1936E+02  0.1419E+03
      3.608  0.1326E+02  0.1444E+03
      3.760  0.9947E+01  0.1464E+03
      3.913  0.6003E+01  0.1479E+03
      4.065  0.1452E+01  0.1486E+03
      4.217  0.8096E+00  0.1488E+03
      4.370  0.8043E+00  0.1489E+03
      4.522  0.7990E+00  0.1491E+03
      4.675  0.7937E+00  0.1492E+03
      4.827  0.7885E+00  0.1493E+03
      4.979  0.7832E+00  0.1494E+03
      5.132  0.7779E+00  0.1495E+03
      5.284  0.7726E+00  0.1496E+03
      5.437  0.7674E+00  0.1498E+03
      5.589  0.1074E+01  0.1499E+03
      5.741  0.1350E+01  0.1501E+03
      5.894  0.1099E+01  0.1503E+03
      6.046  0.9484E+00  0.1504E+03
      6.198  0.1254E+01  0.1506E+03
      6.351  0.7378E+00  0.1507E+03
      6.503  0.6097E+00  0.1508E+03
      6.656  0.4816E+00  0.1509E+03
      6.808  0.4366E+00  0.1510E+03
      6.960  0.4442E+00  0.1511E+03
      7.113  0.4518E+00  0.1511E+03
      7.265  0.4114E+00  0.1512E+03
      7.418  0.3751E+00  0.1513E+03
      7.570  0.9278E+00  0.1515E+03
      7.722  0.2430E+01  0.1519E+03
      7.875  0.0000E+00  0.1520E+03
      8.027  0.0000E+00  0.1520E+03
      8.179  0.0000E+00  0.1520E+03
      8.332  0.0000E+00  0.1520E+03
      8.484  0.0000E+00  0.1520E+03
      8.637  0.0000E+00  0.1520E+03
      8.789  0.0000E+00  0.1520E+03
      8.941  0.0000E+00  0.1520E+03
      9.094  0.0000E+00  0.1520E+03
      9.246  0.0000E+00  0.1520E+03
      9.399  0.0000E+00  0.1520E+03
      9.551  0.0000E+00  0.1520E+03
      9.703  0.0000E+00  0.1520E+03
      9.856  0.0000E+00  0.1520E+03
