<?xml version="1.0" encoding="ISO-8859-1"?>
<modeling>
 <generator>
  <i name="program" type="string">vasp </i>
  <i name="version" type="string">5.4.4.18Apr17-6-g9f103f2a35  </i>
  <i name="subversion" type="string">(build Jun 30 2017 11:15:00) complex            parallel </i>
  <i name="platform" type="string">STALLO_VASP_5.4.4 </i>
  <i name="date" type="string">2019 11 06 </i>
  <i name="time" type="string">13:16:50 </i>
 </generator>
 <incar>
  <i type="string" name="PREC">normal    ! low/normal/accurate</i>
  <i type="string" name="ALGO"> Fast      ! Algorithm for electronic re</i>
  <i type="int" name="ISPIN">     1</i>
  <i type="int" name="NELMIN">     4</i>
  <i name="EDIFF">      0.00001000</i>
  <i type="int" name="NSW">     0</i>
  <i name="ENCUT">    600.00000000</i>
  <i type="logical" name="LREAL"> F  </i>
  <i type="int" name="ISMEAR">    -5</i>
  <i name="SIGMA">      0.20000000</i>
  <i type="logical" name="LWAVE"> F  </i>
  <v type="int" name="KPOINT_BSE">    -1     0     0     0</v>
 </incar>
 <structure name="primitive_cell" >
  <crystal>
   <varray name="basis" >
    <v>       3.90526800       0.00000000       0.00000000 </v>
    <v>       0.00000000       3.90526800       0.00000000 </v>
    <v>       0.00000000       0.00000000      25.66843800 </v>
   </varray>
   <i name="volume">    391.47238071 </i>
   <varray name="rec_basis" >
    <v>       0.25606437       0.00000000       0.00000000 </v>
    <v>       0.00000000       0.25606437       0.00000000 </v>
    <v>       0.00000000       0.00000000       0.03895835 </v>
   </varray>
  </crystal>
  <varray name="positions" >
   <v>      -0.50000000      -0.50000000       0.23375010 </v>
   <v>      -0.50000000      -0.50000000       0.30982150 </v>
   <v>      -0.50000000       0.00000000       0.30982150 </v>
   <v>       0.00000000      -0.50000000       0.30982150 </v>
   <v>       0.00000000       0.00000000       0.23375010 </v>
   <v>      -0.50000000      -0.50000000       0.38589290 </v>
   <v>       0.00000000       0.00000000       0.38589290 </v>
   <v>      -0.50000000      -0.50000000       0.46196430 </v>
   <v>      -0.50000000       0.00000000       0.46196430 </v>
   <v>       0.00000000      -0.50000000       0.46196430 </v>
   <v>      -0.50000000      -0.50000000      -0.46196430 </v>
   <v>       0.00000000       0.00000000      -0.46196430 </v>
   <v>      -0.50000000      -0.50000000      -0.38589290 </v>
   <v>      -0.50000000       0.00000000      -0.38589290 </v>
   <v>       0.00000000      -0.50000000      -0.38589290 </v>
   <v>      -0.50000000      -0.50000000      -0.30982150 </v>
   <v>      -0.50000000      -0.50000000      -0.23375010 </v>
   <v>       0.00000000       0.00000000      -0.30982150 </v>
   <v>      -0.50000000       0.00000000      -0.23375010 </v>
   <v>       0.00000000      -0.50000000      -0.23375010 </v>
  </varray>
 </structure>
 <varray name="primitive_index" >
  <v type="int" >        1 </v>
  <v type="int" >       17 </v>
  <v type="int" >        2 </v>
  <v type="int" >        3 </v>
  <v type="int" >       13 </v>
  <v type="int" >        4 </v>
  <v type="int" >       14 </v>
  <v type="int" >       18 </v>
  <v type="int" >        5 </v>
  <v type="int" >        6 </v>
  <v type="int" >        7 </v>
  <v type="int" >       15 </v>
  <v type="int" >       19 </v>
  <v type="int" >        8 </v>
  <v type="int" >        9 </v>
  <v type="int" >       10 </v>
  <v type="int" >       20 </v>
  <v type="int" >       16 </v>
  <v type="int" >       11 </v>
  <v type="int" >       12 </v>
 </varray>
 <kpoints>
  <generation param="Gamma">
   <v type="int" name="divisions">       7        7        1 </v>
   <v name="usershift">      0.00000000       0.00000000       0.00000000 </v>
   <v name="genvec1">      0.14285714       0.00000000       0.00000000 </v>
   <v name="genvec2">      0.00000000       0.14285714       0.00000000 </v>
   <v name="genvec3">      0.00000000       0.00000000       1.00000000 </v>
   <v name="shift">      0.00000000       0.00000000       0.00000000 </v>
  </generation>
  <varray name="kpointlist" >
   <v>       0.00000000       0.00000000       0.00000000 </v>
   <v>       0.14285714       0.00000000       0.00000000 </v>
   <v>       0.28571429       0.00000000       0.00000000 </v>
   <v>       0.42857143       0.00000000       0.00000000 </v>
   <v>       0.14285714       0.14285714       0.00000000 </v>
   <v>       0.28571429       0.14285714       0.00000000 </v>
   <v>       0.42857143       0.14285714       0.00000000 </v>
   <v>       0.28571429       0.28571429       0.00000000 </v>
   <v>       0.42857143       0.28571429       0.00000000 </v>
   <v>       0.42857143       0.42857143       0.00000000 </v>
  </varray>
  <varray name="weights" >
   <v>       0.02040816 </v>
   <v>       0.08163265 </v>
   <v>       0.08163265 </v>
   <v>       0.08163265 </v>
   <v>       0.08163265 </v>
   <v>       0.16326531 </v>
   <v>       0.16326531 </v>
   <v>       0.08163265 </v>
   <v>       0.16326531 </v>
   <v>       0.08163265 </v>
  </varray>
  <varray name="tetrahedronlist"  type="int" >
   <v type="int" >        4        1        1        2        5 </v>
   <v type="int" >        4        1        2        2        5 </v>
   <v type="int" >        4        1        2        5        5 </v>
   <v type="int" >        4        2        2        3        6 </v>
   <v type="int" >        4        2        2        5        6 </v>
   <v type="int" >        4        2        5        5        6 </v>
   <v type="int" >        4        2        3        3        6 </v>
   <v type="int" >        4        2        3        6        6 </v>
   <v type="int" >        4        2        5        6        6 </v>
   <v type="int" >        4        3        3        4        7 </v>
   <v type="int" >        4        3        3        6        7 </v>
   <v type="int" >        4        3        6        6        7 </v>
   <v type="int" >        4        3        4        4        7 </v>
   <v type="int" >        4        3        4        7        7 </v>
   <v type="int" >        4        3        6        7        7 </v>
   <v type="int" >        8        4        4        4        7 </v>
   <v type="int" >        8        4        4        7        7 </v>
   <v type="int" >        8        4        7        7        7 </v>
   <v type="int" >        4        3        4        4        6 </v>
   <v type="int" >        4        4        4        6        7 </v>
   <v type="int" >        4        4        6        7        7 </v>
   <v type="int" >        4        3        3        4        6 </v>
   <v type="int" >        4        3        4        6        6 </v>
   <v type="int" >        4        4        6        6        7 </v>
   <v type="int" >        4        2        3        3        5 </v>
   <v type="int" >        4        3        3        5        6 </v>
   <v type="int" >        4        3        5        6        6 </v>
   <v type="int" >        4        2        2        3        5 </v>
   <v type="int" >        4        2        3        5        5 </v>
   <v type="int" >        4        3        5        5        6 </v>
   <v type="int" >        4        1        2        2        2 </v>
   <v type="int" >        4        2        2        2        5 </v>
   <v type="int" >        2        2        2        5        5 </v>
   <v type="int" >        2        1        1        2        2 </v>
   <v type="int" >        4        5        5        6        8 </v>
   <v type="int" >        4        5        6        6        8 </v>
   <v type="int" >        4        5        6        8        8 </v>
   <v type="int" >        4        6        6        7        9 </v>
   <v type="int" >        4        6        6        8        9 </v>
   <v type="int" >        4        6        8        8        9 </v>
   <v type="int" >        4        6        7        7        9 </v>
   <v type="int" >        4        6        7        9        9 </v>
   <v type="int" >        4        6        8        9        9 </v>
   <v type="int" >        8        7        7        7        9 </v>
   <v type="int" >        8        7        7        9        9 </v>
   <v type="int" >        8        7        9        9        9 </v>
   <v type="int" >        4        6        7        7        8 </v>
   <v type="int" >        4        7        7        8        9 </v>
   <v type="int" >        4        7        8        9        9 </v>
   <v type="int" >        4        6        6        7        8 </v>
   <v type="int" >        4        6        7        8        8 </v>
   <v type="int" >        4        7        8        8        9 </v>
   <v type="int" >        4        5        6        6        6 </v>
   <v type="int" >        4        6        6        6        8 </v>
   <v type="int" >        2        6        6        8        8 </v>
   <v type="int" >        2        5        5        6        6 </v>
   <v type="int" >        4        8        8        9       10 </v>
   <v type="int" >        4        8        9        9       10 </v>
   <v type="int" >        4        8        9       10       10 </v>
   <v type="int" >       12        9        9        9       10 </v>
   <v type="int" >       10        9        9       10       10 </v>
   <v type="int" >        8        9       10       10       10 </v>
   <v type="int" >        4        8        9        9        9 </v>
   <v type="int" >        2        8        8        9        9 </v>
   <v type="int" >        6       10       10       10       10 </v>
  </varray>
  <i name="volumeweight">      0.00340136 </i>
 </kpoints>
 <parameters>
  <separator name="general" >
   <i type="string" name="SYSTEM">unknown system</i>
   <i type="logical" name="LCOMPAT"> F  </i>
  </separator>
  <separator name="electronic" >
   <i type="string" name="PREC">normal</i>
   <i name="ENMAX">    600.00000000</i>
   <i name="ENAUG">    605.39200000</i>
   <i name="EDIFF">      0.00001000</i>
   <i type="int" name="IALGO">    68</i>
   <i type="int" name="IWAVPR">    10</i>
   <i type="int" name="NBANDS">    76</i>
   <i name="NELECT">    128.00000000</i>
   <i type="int" name="TURBO">     0</i>
   <i type="int" name="IRESTART">     0</i>
   <i type="int" name="NREBOOT">     0</i>
   <i type="int" name="NMIN">     0</i>
   <i name="EREF">      0.00000000</i>
   <separator name="electronic smearing" >
    <i type="int" name="ISMEAR">    -5</i>
    <i name="SIGMA">      0.20000000</i>
    <i name="KSPACING">      0.50000000</i>
    <i type="logical" name="KGAMMA"> T  </i>
   </separator>
   <separator name="electronic projectors" >
    <i type="logical" name="LREAL"> F  </i>
    <v name="ROPT">      0.00000000      0.00000000      0.00000000</v>
    <i type="int" name="LMAXPAW">  -100</i>
    <i type="int" name="LMAXMIX">     2</i>
    <i type="logical" name="NLSPLINE"> F  </i>
   </separator>
   <separator name="electronic startup" >
    <i type="int" name="ISTART">     0</i>
    <i type="int" name="ICHARG">     2</i>
    <i type="int" name="INIWAV">     1</i>
   </separator>
   <separator name="electronic spin" >
    <i type="int" name="ISPIN">     1</i>
    <i type="logical" name="LNONCOLLINEAR"> F  </i>
    <v name="MAGMOM">      1.00000000      1.00000000      1.00000000      1.00000000      1.00000000      1.00000000      1.00000000      1.00000000      1.00000000      1.00000000      1.00000000      1.00000000      1.00000000      1.00000000      1.00000000      1.00000000      1.00000000      1.00000000      1.00000000      1.00000000
</v>
    <i name="NUPDOWN">     -1.00000000</i>
    <i type="logical" name="LSORBIT"> F  </i>
    <v name="SAXIS">      0.00000000      0.00000000      1.00000000</v>
    <i type="logical" name="LSPIRAL"> F  </i>
    <v name="QSPIRAL">      0.00000000      0.00000000      0.00000000</v>
    <i type="logical" name="LZEROZ"> F  </i>
   </separator>
   <separator name="electronic exchange-correlation" >
    <i type="logical" name="LASPH"> F  </i>
    <i type="logical" name="LMETAGGA"> F  </i>
   </separator>
   <separator name="electronic convergence" >
    <i type="int" name="NELM">    60</i>
    <i type="int" name="NELMDL">    -5</i>
    <i type="int" name="NELMIN">     4</i>
    <i name="ENINI">    600.00000000</i>
    <separator name="electronic convergence detail" >
     <i type="logical" name="LDIAG"> T  </i>
     <i type="logical" name="LSUBROT"> F  </i>
     <i name="WEIMIN">      0.00000000</i>
     <i name="EBREAK">      0.00000003</i>
     <i name="DEPER">      0.30000000</i>
     <i type="int" name="NRMM">     4</i>
     <i name="TIME">      0.40000000</i>
    </separator>
   </separator>
   <separator name="electronic mixer" >
    <i name="AMIX">      0.40000000</i>
    <i name="BMIX">      1.00000000</i>
    <i name="AMIN">      0.10000000</i>
    <i name="AMIX_MAG">      1.60000000</i>
    <i name="BMIX_MAG">      1.00000000</i>
    <separator name="electronic mixer details" >
     <i type="int" name="IMIX">     4</i>
     <i type="logical" name="MIXFIRST"> F  </i>
     <i type="int" name="MAXMIX">   -45</i>
     <i name="WC">    100.00000000</i>
     <i type="int" name="INIMIX">     1</i>
     <i type="int" name="MIXPRE">     1</i>
     <i type="int" name="MREMOVE">     5</i>
    </separator>
   </separator>
   <separator name="electronic dipolcorrection" >
    <i type="logical" name="LDIPOL"> F  </i>
    <i type="logical" name="LMONO"> F  </i>
    <i type="int" name="IDIPOL">     0</i>
    <i name="EPSILON">      1.00000000</i>
    <v name="DIPOL">   -100.00000000   -100.00000000   -100.00000000</v>
    <i name="EFIELD">      0.00000000</i>
   </separator>
  </separator>
  <separator name="grids" >
   <i type="int" name="NGX">    24</i>
   <i type="int" name="NGY">    24</i>
   <i type="int" name="NGZ">   160</i>
   <i type="int" name="NGXF">    48</i>
   <i type="int" name="NGYF">    48</i>
   <i type="int" name="NGZF">   320</i>
   <i type="logical" name="ADDGRID"> F  </i>
  </separator>
  <separator name="ionic" >
   <i type="int" name="NSW">     0</i>
   <i type="int" name="IBRION">    -1</i>
   <i type="int" name="MDALGO">     0</i>
   <i type="int" name="ISIF">     2</i>
   <i name="PSTRESS">      0.00000000</i>
   <i name="EDIFFG">      0.00010000</i>
   <i type="int" name="NFREE">     0</i>
   <i name="POTIM">      0.50000000</i>
   <i name="SMASS">     -3.00000000</i>
   <i name="SCALEE">      1.00000000</i>
  </separator>
  <separator name="ionic md" >
   <i name="TEBEG">      0.00010000</i>
   <i name="TEEND">      0.00010000</i>
   <i type="int" name="NBLOCK">     1</i>
   <i type="int" name="KBLOCK">     1</i>
   <i type="int" name="NPACO">   256</i>
   <i name="APACO">     16.00000000</i>
  </separator>
  <separator name="symmetry" >
   <i type="int" name="ISYM">     2</i>
   <i name="SYMPREC">      0.00001000</i>
  </separator>
  <separator name="dos" >
   <i type="int" name="LORBIT">     0</i>
   <v name="RWIGS">     -1.00000000     -1.00000000     -1.00000000</v>
   <i type="int" name="NEDOS">   301</i>
   <i name="EMIN">     10.00000000</i>
   <i name="EMAX">    -10.00000000</i>
   <i name="EFERMI">      0.00000000</i>
  </separator>
  <separator name="writing" >
   <i type="int" name="NWRITE">     2</i>
   <i type="logical" name="LWAVE"> F  </i>
   <i type="logical" name="LDOWNSAMPLE"> F  </i>
   <i type="logical" name="LCHARG"> T  </i>
   <i type="logical" name="LPARD"> F  </i>
   <i type="logical" name="LVTOT"> F  </i>
   <i type="logical" name="LVHAR"> F  </i>
   <i type="logical" name="LELF"> F  </i>
   <i type="logical" name="LOPTICS"> F  </i>
   <v name="STM">      0.00000000      0.00000000      0.00000000      0.00000000      0.00000000      0.00000000      0.00000000</v>
  </separator>
  <separator name="performance" >
   <i type="int" name="NPAR">     2</i>
   <i type="int" name="NSIM">     4</i>
   <i type="int" name="NBLK">    -1</i>
   <i type="logical" name="LPLANE"> T  </i>
   <i type="logical" name="LSCALAPACK"> T  </i>
   <i type="logical" name="LSCAAWARE"> F  </i>
   <i type="logical" name="LSCALU"> F  </i>
   <i type="logical" name="LASYNC"> F  </i>
   <i type="logical" name="LORBITALREAL"> F  </i>
  </separator>
  <separator name="miscellaneous" >
   <i type="int" name="IDIOT">     3</i>
   <i type="int" name="ISPECIAL">     0</i>
   <i type="logical" name="LMUSIC"> F  </i>
   <v name="POMASS">     16.00000000     87.62000000     47.88000000</v>
   <v name="DARWINR">      0.00000000      0.00000000      0.00000000</v>
   <v name="DARWINV">      1.00000000      1.00000000      1.00000000</v>
   <i type="logical" name="LCORR"> T  </i>
  </separator>
  <i type="logical" name="GGA_COMPAT"> T  </i>
  <i type="logical" name="LBERRY"> F  </i>
  <i type="int" name="ICORELEVEL">     0</i>
  <i type="logical" name="LDAU"> F  </i>
  <i type="int" name="I_CONSTRAINED_M">     0</i>
  <separator name="electronic exchange-correlation" >
   <i type="string" name="GGA">--</i>
   <i type="int" name="VOSKOWN">     0</i>
   <i type="logical" name="LHFCALC"> F  </i>
   <i type="string" name="PRECFOCK"></i>
   <i type="logical" name="LSYMGRAD"> F  </i>
   <i type="logical" name="LHFONE"> F  </i>
   <i type="logical" name="LRHFCALC"> F  </i>
   <i type="logical" name="LTHOMAS"> F  </i>
   <i type="logical" name="LMODELHF"> F  </i>
   <i name="ENCUT4O">     -1.00000000</i>
   <i type="int" name="EXXOEP">     0</i>
   <i type="int" name="FOURORBIT">     0</i>
   <i name="AEXX">      0.00000000</i>
   <i name="HFALPHA">      0.00000000</i>
   <i name="MCALPHA">      0.00000000</i>
   <i name="ALDAX">      1.00000000</i>
   <i name="AGGAX">      1.00000000</i>
   <i name="ALDAC">      1.00000000</i>
   <i name="AGGAC">      1.00000000</i>
   <i type="int" name="NKREDX">     1</i>
   <i type="int" name="NKREDY">     1</i>
   <i type="int" name="NKREDZ">     1</i>
   <i type="logical" name="SHIFTRED"> F  </i>
   <i type="logical" name="ODDONLY"> F  </i>
   <i type="logical" name="EVENONLY"> F  </i>
   <i type="int" name="LMAXFOCK">     0</i>
   <i type="int" name="NMAXFOCKAE">     0</i>
   <i type="logical" name="LFOCKAEDFT"> F  </i>
   <i name="HFSCREEN">      0.00000000</i>
   <i name="HFSCREENC">      0.00000000</i>
   <i type="int" name="NBANDSGWLOW">     0</i>
  </separator>
  <separator name="vdW DFT" >
   <i type="logical" name="LUSE_VDW"> F  </i>
   <i name="Zab_VDW">     -0.84910000</i>
   <i name="PARAM1">      0.12340000</i>
   <i name="PARAM2">      1.00000000</i>
   <i name="PARAM3">      0.00000000</i>
  </separator>
  <separator name="model GW" >
   <i type="int" name="MODEL_GW">     0</i>
   <i name="MODEL_EPS0">     11.74417142</i>
   <i name="MODEL_ALPHA">      1.00000000</i>
  </separator>
  <separator name="linear response parameters" >
   <i type="logical" name="LEPSILON"> F  </i>
   <i type="logical" name="LRPA"> F  </i>
   <i type="logical" name="LNABLA"> F  </i>
   <i type="logical" name="LVEL"> F  </i>
   <i type="int" name="KINTER">     0</i>
   <i name="CSHIFT">      0.10000000</i>
   <i name="OMEGAMAX">     -1.00000000</i>
   <i name="DEG_THRESHOLD">      0.00200000</i>
   <i name="RTIME">     -0.10000000</i>
   <i name="WPLASMAI">      0.00000000</i>
   <v name="DFIELD">      0.00000000      0.00000000      0.00000000</v>
   <v name="WPLASMA">      0.00000000      0.00000000      0.00000000      0.00000000      0.00000000      0.00000000      0.00000000      0.00000000      0.00000000</v>
  </separator>
  <separator name="orbital magnetization" >
   <i type="logical" name="NUCIND"> F  </i>
   <v name="MAGPOS">      0.00000000      0.00000000      0.00000000</v>
   <i type="logical" name="LNICSALL"> T  </i>
   <i type="logical" name="ORBITALMAG"> F  </i>
   <i type="logical" name="LMAGBLOCH"> F  </i>
   <i type="logical" name="LCHIMAG"> F  </i>
   <i type="logical" name="LGAUGE"> T  </i>
   <i type="int" name="MAGATOM">     0</i>
   <v name="MAGDIPOL">      0.00000000      0.00000000      0.00000000</v>
   <v name="AVECCONST">      0.00000000      0.00000000      0.00000000</v>
  </separator>
  <separator name="response functions" >
   <i type="logical" name="LADDER"> F  </i>
   <i type="logical" name="LRPAFORCE"> F  </i>
   <i type="logical" name="LFXC"> F  </i>
   <i type="logical" name="LHARTREE"> T  </i>
   <i type="int" name="IBSE">     0</i>
   <v type="int" name="KPOINT">    -1     0     0     0</v>
   <i type="logical" name="LTCTE"> F  </i>
   <i type="logical" name="LTETE"> F  </i>
   <i type="logical" name="LTRIPLET"> F  </i>
   <i type="logical" name="LFXCEPS"> F  </i>
   <i type="logical" name="LFXHEG"> F  </i>
   <i type="int" name="NATURALO">     2</i>
   <i type="logical" name="L2ORDER"> F  </i>
   <i type="logical" name="LMP2LT"> F  </i>
   <i type="logical" name="LUSEW"> F  </i>
   <i name="ENCUTGW">     -2.00000000</i>
   <i name="ENCUTGWSOFT">     -2.00000000</i>
   <i name="ENCUTLF">     -1.00000000</i>
   <i type="int" name="LMAXMP2">    -1</i>
   <i name="SCISSOR">      0.00000000</i>
   <i type="int" name="NOMEGA">     0</i>
   <i type="int" name="NOMEGAR">     0</i>
   <i type="int" name="NBANDSGW">    -1</i>
   <i type="int" name="NBANDSO">    -1</i>
   <i type="int" name="NBANDSV">    -1</i>
   <i type="int" name="NELM">     1</i>
   <i type="int" name="NELMHF">     1</i>
   <i type="int" name="DIM">     3</i>
   <i type="int" name="ANTIRES">     0</i>
   <i name="OMEGAMAX">    -30.00000000</i>
   <i name="OMEGAMIN">    -30.00000000</i>
   <i name="OMEGATL">   -200.00000000</i>
   <i type="int" name="OMEGAGRID">   140</i>
   <i name="CSHIFT">     -0.10000000</i>
   <i type="logical" name="SELFENERGY"> F  </i>
   <i type="logical" name="LSPECTRAL"> F  </i>
   <i type="logical" name="LSPECTRALGW"> F  </i>
   <i type="logical" name="LSINGLES"> F  </i>
   <i type="logical" name="LFERMIGW"> F  </i>
   <i type="logical" name="ODDONLYGW"> F  </i>
   <i type="logical" name="EVENONLYGW"> F  </i>
   <i type="int" name="NKREDLFX">     1</i>
   <i type="int" name="NKREDLFY">     1</i>
   <i type="int" name="NKREDLFZ">     1</i>
   <i type="int" name="MAXMEM">  2800</i>
   <i type="int" name="TELESCOPE">     0</i>
   <i type="int" name="TAUPAR">     1</i>
   <i type="int" name="OMEGAPAR">    -1</i>
   <i name="LAMBDA">      1.00000000</i>
  </separator>
  <separator name="External order field" >
   <i name="OFIELD_KAPPA">      0.00000000</i>
   <v name="OFIELD_K">      0.00000000      0.00000000      0.00000000</v>
   <i name="OFIELD_Q6_NEAR">      0.00000000</i>
   <i name="OFIELD_Q6_FAR">      0.00000000</i>
   <i name="OFIELD_A">      0.00000000</i>
  </separator>
 </parameters>
 <atominfo>
  <atoms>      20 </atoms>
  <types>       3 </types>
  <array name="atoms" >
   <dimension dim="1">ion</dimension>
   <field type="string">element</field>
   <field type="int">atomtype</field>
   <set>
    <rc><c>O </c><c>   1</c></rc>
    <rc><c>O </c><c>   1</c></rc>
    <rc><c>O </c><c>   1</c></rc>
    <rc><c>O </c><c>   1</c></rc>
    <rc><c>O </c><c>   1</c></rc>
    <rc><c>O </c><c>   1</c></rc>
    <rc><c>O </c><c>   1</c></rc>
    <rc><c>O </c><c>   1</c></rc>
    <rc><c>O </c><c>   1</c></rc>
    <rc><c>O </c><c>   1</c></rc>
    <rc><c>O </c><c>   1</c></rc>
    <rc><c>O </c><c>   1</c></rc>
    <rc><c>Sr</c><c>   2</c></rc>
    <rc><c>Sr</c><c>   2</c></rc>
    <rc><c>Sr</c><c>   2</c></rc>
    <rc><c>Sr</c><c>   2</c></rc>
    <rc><c>Ti</c><c>   3</c></rc>
    <rc><c>Ti</c><c>   3</c></rc>
    <rc><c>Ti</c><c>   3</c></rc>
    <rc><c>Ti</c><c>   3</c></rc>
   </set>
  </array>
  <array name="atomtypes" >
   <dimension dim="1">type</dimension>
   <field type="int">atomspertype</field>
   <field type="string">element</field>
   <field>mass</field>
   <field>valence</field>
   <field type="string">pseudopotential</field>
   <set>
    <rc><c>  12</c><c>O </c><c>     16.00000000</c><c>      6.00000000</c><c> PAW_PBE O 08Apr2002                    </c></rc>
    <rc><c>   4</c><c>Sr</c><c>     87.62000000</c><c>     10.00000000</c><c> PAW_PBE Sr_sv 07Sep2000                </c></rc>
    <rc><c>   4</c><c>Ti</c><c>     47.88000000</c><c>      4.00000000</c><c> PAW_PBE Ti 08Apr2002                   </c></rc>
   </set>
  </array>
 </atominfo>
 <structure name="initialpos" >
  <crystal>
   <varray name="basis" >
    <v>       3.90526800       0.00000000       0.00000000 </v>
    <v>       0.00000000       3.90526800       0.00000000 </v>
    <v>       0.00000000       0.00000000      25.66843800 </v>
   </varray>
   <i name="volume">    391.47238071 </i>
   <varray name="rec_basis" >
    <v>       0.25606437       0.00000000       0.00000000 </v>
    <v>       0.00000000       0.25606437       0.00000000 </v>
    <v>       0.00000000       0.00000000       0.03895835 </v>
   </varray>
  </crystal>
  <varray name="positions" >
   <v>       0.50000000       0.50000000       0.23375010 </v>
   <v>       0.50000000       0.00000000       0.30982150 </v>
   <v>       0.00000000       0.50000000       0.30982150 </v>
   <v>       0.50000000       0.50000000       0.38589290 </v>
   <v>       0.50000000       0.00000000       0.46196430 </v>
   <v>       0.00000000       0.50000000       0.46196430 </v>
   <v>       0.50000000       0.50000000       0.53803570 </v>
   <v>       0.50000000       0.00000000       0.61410710 </v>
   <v>       0.00000000       0.50000000       0.61410710 </v>
   <v>       0.50000000       0.50000000       0.69017850 </v>
   <v>       0.50000000       0.00000000       0.76624990 </v>
   <v>       0.00000000       0.50000000       0.76624990 </v>
   <v>       0.00000000       0.00000000       0.23375010 </v>
   <v>       0.00000000       0.00000000       0.38589290 </v>
   <v>       0.00000000       0.00000000       0.53803570 </v>
   <v>       0.00000000       0.00000000       0.69017850 </v>
   <v>       0.50000000       0.50000000       0.30982150 </v>
   <v>       0.50000000       0.50000000       0.46196430 </v>
   <v>       0.50000000       0.50000000       0.61410710 </v>
   <v>       0.50000000       0.50000000       0.76624990 </v>
  </varray>
 </structure>
 <calculation>
  <scstep>
   <time name="dav">    6.40    6.41</time>
   <time name="total">    6.54    6.60</time>
   <energy>
    <i name="alphaZ">    451.31605171 </i>
    <i name="ewald">  24913.70541863 </i>
    <i name="hartreedc"> -33364.93616085 </i>
    <i name="XCdc">    326.68052327 </i>
    <i name="pawpsdc">   5334.45189010 </i>
    <i name="pawaedc">  -5139.13784255 </i>
    <i name="eentropy">      0.00000000 </i>
    <i name="bandstr">    317.48221454 </i>
    <i name="atom">   8937.33707341 </i>
    <i name="e_fr_energy">   1776.89916826 </i>
    <i name="e_wo_entrp">   1776.89916826 </i>
    <i name="e_0_energy">   1776.89916826 </i>
   </energy>
  </scstep>
  <scstep>
   <time name="dav">    7.19    7.19</time>
   <time name="total">    7.19    7.20</time>
   <energy>
    <i name="e_fr_energy">    229.70144016 </i>
    <i name="e_wo_entrp">    229.70144016 </i>
    <i name="e_0_energy">    229.70144016 </i>
   </energy>
  </scstep>
  <scstep>
   <time name="dav">    7.87    7.87</time>
   <time name="total">    7.87    7.88</time>
   <energy>
    <i name="e_fr_energy">   -167.64201920 </i>
    <i name="e_wo_entrp">   -167.64201920 </i>
    <i name="e_0_energy">   -167.64201920 </i>
   </energy>
  </scstep>
  <scstep>
   <time name="dav">    7.86    7.86</time>
   <time name="total">    7.86    7.86</time>
   <energy>
    <i name="e_fr_energy">   -200.02355693 </i>
    <i name="e_wo_entrp">   -200.02355693 </i>
    <i name="e_0_energy">   -200.02355693 </i>
   </energy>
  </scstep>
  <scstep>
   <time name="dav">    9.38    9.38</time>
   <time name="total">    9.62    9.62</time>
   <energy>
    <i name="e_fr_energy">   -201.72530817 </i>
    <i name="e_wo_entrp">   -201.72530817 </i>
    <i name="e_0_energy">   -201.72530817 </i>
   </energy>
  </scstep>
  <scstep>
   <time name="diag">    0.71    0.71</time>
   <time name="diis">    5.04    5.04</time>
   <time name="orth">    0.15    0.15</time>
   <time name="total">    6.28    6.28</time>
   <energy>
    <i name="e_fr_energy">   -161.27340227 </i>
    <i name="e_wo_entrp">   -161.27340227 </i>
    <i name="e_0_energy">   -161.27340227 </i>
   </energy>
  </scstep>
  <scstep>
   <time name="diag">    0.71    0.71</time>
   <time name="diis">    5.51    5.51</time>
   <time name="orth">    0.15    0.15</time>
   <time name="total">    6.74    6.74</time>
   <energy>
    <i name="e_fr_energy">   -157.69334382 </i>
    <i name="e_wo_entrp">   -157.69334382 </i>
    <i name="e_0_energy">   -157.69334382 </i>
   </energy>
  </scstep>
  <scstep>
   <time name="diag">    0.70    0.70</time>
   <time name="diis">    6.00    6.00</time>
   <time name="orth">    0.14    0.14</time>
   <time name="total">    7.22    7.23</time>
   <energy>
    <i name="e_fr_energy">   -156.97224193 </i>
    <i name="e_wo_entrp">   -156.97224193 </i>
    <i name="e_0_energy">   -156.97224193 </i>
   </energy>
  </scstep>
  <scstep>
   <time name="diag">    0.69    0.69</time>
   <time name="diis">    6.26    6.26</time>
   <time name="orth">    0.15    0.15</time>
   <time name="total">    7.46    7.47</time>
   <energy>
    <i name="e_fr_energy">   -156.77865332 </i>
    <i name="e_wo_entrp">   -156.77865332 </i>
    <i name="e_0_energy">   -156.77865332 </i>
   </energy>
  </scstep>
  <scstep>
   <time name="diag">    0.71    0.71</time>
   <time name="diis">    7.24    7.24</time>
   <time name="orth">    0.15    0.15</time>
   <time name="total">    8.47    8.47</time>
   <energy>
    <i name="e_fr_energy">   -156.73947760 </i>
    <i name="e_wo_entrp">   -156.73947760 </i>
    <i name="e_0_energy">   -156.73947760 </i>
   </energy>
  </scstep>
  <scstep>
   <time name="diag">    0.70    0.70</time>
   <time name="diis">    6.81    6.81</time>
   <time name="orth">    0.14    0.14</time>
   <time name="total">    8.03    8.03</time>
   <energy>
    <i name="e_fr_energy">   -156.71797215 </i>
    <i name="e_wo_entrp">   -156.71797215 </i>
    <i name="e_0_energy">   -156.71797215 </i>
   </energy>
  </scstep>
  <scstep>
   <time name="diag">    0.70    0.70</time>
   <time name="diis">    7.28    7.28</time>
   <time name="orth">    0.15    0.15</time>
   <time name="total">    8.50    8.50</time>
   <energy>
    <i name="e_fr_energy">   -156.70513589 </i>
    <i name="e_wo_entrp">   -156.70513589 </i>
    <i name="e_0_energy">   -156.70513589 </i>
   </energy>
  </scstep>
  <scstep>
   <time name="diag">    0.70    0.70</time>
   <time name="diis">    7.36    7.36</time>
   <time name="orth">    0.15    0.15</time>
   <time name="total">    8.59    8.59</time>
   <energy>
    <i name="e_fr_energy">   -156.69978606 </i>
    <i name="e_wo_entrp">   -156.69978606 </i>
    <i name="e_0_energy">   -156.69978606 </i>
   </energy>
  </scstep>
  <scstep>
   <time name="diag">    0.70    0.70</time>
   <time name="diis">    6.71    6.71</time>
   <time name="orth">    0.15    0.15</time>
   <time name="total">    7.94    7.94</time>
   <energy>
    <i name="e_fr_energy">   -156.69593955 </i>
    <i name="e_wo_entrp">   -156.69593955 </i>
    <i name="e_0_energy">   -156.69593955 </i>
   </energy>
  </scstep>
  <scstep>
   <time name="diag">    0.70    0.70</time>
   <time name="diis">    7.19    7.19</time>
   <time name="orth">    0.15    0.15</time>
   <time name="total">    8.42    8.42</time>
   <energy>
    <i name="e_fr_energy">   -156.69544602 </i>
    <i name="e_wo_entrp">   -156.69544602 </i>
    <i name="e_0_energy">   -156.69544602 </i>
   </energy>
  </scstep>
  <scstep>
   <time name="diag">    0.71    0.71</time>
   <time name="diis">    7.33    7.32</time>
   <time name="orth">    0.15    0.15</time>
   <time name="total">    8.55    8.56</time>
   <energy>
    <i name="e_fr_energy">   -156.69663060 </i>
    <i name="e_wo_entrp">   -156.69663060 </i>
    <i name="e_0_energy">   -156.69663060 </i>
   </energy>
  </scstep>
  <scstep>
   <time name="diag">    0.71    0.71</time>
   <time name="diis">    6.81    6.81</time>
   <time name="orth">    0.15    0.15</time>
   <time name="total">    8.04    8.04</time>
   <energy>
    <i name="e_fr_energy">   -156.69713039 </i>
    <i name="e_wo_entrp">   -156.69713039 </i>
    <i name="e_0_energy">   -156.69713039 </i>
   </energy>
  </scstep>
  <scstep>
   <time name="diag">    0.71    0.71</time>
   <time name="diis">    6.54    6.54</time>
   <time name="orth">    0.15    0.15</time>
   <time name="total">    7.77    7.77</time>
   <energy>
    <i name="e_fr_energy">   -156.69840442 </i>
    <i name="e_wo_entrp">   -156.69840442 </i>
    <i name="e_0_energy">   -156.69840442 </i>
   </energy>
  </scstep>
  <scstep>
   <time name="diag">    0.70    0.71</time>
   <time name="diis">    6.27    6.27</time>
   <time name="orth">    0.15    0.15</time>
   <time name="total">    7.49    7.50</time>
   <energy>
    <i name="e_fr_energy">   -156.69947857 </i>
    <i name="e_wo_entrp">   -156.69947857 </i>
    <i name="e_0_energy">   -156.69947857 </i>
   </energy>
  </scstep>
  <scstep>
   <time name="diag">    0.69    0.69</time>
   <time name="diis">    5.63    5.63</time>
   <time name="orth">    0.15    0.15</time>
   <time name="total">    6.84    6.85</time>
   <energy>
    <i name="e_fr_energy">   -156.69993055 </i>
    <i name="e_wo_entrp">   -156.69993055 </i>
    <i name="e_0_energy">   -156.69993055 </i>
   </energy>
  </scstep>
  <scstep>
   <time name="diag">    0.70    0.70</time>
   <time name="diis">    5.18    5.18</time>
   <time name="orth">    0.15    0.15</time>
   <time name="total">    6.40    6.41</time>
   <energy>
    <i name="e_fr_energy">   -156.70018081 </i>
    <i name="e_wo_entrp">   -156.70018081 </i>
    <i name="e_0_energy">   -156.70018081 </i>
   </energy>
  </scstep>
  <scstep>
   <time name="diag">    0.70    0.70</time>
   <time name="diis">    4.16    4.16</time>
   <time name="orth">    0.15    0.15</time>
   <time name="total">    5.38    5.39</time>
   <energy>
    <i name="e_fr_energy">   -156.70022911 </i>
    <i name="e_wo_entrp">   -156.70022911 </i>
    <i name="e_0_energy">   -156.70022911 </i>
   </energy>
  </scstep>
  <scstep>
   <time name="diag">    0.70    0.70</time>
   <time name="diis">    3.70    3.70</time>
   <time name="orth">    0.14    0.14</time>
   <time name="total">    4.92    4.92</time>
   <energy>
    <i name="e_fr_energy">   -156.70024015 </i>
    <i name="e_wo_entrp">   -156.70024015 </i>
    <i name="e_0_energy">   -156.70024015 </i>
   </energy>
  </scstep>
  <scstep>
   <time name="diag">    0.69    0.69</time>
   <time name="diis">    3.56    3.56</time>
   <time name="orth">    0.15    0.15</time>
   <time name="total">    4.52    4.53</time>
   <energy>
    <i name="alphaZ">    451.31605171 </i>
    <i name="ewald">  24913.70541863 </i>
    <i name="hartreedc"> -33784.18019945 </i>
    <i name="XCdc">    342.95463826 </i>
    <i name="pawpsdc">   6201.33813301 </i>
    <i name="pawaedc">  -6031.54663707 </i>
    <i name="eentropy">      0.00000000 </i>
    <i name="bandstr">  -1187.62472577 </i>
    <i name="atom">   8937.33707341 </i>
    <i name="e_fr_energy">   -156.70024727 </i>
    <i name="e_wo_entrp">   -156.70024727 </i>
    <i name="e_0_energy">   -156.70024727 </i>
   </energy>
  </scstep>
  <structure>
   <crystal>
    <varray name="basis" >
     <v>       3.90526800       0.00000000       0.00000000 </v>
     <v>       0.00000000       3.90526800       0.00000000 </v>
     <v>       0.00000000       0.00000000      25.66843800 </v>
    </varray>
    <i name="volume">    391.47238071 </i>
    <varray name="rec_basis" >
     <v>       0.25606437       0.00000000       0.00000000 </v>
     <v>       0.00000000       0.25606437       0.00000000 </v>
     <v>       0.00000000       0.00000000       0.03895835 </v>
    </varray>
   </crystal>
   <varray name="positions" >
    <v>       0.50000000       0.50000000       0.23375010 </v>
    <v>       0.50000000       0.00000000       0.30982150 </v>
    <v>       0.00000000       0.50000000       0.30982150 </v>
    <v>       0.50000000       0.50000000       0.38589290 </v>
    <v>       0.50000000       0.00000000       0.46196430 </v>
    <v>       0.00000000       0.50000000       0.46196430 </v>
    <v>       0.50000000       0.50000000       0.53803570 </v>
    <v>       0.50000000       0.00000000       0.61410710 </v>
    <v>       0.00000000       0.50000000       0.61410710 </v>
    <v>       0.50000000       0.50000000       0.69017850 </v>
    <v>       0.50000000       0.00000000       0.76624990 </v>
    <v>       0.00000000       0.50000000       0.76624990 </v>
    <v>       0.00000000       0.00000000       0.23375010 </v>
    <v>       0.00000000       0.00000000       0.38589290 </v>
    <v>       0.00000000       0.00000000       0.53803570 </v>
    <v>       0.00000000       0.00000000       0.69017850 </v>
    <v>       0.50000000       0.50000000       0.30982150 </v>
    <v>       0.50000000       0.50000000       0.46196430 </v>
    <v>       0.50000000       0.50000000       0.61410710 </v>
    <v>       0.50000000       0.50000000       0.76624990 </v>
   </varray>
  </structure>
  <varray name="forces" >
   <v>       0.00000000      -0.00000000      -1.07406415 </v>
   <v>       0.00000000       0.00000000      -0.00077403 </v>
   <v>       0.00000000       0.00000000      -0.00077403 </v>
   <v>       0.00000000       0.00000000       0.37872125 </v>
   <v>       0.00000000       0.00000000       0.06659729 </v>
   <v>       0.00000000      -0.00000000       0.06659729 </v>
   <v>      -0.00000000      -0.00000000       0.30689117 </v>
   <v>       0.00000000      -0.00000000       0.02142960 </v>
   <v>       0.00000000      -0.00000000       0.02142960 </v>
   <v>       0.00000000      -0.00000000       1.06148244 </v>
   <v>       0.00000000       0.00000000       0.45538476 </v>
   <v>       0.00000000       0.00000000       0.45538476 </v>
   <v>       0.00000000      -0.00000000       1.18965525 </v>
   <v>       0.00000000      -0.00000000      -0.00667625 </v>
   <v>       0.00000000      -0.00000000      -0.05839275 </v>
   <v>       0.00000000      -0.00000000       0.66199004 </v>
   <v>       0.00000000      -0.00000000      -1.02573270 </v>
   <v>       0.00000000      -0.00000000      -0.31087446 </v>
   <v>       0.00000000      -0.00000000      -0.36832312 </v>
   <v>       0.00000000      -0.00000000      -1.83995196 </v>
  </varray>
  <varray name="stress" >
   <v>      11.91610568       0.00000000       0.00000000 </v>
   <v>       0.00000000      11.91610568       0.00000000 </v>
   <v>       0.00000000       0.00000000      16.65804718 </v>
  </varray>
  <energy>
   <i name="e_fr_energy">   -156.70024727 </i>
   <i name="e_wo_entrp">   -156.70024727 </i>
   <i name="e_0_energy">      0.00000000 </i>
  </energy>
  <time name="totalsc">  186.51  187.43</time>
  <eigenvalues>
   <array>
    <dimension dim="1">band</dimension>
    <dimension dim="2">kpoint</dimension>
    <dimension dim="3">spin</dimension>
    <field>eigene</field>
    <field>occ</field>
    <set>
     <set comment="spin 1">
      <set comment="kpoint 1">
       <r>  -33.7823    1.0000 </r>
       <r>  -32.7971    1.0000 </r>
       <r>  -32.7066    1.0000 </r>
       <r>  -32.6615    1.0000 </r>
       <r>  -17.7142    1.0000 </r>
       <r>  -17.6279    1.0000 </r>
       <r>  -17.5228    1.0000 </r>
       <r>  -17.0525    1.0000 </r>
       <r>  -16.5697    1.0000 </r>
       <r>  -16.5222    1.0000 </r>
       <r>  -16.4966    1.0000 </r>
       <r>  -16.4682    1.0000 </r>
       <r>  -16.4203    1.0000 </r>
       <r>  -16.3767    1.0000 </r>
       <r>  -15.9538    1.0000 </r>
       <r>  -15.7482    1.0000 </r>
       <r>  -15.6983    1.0000 </r>
       <r>  -15.6983    1.0000 </r>
       <r>  -15.6026    1.0000 </r>
       <r>  -14.8517    1.0000 </r>
       <r>  -14.8517    1.0000 </r>
       <r>  -14.7549    1.0000 </r>
       <r>  -14.7549    1.0000 </r>
       <r>  -14.7321    1.0000 </r>
       <r>  -14.7321    1.0000 </r>
       <r>  -14.6986    1.0000 </r>
       <r>  -14.4057    1.0000 </r>
       <r>  -14.2675    1.0000 </r>
       <r>   -4.2646    1.0000 </r>
       <r>   -3.7184    1.0000 </r>
       <r>   -3.1802    1.0000 </r>
       <r>   -3.0086    1.0000 </r>
       <r>   -3.0086    1.0000 </r>
       <r>   -2.9084    1.0000 </r>
       <r>   -2.9084    1.0000 </r>
       <r>   -2.8404    1.0000 </r>
       <r>   -2.8404    1.0000 </r>
       <r>   -2.5471    1.0000 </r>
       <r>   -2.5471    1.0000 </r>
       <r>   -2.5229    1.0000 </r>
       <r>   -2.2682    1.0000 </r>
       <r>   -2.1655    1.0000 </r>
       <r>   -2.1655    1.0000 </r>
       <r>   -1.9509    1.0000 </r>
       <r>   -1.8413    1.0000 </r>
       <r>   -1.7801    1.0000 </r>
       <r>   -1.7801    1.0000 </r>
       <r>   -1.7009    1.0000 </r>
       <r>   -1.4492    1.0000 </r>
       <r>   -1.4492    1.0000 </r>
       <r>   -1.3708    1.0000 </r>
       <r>   -1.3507    1.0000 </r>
       <r>   -1.0714    1.0000 </r>
       <r>   -1.0714    1.0000 </r>
       <r>   -0.8569    1.0000 </r>
       <r>   -0.7476    1.0000 </r>
       <r>   -0.7476    1.0000 </r>
       <r>   -0.6457    1.0000 </r>
       <r>   -0.5976    1.0000 </r>
       <r>   -0.5976    1.0000 </r>
       <r>   -0.3678    1.0000 </r>
       <r>   -0.3678    1.0000 </r>
       <r>   -0.0621    1.0000 </r>
       <r>   -0.0621    1.0000 </r>
       <r>    1.6083    0.0000 </r>
       <r>    1.7159    0.0000 </r>
       <r>    1.7159    0.0000 </r>
       <r>    1.7504    0.0000 </r>
       <r>    1.8847    0.0000 </r>
       <r>    1.9930    0.0000 </r>
       <r>    2.2899    0.0000 </r>
       <r>    2.2918    0.0000 </r>
       <r>    2.3276    0.0000 </r>
       <r>    3.0930    0.0000 </r>
       <r>    5.5186    0.0000 </r>
       <r>    5.6172    0.0000 </r>
      </set>
      <set comment="kpoint 2">
       <r>  -33.7788    1.0000 </r>
       <r>  -32.7930    1.0000 </r>
       <r>  -32.7026    1.0000 </r>
       <r>  -32.6574    1.0000 </r>
       <r>  -17.6375    1.0000 </r>
       <r>  -17.5647    1.0000 </r>
       <r>  -17.5028    1.0000 </r>
       <r>  -17.0489    1.0000 </r>
       <r>  -16.5844    1.0000 </r>
       <r>  -16.5521    1.0000 </r>
       <r>  -16.5061    1.0000 </r>
       <r>  -16.4635    1.0000 </r>
       <r>  -16.4510    1.0000 </r>
       <r>  -16.4085    1.0000 </r>
       <r>  -16.0458    1.0000 </r>
       <r>  -15.9464    1.0000 </r>
       <r>  -15.7101    1.0000 </r>
       <r>  -15.6904    1.0000 </r>
       <r>  -15.2534    1.0000 </r>
       <r>  -14.8420    1.0000 </r>
       <r>  -14.7497    1.0000 </r>
       <r>  -14.7450    1.0000 </r>
       <r>  -14.7219    1.0000 </r>
       <r>  -14.7205    1.0000 </r>
       <r>  -14.6432    1.0000 </r>
       <r>  -14.6248    1.0000 </r>
       <r>  -14.4253    1.0000 </r>
       <r>  -14.3031    1.0000 </r>
       <r>   -4.2771    1.0000 </r>
       <r>   -3.7698    1.0000 </r>
       <r>   -3.3588    1.0000 </r>
       <r>   -3.3064    1.0000 </r>
       <r>   -3.2152    1.0000 </r>
       <r>   -3.1072    1.0000 </r>
       <r>   -3.0177    1.0000 </r>
       <r>   -2.9977    1.0000 </r>
       <r>   -2.9179    1.0000 </r>
       <r>   -2.8450    1.0000 </r>
       <r>   -2.8150    1.0000 </r>
       <r>   -2.6154    1.0000 </r>
       <r>   -2.4997    1.0000 </r>
       <r>   -2.2813    1.0000 </r>
       <r>   -2.2522    1.0000 </r>
       <r>   -2.0476    1.0000 </r>
       <r>   -2.0174    1.0000 </r>
       <r>   -1.8738    1.0000 </r>
       <r>   -1.7305    1.0000 </r>
       <r>   -1.6059    1.0000 </r>
       <r>   -1.5010    1.0000 </r>
       <r>   -1.3852    1.0000 </r>
       <r>   -1.3318    1.0000 </r>
       <r>   -1.2914    1.0000 </r>
       <r>   -1.2325    1.0000 </r>
       <r>   -1.1577    1.0000 </r>
       <r>   -1.0915    1.0000 </r>
       <r>   -1.0016    1.0000 </r>
       <r>   -0.9574    1.0000 </r>
       <r>   -0.9368    1.0000 </r>
       <r>   -0.8579    1.0000 </r>
       <r>   -0.8049    1.0000 </r>
       <r>   -0.5106    1.0000 </r>
       <r>   -0.4959    1.0000 </r>
       <r>   -0.4536    1.0000 </r>
       <r>   -0.3726    1.0000 </r>
       <r>    1.7333    0.0000 </r>
       <r>    2.0360    0.0000 </r>
       <r>    2.0866    0.0000 </r>
       <r>    2.1725    0.0000 </r>
       <r>    2.2794    0.0000 </r>
       <r>    2.3259    0.0000 </r>
       <r>    2.4214    0.0000 </r>
       <r>    2.4336    0.0000 </r>
       <r>    2.5774    0.0000 </r>
       <r>    3.1148    0.0000 </r>
       <r>    5.6973    0.0000 </r>
       <r>    6.1481    0.0000 </r>
      </set>
      <set comment="kpoint 3">
       <r>  -33.7711    1.0000 </r>
       <r>  -32.7838    1.0000 </r>
       <r>  -32.6935    1.0000 </r>
       <r>  -32.6482    1.0000 </r>
       <r>  -17.6038    1.0000 </r>
       <r>  -17.4584    1.0000 </r>
       <r>  -17.3701    1.0000 </r>
       <r>  -17.0424    1.0000 </r>
       <r>  -16.6777    1.0000 </r>
       <r>  -16.5808    1.0000 </r>
       <r>  -16.5661    1.0000 </r>
       <r>  -16.5189    1.0000 </r>
       <r>  -16.4259    1.0000 </r>
       <r>  -16.3479    1.0000 </r>
       <r>  -16.1967    1.0000 </r>
       <r>  -15.9164    1.0000 </r>
       <r>  -15.7031    1.0000 </r>
       <r>  -15.6726    1.0000 </r>
       <r>  -14.9207    1.0000 </r>
       <r>  -14.8201    1.0000 </r>
       <r>  -14.7226    1.0000 </r>
       <r>  -14.7122    1.0000 </r>
       <r>  -14.6988    1.0000 </r>
       <r>  -14.5758    1.0000 </r>
       <r>  -14.4696    1.0000 </r>
       <r>  -14.4484    1.0000 </r>
       <r>  -14.4274    1.0000 </r>
       <r>  -14.3626    1.0000 </r>
       <r>   -4.3168    1.0000 </r>
       <r>   -4.1571    1.0000 </r>
       <r>   -3.8976    1.0000 </r>
       <r>   -3.8652    1.0000 </r>
       <r>   -3.7116    1.0000 </r>
       <r>   -3.6028    1.0000 </r>
       <r>   -3.5319    1.0000 </r>
       <r>   -3.2612    1.0000 </r>
       <r>   -3.1465    1.0000 </r>
       <r>   -3.0322    1.0000 </r>
       <r>   -2.9402    1.0000 </r>
       <r>   -2.8866    1.0000 </r>
       <r>   -2.8518    1.0000 </r>
       <r>   -2.7723    1.0000 </r>
       <r>   -2.4757    1.0000 </r>
       <r>   -2.2922    1.0000 </r>
       <r>   -2.1867    1.0000 </r>
       <r>   -2.1652    1.0000 </r>
       <r>   -1.8700    1.0000 </r>
       <r>   -1.8320    1.0000 </r>
       <r>   -1.8181    1.0000 </r>
       <r>   -1.7744    1.0000 </r>
       <r>   -1.7396    1.0000 </r>
       <r>   -1.6032    1.0000 </r>
       <r>   -1.4846    1.0000 </r>
       <r>   -1.3990    1.0000 </r>
       <r>   -1.3679    1.0000 </r>
       <r>   -1.2712    1.0000 </r>
       <r>   -1.1041    1.0000 </r>
       <r>   -0.9963    1.0000 </r>
       <r>   -0.8675    1.0000 </r>
       <r>   -0.8293    1.0000 </r>
       <r>   -0.7065    1.0000 </r>
       <r>   -0.6619    1.0000 </r>
       <r>   -0.6342    1.0000 </r>
       <r>   -0.4283    1.0000 </r>
       <r>    1.7806    0.0000 </r>
       <r>    2.3318    0.0000 </r>
       <r>    2.8279    0.0000 </r>
       <r>    2.8309    0.0000 </r>
       <r>    2.8907    0.0000 </r>
       <r>    2.9793    0.0000 </r>
       <r>    3.0614    0.0000 </r>
       <r>    3.1131    0.0000 </r>
       <r>    3.1393    0.0000 </r>
       <r>    3.2191    0.0000 </r>
       <r>    3.4003    0.0000 </r>
       <r>    6.7146    0.0000 </r>
      </set>
      <set comment="kpoint 4">
       <r>  -33.7649    1.0000 </r>
       <r>  -32.7763    1.0000 </r>
       <r>  -32.6862    1.0000 </r>
       <r>  -32.6408    1.0000 </r>
       <r>  -17.6755    1.0000 </r>
       <r>  -17.4643    1.0000 </r>
       <r>  -17.2175    1.0000 </r>
       <r>  -16.9354    1.0000 </r>
       <r>  -16.7168    1.0000 </r>
       <r>  -16.6817    1.0000 </r>
       <r>  -16.5800    1.0000 </r>
       <r>  -16.4881    1.0000 </r>
       <r>  -16.4366    1.0000 </r>
       <r>  -16.2424    1.0000 </r>
       <r>  -16.2382    1.0000 </r>
       <r>  -15.8841    1.0000 </r>
       <r>  -15.6706    1.0000 </r>
       <r>  -15.6583    1.0000 </r>
       <r>  -14.8024    1.0000 </r>
       <r>  -14.7374    1.0000 </r>
       <r>  -14.7046    1.0000 </r>
       <r>  -14.7044    1.0000 </r>
       <r>  -14.6800    1.0000 </r>
       <r>  -14.5032    1.0000 </r>
       <r>  -14.4436    1.0000 </r>
       <r>  -14.3918    1.0000 </r>
       <r>  -14.3246    1.0000 </r>
       <r>  -14.2812    1.0000 </r>
       <r>   -4.5390    1.0000 </r>
       <r>   -4.4956    1.0000 </r>
       <r>   -4.3638    1.0000 </r>
       <r>   -4.2587    1.0000 </r>
       <r>   -4.1814    1.0000 </r>
       <r>   -4.0924    1.0000 </r>
       <r>   -3.9404    1.0000 </r>
       <r>   -3.6484    1.0000 </r>
       <r>   -3.4323    1.0000 </r>
       <r>   -3.1090    1.0000 </r>
       <r>   -3.0284    1.0000 </r>
       <r>   -2.9718    1.0000 </r>
       <r>   -2.8786    1.0000 </r>
       <r>   -2.8390    1.0000 </r>
       <r>   -2.6856    1.0000 </r>
       <r>   -2.6462    1.0000 </r>
       <r>   -2.4613    1.0000 </r>
       <r>   -2.3248    1.0000 </r>
       <r>   -2.1642    1.0000 </r>
       <r>   -2.1541    1.0000 </r>
       <r>   -1.9720    1.0000 </r>
       <r>   -1.8870    1.0000 </r>
       <r>   -1.7308    1.0000 </r>
       <r>   -1.6859    1.0000 </r>
       <r>   -1.6438    1.0000 </r>
       <r>   -1.6260    1.0000 </r>
       <r>   -1.3654    1.0000 </r>
       <r>   -1.3101    1.0000 </r>
       <r>   -1.2734    1.0000 </r>
       <r>   -1.1320    1.0000 </r>
       <r>   -1.0390    1.0000 </r>
       <r>   -0.9641    1.0000 </r>
       <r>   -0.7700    1.0000 </r>
       <r>   -0.7335    1.0000 </r>
       <r>   -0.5182    1.0000 </r>
       <r>   -0.2444    1.0000 </r>
       <r>    1.8198    0.0000 </r>
       <r>    2.3654    0.0000 </r>
       <r>    2.9359    0.0000 </r>
       <r>    3.3744    0.0000 </r>
       <r>    3.4201    0.0000 </r>
       <r>    3.4352    0.0000 </r>
       <r>    3.5031    0.0000 </r>
       <r>    3.5841    0.0000 </r>
       <r>    3.6186    0.0000 </r>
       <r>    3.8094    0.0000 </r>
       <r>    7.4249    0.0000 </r>
       <r>    7.6324    0.0000 </r>
      </set>
      <set comment="kpoint 5">
       <r>  -33.7755    1.0000 </r>
       <r>  -32.7890    1.0000 </r>
       <r>  -32.6987    1.0000 </r>
       <r>  -32.6534    1.0000 </r>
       <r>  -17.5747    1.0000 </r>
       <r>  -17.4897    1.0000 </r>
       <r>  -17.4619    1.0000 </r>
       <r>  -17.0273    1.0000 </r>
       <r>  -16.5905    1.0000 </r>
       <r>  -16.5678    1.0000 </r>
       <r>  -16.4987    1.0000 </r>
       <r>  -16.4801    1.0000 </r>
       <r>  -16.4394    1.0000 </r>
       <r>  -16.4185    1.0000 </r>
       <r>  -16.1648    1.0000 </r>
       <r>  -15.9446    1.0000 </r>
       <r>  -15.7134    1.0000 </r>
       <r>  -15.6809    1.0000 </r>
       <r>  -15.1328    1.0000 </r>
       <r>  -14.8448    1.0000 </r>
       <r>  -14.7384    1.0000 </r>
       <r>  -14.7355    1.0000 </r>
       <r>  -14.7075    1.0000 </r>
       <r>  -14.6953    1.0000 </r>
       <r>  -14.5740    1.0000 </r>
       <r>  -14.5554    1.0000 </r>
       <r>  -14.4406    1.0000 </r>
       <r>  -14.3429    1.0000 </r>
       <r>   -4.2873    1.0000 </r>
       <r>   -3.8351    1.0000 </r>
       <r>   -3.5269    1.0000 </r>
       <r>   -3.4302    1.0000 </r>
       <r>   -3.3539    1.0000 </r>
       <r>   -3.1987    1.0000 </r>
       <r>   -3.1159    1.0000 </r>
       <r>   -3.0746    1.0000 </r>
       <r>   -3.0551    1.0000 </r>
       <r>   -2.9952    1.0000 </r>
       <r>   -2.8886    1.0000 </r>
       <r>   -2.8873    1.0000 </r>
       <r>   -2.6784    1.0000 </r>
       <r>   -2.5502    1.0000 </r>
       <r>   -2.3842    1.0000 </r>
       <r>   -2.2862    1.0000 </r>
       <r>   -2.0754    1.0000 </r>
       <r>   -2.0677    1.0000 </r>
       <r>   -1.8484    1.0000 </r>
       <r>   -1.7739    1.0000 </r>
       <r>   -1.6626    1.0000 </r>
       <r>   -1.5959    1.0000 </r>
       <r>   -1.4329    1.0000 </r>
       <r>   -1.2844    1.0000 </r>
       <r>   -1.1814    1.0000 </r>
       <r>   -1.1627    1.0000 </r>
       <r>   -1.0963    1.0000 </r>
       <r>   -1.0759    1.0000 </r>
       <r>   -1.0644    1.0000 </r>
       <r>   -1.0091    1.0000 </r>
       <r>   -1.0016    1.0000 </r>
       <r>   -0.8931    1.0000 </r>
       <r>   -0.8251    1.0000 </r>
       <r>   -0.6738    1.0000 </r>
       <r>   -0.5429    1.0000 </r>
       <r>   -0.2737    1.0000 </r>
       <r>    2.0181    0.0000 </r>
       <r>    2.1842    0.0000 </r>
       <r>    2.2983    0.0000 </r>
       <r>    2.4315    0.0000 </r>
       <r>    2.4501    0.0000 </r>
       <r>    2.5421    0.0000 </r>
       <r>    2.5730    0.0000 </r>
       <r>    2.6843    0.0000 </r>
       <r>    2.8423    0.0000 </r>
       <r>    3.1093    0.0000 </r>
       <r>    6.0044    0.0000 </r>
       <r>    6.2441    0.0000 </r>
      </set>
      <set comment="kpoint 6">
       <r>  -33.7679    1.0000 </r>
       <r>  -32.7800    1.0000 </r>
       <r>  -32.6897    1.0000 </r>
       <r>  -32.6444    1.0000 </r>
       <r>  -17.5343    1.0000 </r>
       <r>  -17.3830    1.0000 </r>
       <r>  -17.2827    1.0000 </r>
       <r>  -16.9842    1.0000 </r>
       <r>  -16.6373    1.0000 </r>
       <r>  -16.5846    1.0000 </r>
       <r>  -16.5442    1.0000 </r>
       <r>  -16.5122    1.0000 </r>
       <r>  -16.4411    1.0000 </r>
       <r>  -16.2940    1.0000 </r>
       <r>  -16.2329    1.0000 </r>
       <r>  -15.9237    1.0000 </r>
       <r>  -15.7527    1.0000 </r>
       <r>  -15.6414    1.0000 </r>
       <r>  -14.9450    1.0000 </r>
       <r>  -14.8425    1.0000 </r>
       <r>  -14.7682    1.0000 </r>
       <r>  -14.7055    1.0000 </r>
       <r>  -14.6654    1.0000 </r>
       <r>  -14.6068    1.0000 </r>
       <r>  -14.4910    1.0000 </r>
       <r>  -14.4482    1.0000 </r>
       <r>  -14.4292    1.0000 </r>
       <r>  -14.4037    1.0000 </r>
       <r>   -4.3194    1.0000 </r>
       <r>   -4.1296    1.0000 </r>
       <r>   -3.9326    1.0000 </r>
       <r>   -3.8941    1.0000 </r>
       <r>   -3.7201    1.0000 </r>
       <r>   -3.5916    1.0000 </r>
       <r>   -3.5141    1.0000 </r>
       <r>   -3.2849    1.0000 </r>
       <r>   -3.2442    1.0000 </r>
       <r>   -3.1989    1.0000 </r>
       <r>   -3.1657    1.0000 </r>
       <r>   -3.1071    1.0000 </r>
       <r>   -3.0090    1.0000 </r>
       <r>   -2.8831    1.0000 </r>
       <r>   -2.8008    1.0000 </r>
       <r>   -2.7111    1.0000 </r>
       <r>   -2.5093    1.0000 </r>
       <r>   -2.3989    1.0000 </r>
       <r>   -2.2693    1.0000 </r>
       <r>   -2.2158    1.0000 </r>
       <r>   -2.0734    1.0000 </r>
       <r>   -1.8364    1.0000 </r>
       <r>   -1.6674    1.0000 </r>
       <r>   -1.5422    1.0000 </r>
       <r>   -1.3796    1.0000 </r>
       <r>   -1.2688    1.0000 </r>
       <r>   -1.2344    1.0000 </r>
       <r>   -1.1441    1.0000 </r>
       <r>   -1.1094    1.0000 </r>
       <r>   -1.0986    1.0000 </r>
       <r>   -0.9971    1.0000 </r>
       <r>   -0.8263    1.0000 </r>
       <r>   -0.6909    1.0000 </r>
       <r>   -0.6436    1.0000 </r>
       <r>   -0.4499    1.0000 </r>
       <r>   -0.3576    1.0000 </r>
       <r>    2.1224    0.0000 </r>
       <r>    2.5522    0.0000 </r>
       <r>    2.8497    0.0000 </r>
       <r>    2.9291    0.0000 </r>
       <r>    3.0018    0.0000 </r>
       <r>    3.0217    0.0000 </r>
       <r>    3.0747    0.0000 </r>
       <r>    3.1468    0.0000 </r>
       <r>    3.2170    0.0000 </r>
       <r>    3.3059    0.0000 </r>
       <r>    3.4531    0.0000 </r>
       <r>    3.6285    0.0000 </r>
      </set>
      <set comment="kpoint 7">
       <r>  -33.7618    1.0000 </r>
       <r>  -32.7727    1.0000 </r>
       <r>  -32.6826    1.0000 </r>
       <r>  -32.6371    1.0000 </r>
       <r>  -17.5782    1.0000 </r>
       <r>  -17.3682    1.0000 </r>
       <r>  -17.1283    1.0000 </r>
       <r>  -16.8585    1.0000 </r>
       <r>  -16.6687    1.0000 </r>
       <r>  -16.6455    1.0000 </r>
       <r>  -16.5486    1.0000 </r>
       <r>  -16.4929    1.0000 </r>
       <r>  -16.4381    1.0000 </r>
       <r>  -16.1976    1.0000 </r>
       <r>  -16.1741    1.0000 </r>
       <r>  -15.9028    1.0000 </r>
       <r>  -15.7997    1.0000 </r>
       <r>  -15.5971    1.0000 </r>
       <r>  -14.8423    1.0000 </r>
       <r>  -14.8319    1.0000 </r>
       <r>  -14.8005    1.0000 </r>
       <r>  -14.6783    1.0000 </r>
       <r>  -14.6143    1.0000 </r>
       <r>  -14.5524    1.0000 </r>
       <r>  -14.5122    1.0000 </r>
       <r>  -14.4468    1.0000 </r>
       <r>  -14.3822    1.0000 </r>
       <r>  -14.3314    1.0000 </r>
       <r>   -4.4946    1.0000 </r>
       <r>   -4.4115    1.0000 </r>
       <r>   -4.3563    1.0000 </r>
       <r>   -4.2618    1.0000 </r>
       <r>   -4.1741    1.0000 </r>
       <r>   -4.0250    1.0000 </r>
       <r>   -3.9208    1.0000 </r>
       <r>   -3.6524    1.0000 </r>
       <r>   -3.5088    1.0000 </r>
       <r>   -3.3238    1.0000 </r>
       <r>   -3.2341    1.0000 </r>
       <r>   -3.1940    1.0000 </r>
       <r>   -3.1578    1.0000 </r>
       <r>   -3.0997    1.0000 </r>
       <r>   -3.0626    1.0000 </r>
       <r>   -2.9769    1.0000 </r>
       <r>   -2.6448    1.0000 </r>
       <r>   -2.6046    1.0000 </r>
       <r>   -2.4697    1.0000 </r>
       <r>   -2.3442    1.0000 </r>
       <r>   -2.2073    1.0000 </r>
       <r>   -1.9091    1.0000 </r>
       <r>   -1.7136    1.0000 </r>
       <r>   -1.7009    1.0000 </r>
       <r>   -1.4032    1.0000 </r>
       <r>   -1.3390    1.0000 </r>
       <r>   -1.2740    1.0000 </r>
       <r>   -1.2527    1.0000 </r>
       <r>   -1.2197    1.0000 </r>
       <r>   -1.1090    1.0000 </r>
       <r>   -1.0780    1.0000 </r>
       <r>   -0.9725    1.0000 </r>
       <r>   -0.7371    1.0000 </r>
       <r>   -0.5743    1.0000 </r>
       <r>   -0.4232    1.0000 </r>
       <r>   -0.2336    1.0000 </r>
       <r>    2.1613    0.0000 </r>
       <r>    2.6045    0.0000 </r>
       <r>    3.0774    0.0000 </r>
       <r>    3.4287    0.0000 </r>
       <r>    3.4482    0.0000 </r>
       <r>    3.5133    0.0000 </r>
       <r>    3.5619    0.0000 </r>
       <r>    3.5869    0.0000 </r>
       <r>    3.6668    0.0000 </r>
       <r>    3.7647    0.0000 </r>
       <r>    3.8601    0.0000 </r>
       <r>    7.6783    0.0000 </r>
      </set>
      <set comment="kpoint 8">
       <r>  -33.7606    1.0000 </r>
       <r>  -32.7714    1.0000 </r>
       <r>  -32.6813    1.0000 </r>
       <r>  -32.6358    1.0000 </r>
       <r>  -17.3950    1.0000 </r>
       <r>  -17.2213    1.0000 </r>
       <r>  -17.0744    1.0000 </r>
       <r>  -16.8457    1.0000 </r>
       <r>  -16.6597    1.0000 </r>
       <r>  -16.5777    1.0000 </r>
       <r>  -16.5299    1.0000 </r>
       <r>  -16.4412    1.0000 </r>
       <r>  -16.4319    1.0000 </r>
       <r>  -16.2543    1.0000 </r>
       <r>  -16.1582    1.0000 </r>
       <r>  -15.9176    1.0000 </r>
       <r>  -15.7593    1.0000 </r>
       <r>  -15.6594    1.0000 </r>
       <r>  -15.0128    1.0000 </r>
       <r>  -14.8931    1.0000 </r>
       <r>  -14.8011    1.0000 </r>
       <r>  -14.7258    1.0000 </r>
       <r>  -14.6792    1.0000 </r>
       <r>  -14.5949    1.0000 </r>
       <r>  -14.5905    1.0000 </r>
       <r>  -14.4888    1.0000 </r>
       <r>  -14.4440    1.0000 </r>
       <r>  -14.4359    1.0000 </r>
       <r>   -4.3314    1.0000 </r>
       <r>   -4.1779    1.0000 </r>
       <r>   -4.0473    1.0000 </r>
       <r>   -4.0325    1.0000 </r>
       <r>   -3.7617    1.0000 </r>
       <r>   -3.6863    1.0000 </r>
       <r>   -3.5831    1.0000 </r>
       <r>   -3.5606    1.0000 </r>
       <r>   -3.5357    1.0000 </r>
       <r>   -3.4757    1.0000 </r>
       <r>   -3.4687    1.0000 </r>
       <r>   -3.4413    1.0000 </r>
       <r>   -3.3093    1.0000 </r>
       <r>   -3.2660    1.0000 </r>
       <r>   -3.2052    1.0000 </r>
       <r>   -3.1495    1.0000 </r>
       <r>   -3.1264    1.0000 </r>
       <r>   -3.0935    1.0000 </r>
       <r>   -2.7886    1.0000 </r>
       <r>   -2.7613    1.0000 </r>
       <r>   -2.5783    1.0000 </r>
       <r>   -2.2681    1.0000 </r>
       <r>   -2.0992    1.0000 </r>
       <r>   -1.5920    1.0000 </r>
       <r>   -1.4704    1.0000 </r>
       <r>   -1.2340    1.0000 </r>
       <r>   -0.9904    1.0000 </r>
       <r>   -0.9485    1.0000 </r>
       <r>   -0.8351    1.0000 </r>
       <r>   -0.8177    1.0000 </r>
       <r>   -0.7145    1.0000 </r>
       <r>   -0.7036    1.0000 </r>
       <r>   -0.5828    1.0000 </r>
       <r>   -0.5547    1.0000 </r>
       <r>   -0.3966    1.0000 </r>
       <r>    0.0476    1.0000 </r>
       <r>    2.7181    0.0000 </r>
       <r>    2.9736    0.0000 </r>
       <r>    3.0641    0.0000 </r>
       <r>    3.1761    0.0000 </r>
       <r>    3.2634    0.0000 </r>
       <r>    3.3332    0.0000 </r>
       <r>    3.4007    0.0000 </r>
       <r>    3.4219    0.0000 </r>
       <r>    3.5206    0.0000 </r>
       <r>    3.6237    0.0000 </r>
       <r>    3.7077    0.0000 </r>
       <r>    3.8001    0.0000 </r>
      </set>
      <set comment="kpoint 9">
       <r>  -33.7547    1.0000 </r>
       <r>  -32.7645    1.0000 </r>
       <r>  -32.6745    1.0000 </r>
       <r>  -32.6289    1.0000 </r>
       <r>  -17.3255    1.0000 </r>
       <r>  -17.1204    1.0000 </r>
       <r>  -16.9054    1.0000 </r>
       <r>  -16.6779    1.0000 </r>
       <r>  -16.6393    1.0000 </r>
       <r>  -16.6213    1.0000 </r>
       <r>  -16.4941    1.0000 </r>
       <r>  -16.4827    1.0000 </r>
       <r>  -16.3887    1.0000 </r>
       <r>  -16.0992    1.0000 </r>
       <r>  -16.0305    1.0000 </r>
       <r>  -15.9128    1.0000 </r>
       <r>  -15.8764    1.0000 </r>
       <r>  -15.6186    1.0000 </r>
       <r>  -15.0855    1.0000 </r>
       <r>  -14.9279    1.0000 </r>
       <r>  -14.8716    1.0000 </r>
       <r>  -14.7540    1.0000 </r>
       <r>  -14.6793    1.0000 </r>
       <r>  -14.6232    1.0000 </r>
       <r>  -14.5739    1.0000 </r>
       <r>  -14.5436    1.0000 </r>
       <r>  -14.4925    1.0000 </r>
       <r>  -14.4239    1.0000 </r>
       <r>   -4.4960    1.0000 </r>
       <r>   -4.3949    1.0000 </r>
       <r>   -4.2914    1.0000 </r>
       <r>   -4.1789    1.0000 </r>
       <r>   -4.1063    1.0000 </r>
       <r>   -4.0681    1.0000 </r>
       <r>   -4.0032    1.0000 </r>
       <r>   -3.9056    1.0000 </r>
       <r>   -3.7586    1.0000 </r>
       <r>   -3.7272    1.0000 </r>
       <r>   -3.6434    1.0000 </r>
       <r>   -3.6038    1.0000 </r>
       <r>   -3.5468    1.0000 </r>
       <r>   -3.4776    1.0000 </r>
       <r>   -3.4351    1.0000 </r>
       <r>   -3.2836    1.0000 </r>
       <r>   -3.1685    1.0000 </r>
       <r>   -3.1206    1.0000 </r>
       <r>   -3.0592    1.0000 </r>
       <r>   -2.9718    1.0000 </r>
       <r>   -2.6731    1.0000 </r>
       <r>   -2.5465    1.0000 </r>
       <r>   -2.1422    1.0000 </r>
       <r>   -1.5538    1.0000 </r>
       <r>   -1.4326    1.0000 </r>
       <r>   -1.3216    1.0000 </r>
       <r>   -1.0043    1.0000 </r>
       <r>   -0.9468    1.0000 </r>
       <r>   -0.7455    1.0000 </r>
       <r>   -0.6681    1.0000 </r>
       <r>   -0.6033    1.0000 </r>
       <r>   -0.5728    1.0000 </r>
       <r>   -0.5522    1.0000 </r>
       <r>   -0.4541    1.0000 </r>
       <r>   -0.2138    1.0000 </r>
       <r>    0.2110    1.0000 </r>
       <r>    2.8480    0.0000 </r>
       <r>    3.1606    0.0000 </r>
       <r>    3.4340    0.0000 </r>
       <r>    3.4671    0.0000 </r>
       <r>    3.6250    0.0000 </r>
       <r>    3.6333    0.0000 </r>
       <r>    3.7688    0.0000 </r>
       <r>    3.7794    0.0000 </r>
       <r>    3.8129    0.0000 </r>
       <r>    3.8760    0.0000 </r>
       <r>    4.0016    0.0000 </r>
       <r>    7.7777    0.0000 </r>
      </set>
      <set comment="kpoint 10">
       <r>  -33.7491    1.0000 </r>
       <r>  -32.7579    1.0000 </r>
       <r>  -32.6679    1.0000 </r>
       <r>  -32.6223    1.0000 </r>
       <r>  -17.0477    1.0000 </r>
       <r>  -16.8496    1.0000 </r>
       <r>  -16.7224    1.0000 </r>
       <r>  -16.6864    1.0000 </r>
       <r>  -16.6294    1.0000 </r>
       <r>  -16.5876    1.0000 </r>
       <r>  -16.4506    1.0000 </r>
       <r>  -16.4213    1.0000 </r>
       <r>  -16.3849    1.0000 </r>
       <r>  -16.0093    1.0000 </r>
       <r>  -15.9231    1.0000 </r>
       <r>  -15.8920    1.0000 </r>
       <r>  -15.8153    1.0000 </r>
       <r>  -15.6529    1.0000 </r>
       <r>  -15.3845    1.0000 </r>
       <r>  -14.9788    1.0000 </r>
       <r>  -14.9279    1.0000 </r>
       <r>  -14.9199    1.0000 </r>
       <r>  -14.7738    1.0000 </r>
       <r>  -14.7027    1.0000 </r>
       <r>  -14.6283    1.0000 </r>
       <r>  -14.5742    1.0000 </r>
       <r>  -14.4902    1.0000 </r>
       <r>  -14.4692    1.0000 </r>
       <r>   -4.6040    1.0000 </r>
       <r>   -4.5263    1.0000 </r>
       <r>   -4.4654    1.0000 </r>
       <r>   -4.3946    1.0000 </r>
       <r>   -4.2726    1.0000 </r>
       <r>   -4.2382    1.0000 </r>
       <r>   -4.1690    1.0000 </r>
       <r>   -4.1586    1.0000 </r>
       <r>   -4.0744    1.0000 </r>
       <r>   -4.0303    1.0000 </r>
       <r>   -3.9155    1.0000 </r>
       <r>   -3.8516    1.0000 </r>
       <r>   -3.7910    1.0000 </r>
       <r>   -3.7323    1.0000 </r>
       <r>   -3.5259    1.0000 </r>
       <r>   -3.4726    1.0000 </r>
       <r>   -3.4565    1.0000 </r>
       <r>   -3.3924    1.0000 </r>
       <r>   -3.1479    1.0000 </r>
       <r>   -3.1149    1.0000 </r>
       <r>   -2.7570    1.0000 </r>
       <r>   -2.6611    1.0000 </r>
       <r>   -2.4043    1.0000 </r>
       <r>   -1.4243    1.0000 </r>
       <r>   -1.3522    1.0000 </r>
       <r>   -1.3434    1.0000 </r>
       <r>   -0.9462    1.0000 </r>
       <r>   -0.9011    1.0000 </r>
       <r>   -0.5460    1.0000 </r>
       <r>   -0.5028    1.0000 </r>
       <r>   -0.2911    1.0000 </r>
       <r>   -0.2525    1.0000 </r>
       <r>   -0.2269    1.0000 </r>
       <r>   -0.1800    1.0000 </r>
       <r>   -0.1523    1.0000 </r>
       <r>    0.5545    1.0000 </r>
       <r>    3.4251    0.0000 </r>
       <r>    3.4807    0.0000 </r>
       <r>    3.6670    0.0000 </r>
       <r>    3.7196    0.0000 </r>
       <r>    3.8784    0.0000 </r>
       <r>    3.9232    0.0000 </r>
       <r>    4.0248    0.0000 </r>
       <r>    4.0507    0.0000 </r>
       <r>    4.1012    0.0000 </r>
       <r>    7.2370    0.0000 </r>
       <r>    7.3016    0.0000 </r>
       <r>    7.4548    0.0000 </r>
      </set>
     </set>
    </set>
   </array>
  </eigenvalues>
  <separator name="orbital magnetization" >
   <v name="MAGDIPOLOUT">      0.00000000      0.00000000      0.00000000</v>
  </separator>
  <dos>
   <i name="efermi">      0.59823051 </i>
   <total>
    <array>
     <dimension dim="1">gridpoints</dimension>
     <dimension dim="2">spin</dimension>
     <field>energy</field>
     <field>total</field>
     <field>integrated</field>
     <set>
      <set comment="spin 1">
       <r>   -35.8603     0.0000     0.0000 </r>
       <r>   -35.7079     0.0000     0.0000 </r>
       <r>   -35.5555     0.0000     0.0000 </r>
       <r>   -35.4031     0.0000     0.0000 </r>
       <r>   -35.2507     0.0000     0.0000 </r>
       <r>   -35.0983     0.0000     0.0000 </r>
       <r>   -34.9459     0.0000     0.0000 </r>
       <r>   -34.7936     0.0000     0.0000 </r>
       <r>   -34.6412     0.0000     0.0000 </r>
       <r>   -34.4888     0.0000     0.0000 </r>
       <r>   -34.3364     0.0000     0.0000 </r>
       <r>   -34.1840     0.0000     0.0000 </r>
       <r>   -34.0316     0.0000     0.0000 </r>
       <r>   -33.8792     0.0000     0.0000 </r>
       <r>   -33.7268     0.0000     2.0000 </r>
       <r>   -33.5745     0.0000     2.0000 </r>
       <r>   -33.4221     0.0000     2.0000 </r>
       <r>   -33.2697     0.0000     2.0000 </r>
       <r>   -33.1173     0.0000     2.0000 </r>
       <r>   -32.9649     0.0000     2.0000 </r>
       <r>   -32.8125     0.0000     2.0000 </r>
       <r>   -32.6601    13.6109     6.0095 </r>
       <r>   -32.5078     0.0000     8.0000 </r>
       <r>   -32.3554     0.0000     8.0000 </r>
       <r>   -32.2030     0.0000     8.0000 </r>
       <r>   -32.0506     0.0000     8.0000 </r>
       <r>   -31.8982     0.0000     8.0000 </r>
       <r>   -31.7458     0.0000     8.0000 </r>
       <r>   -31.5934     0.0000     8.0000 </r>
       <r>   -31.4410     0.0000     8.0000 </r>
       <r>   -31.2887     0.0000     8.0000 </r>
       <r>   -31.1363     0.0000     8.0000 </r>
       <r>   -30.9839     0.0000     8.0000 </r>
       <r>   -30.8315     0.0000     8.0000 </r>
       <r>   -30.6791     0.0000     8.0000 </r>
       <r>   -30.5267     0.0000     8.0000 </r>
       <r>   -30.3743     0.0000     8.0000 </r>
       <r>   -30.2220     0.0000     8.0000 </r>
       <r>   -30.0696     0.0000     8.0000 </r>
       <r>   -29.9172     0.0000     8.0000 </r>
       <r>   -29.7648     0.0000     8.0000 </r>
       <r>   -29.6124     0.0000     8.0000 </r>
       <r>   -29.4600     0.0000     8.0000 </r>
       <r>   -29.3076     0.0000     8.0000 </r>
       <r>   -29.1552     0.0000     8.0000 </r>
       <r>   -29.0029     0.0000     8.0000 </r>
       <r>   -28.8505     0.0000     8.0000 </r>
       <r>   -28.6981     0.0000     8.0000 </r>
       <r>   -28.5457     0.0000     8.0000 </r>
       <r>   -28.3933     0.0000     8.0000 </r>
       <r>   -28.2409     0.0000     8.0000 </r>
       <r>   -28.0885     0.0000     8.0000 </r>
       <r>   -27.9362     0.0000     8.0000 </r>
       <r>   -27.7838     0.0000     8.0000 </r>
       <r>   -27.6314     0.0000     8.0000 </r>
       <r>   -27.4790     0.0000     8.0000 </r>
       <r>   -27.3266     0.0000     8.0000 </r>
       <r>   -27.1742     0.0000     8.0000 </r>
       <r>   -27.0218     0.0000     8.0000 </r>
       <r>   -26.8695     0.0000     8.0000 </r>
       <r>   -26.7171     0.0000     8.0000 </r>
       <r>   -26.5647     0.0000     8.0000 </r>
       <r>   -26.4123     0.0000     8.0000 </r>
       <r>   -26.2599     0.0000     8.0000 </r>
       <r>   -26.1075     0.0000     8.0000 </r>
       <r>   -25.9551     0.0000     8.0000 </r>
       <r>   -25.8027     0.0000     8.0000 </r>
       <r>   -25.6504     0.0000     8.0000 </r>
       <r>   -25.4980     0.0000     8.0000 </r>
       <r>   -25.3456     0.0000     8.0000 </r>
       <r>   -25.1932     0.0000     8.0000 </r>
       <r>   -25.0408     0.0000     8.0000 </r>
       <r>   -24.8884     0.0000     8.0000 </r>
       <r>   -24.7360     0.0000     8.0000 </r>
       <r>   -24.5837     0.0000     8.0000 </r>
       <r>   -24.4313     0.0000     8.0000 </r>
       <r>   -24.2789     0.0000     8.0000 </r>
       <r>   -24.1265     0.0000     8.0000 </r>
       <r>   -23.9741     0.0000     8.0000 </r>
       <r>   -23.8217     0.0000     8.0000 </r>
       <r>   -23.6693     0.0000     8.0000 </r>
       <r>   -23.5169     0.0000     8.0000 </r>
       <r>   -23.3646     0.0000     8.0000 </r>
       <r>   -23.2122     0.0000     8.0000 </r>
       <r>   -23.0598     0.0000     8.0000 </r>
       <r>   -22.9074     0.0000     8.0000 </r>
       <r>   -22.7550     0.0000     8.0000 </r>
       <r>   -22.6026     0.0000     8.0000 </r>
       <r>   -22.4502     0.0000     8.0000 </r>
       <r>   -22.2979     0.0000     8.0000 </r>
       <r>   -22.1455     0.0000     8.0000 </r>
       <r>   -21.9931     0.0000     8.0000 </r>
       <r>   -21.8407     0.0000     8.0000 </r>
       <r>   -21.6883     0.0000     8.0000 </r>
       <r>   -21.5359     0.0000     8.0000 </r>
       <r>   -21.3835     0.0000     8.0000 </r>
       <r>   -21.2311     0.0000     8.0000 </r>
       <r>   -21.0788     0.0000     8.0000 </r>
       <r>   -20.9264     0.0000     8.0000 </r>
       <r>   -20.7740     0.0000     8.0000 </r>
       <r>   -20.6216     0.0000     8.0000 </r>
       <r>   -20.4692     0.0000     8.0000 </r>
       <r>   -20.3168     0.0000     8.0000 </r>
       <r>   -20.1644     0.0000     8.0000 </r>
       <r>   -20.0121     0.0000     8.0000 </r>
       <r>   -19.8597     0.0000     8.0000 </r>
       <r>   -19.7073     0.0000     8.0000 </r>
       <r>   -19.5549     0.0000     8.0000 </r>
       <r>   -19.4025     0.0000     8.0000 </r>
       <r>   -19.2501     0.0000     8.0000 </r>
       <r>   -19.0977     0.0000     8.0000 </r>
       <r>   -18.9453     0.0000     8.0000 </r>
       <r>   -18.7930     0.0000     8.0000 </r>
       <r>   -18.6406     0.0000     8.0000 </r>
       <r>   -18.4882     0.0000     8.0000 </r>
       <r>   -18.3358     0.0000     8.0000 </r>
       <r>   -18.1834     0.0000     8.0000 </r>
       <r>   -18.0310     0.0000     8.0000 </r>
       <r>   -17.8786     0.0000     8.0000 </r>
       <r>   -17.7263     0.0000     8.0000 </r>
       <r>   -17.5739    11.5540     8.8703 </r>
       <r>   -17.4215    12.8502    10.4805 </r>
       <r>   -17.2691     6.7943    11.8388 </r>
       <r>   -17.1167     4.5360    12.8970 </r>
       <r>   -16.9643     7.2369    14.2021 </r>
       <r>   -16.8119     4.0884    15.2725 </r>
       <r>   -16.6595    32.3228    16.6813 </r>
       <r>   -16.5072    43.1017    21.6023 </r>
       <r>   -16.3548     4.2523    26.4031 </r>
       <r>   -16.2024    23.0966    27.7871 </r>
       <r>   -16.0500     6.7045    29.4557 </r>
       <r>   -15.8976    28.6566    31.6624 </r>
       <r>   -15.7452    11.3579    33.1347 </r>
       <r>   -15.5928     0.0162    36.0001 </r>
       <r>   -15.4405     0.2699    36.0219 </r>
       <r>   -15.2881     1.2992    36.1869 </r>
       <r>   -15.1357     2.3461    36.4833 </r>
       <r>   -14.9833     5.4447    37.1082 </r>
       <r>   -14.8309    35.7671    40.0459 </r>
       <r>   -14.6785    51.9610    45.3981 </r>
       <r>   -14.5261    25.2138    49.7717 </r>
       <r>   -14.3738    19.3760    54.7477 </r>
       <r>   -14.2214     0.0000    56.0000 </r>
       <r>   -14.0690     0.0000    56.0000 </r>
       <r>   -13.9166     0.0000    56.0000 </r>
       <r>   -13.7642     0.0000    56.0000 </r>
       <r>   -13.6118     0.0000    56.0000 </r>
       <r>   -13.4594     0.0000    56.0000 </r>
       <r>   -13.3070     0.0000    56.0000 </r>
       <r>   -13.1547     0.0000    56.0000 </r>
       <r>   -13.0023     0.0000    56.0000 </r>
       <r>   -12.8499     0.0000    56.0000 </r>
       <r>   -12.6975     0.0000    56.0000 </r>
       <r>   -12.5451     0.0000    56.0000 </r>
       <r>   -12.3927     0.0000    56.0000 </r>
       <r>   -12.2403     0.0000    56.0000 </r>
       <r>   -12.0880     0.0000    56.0000 </r>
       <r>   -11.9356     0.0000    56.0000 </r>
       <r>   -11.7832     0.0000    56.0000 </r>
       <r>   -11.6308     0.0000    56.0000 </r>
       <r>   -11.4784     0.0000    56.0000 </r>
       <r>   -11.3260     0.0000    56.0000 </r>
       <r>   -11.1736     0.0000    56.0000 </r>
       <r>   -11.0212     0.0000    56.0000 </r>
       <r>   -10.8689     0.0000    56.0000 </r>
       <r>   -10.7165     0.0000    56.0000 </r>
       <r>   -10.5641     0.0000    56.0000 </r>
       <r>   -10.4117     0.0000    56.0000 </r>
       <r>   -10.2593     0.0000    56.0000 </r>
       <r>   -10.1069     0.0000    56.0000 </r>
       <r>    -9.9545     0.0000    56.0000 </r>
       <r>    -9.8022     0.0000    56.0000 </r>
       <r>    -9.6498     0.0000    56.0000 </r>
       <r>    -9.4974     0.0000    56.0000 </r>
       <r>    -9.3450     0.0000    56.0000 </r>
       <r>    -9.1926     0.0000    56.0000 </r>
       <r>    -9.0402     0.0000    56.0000 </r>
       <r>    -8.8878     0.0000    56.0000 </r>
       <r>    -8.7354     0.0000    56.0000 </r>
       <r>    -8.5831     0.0000    56.0000 </r>
       <r>    -8.4307     0.0000    56.0000 </r>
       <r>    -8.2783     0.0000    56.0000 </r>
       <r>    -8.1259     0.0000    56.0000 </r>
       <r>    -7.9735     0.0000    56.0000 </r>
       <r>    -7.8211     0.0000    56.0000 </r>
       <r>    -7.6687     0.0000    56.0000 </r>
       <r>    -7.5164     0.0000    56.0000 </r>
       <r>    -7.3640     0.0000    56.0000 </r>
       <r>    -7.2116     0.0000    56.0000 </r>
       <r>    -7.0592     0.0000    56.0000 </r>
       <r>    -6.9068     0.0000    56.0000 </r>
       <r>    -6.7544     0.0000    56.0000 </r>
       <r>    -6.6020     0.0000    56.0000 </r>
       <r>    -6.4496     0.0000    56.0000 </r>
       <r>    -6.2973     0.0000    56.0000 </r>
       <r>    -6.1449     0.0000    56.0000 </r>
       <r>    -5.9925     0.0000    56.0000 </r>
       <r>    -5.8401     0.0000    56.0000 </r>
       <r>    -5.6877     0.0000    56.0000 </r>
       <r>    -5.5353     0.0000    56.0000 </r>
       <r>    -5.3829     0.0000    56.0000 </r>
       <r>    -5.2306     0.0000    56.0000 </r>
       <r>    -5.0782     0.0000    56.0000 </r>
       <r>    -4.9258     0.0000    56.0000 </r>
       <r>    -4.7734     0.0000    56.0000 </r>
       <r>    -4.6210     0.0000    56.0000 </r>
       <r>    -4.4686     8.4676    56.9440 </r>
       <r>    -4.3162    24.3864    59.0165 </r>
       <r>    -4.1639    14.8108    61.6267 </r>
       <r>    -4.0115    12.9467    64.1214 </r>
       <r>    -3.8591    12.2785    66.3611 </r>
       <r>    -3.7067    14.3698    68.6934 </r>
       <r>    -3.5543    15.5264    71.1718 </r>
       <r>    -3.4019    18.3409    74.1001 </r>
       <r>    -3.2495    21.2726    77.2000 </r>
       <r>    -3.0971    27.2789    80.9882 </r>
       <r>    -2.9448    20.3808    84.7473 </r>
       <r>    -2.7924    12.3575    87.3345 </r>
       <r>    -2.6400    13.8056    89.4711 </r>
       <r>    -2.4876    12.0622    91.4918 </r>
       <r>    -2.3352    13.3092    93.3661 </r>
       <r>    -2.1828    12.2278    95.3679 </r>
       <r>    -2.0304    11.4145    97.0550 </r>
       <r>    -1.8781    10.4627    98.6326 </r>
       <r>    -1.7257    23.6563   100.1164 </r>
       <r>    -1.5733    14.8961   102.2018 </r>
       <r>    -1.4209    25.7478   104.4419 </r>
       <r>    -1.2685    26.4713   107.8424 </r>
       <r>    -1.1161    26.9861   110.6823 </r>
       <r>    -0.9637    24.4664   114.6337 </r>
       <r>    -0.8113    13.4540   117.5477 </r>
       <r>    -0.6590    25.4662   120.0777 </r>
       <r>    -0.5066    17.2795   123.0216 </r>
       <r>    -0.3542    13.9417   125.1593 </r>
       <r>    -0.2018     7.1534   126.8605 </r>
       <r>    -0.0494     1.3033   127.3927 </r>
       <r>     0.1030     1.1481   127.5736 </r>
       <r>     0.2554     0.9627   127.7441 </r>
       <r>     0.4077     0.7144   127.8719 </r>
       <r>     0.5601     0.0000   128.0000 </r>
       <r>     0.7125     0.0000   128.0000 </r>
       <r>     0.8649     0.0000   128.0000 </r>
       <r>     1.0173     0.0000   128.0000 </r>
       <r>     1.1697     0.0000   128.0000 </r>
       <r>     1.3221     0.0000   128.0000 </r>
       <r>     1.4745     0.0000   128.0000 </r>
       <r>     1.6268     0.1557   128.0014 </r>
       <r>     1.7792     1.8412   128.1252 </r>
       <r>     1.9316     3.6238   128.6106 </r>
       <r>     2.0840     4.6315   129.2223 </r>
       <r>     2.2364     4.0464   129.8671 </r>
       <r>     2.3888     8.1250   130.6821 </r>
       <r>     2.5412     7.7944   131.9198 </r>
       <r>     2.6935     6.8156   132.9911 </r>
       <r>     2.8459     9.2237   134.1085 </r>
       <r>     2.9983    10.6018   135.6222 </r>
       <r>     3.1507    12.8473   137.4648 </r>
       <r>     3.3031    12.4278   139.4296 </r>
       <r>     3.4555    19.3629   141.8538 </r>
       <r>     3.6079    13.2597   144.3979 </r>
       <r>     3.7603     9.9474   146.3920 </r>
       <r>     3.9126     6.0027   147.9133 </r>
       <r>     4.0650     1.4520   148.6190 </r>
       <r>     4.2174     0.8096   148.8053 </r>
       <r>     4.3698     0.8043   148.9283 </r>
       <r>     4.5222     0.7990   149.0504 </r>
       <r>     4.6746     0.7937   149.1718 </r>
       <r>     4.8270     0.7885   149.2924 </r>
       <r>     4.9793     0.7832   149.4121 </r>
       <r>     5.1317     0.7779   149.5310 </r>
       <r>     5.2841     0.7726   149.6492 </r>
       <r>     5.4365     0.7674   149.7665 </r>
       <r>     5.5889     1.0739   149.8940 </r>
       <r>     5.7413     1.3502   150.0998 </r>
       <r>     5.8937     1.0985   150.2864 </r>
       <r>     6.0461     0.9484   150.4367 </r>
       <r>     6.1984     1.2543   150.6126 </r>
       <r>     6.3508     0.7378   150.7436 </r>
       <r>     6.5032     0.6097   150.8463 </r>
       <r>     6.6556     0.4816   150.9294 </r>
       <r>     6.8080     0.4366   150.9970 </r>
       <r>     6.9604     0.4442   151.0641 </r>
       <r>     7.1128     0.4518   151.1323 </r>
       <r>     7.2651     0.4114   151.2412 </r>
       <r>     7.4175     0.3751   151.3399 </r>
       <r>     7.5699     0.9278   151.4952 </r>
       <r>     7.7223     2.4301   151.8656 </r>
       <r>     7.8747     0.0000   152.0000 </r>
       <r>     8.0271     0.0000   152.0000 </r>
       <r>     8.1795     0.0000   152.0000 </r>
       <r>     8.3318     0.0000   152.0000 </r>
       <r>     8.4842     0.0000   152.0000 </r>
       <r>     8.6366     0.0000   152.0000 </r>
       <r>     8.7890     0.0000   152.0000 </r>
       <r>     8.9414     0.0000   152.0000 </r>
       <r>     9.0938     0.0000   152.0000 </r>
       <r>     9.2462     0.0000   152.0000 </r>
       <r>     9.3986     0.0000   152.0000 </r>
       <r>     9.5509     0.0000   152.0000 </r>
       <r>     9.7033     0.0000   152.0000 </r>
       <r>     9.8557     0.0000   152.0000 </r>
      </set>
     </set>
    </array>
   </total>
  </dos>
 </calculation>
 <structure name="finalpos" >
  <crystal>
   <varray name="basis" >
    <v>       3.90526800       0.00000000       0.00000000 </v>
    <v>       0.00000000       3.90526800       0.00000000 </v>
    <v>       0.00000000       0.00000000      25.66843800 </v>
   </varray>
   <i name="volume">    391.47238071 </i>
   <varray name="rec_basis" >
    <v>       0.25606437       0.00000000       0.00000000 </v>
    <v>       0.00000000       0.25606437       0.00000000 </v>
    <v>       0.00000000       0.00000000       0.03895835 </v>
   </varray>
  </crystal>
  <varray name="positions" >
   <v>       0.50000000       0.50000000       0.23375010 </v>
   <v>       0.50000000       0.00000000       0.30982150 </v>
   <v>       0.00000000       0.50000000       0.30982150 </v>
   <v>       0.50000000       0.50000000       0.38589290 </v>
   <v>       0.50000000       0.00000000       0.46196430 </v>
   <v>       0.00000000       0.50000000       0.46196430 </v>
   <v>       0.50000000       0.50000000       0.53803570 </v>
   <v>       0.50000000       0.00000000       0.61410710 </v>
   <v>       0.00000000       0.50000000       0.61410710 </v>
   <v>       0.50000000       0.50000000       0.69017850 </v>
   <v>       0.50000000       0.00000000       0.76624990 </v>
   <v>       0.00000000       0.50000000       0.76624990 </v>
   <v>       0.00000000       0.00000000       0.23375010 </v>
   <v>       0.00000000       0.00000000       0.38589290 </v>
   <v>       0.00000000       0.00000000       0.53803570 </v>
   <v>       0.00000000       0.00000000       0.69017850 </v>
   <v>       0.50000000       0.50000000       0.30982150 </v>
   <v>       0.50000000       0.50000000       0.46196430 </v>
   <v>       0.50000000       0.50000000       0.61410710 </v>
   <v>       0.50000000       0.50000000       0.76624990 </v>
  </varray>
 </structure>
</modeling>
