unknown system                          
   2.50000000000000     
     1.000000    0.000000    0.000000
     0.000000    1.000000    0.000000
     0.000000    0.000000    1.000000
   Pt
     1
Direct
  0.000000  0.000000  0.000000
 
   28   28   28
  59.222      57.949      54.417      49.360      43.642      37.931      32.548      27.541      22.885      18.649    
  15.021      12.200      10.290      9.2478      8.9290      9.2478      10.290      12.200      15.021      18.649    
  22.885      27.541      32.548      37.931      43.642      49.360      54.417      57.949      57.949      56.748    
  53.411      48.615      43.154      37.641      32.374      27.410      22.754      18.508      14.877      12.068    
  10.174      9.1443      8.8284      9.1443      10.174      12.068      14.877      18.508      22.754      27.410    
  32.374      37.641      43.154      48.615      53.411      56.748      54.417      53.411      50.599      46.504    
  41.732      36.750      31.795      26.953      22.311      18.052      14.434      11.670      9.8319      8.8419    
  8.5351      8.8419      9.8319      11.670      14.434      18.052      22.311      26.953      31.795      36.750    
  41.732      46.504      50.599      53.411      49.360      48.615      46.504      43.341      39.481      35.202    
  30.669      26.012      21.429      17.211      13.669      11.015      9.2870      8.3648      8.0730      8.3648    
  9.2870      11.015      13.669      17.211      21.429      26.012      30.669      35.202      39.481      43.341    
  46.504      48.615      43.642      43.154      41.732      39.481      36.515      32.931      28.838      24.424    
  19.996      15.936      12.588      10.139      8.5806      7.7497      7.4797      7.7497      8.5806      10.139    
  12.588      15.936      19.996      24.424      28.838      32.931      36.515      39.481      41.732      43.154    
  37.931      37.641      36.750      35.202      32.931      29.912      26.232      22.134      18.002      14.263    
  11.252      9.1090      7.7703      7.0426      6.8025      7.0426      7.7703      9.1090      11.252      14.263    
  18.002      22.134      26.232      29.912      32.931      35.202      36.750      37.641      32.548      32.374    
  31.795      30.669      28.838      26.232      22.945      19.259      15.585      12.333      9.7865      8.0191    
  6.9180      6.2963      6.0920      6.2963      6.9180      8.0191      9.7865      12.333      15.585      19.259    
  22.945      26.232      28.838      30.669      31.795      32.374      27.541      27.410      26.953      26.012    
  24.424      22.134      19.259      16.091      13.011      10.364      8.3457      6.9632      6.0745      5.5617    
  5.3950      5.5617      6.0745      6.9632      8.3457      10.364      13.011      16.091      19.259      22.134    
  24.424      26.012      26.953      27.410      22.885      22.754      22.311      21.429      19.996      18.002    
  15.585      13.011      10.592      8.5732      7.0595      6.0022      5.2891      4.8812      4.7495      4.8812    
  5.2891      6.0022      7.0595      8.5732      10.592      13.011      15.585      18.002      19.996      21.429    
  22.311      22.754      18.649      18.508      18.052      17.211      15.936      14.263      12.333      10.364    
  8.5732      7.1058      5.9893      5.1634      4.6029      4.2843      4.1817      4.2843      4.6029      5.1634    
  5.9893      7.1058      8.5732      10.364      12.333      14.263      15.936      17.211      18.052      18.508    
  15.021      14.877      14.434      13.669      12.588      11.252      9.7865      8.3457      7.0595      5.9893    
  5.1273      4.4789      4.0392      3.7882      3.7071      3.7882      4.0392      4.4789      5.1273      5.9893    
  7.0595      8.3457      9.7865      11.252      12.588      13.669      14.434      14.877      12.200      12.068    
  11.670      11.015      10.139      9.1090      8.0191      6.9632      6.0022      5.1634      4.4789      3.9615    
  3.6063      3.4007      3.3336      3.4007      3.6063      3.9615      4.4789      5.1634      6.0022      6.9632    
  8.0191      9.1090      10.139      11.015      11.670      12.068      10.290      10.174      9.8319      9.2870    
  8.5806      7.7703      6.9180      6.0745      5.2891      4.6029      4.0392      3.6063      3.3029      3.1240    
  3.0649      3.1240      3.3029      3.6063      4.0392      4.6029      5.2891      6.0745      6.9180      7.7703    
  8.5806      9.2870      9.8319      10.174      9.2478      9.1443      8.8419      8.3648      7.7497      7.0426    
  6.2963      5.5617      4.8812      4.2843      3.7882      3.4007      3.1240      2.9582      2.9029      2.9582    
  3.1240      3.4007      3.7882      4.2843      4.8812      5.5617      6.2963      7.0426      7.7497      8.3648    
  8.8419      9.1443      8.9290      8.8284      8.5351      8.0730      7.4797      6.8025      6.0920      5.3950    
  4.7495      4.1817      3.7071      3.3336      3.0649      2.9029      2.8488      2.9029      3.0649      3.3336    
  3.7071      4.1817      4.7495      5.3950      6.0920      6.8025      7.4797      8.0730      8.5351      8.8284    
  9.2478      9.1443      8.8419      8.3648      7.7497      7.0426      6.2963      5.5617      4.8812      4.2843    
  3.7882      3.4007      3.1240      2.9582      2.9029      2.9582      3.1240      3.4007      3.7882      4.2843    
  4.8812      5.5617      6.2963      7.0426      7.7497      8.3648      8.8419      9.1443      10.290      10.174    
  9.8319      9.2870      8.5806      7.7703      6.9180      6.0745      5.2891      4.6029      4.0392      3.6063    
  3.3029      3.1240      3.0649      3.1240      3.3029      3.6063      4.0392      4.6029      5.2891      6.0745    
  6.9180      7.7703      8.5806      9.2870      9.8319      10.174      12.200      12.068      11.670      11.015    
  10.139      9.1090      8.0191      6.9632      6.0022      5.1634      4.4789      3.9615      3.6063      3.4007    
  3.3336      3.4007      3.6063      3.9615      4.4789      5.1634      6.0022      6.9632      8.0191      9.1090    
  10.139      11.015      11.670      12.068      15.021      14.877      14.434      13.669      12.588      11.252    
  9.7865      8.3457      7.0595      5.9893      5.1273      4.4789      4.0392      3.7882      3.7071      3.7882    
  4.0392      4.4789      5.1273      5.9893      7.0595      8.3457      9.7865      11.252      12.588      13.669    
  14.434      14.877      18.649      18.508      18.052      17.211      15.936      14.263      12.333      10.364    
  8.5732      7.1058      5.9893      5.1634      4.6029      4.2843      4.1817      4.2843      4.6029      5.1634    
  5.9893      7.1058      8.5732      10.364      12.333      14.263      15.936      17.211      18.052      18.508    
  22.885      22.754      22.311      21.429      19.996      18.002      15.585      13.011      10.592      8.5732    
  7.0595      6.0022      5.2891      4.8812      4.7495      4.8812      5.2891      6.0022      7.0595      8.5732    
  10.592      13.011      15.585      18.002      19.996      21.429      22.311      22.754      27.541      27.410    
  26.953      26.012      24.424      22.134      19.259      16.091      13.011      10.364      8.3457      6.9632    
  6.0745      5.5617      5.3950      5.5617      6.0745      6.9632      8.3457      10.364      13.011      16.091    
  19.259      22.134      24.424      26.012      26.953      27.410      32.548      32.374      31.795      30.669    
  28.838      26.232      22.945      19.259      15.585      12.333      9.7865      8.0191      6.9180      6.2963    
  6.0920      6.2963      6.9180      8.0191      9.7865      12.333      15.585      19.259      22.945      26.232    
  28.838      30.669      31.795      32.374      37.931      37.641      36.750      35.202      32.931      29.912    
  26.232      22.134      18.002      14.263      11.252      9.1090      7.7703      7.0426      6.8025      7.0426    
  7.7703      9.1090      11.252      14.263      18.002      22.134      26.232      29.912      32.931      35.202    
  36.750      37.641      43.642      43.154      41.732      39.481      36.515      32.931      28.838      24.424    
  19.996      15.936      12.588      10.139      8.5806      7.7497      7.4797      7.7497      8.5806      10.139    
  12.588      15.936      19.996      24.424      28.838      32.931      36.515      39.481      41.732      43.154    
  49.360      48.615      46.504      43.341      39.481      35.202      30.669      26.012      21.429      17.211    
  13.669      11.015      9.2870      8.3648      8.0730      8.3648      9.2870      11.015      13.669      17.211    
  21.429      26.012      30.669      35.202      39.481      43.341      46.504      48.615      54.417      53.411    
  50.599      46.504      41.732      36.750      31.795      26.953      22.311      18.052      14.434      11.670    
  9.8319      8.8419      8.5351      8.8419      9.8319      11.670      14.434      18.052      22.311      26.953    
  31.795      36.750      41.732      46.504      50.599      53.411      57.949      56.748      53.411      48.615    
  43.154      37.641      32.374      27.410      22.754      18.508      14.877      12.068      10.174      9.1443    
  8.8284      9.1443      10.174      12.068      14.877      18.508      22.754      27.410      32.374      37.641    
  43.154      48.615      53.411      56.748      57.949      56.748      53.411      48.615      43.154      37.641    
  32.374      27.410      22.754      18.508      14.877      12.068      10.174      9.1443      8.8284      9.1443    
  10.174      12.068      14.877      18.508      22.754      27.410      32.374      37.641      43.154      48.615    
  53.411      56.748      56.748      55.615      52.461      47.909      42.687      37.358      32.198      27.273    
  22.618      18.363      14.732      11.935      10.059      9.0421      8.7293      9.0421      10.059      11.935    
  14.732      18.363      22.618      27.273      32.198      37.358      42.687      47.909      52.461      55.615    
  53.411      52.461      49.799      45.901      41.322      36.484      31.611      26.798      22.156      17.896    
  14.285      11.538      9.7204      8.7437      8.4398      8.7437      9.7204      11.538      14.285      17.896    
  22.156      26.798      31.611      36.484      41.322      45.901      49.799      52.461      48.615      47.909    
  45.901      42.873      39.141      34.955      30.471      25.832      21.253      17.043      13.518      10.888    
  9.1819      8.2727      7.9838      8.2727      9.1819      10.888      13.518      17.043      21.253      25.832    
  30.471      34.955      39.141      42.873      45.901      47.909      43.154      42.687      41.322      39.141    
  36.239      32.698      28.626      24.221      19.803      15.761      12.439      10.020      8.4845      7.6655    
  7.3986      7.6655      8.4845      10.020      12.439      15.761      19.803      24.221      28.626      32.698    
  36.239      39.141      41.322      42.687      37.641      37.358      36.484      34.955      32.698      29.685    
  26.007      21.916      17.801      14.091      11.113      9.0019      7.6853      6.9676      6.7307      6.9676    
  7.6853      9.0019      11.113      14.091      17.801      21.916      26.007      29.685      32.698      34.955    
  36.484      37.358      32.374      32.198      31.611      30.471      28.626      26.007      22.717      19.042    
  15.393      12.176      9.6652      7.9274      6.8444      6.2311      6.0298      6.2311      6.8444      7.9274    
  9.6652      12.176      15.393      19.042      22.717      26.007      28.626      30.471      31.611      32.198    
  27.410      27.273      26.798      25.832      24.221      21.916      19.042      15.891      12.842      10.231    
  8.2457      6.8873      6.0116      5.5063      5.3422      5.5063      6.0116      6.8873      8.2457      10.231    
  12.842      15.891      19.042      21.916      24.221      25.832      26.798      27.273      22.754      22.618    
  22.156      21.253      19.803      17.801      15.393      12.842      10.454      8.4675      6.9804      5.9394    
  5.2364      4.8346      4.7050      4.8346      5.2364      5.9394      6.9804      8.4675      10.454      12.842    
  15.393      17.801      19.803      21.253      22.156      22.618      18.508      18.363      17.896      17.043    
  15.761      14.091      12.176      10.231      8.4675      7.0251      5.9262      5.1117      4.5592      4.2453    
  4.1442      4.2453      4.5592      5.1117      5.9262      7.0251      8.4675      10.231      12.176      14.091    
  15.761      17.043      17.896      18.363      14.877      14.732      14.285      13.518      12.439      11.113    
  9.6652      8.2457      6.9804      5.9262      5.0758      4.4364      4.0028      3.7553      3.6753      3.7553    
  4.0028      4.4364      5.0758      5.9262      6.9804      8.2457      9.6652      11.113      12.439      13.518    
  14.285      14.732      12.068      11.935      11.538      10.888      10.020      9.0019      7.9274      6.8873    
  5.9394      5.1117      4.4364      3.9259      3.5753      3.3722      3.3060      3.3722      3.5753      3.9259    
  4.4364      5.1117      5.9394      6.8873      7.9274      9.0019      10.020      10.888      11.538      11.935    
  10.174      10.059      9.7204      9.1819      8.4845      7.6853      6.8444      6.0116      5.2364      4.5592    
  4.0028      3.5753      3.2755      3.0985      3.0401      3.0985      3.2755      3.5753      4.0028      4.5592    
  5.2364      6.0116      6.8444      7.6853      8.4845      9.1819      9.7204      10.059      9.1443      9.0421    
  8.7437      8.2727      7.6655      6.9676      6.2311      5.5063      4.8346      4.2453      3.7553      3.3722    
  3.0985      2.9345      2.8798      2.9345      3.0985      3.3722      3.7553      4.2453      4.8346      5.5063    
  6.2311      6.9676      7.6655      8.2727      8.7437      9.0421      8.8284      8.7293      8.4398      7.9838    
  7.3986      6.7307      6.0298      5.3422      4.7050      4.1442      3.6753      3.3060      3.0401      2.8798    
  2.8262      2.8798      3.0401      3.3060      3.6753      4.1442      4.7050      5.3422      6.0298      6.7307    
  7.3986      7.9838      8.4398      8.7293      9.1443      9.0421      8.7437      8.2727      7.6655      6.9676    
  6.2311      5.5063      4.8346      4.2453      3.7553      3.3722      3.0985      2.9345      2.8798      2.9345    
  3.0985      3.3722      3.7553      4.2453      4.8346      5.5063      6.2311      6.9676      7.6655      8.2727    
  8.7437      9.0421      10.174      10.059      9.7204      9.1819      8.4845      7.6853      6.8444      6.0116    
  5.2364      4.5592      4.0028      3.5753      3.2755      3.0985      3.0401      3.0985      3.2755      3.5753    
  4.0028      4.5592      5.2364      6.0116      6.8444      7.6853      8.4845      9.1819      9.7204      10.059    
  12.068      11.935      11.538      10.888      10.020      9.0019      7.9274      6.8873      5.9394      5.1117    
  4.4364      3.9259      3.5753      3.3722      3.3060      3.3722      3.5753      3.9259      4.4364      5.1117    
  5.9394      6.8873      7.9274      9.0019      10.020      10.888      11.538      11.935      14.877      14.732    
  14.285      13.518      12.439      11.113      9.6652      8.2457      6.9804      5.9262      5.0758      4.4364    
  4.0028      3.7553      3.6753      3.7553      4.0028      4.4364      5.0758      5.9262      6.9804      8.2457    
  9.6652      11.113      12.439      13.518      14.285      14.732      18.508      18.363      17.896      17.043    
  15.761      14.091      12.176      10.231      8.4675      7.0251      5.9262      5.1117      4.5592      4.2453    
  4.1442      4.2453      4.5592      5.1117      5.9262      7.0251      8.4675      10.231      12.176      14.091    
  15.761      17.043      17.896      18.363      22.754      22.618      22.156      21.253      19.803      17.801    
  15.393      12.842      10.454      8.4675      6.9804      5.9394      5.2364      4.8346      4.7050      4.8346    
  5.2364      5.9394      6.9804      8.4675      10.454      12.842      15.393      17.801      19.803      21.253    
  22.156      22.618      27.410      27.273      26.798      25.832      24.221      21.916      19.042      15.891    
  12.842      10.231      8.2457      6.8873      6.0116      5.5063      5.3422      5.5063      6.0116      6.8873    
  8.2457      10.231      12.842      15.891      19.042      21.916      24.221      25.832      26.798      27.273    
  32.374      32.198      31.611      30.471      28.626      26.007      22.717      19.042      15.393      12.176    
  9.6652      7.9274      6.8444      6.2311      6.0298      6.2311      6.8444      7.9274      9.6652      12.176    
  15.393      19.042      22.717      26.007      28.626      30.471      31.611      32.198      37.641      37.358    
  36.484      34.955      32.698      29.685      26.007      21.916      17.801      14.091      11.113      9.0019    
  7.6853      6.9676      6.7307      6.9676      7.6853      9.0019      11.113      14.091      17.801      21.916    
  26.007      29.685      32.698      34.955      36.484      37.358      43.154      42.687      41.322      39.141    
  36.239      32.698      28.626      24.221      19.803      15.761      12.439      10.020      8.4845      7.6655    
  7.3986      7.6655      8.4845      10.020      12.439      15.761      19.803      24.221      28.626      32.698    
  36.239      39.141      41.322      42.687      48.615      47.909      45.901      42.873      39.141      34.955    
  30.471      25.832      21.253      17.043      13.518      10.888      9.1819      8.2727      7.9838      8.2727    
  9.1819      10.888      13.518      17.043      21.253      25.832      30.471      34.955      39.141      42.873    
  45.901      47.909      53.411      52.461      49.799      45.901      41.322      36.484      31.611      26.798    
  22.156      17.896      14.285      11.538      9.7204      8.7437      8.4398      8.7437      9.7204      11.538    
  14.285      17.896      22.156      26.798      31.611      36.484      41.322      45.901      49.799      52.461    
  56.748      55.615      52.461      47.909      42.687      37.358      32.198      27.273      22.618      18.363    
  14.732      11.935      10.059      9.0421      8.7293      9.0421      10.059      11.935      14.732      18.363    
  22.618      27.273      32.198      37.358      42.687      47.909      52.461      55.615      54.417      53.411    
  50.599      46.504      41.732      36.750      31.795      26.953      22.311      18.052      14.434      11.670    
  9.8319      8.8419      8.5351      8.8419      9.8319      11.670      14.434      18.052      22.311      26.953    
  31.795      36.750      41.732      46.504      50.599      53.411      53.411      52.461      49.799      45.901    
  41.322      36.484      31.611      26.798      22.156      17.896      14.285      11.538      9.7204      8.7437    
  8.4398      8.7437      9.7204      11.538      14.285      17.896      22.156      26.798      31.611      36.484    
  41.322      45.901      49.799      52.461      50.599      49.799      47.537      44.170      40.103      35.653    
  31.001      26.274      21.650      17.402      13.831      11.147      9.3933      8.4568      8.1618      8.4568    
  9.3933      11.147      13.831      17.402      21.650      26.274      31.001      35.653      40.103      44.170    
  47.537      49.799      46.504      45.901      44.170      41.500      38.109      34.172      29.826      25.244    
  20.692      16.521      13.062      10.511      8.8743      8.0039      7.7240      8.0039      8.8743      10.511    
  13.062      16.521      20.692      25.244      29.826      34.172      38.109      41.500      44.170      45.901    
  41.732      41.322      40.103      38.109      35.376      31.950      27.942      23.574      19.200      15.227    
  11.996      9.6684      8.2041      7.4195      7.1622      7.4195      8.2041      9.6684      11.996      15.227    
  19.200      23.574      27.942      31.950      35.376      38.109      40.103      41.322      36.750      36.484    
  35.653      34.172      31.950      28.957      25.297      21.240      17.190      13.574      10.704      8.6886    
  7.4371      6.7485      6.5212      6.7485      7.4371      8.6886      10.704      13.574      17.190      21.240    
  25.297      28.957      31.950      34.172      35.653      36.484      31.795      31.611      31.001      29.826    
  27.942      25.297      22.010      18.380      14.816      11.710      9.3098      7.6601      6.6289      6.0409    
  5.8484      6.0409      6.6289      7.6601      9.3098      11.710      14.816      18.380      22.010      25.297    
  27.942      29.826      31.001      31.611      26.953      26.798      26.274      25.244      23.574      21.240    
  18.380      15.291      12.340      9.8393      7.9542      6.6659      5.8275      5.3444      5.1878      5.3444    
  5.8275      6.6659      7.9542      9.8393      12.340      15.291      18.380      21.240      23.574      25.244    
  26.274      26.798      22.311      22.156      21.650      20.692      19.200      17.190      14.816      12.340    
  10.049      8.1595      6.7498      5.7557      5.0825      4.6987      4.5750      4.6987      5.0825      5.7557    
  6.7498      8.1595      10.049      12.340      14.816      17.190      19.200      20.692      21.650      22.156    
  18.052      17.896      17.402      16.521      15.227      13.574      11.710      9.8393      8.1595      6.7904    
  5.7418      4.9605      4.4317      4.1314      4.0347      4.1314      4.4317      4.9605      5.7418      6.7904    
  8.1595      9.8393      11.710      13.574      15.227      16.521      17.402      17.896      14.434      14.285    
  13.831      13.062      11.996      10.704      9.3098      7.9542      6.7498      5.7418      4.9254      4.3123    
  3.8965      3.6589      3.5821      3.6589      3.8965      4.3123      4.9254      5.7418      6.7498      7.9542    
  9.3098      10.704      11.996      13.062      13.831      14.285      11.670      11.538      11.147      10.511    
  9.6684      8.6886      7.6601      6.6659      5.7557      4.9605      4.3123      3.8219      3.4845      3.2889    
  3.2250      3.2889      3.4845      3.8219      4.3123      4.9605      5.7557      6.6659      7.6601      8.6886    
  9.6684      10.511      11.147      11.538      9.8319      9.7204      9.3933      8.8743      8.2041      7.4371    
  6.6289      5.8275      5.0825      4.4317      3.8965      3.4845      3.1951      3.0241      2.9675      3.0241    
  3.1951      3.4845      3.8965      4.4317      5.0825      5.8275      6.6289      7.4371      8.2041      8.8743    
  9.3933      9.7204      8.8419      8.7437      8.4568      8.0039      7.4195      6.7485      6.0409      5.3444    
  4.6987      4.1314      3.6589      3.2889      3.0241      2.8651      2.8121      2.8651      3.0241      3.2889    
  3.6589      4.1314      4.6987      5.3444      6.0409      6.7485      7.4195      8.0039      8.4568      8.7437    
  8.5351      8.4398      8.1618      7.7240      7.1622      6.5212      5.8484      5.1878      4.5750      4.0347    
  3.5821      3.2250      2.9675      2.8121      2.7601      2.8121      2.9675      3.2250      3.5821      4.0347    
  4.5750      5.1878      5.8484      6.5212      7.1622      7.7240      8.1618      8.4398      8.8419      8.7437    
  8.4568      8.0039      7.4195      6.7485      6.0409      5.3444      4.6987      4.1314      3.6589      3.2889    
  3.0241      2.8651      2.8121      2.8651      3.0241      3.2889      3.6589      4.1314      4.6987      5.3444    
  6.0409      6.7485      7.4195      8.0039      8.4568      8.7437      9.8319      9.7204      9.3933      8.8743    
  8.2041      7.4371      6.6289      5.8275      5.0825      4.4317      3.8965      3.4845      3.1951      3.0241    
  2.9675      3.0241      3.1951      3.4845      3.8965      4.4317      5.0825      5.8275      6.6289      7.4371    
  8.2041      8.8743      9.3933      9.7204      11.670      11.538      11.147      10.511      9.6684      8.6886    
  7.6601      6.6659      5.7557      4.9605      4.3123      3.8219      3.4845      3.2889      3.2250      3.2889    
  3.4845      3.8219      4.3123      4.9605      5.7557      6.6659      7.6601      8.6886      9.6684      10.511    
  11.147      11.538      14.434      14.285      13.831      13.062      11.996      10.704      9.3098      7.9542    
  6.7498      5.7418      4.9254      4.3123      3.8965      3.6589      3.5821      3.6589      3.8965      4.3123    
  4.9254      5.7418      6.7498      7.9542      9.3098      10.704      11.996      13.062      13.831      14.285    
  18.052      17.896      17.402      16.521      15.227      13.574      11.710      9.8393      8.1595      6.7904    
  5.7418      4.9605      4.4317      4.1314      4.0347      4.1314      4.4317      4.9605      5.7418      6.7904    
  8.1595      9.8393      11.710      13.574      15.227      16.521      17.402      17.896      22.311      22.156    
  21.650      20.692      19.200      17.190      14.816      12.340      10.049      8.1595      6.7498      5.7557    
  5.0825      4.6987      4.5750      4.6987      5.0825      5.7557      6.7498      8.1595      10.049      12.340    
  14.816      17.190      19.200      20.692      21.650      22.156      26.953      26.798      26.274      25.244    
  23.574      21.240      18.380      15.291      12.340      9.8393      7.9542      6.6659      5.8275      5.3444    
  5.1878      5.3444      5.8275      6.6659      7.9542      9.8393      12.340      15.291      18.380      21.240    
  23.574      25.244      26.274      26.798      31.795      31.611      31.001      29.826      27.942      25.297    
  22.010      18.380      14.816      11.710      9.3098      7.6601      6.6289      6.0409      5.8484      6.0409    
  6.6289      7.6601      9.3098      11.710      14.816      18.380      22.010      25.297      27.942      29.826    
  31.001      31.611      36.750      36.484      35.653      34.172      31.950      28.957      25.297      21.240    
  17.190      13.574      10.704      8.6886      7.4371      6.7485      6.5212      6.7485      7.4371      8.6886    
  10.704      13.574      17.190      21.240      25.297      28.957      31.950      34.172      35.653      36.484    
  41.732      41.322      40.103      38.109      35.376      31.950      27.942      23.574      19.200      15.227    
  11.996      9.6684      8.2041      7.4195      7.1622      7.4195      8.2041      9.6684      11.996      15.227    
  19.200      23.574      27.942      31.950      35.376      38.109      40.103      41.322      46.504      45.901    
  44.170      41.500      38.109      34.172      29.826      25.244      20.692      16.521      13.062      10.511    
  8.8743      8.0039      7.7240      8.0039      8.8743      10.511      13.062      16.521      20.692      25.244    
  29.826      34.172      38.109      41.500      44.170      45.901      50.599      49.799      47.537      44.170    
  40.103      35.653      31.001      26.274      21.650      17.402      13.831      11.147      9.3933      8.4568    
  8.1618      8.4568      9.3933      11.147      13.831      17.402      21.650      26.274      31.001      35.653    
  40.103      44.170      47.537      49.799      53.411      52.461      49.799      45.901      41.322      36.484    
  31.611      26.798      22.156      17.896      14.285      11.538      9.7204      8.7437      8.4398      8.7437    
  9.7204      11.538      14.285      17.896      22.156      26.798      31.611      36.484      41.322      45.901    
  49.799      52.461      49.360      48.615      46.504      43.341      39.481      35.202      30.669      26.012    
  21.429      17.211      13.669      11.015      9.2870      8.3648      8.0730      8.3648      9.2870      11.015    
  13.669      17.211      21.429      26.012      30.669      35.202      39.481      43.341      46.504      48.615    
  48.615      47.909      45.901      42.873      39.141      34.955      30.471      25.832      21.253      17.043    
  13.518      10.888      9.1819      8.2727      7.9838      8.2727      9.1819      10.888      13.518      17.043    
  21.253      25.832      30.471      34.955      39.141      42.873      45.901      47.909      46.504      45.901    
  44.170      41.500      38.109      34.172      29.826      25.244      20.692      16.521      13.062      10.511    
  8.8743      8.0039      7.7240      8.0039      8.8743      10.511      13.062      16.521      20.692      25.244    
  29.826      34.172      38.109      41.500      44.170      45.901      43.341      42.873      41.500      39.298    
  36.352      32.747      28.603      24.133      19.672      15.616      12.302      9.9035      8.3878      7.5790    