unknown system                          
   2.50000000000000     
     1.000000    0.000000    0.000000
     0.000000    1.000000    0.000000
     0.000000    0.000000    1.000000
   Pt
     1
Direct
  0.000000  0.000000  0.000000
 
   28   28   28
 0.59222406055E+02 0.57948856484E+02 0.54416667453E+02 0.49360196615E+02 0.43642172176E+02
 0.37931069972E+02 0.32548332892E+02 0.27541093610E+02 0.22884823982E+02 0.18649323619E+02
 0.15020609690E+02 0.12200381353E+02 0.10290049514E+02 0.92478114833E+01 0.89289594914E+01
 0.92478114833E+01 0.10290049514E+02 0.12200381353E+02 0.15020609690E+02 0.18649323619E+02
 0.22884823982E+02 0.27541093610E+02 0.32548332892E+02 0.37931069972E+02 0.43642172176E+02
 0.49360196615E+02 0.54416667453E+02 0.57948856484E+02 0.57948856484E+02 0.56747748734E+02
 0.53410765789E+02 0.48615032498E+02 0.43154016087E+02 0.37641133695E+02 0.32374340416E+02
 0.27410339048E+02 0.22754422861E+02 0.18508096532E+02 0.14877184832E+02 0.12067531609E+02
 0.10173793305E+02 0.91442732186E+01 0.88284492662E+01 0.91442732186E+01 0.10173793305E+02
 0.12067531609E+02 0.14877184832E+02 0.18508096532E+02 0.22754422861E+02 0.27410339048E+02
 0.32374340416E+02 0.37641133695E+02 0.43154016087E+02 0.48615032498E+02 0.53410765789E+02
 0.56747748734E+02 0.54416667453E+02 0.53410765789E+02 0.50599308811E+02 0.46504282600E+02
 0.41732398443E+02 0.36750269250E+02 0.31795493668E+02 0.26953382236E+02 0.22310550328E+02
 0.18052285125E+02 0.14434227299E+02 0.11669523805E+02 0.98318956016E+01 0.88419076256E+01
 0.85351125672E+01 0.88419076256E+01 0.98318956016E+01 0.11669523805E+02 0.14434227299E+02
 0.18052285125E+02 0.22310550328E+02 0.26953382236E+02 0.31795493668E+02 0.36750269250E+02
 0.41732398443E+02 0.46504282600E+02 0.50599308811E+02 0.53410765789E+02 0.49360196615E+02
 0.48615032498E+02 0.46504282600E+02 0.43340535749E+02 0.39481307263E+02 0.35202114782E+02
 0.30668510295E+02 0.26011689727E+02 0.21428742705E+02 0.17210997866E+02 0.13669469947E+02
 0.11015496272E+02 0.92870038635E+01 0.83647713387E+01 0.80729511776E+01 0.83647713387E+01
 0.92870038635E+01 0.11015496272E+02 0.13669469947E+02 0.17210997866E+02 0.21428742705E+02
 0.26011689727E+02 0.30668510295E+02 0.35202114782E+02 0.39481307263E+02 0.43340535749E+02
 0.46504282600E+02 0.48615032498E+02 0.43642172176E+02 0.43154016087E+02 0.41732398443E+02
 0.39481307263E+02 0.36515000977E+02 0.32930681249E+02 0.28837753086E+02 0.24424214902E+02
 0.19996202828E+02 0.15936062276E+02 0.12587560089E+02 0.10139224574E+02 0.85805576913E+01
 0.77496964232E+01 0.74796792381E+01 0.77496964232E+01 0.85805576913E+01 0.10139224574E+02
 0.12587560089E+02 0.15936062276E+02 0.19996202828E+02 0.24424214902E+02 0.28837753086E+02
 0.32930681249E+02 0.36515000977E+02 0.39481307263E+02 0.41732398443E+02 0.43154016087E+02
 0.37931069972E+02 0.37641133695E+02 0.36750269250E+02 0.35202114782E+02 0.32930681249E+02
 0.29912005462E+02 0.26231952841E+02 0.22133958301E+02 0.18001833798E+02 0.14262896678E+02
 0.11251690906E+02 0.91089626900E+01 0.77702546913E+01 0.70426353507E+01 0.68025167236E+01
 0.70426353507E+01 0.77702546913E+01 0.91089626900E+01 0.11251690906E+02 0.14262896678E+02
 0.18001833798E+02 0.22133958301E+02 0.26231952841E+02 0.29912005462E+02 0.32930681249E+02
 0.35202114782E+02 0.36750269250E+02 0.37641133695E+02 0.32548332892E+02 0.32374340416E+02
 0.31795493668E+02 0.30668510295E+02 0.28837753086E+02 0.26231952841E+02 0.22945126489E+02
 0.19259273346E+02 0.15584544246E+02 0.12333353035E+02 0.97865148094E+01 0.80190557533E+01
 0.69180042556E+01 0.62963099785E+01 0.60919850708E+01 0.62963099785E+01 0.69180042556E+01
 0.80190557533E+01 0.97865148094E+01 0.12333353035E+02 0.15584544246E+02 0.19259273346E+02
 0.22945126489E+02 0.26231952841E+02 0.28837753086E+02 0.30668510295E+02 0.31795493668E+02
 0.32374340416E+02 0.27541093610E+02 0.27410339048E+02 0.26953382236E+02 0.26011689727E+02
 0.24424214902E+02 0.22133958301E+02 0.19259273346E+02 0.16091248619E+02 0.13011285128E+02
 0.10363903507E+02 0.83457390138E+01 0.69632145633E+01 0.60745319011E+01 0.55617404384E+01
 0.53950263637E+01 0.55617404384E+01 0.60745319011E+01 0.69632145633E+01 0.83457390138E+01
 0.10363903507E+02 0.13011285128E+02 0.16091248619E+02 0.19259273346E+02 0.22133958301E+02
 0.24424214902E+02 0.26011689727E+02 0.26953382236E+02 0.27410339048E+02 0.22884823982E+02
 0.22754422861E+02 0.22310550328E+02 0.21428742705E+02 0.19996202828E+02 0.18001833798E+02
 0.15584544246E+02 0.13011285128E+02 0.10592143640E+02 0.85732198890E+01 0.70595407691E+01
 0.60022182016E+01 0.52891176057E+01 0.48811782511E+01 0.47494952048E+01 0.48811782511E+01
 0.52891176057E+01 0.60022182016E+01 0.70595407691E+01 0.85732198890E+01 0.10592143640E+02
 0.13011285128E+02 0.15584544246E+02 0.18001833798E+02 0.19996202828E+02 0.21428742705E+02
 0.22310550328E+02 0.22754422861E+02 0.18649323619E+02 0.18508096532E+02 0.18052285125E+02
 0.17210997866E+02 0.15936062276E+02 0.14262896678E+02 0.12333353035E+02 0.10363903507E+02
 0.85732198890E+01 0.71057829932E+01 0.59892620797E+01 0.51634021715E+01 0.46028619911E+01
 0.42842847890E+01 0.41816695291E+01 0.42842847890E+01 0.46028619911E+01 0.51634021715E+01
 0.59892620797E+01 0.71057829932E+01 0.85732198890E+01 0.10363903507E+02 0.12333353035E+02
 0.14262896678E+02 0.15936062276E+02 0.17210997866E+02 0.18052285125E+02 0.18508096532E+02
 0.15020609690E+02 0.14877184832E+02 0.14434227299E+02 0.13669469947E+02 0.12587560089E+02
 0.11251690906E+02 0.97865148094E+01 0.83457390138E+01 0.70595407691E+01 0.59892620797E+01
 0.51273351039E+01 0.44788992663E+01 0.40391545211E+01 0.37882221752E+01 0.37070914065E+01
 0.37882221752E+01 0.40391545211E+01 0.44788992663E+01 0.51273351039E+01 0.59892620797E+01
 0.70595407691E+01 0.83457390138E+01 0.97865148094E+01 0.11251690906E+02 0.12587560089E+02
 0.13669469947E+02 0.14434227299E+02 0.14877184832E+02 0.12200381353E+02 0.12067531609E+02
 0.11669523805E+02 0.11015496272E+02 0.10139224574E+02 0.91089626900E+01 0.80190557533E+01
 0.69632145633E+01 0.60022182016E+01 0.51634021715E+01 0.44788992663E+01 0.39614998664E+01
 0.36062582150E+01 0.34006962826E+01 0.33336244764E+01 0.34006962826E+01 0.36062582150E+01
 0.39614998664E+01 0.44788992663E+01 0.51634021715E+01 0.60022182016E+01 0.69632145633E+01
 0.80190557533E+01 0.91089626900E+01 0.10139224574E+02 0.11015496272E+02 0.11669523805E+02
 0.12067531609E+02 0.10290049514E+02 0.10173793305E+02 0.98318956016E+01 0.92870038635E+01
 0.85805576913E+01 0.77702546913E+01 0.69180042556E+01 0.60745319011E+01 0.52891176057E+01
 0.46028619911E+01 0.40391545211E+01 0.36062582150E+01 0.33028890062E+01 0.31239793558E+01
 0.30649334485E+01 0.31239793558E+01 0.33028890062E+01 0.36062582150E+01 0.40391545211E+01
 0.46028619911E+01 0.52891176057E+01 0.60745319011E+01 0.69180042556E+01 0.77702546913E+01
 0.85805576913E+01 0.92870038635E+01 0.98318956016E+01 0.10173793305E+02 0.92478114833E+01
 0.91442732186E+01 0.88419076256E+01 0.83647713387E+01 0.77496964232E+01 0.70426353507E+01
 0.62963099785E+01 0.55617404384E+01 0.48811782511E+01 0.42842847890E+01 0.37882221752E+01
 0.34006962826E+01 0.31239793558E+01 0.29581647249E+01 0.29029377403E+01 0.29581647249E+01
 0.31239793558E+01 0.34006962826E+01 0.37882221752E+01 0.42842847890E+01 0.48811782511E+01
 0.55617404384E+01 0.62963099785E+01 0.70426353507E+01 0.77496964232E+01 0.83647713387E+01
 0.88419076256E+01 0.91442732186E+01 0.89289594914E+01 0.88284492662E+01 0.85351125672E+01
 0.80729511776E+01 0.74796792381E+01 0.68025167236E+01 0.60919850708E+01 0.53950263637E+01
 0.47494952048E+01 0.41816695291E+01 0.37070914065E+01 0.33336244764E+01 0.30649334485E+01
 0.29029377403E+01 0.28487971904E+01 0.29029377403E+01 0.30649334485E+01 0.33336244764E+01
 0.37070914065E+01 0.41816695291E+01 0.47494952048E+01 0.53950263637E+01 0.60919850708E+01
 0.68025167236E+01 0.74796792381E+01 0.80729511776E+01 0.85351125672E+01 0.88284492662E+01
 0.92478114833E+01 0.91442732186E+01 0.88419076256E+01 0.83647713387E+01 0.77496964232E+01
 0.70426353507E+01 0.62963099785E+01 0.55617404384E+01 0.48811782511E+01 0.42842847890E+01
 0.37882221752E+01 0.34006962826E+01 0.31239793558E+01 0.29581647249E+01 0.29029377403E+01
 0.29581647249E+01 0.31239793558E+01 0.34006962826E+01 0.37882221752E+01 0.42842847890E+01
 0.48811782511E+01 0.55617404384E+01 0.62963099785E+01 0.70426353507E+01 0.77496964232E+01
 0.83647713387E+01 0.88419076256E+01 0.91442732186E+01 0.10290049514E+02 0.10173793305E+02
 0.98318956016E+01 0.92870038635E+01 0.85805576913E+01 0.77702546913E+01 0.69180042556E+01
 0.60745319011E+01 0.52891176057E+01 0.46028619911E+01 0.40391545211E+01 0.36062582150E+01
 0.33028890062E+01 0.31239793558E+01 0.30649334485E+01 0.31239793558E+01 0.33028890062E+01
 0.36062582150E+01 0.40391545211E+01 0.46028619911E+01 0.52891176057E+01 0.60745319011E+01
 0.69180042556E+01 0.77702546913E+01 0.85805576913E+01 0.92870038635E+01 0.98318956016E+01
 0.10173793305E+02 0.12200381353E+02 0.12067531609E+02 0.11669523805E+02 0.11015496272E+02
 0.10139224574E+02 0.91089626900E+01 0.80190557533E+01 0.69632145633E+01 0.60022182016E+01
 0.51634021715E+01 0.44788992663E+01 0.39614998664E+01 0.36062582150E+01 0.34006962826E+01
 0.33336244764E+01 0.34006962826E+01 0.36062582150E+01 0.39614998664E+01 0.44788992663E+01
 0.51634021715E+01 0.60022182016E+01 0.69632145633E+01 0.80190557533E+01 0.91089626900E+01
 0.10139224574E+02 0.11015496272E+02 0.11669523805E+02 0.12067531609E+02 0.15020609690E+02
 0.14877184832E+02 0.14434227299E+02 0.13669469947E+02 0.12587560089E+02 0.11251690906E+02
 0.97865148094E+01 0.83457390138E+01 0.70595407691E+01 0.59892620797E+01 0.51273351039E+01
 0.44788992663E+01 0.40391545211E+01 0.37882221752E+01 0.37070914065E+01 0.37882221752E+01
 0.40391545211E+01 0.44788992663E+01 0.51273351039E+01 0.59892620797E+01 0.70595407691E+01
 0.83457390138E+01 0.97865148094E+01 0.11251690906E+02 0.12587560089E+02 0.13669469947E+02
 0.14434227299E+02 0.14877184832E+02 0.18649323619E+02 0.18508096532E+02 0.18052285125E+02
 0.17210997866E+02 0.15936062276E+02 0.14262896678E+02 0.12333353035E+02 0.10363903507E+02
 0.85732198890E+01 0.71057829932E+01 0.59892620797E+01 0.51634021715E+01 0.46028619911E+01
 0.42842847890E+01 0.41816695291E+01 0.42842847890E+01 0.46028619911E+01 0.51634021715E+01
 0.59892620797E+01 0.71057829932E+01 0.85732198890E+01 0.10363903507E+02 0.12333353035E+02
 0.14262896678E+02 0.15936062276E+02 0.17210997866E+02 0.18052285125E+02 0.18508096532E+02
 0.22884823982E+02 0.22754422861E+02 0.22310550328E+02 0.21428742705E+02 0.19996202828E+02
 0.18001833798E+02 0.15584544246E+02 0.13011285128E+02 0.10592143640E+02 0.85732198890E+01
 0.70595407691E+01 0.60022182016E+01 0.52891176057E+01 0.48811782511E+01 0.47494952048E+01
 0.48811782511E+01 0.52891176057E+01 0.60022182016E+01 0.70595407691E+01 0.85732198890E+01
 0.10592143640E+02 0.13011285128E+02 0.15584544246E+02 0.18001833798E+02 0.19996202828E+02
 0.21428742705E+02 0.22310550328E+02 0.22754422861E+02 0.27541093610E+02 0.27410339048E+02
 0.26953382236E+02 0.26011689727E+02 0.24424214902E+02 0.22133958301E+02 0.19259273346E+02
 0.16091248619E+02 0.13011285128E+02 0.10363903507E+02 0.83457390138E+01 0.69632145633E+01
 0.60745319011E+01 0.55617404384E+01 0.53950263637E+01 0.55617404384E+01 0.60745319011E+01
 0.69632145633E+01 0.83457390138E+01 0.10363903507E+02 0.13011285128E+02 0.16091248619E+02
 0.19259273346E+02 0.22133958301E+02 0.24424214902E+02 0.26011689727E+02 0.26953382236E+02
 0.27410339048E+02 0.32548332892E+02 0.32374340416E+02 0.31795493668E+02 0.30668510295E+02
 0.28837753086E+02 0.26231952841E+02 0.22945126489E+02 0.19259273346E+02 0.15584544246E+02
 0.12333353035E+02 0.97865148094E+01 0.80190557533E+01 0.69180042556E+01 0.62963099785E+01
 0.60919850708E+01 0.62963099785E+01 0.69180042556E+01 0.80190557533E+01 0.97865148094E+01
 0.12333353035E+02 0.15584544246E+02 0.19259273346E+02 0.22945126489E+02 0.26231952841E+02
 0.28837753086E+02 0.30668510295E+02 0.31795493668E+02 0.32374340416E+02 0.37931069972E+02
 0.37641133695E+02 0.36750269250E+02 0.35202114782E+02 0.32930681249E+02 0.29912005462E+02
 0.26231952841E+02 0.22133958301E+02 0.18001833798E+02 0.14262896678E+02 0.11251690906E+02
 0.91089626900E+01 0.77702546913E+01 0.70426353507E+01 0.68025167236E+01 0.70426353507E+01
 0.77702546913E+01 0.91089626900E+01 0.11251690906E+02 0.14262896678E+02 0.18001833798E+02
 0.22133958301E+02 0.26231952841E+02 0.29912005462E+02 0.32930681249E+02 0.35202114782E+02
 0.36750269250E+02 0.37641133695E+02 0.43642172176E+02 0.43154016087E+02 0.41732398443E+02
 0.39481307263E+02 0.36515000977E+02 0.32930681249E+02 0.28837753086E+02 0.24424214902E+02
 0.19996202828E+02 0.15936062276E+02 0.12587560089E+02 0.10139224574E+02 0.85805576913E+01
 0.77496964232E+01 0.74796792381E+01 0.77496964232E+01 0.85805576913E+01 0.10139224574E+02
 0.12587560089E+02 0.15936062276E+02 0.19996202828E+02 0.24424214902E+02 0.28837753086E+02
 0.32930681249E+02 0.36515000977E+02 0.39481307263E+02 0.41732398443E+02 0.43154016087E+02
 0.49360196615E+02 0.48615032498E+02 0.46504282600E+02 0.43340535749E+02 0.39481307263E+02
 0.35202114782E+02 0.30668510295E+02 0.26011689727E+02 0.21428742705E+02 0.17210997866E+02
 0.13669469947E+02 0.11015496272E+02 0.92870038635E+01 0.83647713387E+01 0.80729511776E+01
 0.83647713387E+01 0.92870038635E+01 0.11015496272E+02 0.13669469947E+02 0.17210997866E+02
 0.21428742705E+02 0.26011689727E+02 0.30668510295E+02 0.35202114782E+02 0.39481307263E+02
 0.43340535749E+02 0.46504282600E+02 0.48615032498E+02 0.54416667453E+02 0.53410765789E+02
 0.50599308811E+02 0.46504282600E+02 0.41732398443E+02 0.36750269250E+02 0.31795493668E+02
 0.26953382236E+02 0.22310550328E+02 0.18052285125E+02 0.14434227299E+02 0.11669523805E+02
 0.98318956016E+01 0.88419076256E+01 0.85351125672E+01 0.88419076256E+01 0.98318956016E+01
 0.11669523805E+02 0.14434227299E+02 0.18052285125E+02 0.22310550328E+02 0.26953382236E+02
 0.31795493668E+02 0.36750269250E+02 0.41732398443E+02 0.46504282600E+02 0.50599308811E+02
 0.53410765789E+02 0.57948856484E+02 0.56747748734E+02 0.53410765789E+02 0.48615032498E+02
 0.43154016087E+02 0.37641133695E+02 0.32374340416E+02 0.27410339048E+02 0.22754422861E+02
 0.18508096532E+02 0.14877184832E+02 0.12067531609E+02 0.10173793305E+02 0.91442732186E+01
 0.88284492662E+01 0.91442732186E+01 0.10173793305E+02 0.12067531609E+02 0.14877184832E+02
 0.18508096532E+02 0.22754422861E+02 0.27410339048E+02 0.32374340416E+02 0.37641133695E+02
 0.43154016087E+02 0.48615032498E+02 0.53410765789E+02 0.56747748734E+02 0.57948856484E+02
 0.56747748734E+02 0.53410765789E+02 0.48615032498E+02 0.43154016087E+02 0.37641133695E+02
 0.32374340416E+02 0.27410339048E+02 0.22754422861E+02 0.18508096532E+02 0.14877184832E+02
 0.12067531609E+02 0.10173793305E+02 0.91442732186E+01 0.88284492662E+01 0.91442732186E+01
 0.10173793305E+02 0.12067531609E+02 0.14877184832E+02 0.18508096532E+02 0.22754422861E+02
 0.27410339048E+02 0.32374340416E+02 0.37641133695E+02 0.43154016087E+02 0.48615032498E+02
 0.53410765789E+02 0.56747748734E+02 0.56747748734E+02 0.55614605713E+02 0.52460579163E+02
 0.47908696683E+02 0.42687188999E+02 0.37358016156E+02 0.32197774931E+02 0.27272995900E+02
 0.22617518711E+02 0.18362587336E+02 0.14732063739E+02 0.11934887523E+02 0.10058685290E+02
 0.90420807962E+01 0.87292597219E+01 0.90420807962E+01 0.10058685290E+02 0.11934887523E+02
 0.14732063739E+02 0.18362587336E+02 0.22617518711E+02 0.27272995900E+02 0.32197774931E+02
 0.37358016156E+02 0.42687188999E+02 0.47908696683E+02 0.52460579163E+02 0.55614605713E+02
 0.53410765789E+02 0.52460579163E+02 0.49798607058E+02 0.45901425590E+02 0.41321613150E+02
 0.36484186863E+02 0.31611106124E+02 0.26798028771E+02 0.22156457010E+02 0.17895950636E+02
 0.14285358165E+02 0.11538154800E+02 0.97203998096E+01 0.87436625778E+01 0.84398070252E+01
 0.87436625778E+01 0.97203998096E+01 0.11538154800E+02 0.14285358165E+02 0.17895950636E+02
 0.22156457010E+02 0.26798028771E+02 0.31611106124E+02 0.36484186863E+02 0.41321613150E+02
 0.45901425590E+02 0.49798607058E+02 0.52460579163E+02 0.48615032498E+02 0.47908696683E+02
 0.45901425590E+02 0.42872685852E+02 0.39141437970E+02 0.34955207841E+02 0.30471465457E+02
 0.25831929111E+02 0.21253022188E+02 0.17042558354E+02 0.13518177638E+02 0.10888034131E+02
 0.91818837328E+01 0.82727384784E+01 0.79838396564E+01 0.82727384784E+01 0.91818837328E+01
 0.10888034131E+02 0.13518177638E+02 0.17042558354E+02 0.21253022188E+02 0.25831929111E+02
 0.30471465457E+02 0.34955207841E+02 0.39141437970E+02 0.42872685852E+02 0.45901425590E+02
 0.47908696683E+02 0.43154016087E+02 0.42687188999E+02 0.41321613150E+02 0.39141437970E+02
 0.36238973362E+02 0.32697519567E+02 0.28625629359E+02 0.24221042759E+02 0.19802598905E+02
 0.15760653588E+02 0.12438949916E+02 0.10019758984E+02 0.84845346804E+01 0.76654960671E+01
 0.73986113333E+01 0.76654960671E+01 0.84845346804E+01 0.10019758984E+02 0.12438949916E+02
 0.15760653588E+02 0.19802598905E+02 0.24221042759E+02 0.28625629359E+02 0.32697519567E+02
 0.36238973362E+02 0.39141437970E+02 0.41321613150E+02 0.42687188999E+02 0.37641133695E+02
 0.37358016156E+02 0.36484186863E+02 0.34955207841E+02 0.32697519567E+02 0.29684879358E+02
 0.26007421266E+02 0.21916335511E+02 0.17801470850E+02 0.14090646633E+02 0.11113192987E+02
 0.90018877349E+01 0.76852543801E+01 0.69675930976E+01 0.67306833670E+01 0.69675930976E+01
 0.76852543801E+01 0.90018877349E+01 0.11113192987E+02 0.14090646633E+02 0.17801470850E+02
 0.21916335511E+02 0.26007421266E+02 0.29684879358E+02 0.32697519567E+02 0.34955207841E+02
 0.36484186863E+02 0.37358016156E+02 0.32374340416E+02 0.32197774931E+02 0.31611106124E+02
 0.30471465457E+02 0.28625629359E+02 0.26007421266E+02 0.22717320497E+02 0.19042173011E+02
 0.15392512631E+02 0.12175940661E+02 0.96652176703E+01 0.79274068478E+01 0.68443555071E+01
 0.62311235191E+01 0.60298022387E+01 0.62311235191E+01 0.68443555071E+01 0.79274068478E+01
 0.96652176703E+01 0.12175940661E+02 0.15392512631E+02 0.19042173011E+02 0.22717320497E+02
 0.26007421266E+02 0.28625629359E+02 0.30471465457E+02 0.31611106124E+02 0.32197774931E+02
 0.27410339048E+02 0.27272995900E+02 0.26798028771E+02 0.25831929111E+02 0.24221042759E+02
 0.21916335511E+02 0.19042173011E+02 0.15891352120E+02 0.12841770738E+02 0.10230505959E+02
 0.82457193032E+01 0.68873213546E+01 0.60115540419E+01 0.55062936421E+01 0.53421551539E+01
 0.55062936421E+01 0.60115540419E+01 0.68873213546E+01 0.82457193032E+01 0.10230505959E+02
 0.12841770738E+02 0.15891352120E+02 0.19042173011E+02 0.21916335511E+02 0.24221042759E+02
 0.25831929111E+02 0.26798028771E+02 0.27272995900E+02 0.22754422861E+02 0.22617518711E+02
 0.22156457010E+02 0.21253022188E+02 0.19802598905E+02 0.17801470850E+02 0.15392512631E+02
 0.12841770738E+02 0.10453962323E+02 0.84675143312E+01 0.69803634313E+01 0.59394232409E+01
 0.52364227798E+01 0.48346381385E+01 0.47049957910E+01 0.48346381385E+01 0.52364227798E+01
 0.59394232409E+01 0.69803634313E+01 0.84675143312E+01 0.10453962323E+02 0.12841770738E+02
 0.15392512631E+02 0.17801470850E+02 0.19802598905E+02 0.21253022188E+02 0.22156457010E+02
 0.22617518711E+02 0.18508096532E+02 0.18362587336E+02 0.17895950636E+02 0.17042558354E+02
 0.15760653588E+02 0.14090646633E+02 0.12175940661E+02 0.10230505959E+02 0.84675143312E+01
 0.70251412928E+01 0.59262244299E+01 0.51116662171E+01 0.45592120402E+01 0.42453270420E+01
 0.41442313789E+01 0.42453270420E+01 0.45592120402E+01 0.51116662171E+01 0.59262244299E+01
 0.70251412928E+01 0.84675143312E+01 0.10230505959E+02 0.12175940661E+02 0.14090646633E+02
 0.15760653588E+02 0.17042558354E+02 0.17895950636E+02 0.18362587336E+02 0.14877184832E+02
 0.14732063739E+02 0.14285358165E+02 0.13518177638E+02 0.12438949916E+02 0.11113192987E+02
 0.96652176703E+01 0.82457193032E+01 0.69803634313E+01 0.59262244299E+01 0.50758333256E+01
 0.44364069053E+01 0.40027854887E+01 0.37552950279E+01 0.36752616761E+01 0.37552950279E+01
 0.40027854887E+01 0.44364069053E+01 0.50758333256E+01 0.59262244299E+01 0.69803634313E+01
 0.82457193032E+01 0.96652176703E+01 0.11113192987E+02 0.12438949916E+02 0.13518177638E+02
 0.14285358165E+02 0.14732063739E+02 0.12067531609E+02 0.11934887523E+02 0.11538154800E+02
 0.10888034131E+02 0.10019758984E+02 0.90018877349E+01 0.79274068478E+01 0.68873213546E+01
 0.59394232409E+01 0.51116662171E+01 0.44364069053E+01 0.39259146335E+01 0.35752547940E+01
 0.33722385227E+01 0.33059748553E+01 0.33722385227E+01 0.35752547940E+01 0.39259146335E+01
 0.44364069053E+01 0.51116662171E+01 0.59394232409E+01 0.68873213546E+01 0.79274068478E+01
 0.90018877349E+01 0.10019758984E+02 0.10888034131E+02 0.11538154800E+02 0.11934887523E+02
 0.10173793305E+02 0.10058685290E+02 0.97203998096E+01 0.91818837328E+01 0.84845346804E+01
 0.76852543801E+01 0.68443555071E+01 0.60115540419E+01 0.52364227798E+01 0.45592120402E+01
 0.40027854887E+01 0.35752547940E+01 0.32754540268E+01 0.30985478593E+01 0.30401435583E+01
 0.30985478593E+01 0.32754540268E+01 0.35752547940E+01 0.40027854887E+01 0.45592120402E+01
 0.52364227798E+01 0.60115540419E+01 0.68443555071E+01 0.76852543801E+01 0.84845346804E+01
 0.91818837328E+01 0.97203998096E+01 0.10058685290E+02 0.91442732186E+01 0.90420807962E+01
 0.87436625778E+01 0.82727384784E+01 0.76654960671E+01 0.69675930976E+01 0.62311235191E+01
 0.55062936421E+01 0.48346381385E+01 0.42453270420E+01 0.37552950279E+01 0.33722385227E+01
 0.30985478593E+01 0.29344693275E+01 0.28798065047E+01 0.29344693275E+01 0.30985478593E+01
 0.33722385227E+01 0.37552950279E+01 0.42453270420E+01 0.48346381385E+01 0.55062936421E+01
 0.62311235191E+01 0.69675930976E+01 0.76654960671E+01 0.82727384784E+01 0.87436625778E+01
 0.90420807962E+01 0.88284492662E+01 0.87292597219E+01 0.84398070252E+01 0.79838396564E+01
 0.73986113333E+01 0.67306833670E+01 0.60298022387E+01 0.53421551539E+01 0.47049957910E+01
 0.41442313789E+01 0.36752616761E+01 0.33059748553E+01 0.30401435583E+01 0.28798065047E+01
 0.28262087648E+01 0.28798065047E+01 0.30401435583E+01 0.33059748553E+01 0.36752616761E+01
 0.41442313789E+01 0.47049957910E+01 0.53421551539E+01 0.60298022387E+01 0.67306833670E+01
 0.73986113333E+01 0.79838396564E+01 0.84398070252E+01 0.87292597219E+01 0.91442732186E+01
 0.90420807962E+01 0.87436625778E+01 0.82727384784E+01 0.76654960671E+01 0.69675930976E+01
 0.62311235191E+01 0.55062936421E+01 0.48346381385E+01 0.42453270420E+01 0.37552950279E+01
 0.33722385227E+01 0.30985478593E+01 0.29344693275E+01 0.28798065047E+01 0.29344693275E+01
 0.30985478593E+01 0.33722385227E+01 0.37552950279E+01 0.42453270420E+01 0.48346381385E+01
 0.55062936421E+01 0.62311235191E+01 0.69675930976E+01 0.76654960671E+01 0.82727384784E+01
 0.87436625778E+01 0.90420807962E+01 0.10173793305E+02 0.10058685290E+02 0.97203998096E+01
 0.91818837328E+01 0.84845346804E+01 0.76852543801E+01 0.68443555071E+01 0.60115540419E+01
 0.52364227798E+01 0.45592120402E+01 0.40027854887E+01 0.35752547940E+01 0.32754540268E+01
 0.30985478593E+01 0.30401435583E+01 0.30985478593E+01 0.32754540268E+01 0.35752547940E+01
 0.40027854887E+01 0.45592120402E+01 0.52364227798E+01 0.60115540419E+01 0.68443555071E+01
 0.76852543801E+01 0.84845346804E+01 0.91818837328E+01 0.97203998096E+01 0.10058685290E+02
 0.12067531609E+02 0.11934887523E+02 0.11538154800E+02 0.10888034131E+02 0.10019758984E+02
 0.90018877349E+01 0.79274068478E+01 0.68873213546E+01 0.59394232409E+01 0.51116662171E+01
 0.44364069053E+01 0.39259146335E+01 0.35752547940E+01 0.33722385227E+01 0.33059748553E+01
 0.33722385227E+01 0.35752547940E+01 0.39259146335E+01 0.44364069053E+01 0.51116662171E+01
 0.59394232409E+01 0.68873213546E+01 0.79274068478E+01 0.90018877349E+01 0.10019758984E+02
 0.10888034131E+02 0.11538154800E+02 0.11934887523E+02 0.14877184832E+02 0.14732063739E+02
 0.14285358165E+02 0.13518177638E+02 0.12438949916E+02 0.11113192987E+02 0.96652176703E+01
 0.82457193032E+01 0.69803634313E+01 0.59262244299E+01 0.50758333256E+01 0.44364069053E+01
 0.40027854887E+01 0.37552950279E+01 0.36752616761E+01 0.37552950279E+01 0.40027854887E+01
 0.44364069053E+01 0.50758333256E+01 0.59262244299E+01 0.69803634313E+01 0.82457193032E+01
 0.96652176703E+01 0.11113192987E+02 0.12438949916E+02 0.13518177638E+02 0.14285358165E+02
 0.14732063739E+02 0.18508096532E+02 0.18362587336E+02 0.17895950636E+02 0.17042558354E+02
 0.15760653588E+02 0.14090646633E+02 0.12175940661E+02 0.10230505959E+02 0.84675143312E+01
 0.70251412928E+01 0.59262244299E+01 0.51116662171E+01 0.45592120402E+01 0.42453270420E+01
 0.41442313789E+01 0.42453270420E+01 0.45592120402E+01 0.51116662171E+01 0.59262244299E+01
 0.70251412928E+01 0.84675143312E+01 0.10230505959E+02 0.12175940661E+02 0.14090646633E+02
 0.15760653588E+02 0.17042558354E+02 0.17895950636E+02 0.18362587336E+02 0.22754422861E+02
 0.22617518711E+02 0.22156457010E+02 0.21253022188E+02 0.19802598905E+02 0.17801470850E+02
 0.15392512631E+02 0.12841770738E+02 0.10453962323E+02 0.84675143312E+01 0.69803634313E+01
 0.59394232409E+01 0.52364227798E+01 0.48346381385E+01 0.47049957910E+01 0.48346381385E+01
 0.52364227798E+01 0.59394232409E+01 0.69803634313E+01 0.84675143312E+01 0.10453962323E+02
 0.12841770738E+02 0.15392512631E+02 0.17801470850E+02 0.19802598905E+02 0.21253022188E+02
 0.22156457010E+02 0.22617518711E+02 0.27410339048E+02 0.27272995900E+02 0.26798028771E+02
 0.25831929111E+02 0.24221042759E+02 0.21916335511E+02 0.19042173011E+02 0.15891352120E+02
 0.12841770738E+02 0.10230505959E+02 0.82457193032E+01 0.68873213546E+01 0.60115540419E+01
 0.55062936421E+01 0.53421551539E+01 0.55062936421E+01 0.60115540419E+01 0.68873213546E+01
 0.82457193032E+01 0.10230505959E+02 0.12841770738E+02 0.15891352120E+02 0.19042173011E+02
 0.21916335511E+02 0.24221042759E+02 0.25831929111E+02 0.26798028771E+02 0.27272995900E+02
 0.32374340416E+02 0.32197774931E+02 0.31611106124E+02 0.30471465457E+02 0.28625629359E+02
 0.26007421266E+02 0.22717320497E+02 0.19042173011E+02 0.15392512631E+02 0.12175940661E+02
 0.96652176703E+01 0.79274068478E+01 0.68443555071E+01 0.62311235191E+01 0.60298022387E+01
 0.62311235191E+01 0.68443555071E+01 0.79274068478E+01 0.96652176703E+01 0.12175940661E+02
 0.15392512631E+02 0.19042173011E+02 0.22717320497E+02 0.26007421266E+02 0.28625629359E+02
 0.30471465457E+02 0.31611106124E+02 0.32197774931E+02 0.37641133695E+02 0.37358016156E+02
 0.36484186863E+02 0.34955207841E+02 0.32697519567E+02 0.29684879358E+02 0.26007421266E+02
 0.21916335511E+02 0.17801470850E+02 0.14090646633E+02 0.11113192987E+02 0.90018877349E+01
 0.76852543801E+01 0.69675930976E+01 0.67306833670E+01 0.69675930976E+01 0.76852543801E+01
 0.90018877349E+01 0.11113192987E+02 0.14090646633E+02 0.17801470850E+02 0.21916335511E+02
 0.26007421266E+02 0.29684879358E+02 0.32697519567E+02 0.34955207841E+02 0.36484186863E+02
 0.37358016156E+02 0.43154016087E+02 0.42687188999E+02 0.41321613150E+02 0.39141437970E+02
 0.36238973362E+02 0.32697519567E+02 0.28625629359E+02 0.24221042759E+02 0.19802598905E+02
 0.15760653588E+02 0.12438949916E+02 0.10019758984E+02 0.84845346804E+01 0.76654960671E+01
 0.73986113333E+01 0.76654960671E+01 0.84845346804E+01 0.10019758984E+02 0.12438949916E+02
 0.15760653588E+02 0.19802598905E+02 0.24221042759E+02 0.28625629359E+02 0.32697519567E+02
 0.36238973362E+02 0.39141437970E+02 0.41321613150E+02 0.42687188999E+02 0.48615032498E+02
 0.47908696683E+02 0.45901425590E+02 0.42872685852E+02 0.39141437970E+02 0.34955207841E+02
 0.30471465457E+02 0.25831929111E+02 0.21253022188E+02 0.17042558354E+02 0.13518177638E+02
 0.10888034131E+02 0.91818837328E+01 0.82727384784E+01 0.79838396564E+01 0.82727384784E+01
 0.91818837328E+01 0.10888034131E+02 0.13518177638E+02 0.17042558354E+02 0.21253022188E+02
 0.25831929111E+02 0.30471465457E+02 0.34955207841E+02 0.39141437970E+02 0.42872685852E+02
 0.45901425590E+02 0.47908696683E+02 0.53410765789E+02 0.52460579163E+02 0.49798607058E+02
 0.45901425590E+02 0.41321613150E+02 0.36484186863E+02 0.31611106124E+02 0.26798028771E+02
 0.22156457010E+02 0.17895950636E+02 0.14285358165E+02 0.11538154800E+02 0.97203998096E+01
 0.87436625778E+01 0.84398070252E+01 0.87436625778E+01 0.97203998096E+01 0.11538154800E+02
 0.14285358165E+02 0.17895950636E+02 0.22156457010E+02 0.26798028771E+02 0.31611106124E+02
 0.36484186863E+02 0.41321613150E+02 0.45901425590E+02 0.49798607058E+02 0.52460579163E+02
 0.56747748734E+02 0.55614605713E+02 0.52460579163E+02 0.47908696683E+02 0.42687188999E+02
 0.37358016156E+02 0.32197774931E+02 0.27272995900E+02 0.22617518711E+02 0.18362587336E+02
 0.14732063739E+02 0.11934887523E+02 0.10058685290E+02 0.90420807962E+01 0.87292597219E+01
 0.90420807962E+01 0.10058685290E+02 0.11934887523E+02 0.14732063739E+02 0.18362587336E+02
 0.22617518711E+02 0.27272995900E+02 0.32197774931E+02 0.37358016156E+02 0.42687188999E+02
 0.47908696683E+02 0.52460579163E+02 0.55614605713E+02 0.54416667453E+02 0.53410765789E+02
 0.50599308811E+02 0.46504282600E+02 0.41732398443E+02 0.36750269250E+02 0.31795493668E+02
 0.26953382236E+02 0.22310550328E+02 0.18052285125E+02 0.14434227299E+02 0.11669523805E+02
 0.98318956016E+01 0.88419076256E+01 0.85351125672E+01 0.88419076256E+01 0.98318956016E+01
 0.11669523805E+02 0.14434227299E+02 0.18052285125E+02 0.22310550328E+02 0.26953382236E+02
 0.31795493668E+02 0.36750269250E+02 0.41732398443E+02 0.46504282600E+02 0.50599308811E+02
 0.53410765789E+02 0.53410765789E+02 0.52460579163E+02 0.49798607058E+02 0.45901425590E+02
 0.41321613150E+02 0.36484186863E+02 0.31611106124E+02 0.26798028771E+02 0.22156457010E+02
 0.17895950636E+02 0.14285358165E+02 0.11538154800E+02 0.97203998096E+01 0.87436625778E+01
 0.84398070252E+01 0.87436625778E+01 0.97203998096E+01 0.11538154800E+02 0.14285358165E+02
 0.17895950636E+02 0.22156457010E+02 0.26798028771E+02 0.31611106124E+02 0.36484186863E+02
 0.41321613150E+02 0.45901425590E+02 0.49798607058E+02 0.52460579163E+02 0.50599308811E+02
 0.49798607058E+02 0.47537360482E+02 0.44169726801E+02 0.40103230407E+02 0.35652899531E+02