   1   1   0   0
  0.1562500E+02  0.2500000E-09  0.2500000E-09  0.2500000E-09  0.5000000E-15
  1.000000000000000E-004
  CAR 
 unknown system                          
     34.77842944     -4.35876721  301      7.47567023      1.00000000
     -4.359  0.0000E+00  0.0000E+00
     -4.228  0.0000E+00  0.0000E+00
     -4.098  0.0000E+00  0.0000E+00
     -3.967  0.0000E+00  0.0000E+00
     -3.837  0.0000E+00  0.0000E+00
     -3.706  0.0000E+00  0.0000E+00
     -3.576  0.0000E+00  0.0000E+00
     -3.446  0.0000E+00  0.0000E+00
     -3.315  0.0000E+00  0.0000E+00
     -3.185  0.0000E+00  0.0000E+00
     -3.054  0.0000E+00  0.0000E+00
     -2.924  0.0000E+00  0.0000E+00
     -2.793  0.0000E+00  0.0000E+00
     -2.663  0.0000E+00  0.0000E+00
     -2.532  0.0000E+00  0.0000E+00
     -2.402  0.0000E+00  0.0000E+00
     -2.271  0.1907E-02  0.5550E-04
     -2.141  0.1186E-01  0.8610E-03
     -2.011  0.2974E-01  0.3513E-02
     -1.880  0.4512E-01  0.8465E-02
     -1.750  0.5420E-01  0.1501E-01
     -1.619  0.5994E-01  0.2244E-01
     -1.489  0.6769E-01  0.3074E-01
     -1.358  0.7746E-01  0.4019E-01
     -1.228  0.8807E-01  0.5098E-01
     -1.097  0.9856E-01  0.6316E-01
     -0.967  0.1088E+00  0.7669E-01
     -0.836  0.1199E+00  0.9158E-01
     -0.706  0.1321E+00  0.1080E+00
     -0.576  0.1452E+00  0.1261E+00
     -0.445  0.1586E+00  0.1459E+00
     -0.315  0.1731E+00  0.1675E+00
     -0.184  0.1907E+00  0.1912E+00
     -0.054  0.2152E+00  0.2176E+00
      0.077  0.2425E+00  0.2474E+00
      0.207  0.2749E+00  0.2810E+00
      0.338  0.3840E+00  0.3230E+00
      0.468  0.5647E+00  0.3842E+00
      0.599  0.8004E+00  0.4734E+00
      0.729  0.1002E+01  0.5906E+00
      0.860  0.1252E+01  0.7367E+00
      0.990  0.1517E+01  0.9180E+00
      1.120  0.1804E+01  0.1132E+01
      1.251  0.2195E+01  0.1396E+01
      1.381  0.2269E+01  0.1691E+01
      1.512  0.1931E+01  0.1962E+01
      1.642  0.1900E+01  0.2212E+01
      1.773  0.1953E+01  0.2472E+01
      1.903  0.1714E+01  0.2711E+01
      2.034  0.1838E+01  0.2938E+01
      2.164  0.1628E+01  0.3167E+01
      2.295  0.1353E+01  0.3358E+01
      2.425  0.1043E+01  0.3516E+01
      2.555  0.1044E+01  0.3653E+01
      2.686  0.1045E+01  0.3789E+01
      2.816  0.1100E+01  0.3927E+01
      2.947  0.1212E+01  0.4079E+01
      3.077  0.1342E+01  0.4243E+01
      3.208  0.1369E+01  0.4426E+01
      3.338  0.1827E+01  0.4621E+01
      3.469  0.1687E+01  0.4873E+01
      3.599  0.1264E+01  0.5064E+01
      3.730  0.9832E+00  0.5208E+01
      3.860  0.8366E+00  0.5326E+01
      3.991  0.6999E+00  0.5426E+01
      4.121  0.6608E+00  0.5513E+01
      4.251  0.7670E+00  0.5604E+01
      4.382  0.9395E+00  0.5715E+01
      4.512  0.1122E+01  0.5850E+01
      4.643  0.1268E+01  0.6006E+01
      4.773  0.1337E+01  0.6177E+01
      4.904  0.1429E+01  0.6357E+01
      5.034  0.1587E+01  0.6554E+01
      5.165  0.1728E+01  0.6768E+01
      5.295  0.1701E+01  0.6995E+01
      5.426  0.1543E+01  0.7207E+01
      5.556  0.1350E+01  0.7396E+01
      5.686  0.1127E+01  0.7559E+01
      5.817  0.8024E+00  0.7683E+01
      5.947  0.7988E+00  0.7784E+01
      6.078  0.1255E+01  0.7911E+01
      6.208  0.2004E+01  0.8144E+01
      6.339  0.1828E+01  0.8394E+01
      6.469  0.1699E+01  0.8626E+01
      6.600  0.1575E+01  0.8843E+01
      6.730  0.1644E+01  0.9056E+01
      6.861  0.1454E+01  0.9254E+01
      6.991  0.1352E+01  0.9437E+01
      7.121  0.1225E+01  0.9605E+01
      7.252  0.1124E+01  0.9758E+01
      7.382  0.1079E+01  0.9901E+01
      7.513  0.1085E+01  0.1004E+02
      7.643  0.1096E+01  0.1018E+02
      7.774  0.1074E+01  0.1033E+02
      7.904  0.9316E+00  0.1046E+02
      8.035  0.6520E+00  0.1056E+02
      8.165  0.5413E+00  0.1064E+02
      8.296  0.4931E+00  0.1070E+02
      8.426  0.4925E+00  0.1077E+02
      8.557  0.4765E+00  0.1083E+02
      8.687  0.4564E+00  0.1089E+02
      8.817  0.4299E+00  0.1095E+02
      8.948  0.4067E+00  0.1100E+02
      9.078  0.3802E+00  0.1106E+02
      9.209  0.3561E+00  0.1110E+02
      9.339  0.3342E+00  0.1115E+02
      9.470  0.3119E+00  0.1119E+02
      9.600  0.2889E+00  0.1123E+02
      9.731  0.2652E+00  0.1127E+02
      9.861  0.2410E+00  0.1130E+02
      9.992  0.2194E+00  0.1133E+02
     10.122  0.1947E+00  0.1136E+02
     10.252  0.1918E+00  0.1138E+02
     10.383  0.1888E+00  0.1141E+02
     10.513  0.1857E+00  0.1143E+02
     10.644  0.1824E+00  0.1145E+02
     10.774  0.1789E+00  0.1148E+02
     10.905  0.1750E+00  0.1150E+02
     11.035  0.1710E+00  0.1152E+02
     11.166  0.1667E+00  0.1155E+02
     11.296  0.1624E+00  0.1157E+02
     11.427  0.1580E+00  0.1159E+02
     11.557  0.1536E+00  0.1161E+02
     11.687  0.1535E+00  0.1163E+02
     11.818  0.1521E+00  0.1165E+02
     11.948  0.1476E+00  0.1167E+02
     12.079  0.1406E+00  0.1169E+02
     12.209  0.1359E+00  0.1170E+02
     12.340  0.1348E+00  0.1172E+02
     12.470  0.1356E+00  0.1174E+02
     12.601  0.1381E+00  0.1176E+02
     12.731  0.1435E+00  0.1178E+02
     12.862  0.1622E+00  0.1180E+02
     12.992  0.3272E+00  0.1183E+02
     13.123  0.3741E+00  0.1188E+02
     13.253  0.3957E+00  0.1193E+02
     13.383  0.4090E+00  0.1198E+02
     13.514  0.4186E+00  0.1203E+02
     13.644  0.4237E+00  0.1209E+02
     13.775  0.4266E+00  0.1214E+02
     13.905  0.4242E+00  0.1220E+02
     14.036  0.4152E+00  0.1225E+02
     14.166  0.4067E+00  0.1231E+02
     14.297  0.3984E+00  0.1236E+02
     14.427  0.3894E+00  0.1241E+02
     14.558  0.3798E+00  0.1246E+02
     14.688  0.3711E+00  0.1251E+02
     14.818  0.3645E+00  0.1256E+02
     14.949  0.3604E+00  0.1261E+02
     15.079  0.3555E+00  0.1265E+02
     15.210  0.3484E+00  0.1270E+02
     15.340  0.3404E+00  0.1274E+02
     15.471  0.3313E+00  0.1279E+02
     15.601  0.3239E+00  0.1283E+02
     15.732  0.3202E+00  0.1287E+02
     15.862  0.3168E+00  0.1291E+02
     15.993  0.3143E+00  0.1295E+02
     16.123  0.3114E+00  0.1299E+02
     16.253  0.3081E+00  0.1304E+02
     16.384  0.3044E+00  0.1308E+02
     16.514  0.3008E+00  0.1311E+02
     16.645  0.2972E+00  0.1315E+02
     16.775  0.2930E+00  0.1319E+02
     16.906  0.2893E+00  0.1323E+02
     17.036  0.2857E+00  0.1327E+02
     17.167  0.2823E+00  0.1330E+02
     17.297  0.2811E+00  0.1334E+02
     17.428  0.2942E+00  0.1338E+02
     17.558  0.2818E+00  0.1342E+02
     17.689  0.2728E+00  0.1345E+02
     17.819  0.2633E+00  0.1349E+02
     17.949  0.2483E+00  0.1352E+02
     18.080  0.2544E+00  0.1355E+02
     18.210  0.2700E+00  0.1359E+02
     18.341  0.2607E+00  0.1362E+02
     18.471  0.2446E+00  0.1366E+02
     18.602  0.2055E+00  0.1368E+02
     18.732  0.2086E+00  0.1371E+02
     18.863  0.2167E+00  0.1374E+02
     18.993  0.2378E+00  0.1377E+02
     19.124  0.2617E+00  0.1380E+02
     19.254  0.2835E+00  0.1384E+02
     19.384  0.3068E+00  0.1388E+02
     19.515  0.3409E+00  0.1392E+02
     19.645  0.3495E+00  0.1396E+02
     19.776  0.3544E+00  0.1401E+02
     19.906  0.3641E+00  0.1406E+02
     20.037  0.4549E+00  0.1411E+02
     20.167  0.4770E+00  0.1417E+02
     20.298  0.4720E+00  0.1423E+02
     20.428  0.4842E+00  0.1429E+02
     20.559  0.4954E+00  0.1436E+02
     20.689  0.5082E+00  0.1442E+02
     20.819  0.5252E+00  0.1449E+02
     20.950  0.5408E+00  0.1456E+02
     21.080  0.5654E+00  0.1463E+02
     21.211  0.5735E+00  0.1471E+02
     21.341  0.5699E+00  0.1478E+02
     21.472  0.5634E+00  0.1486E+02
     21.602  0.5480E+00  0.1493E+02
     21.733  0.5222E+00  0.1500E+02
     21.863  0.5262E+00  0.1507E+02
     21.994  0.5700E+00  0.1514E+02
     22.124  0.5409E+00  0.1521E+02
     22.255  0.5080E+00  0.1528E+02
     22.385  0.4956E+00  0.1534E+02
     22.515  0.4915E+00  0.1541E+02
     22.646  0.4742E+00  0.1547E+02
     22.776  0.4548E+00  0.1553E+02
     22.907  0.4643E+00  0.1559E+02
     23.037  0.4736E+00  0.1565E+02
     23.168  0.4829E+00  0.1572E+02
     23.298  0.4921E+00  0.1578E+02
     23.429  0.5004E+00  0.1584E+02
     23.559  0.5048E+00  0.1591E+02
     23.690  0.5104E+00  0.1598E+02
     23.820  0.4692E+00  0.1604E+02
     23.950  0.4797E+00  0.1610E+02
     24.081  0.4912E+00  0.1617E+02
     24.211  0.5040E+00  0.1623E+02
     24.342  0.5224E+00  0.1630E+02
     24.472  0.5460E+00  0.1637E+02
     24.603  0.5692E+00  0.1644E+02
     24.733  0.5875E+00  0.1651E+02
     24.864  0.6104E+00  0.1659E+02
     24.994  0.6606E+00  0.1668E+02
     25.125  0.8289E+00  0.1677E+02
     25.255  0.8752E+00  0.1689E+02
     25.386  0.6022E+00  0.1698E+02
     25.516  0.4674E+00  0.1705E+02
     25.646  0.4637E+00  0.1711E+02
     25.777  0.4737E+00  0.1717E+02
     25.907  0.4898E+00  0.1723E+02
     26.038  0.5063E+00  0.1730E+02
     26.168  0.5237E+00  0.1737E+02
     26.299  0.5674E+00  0.1744E+02
     26.429  0.6021E+00  0.1751E+02
     26.560  0.5003E+00  0.1759E+02
     26.690  0.4759E+00  0.1766E+02
     26.821  0.4406E+00  0.1772E+02
     26.951  0.3946E+00  0.1777E+02
     27.081  0.3681E+00  0.1782E+02
     27.212  0.5014E+00  0.1788E+02
     27.342  0.5835E+00  0.1795E+02
     27.473  0.5878E+00  0.1802E+02
     27.603  0.6872E+00  0.1811E+02
     27.734  0.7268E+00  0.1820E+02
     27.864  0.6885E+00  0.1829E+02
     27.995  0.6476E+00  0.1838E+02
     28.125  0.6167E+00  0.1846E+02
     28.256  0.6014E+00  0.1854E+02
     28.386  0.5955E+00  0.1862E+02
     28.516  0.5980E+00  0.1870E+02
     28.647  0.6315E+00  0.1878E+02
     28.777  0.6381E+00  0.1886E+02
     28.908  0.6618E+00  0.1894E+02
     29.038  0.6736E+00  0.1903E+02
     29.169  0.6820E+00  0.1912E+02
     29.299  0.6884E+00  0.1921E+02
     29.430  0.6891E+00  0.1930E+02
     29.560  0.6816E+00  0.1939E+02
     29.691  0.6680E+00  0.1948E+02
     29.821  0.6500E+00  0.1956E+02
     29.952  0.5673E+00  0.1964E+02
     30.082  0.4778E+00  0.1971E+02
     30.212  0.4029E+00  0.1977E+02
     30.343  0.3333E+00  0.1982E+02
     30.473  0.2710E+00  0.1985E+02
     30.604  0.2142E+00  0.1989E+02
     30.734  0.1896E+00  0.1991E+02
     30.865  0.1597E+00  0.1994E+02
     30.995  0.9931E-01  0.1995E+02
     31.126  0.8136E-01  0.1996E+02
     31.256  0.6534E-01  0.1997E+02
     31.387  0.5123E-01  0.1998E+02
     31.517  0.3905E-01  0.1999E+02
     31.647  0.2879E-01  0.1999E+02
     31.778  0.2045E-01  0.1999E+02
     31.908  0.1403E-01  0.2000E+02
     32.039  0.9416E-02  0.2000E+02
     32.169  0.6019E-02  0.2000E+02
     32.300  0.3677E-02  0.2000E+02
     32.430  0.1946E-02  0.2000E+02
     32.561  0.7610E-03  0.2000E+02
     32.691  0.1223E-03  0.2000E+02
     32.822  0.0000E+00  0.2000E+02
     32.952  0.0000E+00  0.2000E+02
     33.082  0.0000E+00  0.2000E+02
     33.213  0.0000E+00  0.2000E+02
     33.343  0.0000E+00  0.2000E+02
     33.474  0.0000E+00  0.2000E+02
     33.604  0.0000E+00  0.2000E+02
     33.735  0.0000E+00  0.2000E+02
     33.865  0.0000E+00  0.2000E+02
     33.996  0.0000E+00  0.2000E+02
     34.126  0.0000E+00  0.2000E+02
     34.257  0.0000E+00  0.2000E+02
     34.387  0.0000E+00  0.2000E+02
     34.518  0.0000E+00  0.2000E+02
     34.648  0.0000E+00  0.2000E+02
     34.778  0.0000E+00  0.2000E+02
