    1    1    1    1
  0.1562500E+02  0.2500000E-09  0.2500000E-09  0.2500000E-09  0.5000000E-15
  1.000000000000000E-004
  CAR 
 unknown system                          
     10     56     10
 
  0.0000000E+00  0.0000000E+00  0.0000000E+00  0.1000000E-02
    1       -2.358767   1.000000
    2        0.485657   1.000000
    3        0.485657   1.000000
    4        7.886350  -0.205568
    5        7.886350  -0.138674
    6        7.886350  -0.023951
    7       23.801372   0.000000
    8       23.801372   0.000000
    9       23.801372   0.000000
   10       29.974496   0.000000
 
  0.1000000E+00  0.0000000E+00  0.0000000E+00  0.6000000E-02
    1       -2.042801   1.000000
    2        0.549701   1.000000
    3        0.804543   1.000000
    4        7.561272   0.703031
    5        7.561272   0.385791
    6        7.911929  -0.056885
    7       21.873662   0.000000
    8       24.386047   0.000000
    9       24.386047   0.000000
   10       30.964317   0.000000
 
  0.2000000E+00  0.0000000E+00  0.0000000E+00  0.6000000E-02
    1       -1.269040   1.000000
    2        0.721737   1.000000
    3        1.817727   1.000000
    4        6.789596   1.003230
    5        6.789596   1.040465
    6        7.979422  -0.074753
    7       18.740190   0.000000
    8       25.898188   0.000000
    9       25.898188   0.000000
   10       28.667327   0.000000
 
  0.3000000E+00  0.0000000E+00  0.0000000E+00  0.6000000E-02
    1       -0.402199   1.000000
    2        0.943430   1.000000
    3        3.503688   1.000000
    4        5.954711   1.000000
    5        5.954711   1.000000
    6        8.063979  -0.028544
    7       15.899255   0.000000
    8       26.582490   0.000000
    9       27.849153   0.000000
   10       27.849153   0.000000
 
  0.4000000E+00  0.0000000E+00  0.0000000E+00  0.6000000E-02
    1        0.275862   1.000000
    2        1.130834   1.000000
    3        5.350144   1.000000
    4        5.350144   1.000000
    5        5.368776   1.016054
    6        8.133280  -0.001100
    7       13.758822   0.000000
    8       25.226040   0.000000
    9       29.523220   0.000000
   10       29.719612   0.000000
 
  0.5000000E+00  0.0000000E+00  0.0000000E+00  0.3000000E-02
    1        0.541356   1.000000
    2        1.204496   1.000000
    3        5.132717   1.000000
    4        5.132717   1.000000
    5        6.293122   1.061363
    6        8.159977   0.000000
    7       12.861612   0.000000
    8       24.756043   0.000000
    9       28.718849   0.000000
   10       30.634300   0.000000
 
  0.1000000E+00  0.1000000E+00  0.0000000E+00  0.1200000E-01
    1       -1.721350   1.000000
    2        0.746642   1.000000
    3        0.983319   1.000000
    4        7.218474   1.005038
    5        7.537452   0.659150
    6        7.644393   0.087984
    7       22.089771   0.000000
    8       22.735270   0.000000
    9       24.974970   0.000000
   10       30.680256   0.000000
 
  0.2000000E+00  0.1000000E+00  0.0000000E+00  0.2400000E-01
    1       -0.945272   1.000000
    2        0.976472   1.000000
    3        1.920830   1.000000
    4        6.430287   1.001553
    5        6.819377   1.025225
    6        7.676066   0.183851
    7       19.223889   0.000000
    8       23.685819   0.000000
    9       26.501739   0.000000
   10       29.020486   0.000000
 
  0.3000000E+00  0.1000000E+00  0.0000000E+00  0.2400000E-01
    1       -0.093041   1.000000
    2        1.218998   1.000000
    3        3.428727   1.000000
    4        5.778954   1.000000
    5        5.994730   1.000000
    6        7.768348   0.083564
    7       16.318898   0.000000
    8       25.034573   0.000000
    9       27.343657   0.000000
   10       28.483130   0.000000
 
  0.4000000E+00  0.1000000E+00  0.0000000E+00  0.2400000E-01
    1        0.571878   1.000000
    2        1.442557   1.000000
    3        4.034089   1.000000
    4        5.395474   1.000000
    5        6.544979   1.032168
    6        7.845063   0.005399
    7       13.981845   0.000000
    8       25.290749   0.000000
    9       27.273424   0.000000
   10       30.438852   0.000000
 
  0.5000000E+00  0.1000000E+00  0.0000000E+00  0.1200000E-01
    1        0.830932   1.000000
    2        1.548416   1.000000
    3        3.915750   1.000000
    4        5.179699   1.000000
    5        7.519568   0.884159
    6        7.874728   0.000000
    7       12.877390   0.000000
    8       25.004670   0.000000
    9       28.285152   0.000000
   10       28.751056   0.000000
 
  0.2000000E+00  0.2000000E+00  0.0000000E+00  0.1200000E-01
    1       -0.226353   1.000000
    2        1.618562   1.000000
    3        2.430991   1.000000
    4        5.669657   1.000000
    5        6.805343   1.000496
    6        7.043372   1.067196
    7       20.334737   0.000000
    8       20.481627   0.000000
    9       28.065247   0.000000
   10       28.697217   0.000000
 
  0.3000000E+00  0.2000000E+00  0.0000000E+00  0.2400000E-01
    1        0.469223   1.000000
    2        2.027803   1.000000
    3        3.413349   1.000000
    4        5.575384   1.000000
    5        6.098501   1.000000
    6        7.058497   0.979682
    7       17.289222   0.000000
    8       21.933919   0.000000
    9       27.590017   0.000000
   10       30.085442   0.000000
 
  0.4000000E+00  0.2000000E+00  0.0000000E+00  0.2400000E-01
    1        0.984598   1.000000
    2        2.286268   1.000000
    3        3.245847   1.000000
    4        5.516020   1.000000
    5        7.147509   1.003676
    6        7.503382   0.210623
    7       14.533085   0.000000
    8       23.582158   0.000000
    9       26.458606   0.000000
   10       29.645102   0.000000
 
  0.5000000E+00  0.2000000E+00  0.0000000E+00  0.1200000E-01
    1        1.188787   1.000000
    2        2.422455   1.000000
    3        2.999410   1.000000
    4        5.304786   1.000000
    5        7.183174   1.012647
    6        9.084593   0.000000
    7       12.904749   0.000000
    8       25.012327   0.000000
    9       25.598739   0.000000
   10       27.892986   0.000000
 
  0.3000000E+00  0.3000000E+00  0.0000000E+00  0.1200000E-01
    1        0.920396   1.000000
    2        1.977833   1.000000
    3        4.694437   1.000000
    4        5.984824   1.000000
    5        6.151406   1.006945
    6        6.356077   0.941398
    7       17.485707   0.000000
    8       19.997159   0.000000
    9       26.987489   0.000000
   10       31.966388   0.000000
 
  0.4000000E+00  0.3000000E+00  0.0000000E+00  0.2400000E-01
    1        1.202879   1.000000
    2        1.576553   1.000000
    3        5.282236   1.000000
    4        5.668418   1.000000
    5        6.376394   1.020767
    6        8.303117   0.020898
    7       15.028209   0.000000
    8       21.101512   0.000000
    9       25.370581   0.000000
   10       29.893142   0.000000
 
  0.5000000E+00  0.3000000E+00  0.0000000E+00  0.1200000E-01
    1        1.216480   1.000000
    2        1.502924   1.000000
    3        5.381940   1.000000
    4        5.463782   1.000000
    5        6.416686   1.028626
    6       10.499246   0.000000
    7       12.870363   0.000000
    8       22.566613   0.000000
    9       23.747839   0.000000
   10       28.882573   0.000000
 
  0.4000000E+00  0.4000000E+00  0.0000000E+00  0.1200000E-01
    1        0.680696   1.000000
    2        1.660114   1.000000
    3        5.766736   1.000000
    4        5.837852   1.000000
    5        7.533671   0.533701
    6        9.465577  -0.017027
    7       14.441665   0.000000
    8       19.867783   0.000000
    9       23.496164   0.000000
   10       30.762215   0.000000
 
  0.5000000E+00  0.4000000E+00  0.0000000E+00  0.1200000E-01
    1        0.441089   1.000000
    2        1.754669   1.000000
    3        5.596241   1.000000
    4        5.852357   1.000000
    5        8.148421   0.110519
    6       11.586811   0.000000
    7       12.582737   0.000000
    8       20.022013   0.000000
    9       22.375388   0.000000
   10       30.256534   0.000000
 
  0.5000000E+00  0.5000000E+00  0.0000000E+00  0.3000000E-02
    1        0.174193   1.000000
    2        1.853095   1.000000
    3        5.647759   1.000000
    4        5.647759   1.000000
    5        9.913723   0.000000
    6       12.023804   0.000000
    7       12.023804   0.000000
    8       18.864432   0.000000
    9       21.801804   0.000000
   10       30.939274   0.000000
 
  0.1000000E+00  0.1000000E+00  0.1000000E+00  0.8000000E-02
    1       -1.390184   1.000000
    2        1.046923   1.000000
    3        1.046923   1.000000
    4        7.167809   1.005255
    5        7.295093   0.978317
    6        7.295093   0.753334
    7       22.259241   0.000000
    8       23.293908   0.000000
    9       23.293908   0.000000
   10       32.230056   0.000000
 
  0.2000000E+00  0.1000000E+00  0.1000000E+00  0.2400000E-01
    1       -0.599235   1.000000
    2        1.219248   1.000000
    3        2.010658   1.000000
    4        6.468754   1.001040
    5        6.469147   1.011813
    6        7.348621   0.789194
    7       19.699223   0.000000
    8       23.802365   0.000000
    9       24.623243   0.000000
   10       30.274619   0.000000
 
  0.3000000E+00  0.1000000E+00  0.1000000E+00  0.2400000E-01
    1        0.262063   1.000000
    2        1.446518   1.000000
    3        3.385939   1.000000
    4        5.574728   1.000000
    5        6.038735   1.000000
    6        7.453160   0.519751
    7       16.755368   0.000000
    8       25.137312   0.000000
    9       25.706155   0.000000
   10       29.203944   0.000000
 
  0.4000000E+00  0.1000000E+00  0.1000000E+00  0.2400000E-01
    1        0.969208   1.000000
    2        1.646591   1.000000
    3        3.742243   1.000000
    4        4.919482   1.000000
    5        7.208591   1.001425
    6        7.546375   0.122829
    7       14.244575   0.000000
    8       25.549352   0.000000
    9       26.518090   0.000000
   10       29.852821   0.000000
 
  0.5000000E+00  0.1000000E+00  0.1000000E+00  0.1200000E-01
    1        1.279073   1.000000
    2        1.728413   1.000000
    3        3.586294   1.000000
    4        4.680033   1.000000
    5        7.568567   0.869195
    6        8.424016   0.000000
    7       12.917496   0.000000
    8       25.297137   0.000000
    9       27.668604   0.000000
   10       28.754019   0.000000
 
  0.2000000E+00  0.2000000E+00  0.1000000E+00  0.2400000E-01
    1        0.164497   1.000000
    2        1.833809   1.000000
    3        2.485195   1.000000
    4        5.715432   1.000000
    5        6.520947   1.000266
    6        6.647829   1.060297
    7       20.803997   0.000000
    8       20.946864   0.000000
    9       25.462221   0.000000
   10       30.640575   0.000000
 
  0.3000000E+00  0.2000000E+00  0.1000000E+00  0.4800000E-01
    1        0.891452   1.000000
    2        2.179192   1.000000
    3        3.432682   1.000000
    4        5.260716   1.000000
    5        6.186528   1.000000
    6        6.734193   0.999808
    7       17.779418   0.000000
    8       22.306722   0.000000
    9       26.497443   0.000000
   10       29.832280   0.000000
 
  0.4000000E+00  0.2000000E+00  0.1000000E+00  0.4800000E-01
    1        1.464035   1.000000
    2        2.373239   1.000000
    3        3.281472   1.000000
    4        4.815575   1.000000
    5        6.798578   1.004673
    6        8.097375   0.025467
    7       14.895568   0.000000
    8       23.876270   0.000000
    9       26.557871   0.000000
   10       28.625842   0.000000
 
  0.5000000E+00  0.2000000E+00  0.1000000E+00  0.2400000E-01
    1        1.728490   1.000000
    2        2.437418   1.000000
    3        3.059547   1.000000
    4        4.593580   1.000000
    5        6.849372   1.005331
    6        9.903005   0.000000
    7       13.008506   0.000000
    8       25.215850   0.000000
    9       26.186467   0.000000
   10       27.076852   0.000000
 
  0.3000000E+00  0.3000000E+00  0.1000000E+00  0.2400000E-01
    1        1.315269   1.000000
    2        2.159774   1.000000
    3        4.612440   1.000000
    4        5.243232   1.000000
    5        6.043060   1.008287
    6        6.756649   0.747293
    7       18.144670   0.000000
    8       20.215231   0.000000
    9       27.157717   0.000000
   10       28.750794   0.000000
 
  0.4000000E+00  0.3000000E+00  0.1000000E+00  0.4800000E-01
    1        1.397496   1.000000
    2        1.982850   1.000000
    3        4.956468   1.000000
    4        5.054235   1.000000
    5        6.258649   1.020537
    6        8.875965  -0.035005
    7       15.544488   0.000000
    8       21.349407   0.000000
    9       25.594350   0.000000
   10       28.393160   0.000000
 
  0.5000000E+00  0.3000000E+00  0.1000000E+00  0.2400000E-01
    1        1.298551   1.000000
    2        2.036555   1.000000
    3        4.754536   1.000000
    4        5.122399   1.000000
    5        6.350269   1.019041
    6       11.306820   0.000000
    7       13.085658   0.000000
    8       23.085216   0.000000
    9       23.536893   0.000000
   10       28.202317   0.000000
 
  0.4000000E+00  0.4000000E+00  0.1000000E+00  0.2400000E-01
    1        0.778992   1.000000
    2        2.190923   1.000000
    3        5.084539   1.000000
    4        5.143680   1.000000
    5        7.781788   0.415076
    6       10.107508  -0.015923
    7       15.103173   0.000000
    8       20.001237   0.000000
    9       23.355568   0.000000
   10       29.378050   0.000000
 
  0.5000000E+00  0.4000000E+00  0.1000000E+00  0.2400000E-01
    1        0.540831   1.000000
    2        2.298324   1.000000
    3        4.915272   1.000000
    4        5.176626   1.000000
    5        8.399159   0.052636
    6       12.407373   0.000000
    7       13.041588   0.000000
    8       20.274387   0.000000
    9       21.996013   0.000000
   10       29.617745   0.000000
 
  0.5000000E+00  0.5000000E+00  0.1000000E+00  0.6000000E-02
    1        0.277771   1.000000
    2        2.406396   1.000000
    3        4.980148   1.000000
    4        4.980148   1.000000
    5        9.931476   0.000000
    6       12.858313   0.000000
    7       12.858313   0.000000
    8       18.893330   0.000000
    9       21.368758   0.000000
   10       30.943580   0.000000
 
  0.2000000E+00  0.2000000E+00  0.2000000E+00  0.8000000E-02
    1        0.988182   1.000000
    2        2.634084   1.000000
    3        2.634084   1.000000
    4        5.729965   1.000000
    5        5.729965   1.000000
    6        6.093715   1.011416
    7       21.404224   0.000000
    8       22.453815   0.000000
    9       22.453815   0.000000
   10       32.778429   0.000000
 
  0.3000000E+00  0.2000000E+00  0.2000000E+00  0.2400000E-01
    1        1.635384   1.000000
    2        2.842601   1.000000
    3        3.525436   1.000000
    4        4.745466   1.000000
    5        5.807242   1.000000
    6        6.625818   0.885977
    7       18.924080   0.000000
    8       22.739549   0.000000
    9       24.234082   0.000000
   10       30.980824   0.000000
 
  0.4000000E+00  0.2000000E+00  0.2000000E+00  0.2400000E-01
    1        2.072879   1.000000
    2        3.074838   1.000000
    3        3.371341   1.000000
    4        3.984011   1.000000
    5        6.071037   1.000710
    6        8.964703  -0.051730
    7       15.778347   0.000000
    8       23.823181   0.000000
    9       25.756914   0.000000
   10       28.724868   0.000000
 
  0.5000000E+00  0.2000000E+00  0.2000000E+00  0.1200000E-01
    1        2.258833   1.000000
    2        3.185065   1.000000
    3        3.252664   1.000000
    4        3.622200   1.000000
    5        6.144760   1.001071
    6       11.413816   0.000000
    7       13.253678   0.000000
    8       24.613400   0.000000
    9       26.462732   0.000000
   10       27.210819   0.000000
 
  0.3000000E+00  0.3000000E+00  0.2000000E+00  0.2400000E-01
    1        1.826850   1.000000
    2        3.075073   1.000000
    3        4.163313   1.000000
    4        4.557862   1.000000
    5        5.619546   1.014856
    6        7.415342   0.383331
    7       19.769507   0.000000
    8       20.640154   0.000000
    9       24.895912   0.000000
   10       28.738605   0.000000
 
  0.4000000E+00  0.3000000E+00  0.2000000E+00  0.4800000E-01
    1        1.631288   1.000000
    2        3.173309   1.000000
    3        3.865668   1.000000
    4        4.454573   1.000000
    5        6.253187   1.011361
    6        9.823473  -0.036464
    7       16.755773   0.000000
    8       21.679789   0.000000
    9       25.423905   0.000000
   10       27.047124   0.000000
 
  0.5000000E+00  0.3000000E+00  0.2000000E+00  0.2400000E-01
    1        1.502017   1.000000
    2        3.424996   1.000000
    3        3.460694   1.000000
    4        4.487999   1.000000
    5        6.417357   0.984303
    6       12.904038   0.000000
    7       13.576055   0.000000
    8       22.600079   0.000000
    9       24.423262   0.000000
   10       27.426795   0.000000
 
  0.4000000E+00  0.4000000E+00  0.2000000E+00  0.2400000E-01
    1        1.041049   1.000000
    2        3.360562   1.000000
    3        3.882801   1.000000
    4        4.204527   1.000000
    5        8.071067   0.264755
    6       11.285523  -0.004996
    7       16.685408   0.000000
    8       20.046527   0.000000
    9       22.963142   0.000000
   10       27.903848   0.000000
 
  0.5000000E+00  0.4000000E+00  0.2000000E+00  0.2400000E-01
    1        0.812917   1.000000
    2        3.602604   1.000000
    3        3.603703   1.000000
    4        4.184308   1.000000
    5        8.711815  -0.001612
    6       14.063144   0.000000
    7       14.109431   0.000000
    8       20.904954   0.000000
    9       20.947918   0.000000
   10       28.619360   0.000000
 
  0.5000000E+00  0.5000000E+00  0.2000000E+00  0.6000000E-02
    1        0.561587   1.000000
    2        3.678205   1.000000
    3        3.678205   1.000000
    4        3.989838   1.000000
    5        9.978162   0.000000
    6       14.633931   0.000000
    7       14.633931   0.000000
    8       18.954599   0.000000
    9       20.195635   0.000000
   10       29.526827   0.000000
 
  0.3000000E+00  0.3000000E+00  0.3000000E+00  0.8000000E-02
    1        1.913925   1.000000
    2        3.370245   1.000000
    3        3.370245   1.000000
    4        5.545055   1.002216
    5        5.545055   1.056534
    6        8.466589  -0.009693
    7       20.791611   0.000000
    8       21.784264   0.000000
    9       21.784264   0.000000
   10       29.180994   0.000000
 
  0.4000000E+00  0.3000000E+00  0.3000000E+00  0.2400000E-01
    1        1.716361   1.000000
    2        2.733145   1.000000
    3        3.295468   1.000000
    4        5.592379   1.008897
    5        6.696245   0.891854
    6       10.855013  -0.011290
    7       18.061586   0.000000
    8       21.068439   0.000000
    9       23.793133   0.000000
   10       27.705501   0.000000
 
  0.5000000E+00  0.3000000E+00  0.3000000E+00  0.1200000E-01
    1        1.589166   1.000000
    2        2.500400   1.000000
    3        3.317135   1.000000
    4        5.619936   1.014182
    5        6.994290   0.711593
    6       14.202482   0.000000
    7       14.517962   0.000000
    8       21.003848   0.000000
    9       25.048443   0.000000
   10       27.120801   0.000000
 
  0.4000000E+00  0.4000000E+00  0.3000000E+00  0.2400000E-01
    1        1.373526   1.000000
    2        2.560782   1.000000
    3        2.734054   1.000000
    4        6.159064   1.003268
    5        8.263535   0.104354
    6       12.534720  -0.000023
    7       18.539548   0.000000
    8       19.406741   0.000000
    9       22.212268   0.000000
   10       27.514240   0.000000
 
  0.5000000E+00  0.4000000E+00  0.3000000E+00  0.2400000E-01
    1        1.170804   1.000000
    2        2.413356   1.000000
    3        2.708437   1.000000
    4        6.242823   0.995720
    5        8.940017  -0.031737
    6       15.179261   0.000000
    7       15.853594   0.000000
    8       19.488632   0.000000
    9       21.591022   0.000000
   10       28.160484   0.000000
 
  0.5000000E+00  0.5000000E+00  0.3000000E+00  0.6000000E-02
    1        0.941836   1.000000
    2        2.483169   1.000000
    3        2.483169   1.000000
    4        6.343014   0.967955
    5       10.036375   0.000000
    6       16.519783   0.000000
    7       16.519783   0.000000
    8       18.739702   0.000000
    9       18.967365   0.000000
   10       28.776242   0.000000
 
  0.4000000E+00  0.4000000E+00  0.4000000E+00  0.8000000E-02
    1        1.535488   1.000000
    2        1.967461   1.000000
    3        1.967461   1.000000
    4        8.380894   0.327042
    5        8.380894   0.002439
    6       14.156051   0.000000
    7       18.507931   0.000000
    8       20.137137   0.000000
    9       20.137137   0.000000
   10       27.797819   0.000000
 
  0.5000000E+00  0.4000000E+00  0.4000000E+00  0.1200000E-01
    1        1.412687   1.000000
    2        1.700576   1.000000
    3        1.954380   1.000000
    4        8.421481   0.184891
    5        9.313669  -0.017388
    6       16.418886   0.000000
    7       17.157467   0.000000
    8       18.366017   0.000000
    9       20.829729   0.000000
   10       27.713701   0.000000
 
  0.5000000E+00  0.5000000E+00  0.4000000E+00  0.6000000E-02
    1        1.278490   1.000000
    2        1.690301   1.000000
    3        1.690301   1.000000
    4        8.850168   0.011616
    5       10.083865   0.000000
    6       17.586160   0.000000
    7       18.013502   0.000000
    8       18.013502   0.000000
    9       18.808152   0.000000
   10       28.490293   0.000000
 
  0.5000000E+00  0.5000000E+00  0.5000000E+00  0.1000000E-02
    1        1.415104   1.000000
    2        1.415104   1.000000
    3        1.415104   1.000000
    4       10.102015   0.000000
    5       10.102015   0.000000
    6       17.151738   0.000000
    7       18.611292   0.000000
    8       18.611292   0.000000
    9       18.611292   0.000000
   10       27.339156   0.000000
