       N       E                     dE             d eps       ncg     rms          rms(c)
DAV:   1     0.641906361604E+02    0.64191E+02   -0.51703E+03  1176   0.952E+02
DAV:   2    -0.437935379723E+01   -0.68570E+02   -0.64687E+02  1144   0.230E+02
DAV:   3    -0.562796134879E+01   -0.12486E+01   -0.12461E+01  1368   0.382E+01
DAV:   4    -0.564049971076E+01   -0.12538E-01   -0.12562E-01  1368   0.358E+00
DAV:   5    -0.564080496717E+01   -0.30526E-03   -0.30671E-03  1350   0.497E-01    0.345E+00
RMM:   6    -0.536495432839E+01    0.27585E+00   -0.27395E-01  1163   0.712E+00    0.113E+00
RMM:   7    -0.533112239814E+01    0.33832E-01   -0.49204E-02  1196   0.223E+00    0.289E-01
RMM:   8    -0.532625988630E+01    0.48625E-02   -0.26468E-03  1225   0.719E-01    0.260E-02
RMM:   9    -0.532629842479E+01   -0.38538E-04   -0.19928E-04  1404   0.183E-01    0.130E-02
RMM:  10    -0.532628240077E+01    0.16024E-04   -0.25149E-05   934   0.535E-02    0.263E-03
RMM:  11    -0.532628533568E+01   -0.29349E-05   -0.40800E-06   693   0.294E-02
   1 F= -.53262853E+01 E0= -.53262853E+01  d E =0.000000E+00
