 vasp.5.4.1 05Feb16 (build Mar 02 2016 14:09:44) complex                        
  
 executed on   Abel-impi-ifc-cuda date 2019.09.20  10:33:03
 running on    4 total cores
 distrk:  each k-point on    4 cores,    1 groups
 distr:  one band on NCORES_PER_BAND=   2 cores,    2 groups


--------------------------------------------------------------------------------------------------------


 INCAR:
 POTCAR:   PAW_PBE Pt 05Jan2001                   
 POTCAR:   PAW_PBE Pt 05Jan2001                   
   VRHFIN =Pt: s1d9                                                             
   LEXCH  = PE                                                                  
   EATOM  =   729.1171 eV,   53.5886 Ry                                         
                                                                                
   TITEL  = PAW_PBE Pt 05Jan2001                                                
   LULTRA =        F    use ultrasoft PP ?                                      
   IUNSCR =        1    unscreen: 0-lin 1-nonlin 2-no                           
   RPACOR =    2.330    partial core radius                                     
   POMASS =  195.080; ZVAL   =   10.000    mass and valenz                      
   RCORE  =    2.500    outmost cutoff radius                                   
   RWIGS  =    2.750; RWIGS  =    1.455    wigner-seitz radius (au A)           
   ENMAX  =  230.283; ENMIN  =  172.712 eV                                      
   RCLOC  =    1.896    cutoff for local pot                                    
   LCOR   =        T    correct aug charges                                     
   LPAW   =        T    paw PP                                                  
   EAUG   =  358.966                                                            
   DEXC   =    -.039                                                            
   RMAX   =    3.038    core radius for proj-oper                               
   RAUG   =    1.300    factor for augmentation sphere                          
   RDEP   =    2.590    radius for radial grids                                 
   QCUT   =   -4.114; QGAM   =    8.228    optimization parameters              
                                                                                
   Description                                                                  
     l     E      TYP  RCUT    TYP  RCUT                                        
     2   .000     23  2.500                                                     
     2   .000     23  2.500                                                     
     0   .000     23  2.500                                                     
     0   .000     23  2.500                                                     
     1  -.200     23  2.500                                                     
     1  1.500     23  2.500                                                     
     3   .000      7   .000                                                     
  local pseudopotential read in
  partial core-charges read in
  atomic valenz-charges read in
  non local Contribution for L=           2  read in
    real space projection operators read in
  non local Contribution for L=           2  read in
    real space projection operators read in
  non local Contribution for L=           0  read in
    real space projection operators read in
  non local Contribution for L=           0  read in
    real space projection operators read in
  non local Contribution for L=           1  read in
    real space projection operators read in
  non local Contribution for L=           1  read in
    real space projection operators read in
    PAW grid and wavefunctions read in
 
   number of l-projection  operators is LMAX  =           6
   number of lm-projection operators is LMMAX =          18
 

 ----------------------------------------------------------------------------- 
|                                                                             |
|  ADVICE TO THIS USER RUNNING 'VASP/VAMP'   (HEAR YOUR MASTER'S VOICE ...):  |
|                                                                             |
|      You have a (more or less) 'small supercell' and for smaller cells      |
|      it is recommended  to use the reciprocal-space projection scheme!      |
|      The real space optimization is not  efficient for small cells and it   |
|      is also less accurate ...                                              |
|      Therefore set LREAL=.FALSE. in the  INCAR file                         |
|                                                                             |
 ----------------------------------------------------------------------------- 

 Optimization of the real space projectors (new method)

 maximal supplied QI-value         = 15.12
 optimisation between [QCUT,QGAM] = [ 11.34, 22.83] = [ 36.00,145.93] Ry 
 Optimized for a Real-space Cutoff    1.43 Angstroem

   l    n(q)    QCUT    max X(q) W(low)/X(q) W(high)/X(q)  e(spline) 
   2      9    11.338     3.643    0.45E-04    0.66E-04    0.77E-07
   2      9    11.338    46.462    0.27E-03    0.14E-02    0.90E-06
   0     10    11.338    13.796    0.12E-04    0.76E-05    0.74E-08
   0     10    11.338    57.669    0.14E-03    0.20E-03    0.14E-06
   1      9    11.338     7.440    0.12E-04    0.48E-04    0.44E-07
   1      9    11.338    10.255    0.14E-03    0.98E-04    0.21E-06
 PAW_PBE Pt 05Jan2001                   :
 energy of atom  1       EATOM= -729.1171
 kinetic energy error for atom=    0.0039 (will be added to EATOM!!)
 
 
 POSCAR: Pt_sc                                   
  positions in direct lattice
  No initial velocities read in
 exchange correlation table for  LEXCH =        8
   RHO(1)=    0.500       N(1)  =     2000
   RHO(2)=  100.500       N(2)  =     4000
 


--------------------------------------------------------------------------------------------------------


 ion  position               nearest neighbor table
   1  0.000  0.000  0.000-
 
  LATTYP: Found a simple cubic cell.
 ALAT       =     2.5000000000
  
  Lattice vectors:
  
 A1 = (   2.5000000000,   0.0000000000,   0.0000000000)
 A2 = (   0.0000000000,   2.5000000000,   0.0000000000)
 A3 = (   0.0000000000,   0.0000000000,   2.5000000000)


Analysis of symmetry for initial positions (statically):
=====================================================================
 Subroutine PRICEL returns:
 Original cell was already a primitive cell.
 

 Routine SETGRP: Setting up the symmetry group for a 
 simple cubic supercell.


 Subroutine GETGRP returns: Found 48 space group operations
 (whereof 48 operations were pure point group operations)
 out of a pool of 48 trial point group operations.


The static configuration has the point symmetry O_h .


Analysis of symmetry for dynamics (positions and initial velocities):
=====================================================================
 Subroutine PRICEL returns:
 Original cell was already a primitive cell.
 

 Routine SETGRP: Setting up the symmetry group for a 
 simple cubic supercell.


 Subroutine GETGRP returns: Found 48 space group operations
 (whereof 48 operations were pure point group operations)
 out of a pool of 48 trial point group operations.


The dynamic configuration has the point symmetry O_h .


 Subroutine INISYM returns: Found 48 space group operations
 (whereof 48 operations are pure point group operations),
 and found     1 'primitive' translations

 
 
 KPOINTS: k-density: 4.0                          

Automatic generation of k-mesh.
Space group operators:
 irot       det(A)        alpha          n_x          n_y          n_z        tau_x        tau_y        tau_z
    1     1.000000     0.000000     1.000000     0.000000     0.000000     0.000000     0.000000     0.000000
    2    -1.000000     0.000000     1.000000     0.000000     0.000000     0.000000     0.000000     0.000000
    3     1.000000   120.000000    -0.577350    -0.577350    -0.577350     0.000000     0.000000     0.000000
    4    -1.000000   120.000000    -0.577350    -0.577350    -0.577350     0.000000     0.000000     0.000000
    5     1.000000   120.000000     0.577350     0.577350     0.577350     0.000000     0.000000     0.000000
    6    -1.000000   120.000000     0.577350     0.577350     0.577350     0.000000     0.000000     0.000000
    7     1.000000    90.000000     0.000000     0.000000    -1.000000     0.000000     0.000000     0.000000
    8    -1.000000    90.000000     0.000000     0.000000    -1.000000     0.000000     0.000000     0.000000
    9     1.000000   180.000000     0.000000     0.707107     0.707107     0.000000     0.000000     0.000000
   10    -1.000000   180.000000     0.000000     0.707107     0.707107     0.000000     0.000000     0.000000
   11     1.000000    90.000000     0.000000     1.000000     0.000000     0.000000     0.000000     0.000000
   12    -1.000000    90.000000     0.000000     1.000000     0.000000     0.000000     0.000000     0.000000
   13     1.000000   180.000000     0.000000     0.000000     1.000000     0.000000     0.000000     0.000000
   14    -1.000000   180.000000     0.000000     0.000000     1.000000     0.000000     0.000000     0.000000
   15     1.000000   120.000000    -0.577350     0.577350     0.577350     0.000000     0.000000     0.000000
   16    -1.000000   120.000000    -0.577350     0.577350     0.577350     0.000000     0.000000     0.000000
   17     1.000000   120.000000    -0.577350     0.577350    -0.577350     0.000000     0.000000     0.000000
   18    -1.000000   120.000000    -0.577350     0.577350    -0.577350     0.000000     0.000000     0.000000
   19     1.000000    90.000000     0.000000     0.000000     1.000000     0.000000     0.000000     0.000000
   20    -1.000000    90.000000     0.000000     0.000000     1.000000     0.000000     0.000000     0.000000
   21     1.000000    90.000000    -1.000000     0.000000     0.000000     0.000000     0.000000     0.000000
   22    -1.000000    90.000000    -1.000000     0.000000     0.000000     0.000000     0.000000     0.000000
   23     1.000000   180.000000     0.707107     0.000000     0.707107     0.000000     0.000000     0.000000
   24    -1.000000   180.000000     0.707107     0.000000     0.707107     0.000000     0.000000     0.000000
   25     1.000000   120.000000     0.577350    -0.577350     0.577350     0.000000     0.000000     0.000000
   26    -1.000000   120.000000     0.577350    -0.577350     0.577350     0.000000     0.000000     0.000000
   27     1.000000   120.000000    -0.577350    -0.577350     0.577350     0.000000     0.000000     0.000000
   28    -1.000000   120.000000    -0.577350    -0.577350     0.577350     0.000000     0.000000     0.000000
   29     1.000000   180.000000     1.000000     0.000000     0.000000     0.000000     0.000000     0.000000
   30    -1.000000   180.000000     1.000000     0.000000     0.000000     0.000000     0.000000     0.000000
   31     1.000000    90.000000     0.000000    -1.000000     0.000000     0.000000     0.000000     0.000000
   32    -1.000000    90.000000     0.000000    -1.000000     0.000000     0.000000     0.000000     0.000000
   33     1.000000   180.000000     0.707107     0.707107     0.000000     0.000000     0.000000     0.000000
   34    -1.000000   180.000000     0.707107     0.707107     0.000000     0.000000     0.000000     0.000000
   35     1.000000    90.000000     1.000000     0.000000     0.000000     0.000000     0.000000     0.000000
   36    -1.000000    90.000000     1.000000     0.000000     0.000000     0.000000     0.000000     0.000000
   37     1.000000   120.000000     0.577350    -0.577350    -0.577350     0.000000     0.000000     0.000000
   38    -1.000000   120.000000     0.577350    -0.577350    -0.577350     0.000000     0.000000     0.000000
   39     1.000000   180.000000     0.000000     1.000000     0.000000     0.000000     0.000000     0.000000
   40    -1.000000   180.000000     0.000000     1.000000     0.000000     0.000000     0.000000     0.000000
   41     1.000000   120.000000     0.577350     0.577350    -0.577350     0.000000     0.000000     0.000000
   42    -1.000000   120.000000     0.577350     0.577350    -0.577350     0.000000     0.000000     0.000000
   43     1.000000   180.000000     0.000000    -0.707107     0.707107     0.000000     0.000000     0.000000
   44    -1.000000   180.000000     0.000000    -0.707107     0.707107     0.000000     0.000000     0.000000
   45     1.000000   180.000000     0.707107    -0.707107     0.000000     0.000000     0.000000     0.000000
   46    -1.000000   180.000000     0.707107    -0.707107     0.000000     0.000000     0.000000     0.000000
   47     1.000000   180.000000     0.707107     0.000000    -0.707107     0.000000     0.000000     0.000000
   48    -1.000000   180.000000     0.707107     0.000000    -0.707107     0.000000     0.000000     0.000000
 
 Subroutine IBZKPT returns following result:
 ===========================================
 
 Found     56 irreducible k-points:
 
 Following reciprocal coordinates:
            Coordinates               Weight
  0.000000  0.000000  0.000000      1.000000
  0.100000  0.000000  0.000000      6.000000
  0.200000  0.000000  0.000000      6.000000
  0.300000  0.000000  0.000000      6.000000
  0.400000  0.000000  0.000000      6.000000
  0.500000  0.000000  0.000000      3.000000
  0.100000  0.100000  0.000000     12.000000
  0.200000  0.100000  0.000000     24.000000
  0.300000  0.100000  0.000000     24.000000
  0.400000  0.100000  0.000000     24.000000
  0.500000  0.100000  0.000000     12.000000
  0.200000  0.200000  0.000000     12.000000
  0.300000  0.200000  0.000000     24.000000
  0.400000  0.200000  0.000000     24.000000
  0.500000  0.200000  0.000000     12.000000
  0.300000  0.300000  0.000000     12.000000
  0.400000  0.300000  0.000000     24.000000
  0.500000  0.300000  0.000000     12.000000
  0.400000  0.400000  0.000000     12.000000
  0.500000  0.400000  0.000000     12.000000
  0.500000  0.500000  0.000000      3.000000
  0.100000  0.100000  0.100000      8.000000
  0.200000  0.100000  0.100000     24.000000
  0.300000  0.100000  0.100000     24.000000
  0.400000  0.100000  0.100000     24.000000
  0.500000  0.100000  0.100000     12.000000
  0.200000  0.200000  0.100000     24.000000
  0.300000  0.200000  0.100000     48.000000
  0.400000  0.200000  0.100000     48.000000
  0.500000  0.200000  0.100000     24.000000
  0.300000  0.300000  0.100000     24.000000
  0.400000  0.300000  0.100000     48.000000
  0.500000  0.300000  0.100000     24.000000
  0.400000  0.400000  0.100000     24.000000
  0.500000  0.400000  0.100000     24.000000
  0.500000  0.500000  0.100000      6.000000
  0.200000  0.200000  0.200000      8.000000
  0.300000  0.200000  0.200000     24.000000
  0.400000  0.200000  0.200000     24.000000
  0.500000  0.200000  0.200000     12.000000
  0.300000  0.300000  0.200000     24.000000
  0.400000  0.300000  0.200000     48.000000
  0.500000  0.300000  0.200000     24.000000
  0.400000  0.400000  0.200000     24.000000
  0.500000  0.400000  0.200000     24.000000
  0.500000  0.500000  0.200000      6.000000
  0.300000  0.300000  0.300000      8.000000
  0.400000  0.300000  0.300000     24.000000
  0.500000  0.300000  0.300000     12.000000
  0.400000  0.400000  0.300000     24.000000
  0.500000  0.400000  0.300000     24.000000
  0.500000  0.500000  0.300000      6.000000
  0.400000  0.400000  0.400000      8.000000
  0.500000  0.400000  0.400000     12.000000
  0.500000  0.500000  0.400000      6.000000
  0.500000  0.500000  0.500000      1.000000
 
 Following cartesian coordinates:
            Coordinates               Weight
  0.000000  0.000000  0.000000      1.000000
  0.100000  0.000000  0.000000      6.000000
  0.200000  0.000000  0.000000      6.000000
  0.300000  0.000000  0.000000      6.000000
  0.400000  0.000000  0.000000      6.000000
  0.500000  0.000000  0.000000      3.000000
  0.100000  0.100000  0.000000     12.000000
  0.200000  0.100000  0.000000     24.000000
  0.300000  0.100000  0.000000     24.000000
  0.400000  0.100000  0.000000     24.000000
  0.500000  0.100000  0.000000     12.000000
  0.200000  0.200000  0.000000     12.000000
  0.300000  0.200000  0.000000     24.000000
  0.400000  0.200000  0.000000     24.000000
  0.500000  0.200000  0.000000     12.000000
  0.300000  0.300000  0.000000     12.000000
  0.400000  0.300000  0.000000     24.000000
  0.500000  0.300000  0.000000     12.000000
  0.400000  0.400000  0.000000     12.000000
  0.500000  0.400000  0.000000     12.000000
  0.500000  0.500000  0.000000      3.000000
  0.100000  0.100000  0.100000      8.000000
  0.200000  0.100000  0.100000     24.000000
  0.300000  0.100000  0.100000     24.000000
  0.400000  0.100000  0.100000     24.000000
  0.500000  0.100000  0.100000     12.000000
  0.200000  0.200000  0.100000     24.000000
  0.300000  0.200000  0.100000     48.000000
  0.400000  0.200000  0.100000     48.000000
  0.500000  0.200000  0.100000     24.000000
  0.300000  0.300000  0.100000     24.000000
  0.400000  0.300000  0.100000     48.000000
  0.500000  0.300000  0.100000     24.000000
  0.400000  0.400000  0.100000     24.000000
  0.500000  0.400000  0.100000     24.000000
  0.500000  0.500000  0.100000      6.000000
  0.200000  0.200000  0.200000      8.000000
  0.300000  0.200000  0.200000     24.000000
  0.400000  0.200000  0.200000     24.000000
  0.500000  0.200000  0.200000     12.000000
  0.300000  0.300000  0.200000     24.000000
  0.400000  0.300000  0.200000     48.000000
  0.500000  0.300000  0.200000     24.000000
  0.400000  0.400000  0.200000     24.000000
  0.500000  0.400000  0.200000     24.000000
  0.500000  0.500000  0.200000      6.000000
  0.300000  0.300000  0.300000      8.000000
  0.400000  0.300000  0.300000     24.000000
  0.500000  0.300000  0.300000     12.000000
  0.400000  0.400000  0.300000     24.000000
  0.500000  0.400000  0.300000     24.000000
  0.500000  0.500000  0.300000      6.000000
  0.400000  0.400000  0.400000      8.000000
  0.500000  0.400000  0.400000     12.000000
  0.500000  0.500000  0.400000      6.000000
  0.500000  0.500000  0.500000      1.000000
 
 TETIRR: Found    492 inequivalent tetrahedra from     6000


--------------------------------------------------------------------------------------------------------




 Dimension of arrays:
   k-points           NKPTS =     56   k-points in BZ     NKDIM =     56   number of bands    NBANDS=     10
   number of dos      NEDOS =    301   number of ions     NIONS =      1
   non local maximal  LDIM  =      6   non local SUM 2l+1 LMDIM =     18
   total plane-waves  NPLWV =   2744
   max r-space proj   IRMAX =   2207   max aug-charges    IRDMAX=  10835
   dimension x,y,z NGX =    14 NGY =   14 NGZ =   14
   dimension x,y,z NGXF=    28 NGYF=   28 NGZF=   28
   support grid    NGXF=    28 NGYF=   28 NGZF=   28
   ions per type =               1
 NGX,Y,Z   is equivalent  to a cutoff of   9.31,  9.31,  9.31 a.u.
 NGXF,Y,Z  is equivalent  to a cutoff of  18.62, 18.62, 18.62 a.u.


 I would recommend the setting:
   dimension x,y,z NGX =    14 NGY =   14 NGZ =   14
 SYSTEM =  unknown system                          
 POSCAR =  Pt_sc                                   

 Startparameter for this run:
   NWRITE =      2    write-flag & timer
   PREC   = normal    normal or accurate (medium, high low for compatibility)
   ISTART =      0    job   : 0-new  1-cont  2-samecut
   ICHARG =      2    charge: 1-file 2-atom 10-const
   ISPIN  =      1    spin polarized calculation?
   LNONCOLLINEAR =      F non collinear calculations
   LSORBIT =      F    spin-orbit coupling
   INIWAV =      1    electr: 0-lowe 1-rand  2-diag
   LASPH  =      F    aspherical Exc in radial PAW
   METAGGA=      F    non-selfconsistent MetaGGA calc.

 Electronic Relaxation 1
   ENCUT  =  500.0 eV  36.75 Ry    6.06 a.u.   4.56  4.56  4.56*2*pi/ulx,y,z
   ENINI  =  500.0     initial cutoff
   ENAUG  =  359.0 eV  augmentation charge cutoff
   NELM   =     60;   NELMIN=  4; NELMDL= -5     # of ELM steps 
   EDIFF  = 0.1E-04   stopping-criterion for ELM
   LREAL  =      T    real-space projection
   NLSPLINE    = F    spline interpolate recip. space projectors
   LCOMPAT=      F    compatible to vasp.4.4
   GGA_COMPAT  = T    GGA compatible to vasp.4.4-vasp.4.6
   LMAXPAW     = -100 max onsite density
   LMAXMIX     =    2 max onsite mixed and CHGCAR
   VOSKOWN=      0    Vosko Wilk Nusair interpolation
   ROPT   =   -0.00050
 Ionic relaxation
   EDIFFG = 0.1E-03   stopping-criterion for IOM
   NSW    =      0    number of steps for IOM
   NBLOCK =      1;   KBLOCK =      1    inner block; outer block 
   IBRION =     -1    ionic relax: 0-MD 1-quasi-New 2-CG
   NFREE  =      0    steps in history (QN), initial steepest desc. (CG)
   ISIF   =      2    stress and relaxation
   IWAVPR =     10    prediction:  0-non 1-charg 2-wave 3-comb
   ISYM   =      2    0-nonsym 1-usesym 2-fastsym
   LCORR  =      T    Harris-Foulkes like correction to forces

   POTIM  = 0.5000    time-step for ionic-motion
   TEIN   =    0.0    initial temperature
   TEBEG  =    0.0;   TEEND  =   0.0 temperature during run
   SMASS  =  -3.00    Nose mass-parameter (am)
   estimated Nose-frequenzy (Omega)   =  0.10E-29 period in steps =****** mass=  -0.143E-27a.u.
   SCALEE = 1.0000    scale energy and forces
   NPACO  =    256;   APACO  = 16.0  distance and # of slots for P.C.
   PSTRESS=    0.0 pullay stress

  Mass of Ions in am
   POMASS = 195.08
  Ionic Valenz
   ZVAL   =  10.00
  Atomic Wigner-Seitz radii
   RWIGS  =  -1.00
  virtual crystal weights 
   VCA    =   1.00
   NELECT =      10.0000    total number of electrons
   NUPDOWN=      -1.0000    fix difference up-down

 DOS related values:
   EMIN   =  10.00;   EMAX   =-10.00  energy-range for DOS
   EFERMI =   0.00
   ISMEAR =    -5;   SIGMA  =   0.20  broadening in eV -4-tet -1-fermi 0-gaus

 Electronic relaxation 2 (details)
   IALGO  =     68    algorithm
   LDIAG  =      T    sub-space diagonalisation (order eigenvalues)
   LSUBROT=      F    optimize rotation matrix (better conditioning)
   TURBO    =      0    0=normal 1=particle mesh
   IRESTART =      0    0=no restart 2=restart with 2 vectors
   NREBOOT  =      0    no. of reboots
   NMIN     =      0    reboot dimension
   EREF     =   0.00    reference energy to select bands
   IMIX   =      4    mixing-type and parameters
     AMIX     =   0.40;   BMIX     =  1.00
     AMIX_MAG =   1.60;   BMIX_MAG =  1.00
     AMIN     =   0.10
     WC   =   100.;   INIMIX=   1;  MIXPRE=   1;  MAXMIX= -45

 Intra band minimization:
   WEIMIN = 0.0000     energy-eigenvalue tresh-hold
   EBREAK =  0.25E-06  absolut break condition
   DEPER  =   0.30     relativ break condition  

   TIME   =   0.40     timestep for ELM

  volume/ion in A,a.u.               =      15.62       105.44
  Fermi-wavevector in a.u.,A,eV,Ry     =   1.410809  2.666042 27.080783  1.990381
  Thomas-Fermi vector in A             =   2.532725
 
 Write flags
   LWAVE  =      F    write WAVECAR
   LCHARG =      T    write CHGCAR
   LVTOT  =      F    write LOCPOT, total local potential
   LVHAR  =      F    write LOCPOT, Hartree potential only
   LELF   =      F    write electronic localiz. function (ELF)
   LORBIT =      0    0 simple, 1 ext, 2 COOP (PROOUT)


 Dipole corrections
   LMONO  =      F    monopole corrections only (constant potential shift)
   LDIPOL =      F    correct potential (dipole corrections)
   IDIPOL =      0    1-x, 2-y, 3-z, 4-all directions 
   EPSILON=  1.0000000 bulk dielectric constant

 Exchange correlation treatment:
   GGA     =    --    GGA type
   LEXCH   =     8    internal setting for exchange type
   VOSKOWN=      0    Vosko Wilk Nusair interpolation
   LHFCALC =     F    Hartree Fock is set to
   LHFONE  =     F    Hartree Fock one center treatment
   AEXX    =    0.0000 exact exchange contribution

 Linear response parameters
   LEPSILON=     F    determine dielectric tensor
   LRPA    =     F    only Hartree local field effects (RPA)
   LNABLA  =     F    use nabla operator in PAW spheres
   LVEL    =     F    velocity operator in full k-point grid
   LINTERFAST=   F  fast interpolation
   KINTER  =     0    interpolate to denser k-point grid
   CSHIFT  =0.1000    complex shift for real part using Kramers Kronig
   OMEGAMAX=  -1.0    maximum frequency
   DEG_THRESHOLD= 0.2000000E-02 threshold for treating states as degnerate
   RTIME   =    0.100 relaxation time in fs

 Orbital magnetization related:
   ORBITALMAG=     F  switch on orbital magnetization
   LCHIMAG   =     F  perturbation theory with respect to B field
   DQ        =  0.001000  dq finite difference perturbation B field



--------------------------------------------------------------------------------------------------------


 Static calculation
 charge density and potential will be updated during run
 non-spin polarized calculation
 RMM-DIIS sequential band-by-band and
  variant of blocked Davidson during initial phase
 perform sub-space diagonalisation
    before iterative eigenvector-optimisation
 modified Broyden-mixing scheme, WC =      100.0
 initial mixing is a Kerker type mixing with AMIX =  0.4000 and BMIX =      1.0000
 Hartree-type preconditioning will be used
 using additional bands            5
 real space projection scheme for non local part
 use partial core corrections
 calculate Harris-corrections to forces 
   (improved forces if not selfconsistent)
 use gradient corrections 
 use of overlap-Matrix (Vanderbilt PP)
 Fermi weights with tetrahedron method with Bloechl corrections


--------------------------------------------------------------------------------------------------------


  energy-cutoff  :      500.00
  volume of cell :       15.62
      direct lattice vectors                 reciprocal lattice vectors
     2.500000000  0.000000000  0.000000000     0.400000000  0.000000000  0.000000000
     0.000000000  2.500000000  0.000000000     0.000000000  0.400000000  0.000000000
     0.000000000  0.000000000  2.500000000     0.000000000  0.000000000  0.400000000

  length of vectors
     2.500000000  2.500000000  2.500000000     0.400000000  0.400000000  0.400000000


 
 k-points in units of 2pi/SCALE and weight: k-density: 4.0                          
   0.00000000  0.00000000  0.00000000       0.001
   0.10000000  0.00000000  0.00000000       0.006
   0.20000000  0.00000000  0.00000000       0.006
   0.30000000  0.00000000  0.00000000       0.006
   0.40000000  0.00000000  0.00000000       0.006
   0.50000000  0.00000000  0.00000000       0.003
   0.10000000  0.10000000  0.00000000       0.012
   0.20000000  0.10000000  0.00000000       0.024
   0.30000000  0.10000000  0.00000000       0.024
   0.40000000  0.10000000  0.00000000       0.024
   0.50000000  0.10000000  0.00000000       0.012
   0.20000000  0.20000000  0.00000000       0.012
   0.30000000  0.20000000  0.00000000       0.024
   0.40000000  0.20000000  0.00000000       0.024
   0.50000000  0.20000000  0.00000000       0.012
   0.30000000  0.30000000  0.00000000       0.012
   0.40000000  0.30000000  0.00000000       0.024
   0.50000000  0.30000000  0.00000000       0.012
   0.40000000  0.40000000  0.00000000       0.012
   0.50000000  0.40000000  0.00000000       0.012
   0.50000000  0.50000000  0.00000000       0.003
   0.10000000  0.10000000  0.10000000       0.008
   0.20000000  0.10000000  0.10000000       0.024
   0.30000000  0.10000000  0.10000000       0.024
   0.40000000  0.10000000  0.10000000       0.024
   0.50000000  0.10000000  0.10000000       0.012
   0.20000000  0.20000000  0.10000000       0.024
   0.30000000  0.20000000  0.10000000       0.048
   0.40000000  0.20000000  0.10000000       0.048
   0.50000000  0.20000000  0.10000000       0.024
   0.30000000  0.30000000  0.10000000       0.024
   0.40000000  0.30000000  0.10000000       0.048
   0.50000000  0.30000000  0.10000000       0.024
   0.40000000  0.40000000  0.10000000       0.024
   0.50000000  0.40000000  0.10000000       0.024
   0.50000000  0.50000000  0.10000000       0.006
   0.20000000  0.20000000  0.20000000       0.008
   0.30000000  0.20000000  0.20000000       0.024
   0.40000000  0.20000000  0.20000000       0.024
   0.50000000  0.20000000  0.20000000       0.012
   0.30000000  0.30000000  0.20000000       0.024
   0.40000000  0.30000000  0.20000000       0.048
   0.50000000  0.30000000  0.20000000       0.024
   0.40000000  0.40000000  0.20000000       0.024
   0.50000000  0.40000000  0.20000000       0.024
   0.50000000  0.50000000  0.20000000       0.006
   0.30000000  0.30000000  0.30000000       0.008
   0.40000000  0.30000000  0.30000000       0.024
   0.50000000  0.30000000  0.30000000       0.012
   0.40000000  0.40000000  0.30000000       0.024
   0.50000000  0.40000000  0.30000000       0.024
   0.50000000  0.50000000  0.30000000       0.006
   0.40000000  0.40000000  0.40000000       0.008
   0.50000000  0.40000000  0.40000000       0.012
   0.50000000  0.50000000  0.40000000       0.006
   0.50000000  0.50000000  0.50000000       0.001
 
 k-points in reciprocal lattice and weights: k-density: 4.0                          
   0.00000000  0.00000000  0.00000000       0.001
   0.10000000  0.00000000  0.00000000       0.006
   0.20000000  0.00000000  0.00000000       0.006
   0.30000000  0.00000000  0.00000000       0.006
   0.40000000  0.00000000  0.00000000       0.006
   0.50000000  0.00000000  0.00000000       0.003
   0.10000000  0.10000000  0.00000000       0.012
   0.20000000  0.10000000  0.00000000       0.024
   0.30000000  0.10000000  0.00000000       0.024
   0.40000000  0.10000000  0.00000000       0.024
   0.50000000  0.10000000  0.00000000       0.012
   0.20000000  0.20000000  0.00000000       0.012
   0.30000000  0.20000000  0.00000000       0.024
   0.40000000  0.20000000  0.00000000       0.024
   0.50000000  0.20000000  0.00000000       0.012
   0.30000000  0.30000000  0.00000000       0.012
   0.40000000  0.30000000  0.00000000       0.024
   0.50000000  0.30000000  0.00000000       0.012
   0.40000000  0.40000000  0.00000000       0.012
   0.50000000  0.40000000  0.00000000       0.012
   0.50000000  0.50000000  0.00000000       0.003
   0.10000000  0.10000000  0.10000000       0.008
   0.20000000  0.10000000  0.10000000       0.024
   0.30000000  0.10000000  0.10000000       0.024
   0.40000000  0.10000000  0.10000000       0.024
   0.50000000  0.10000000  0.10000000       0.012
   0.20000000  0.20000000  0.10000000       0.024
   0.30000000  0.20000000  0.10000000       0.048
   0.40000000  0.20000000  0.10000000       0.048
   0.50000000  0.20000000  0.10000000       0.024
   0.30000000  0.30000000  0.10000000       0.024
   0.40000000  0.30000000  0.10000000       0.048
   0.50000000  0.30000000  0.10000000       0.024
   0.40000000  0.40000000  0.10000000       0.024
   0.50000000  0.40000000  0.10000000       0.024
   0.50000000  0.50000000  0.10000000       0.006
   0.20000000  0.20000000  0.20000000       0.008
   0.30000000  0.20000000  0.20000000       0.024
   0.40000000  0.20000000  0.20000000       0.024
   0.50000000  0.20000000  0.20000000       0.012
   0.30000000  0.30000000  0.20000000       0.024
   0.40000000  0.30000000  0.20000000       0.048
   0.50000000  0.30000000  0.20000000       0.024
   0.40000000  0.40000000  0.20000000       0.024
   0.50000000  0.40000000  0.20000000       0.024
   0.50000000  0.50000000  0.20000000       0.006
   0.30000000  0.30000000  0.30000000       0.008
   0.40000000  0.30000000  0.30000000       0.024
   0.50000000  0.30000000  0.30000000       0.012
   0.40000000  0.40000000  0.30000000       0.024
   0.50000000  0.40000000  0.30000000       0.024
   0.50000000  0.50000000  0.30000000       0.006
   0.40000000  0.40000000  0.40000000       0.008
   0.50000000  0.40000000  0.40000000       0.012
   0.50000000  0.50000000  0.40000000       0.006
   0.50000000  0.50000000  0.50000000       0.001
 
 position of ions in fractional coordinates (direct lattice) 
   0.00000000  0.00000000  0.00000000
 
 position of ions in cartesian coordinates  (Angst):
   0.00000000  0.00000000  0.00000000
 


--------------------------------------------------------------------------------------------------------


 k-point  1 :   0.0000 0.0000 0.0000  plane waves:     389
 k-point  2 :   0.1000 0.0000 0.0000  plane waves:     401
 k-point  3 :   0.2000 0.0000 0.0000  plane waves:     405
 k-point  4 :   0.3000 0.0000 0.0000  plane waves:     405
 k-point  5 :   0.4000 0.0000 0.0000  plane waves:     405
 k-point  6 :   0.5000 0.0000 0.0000  plane waves:     402
 k-point  7 :   0.1000 0.1000 0.0000  plane waves:     403
 k-point  8 :   0.2000 0.1000 0.0000  plane waves:     404
 k-point  9 :   0.3000 0.1000 0.0000  plane waves:     404
 k-point 10 :   0.4000 0.1000 0.0000  plane waves:     400
 k-point 11 :   0.5000 0.1000 0.0000  plane waves:     396
 k-point 12 :   0.2000 0.2000 0.0000  plane waves:     405
 k-point 13 :   0.3000 0.2000 0.0000  plane waves:     397
 k-point 14 :   0.4000 0.2000 0.0000  plane waves:     394
 k-point 15 :   0.5000 0.2000 0.0000  plane waves:     390
 k-point 16 :   0.3000 0.3000 0.0000  plane waves:     400
 k-point 17 :   0.4000 0.3000 0.0000  plane waves:     393
 k-point 18 :   0.5000 0.3000 0.0000  plane waves:     392
 k-point 19 :   0.4000 0.4000 0.0000  plane waves:     396
 k-point 20 :   0.5000 0.4000 0.0000  plane waves:     386
 k-point 21 :   0.5000 0.5000 0.0000  plane waves:     388
 k-point 22 :   0.1000 0.1000 0.1000  plane waves:     404
 k-point 23 :   0.2000 0.1000 0.1000  plane waves:     402
 k-point 24 :   0.3000 0.1000 0.1000  plane waves:     402
 k-point 25 :   0.4000 0.1000 0.1000  plane waves:     394
 k-point 26 :   0.5000 0.1000 0.1000  plane waves:     398
 k-point 27 :   0.2000 0.2000 0.1000  plane waves:     405
 k-point 28 :   0.3000 0.2000 0.1000  plane waves:     403
 k-point 29 :   0.4000 0.2000 0.1000  plane waves:     395
 k-point 30 :   0.5000 0.2000 0.1000  plane waves:     396
 k-point 31 :   0.3000 0.3000 0.1000  plane waves:     396
 k-point 32 :   0.4000 0.3000 0.1000  plane waves:     396
 k-point 33 :   0.5000 0.3000 0.1000  plane waves:     400
 k-point 34 :   0.4000 0.4000 0.1000  plane waves:     390
 k-point 35 :   0.5000 0.4000 0.1000  plane waves:     388
 k-point 36 :   0.5000 0.5000 0.1000  plane waves:     384
 k-point 37 :   0.2000 0.2000 0.2000  plane waves:     401
 k-point 38 :   0.3000 0.2000 0.2000  plane waves:     400
 k-point 39 :   0.4000 0.2000 0.2000  plane waves:     389
 k-point 40 :   0.5000 0.2000 0.2000  plane waves:     398
 k-point 41 :   0.3000 0.3000 0.2000  plane waves:     395
 k-point 42 :   0.4000 0.3000 0.2000  plane waves:     393
 k-point 43 :   0.5000 0.3000 0.2000  plane waves:     388
 k-point 44 :   0.4000 0.4000 0.2000  plane waves:     395
 k-point 45 :   0.5000 0.4000 0.2000  plane waves:     394
 k-point 46 :   0.5000 0.5000 0.2000  plane waves:     396
 k-point 47 :   0.3000 0.3000 0.3000  plane waves:     395
 k-point 48 :   0.4000 0.3000 0.3000  plane waves:     395
 k-point 49 :   0.5000 0.3000 0.3000  plane waves:     392
 k-point 50 :   0.4000 0.4000 0.3000  plane waves:     393
 k-point 51 :   0.5000 0.4000 0.3000  plane waves:     398
 k-point 52 :   0.5000 0.5000 0.3000  plane waves:     396
 k-point 53 :   0.4000 0.4000 0.4000  plane waves:     396
 k-point 54 :   0.5000 0.4000 0.4000  plane waves:     398
 k-point 55 :   0.5000 0.5000 0.4000  plane waves:     396
 k-point 56 :   0.5000 0.5000 0.5000  plane waves:     432

 maximum and minimum number of plane-waves per node :       216      188

 maximum number of plane-waves:       432
 maximum index in each direction: 
   IXMAX=    4   IYMAX=    4   IZMAX=    4
   IXMIN=   -5   IYMIN=   -5   IZMIN=   -5

 WARNING: aliasing errors must be expected set NGX to  20 to avoid them
 WARNING: aliasing errors must be expected set NGY to  20 to avoid them
 WARNING: aliasing errors must be expected set NGZ to  20 to avoid them
 aliasing errors are usually negligible using standard VASP settings
 and one can safely disregard these warnings

 real space projection operators:
  total allocation   :        295.73 KBytes
  max/ min on nodes  :        150.75        144.98


 parallel 3D FFT for wavefunctions:
    minimum data exchange during FFTs selected (reduces bandwidth)
 parallel 3D FFT for charge:
    minimum data exchange during FFTs selected (reduces bandwidth)


 total amount of memory used by VASP on root node    31845. kBytes
========================================================================

   base      :      30000. kBytes
   nonlr-proj:        215. kBytes
   fftplans  :        235. kBytes
   grid      :        332. kBytes
   one-center:         15. kBytes
   wavefun   :       1048. kBytes
 
     INWAV:  cpu time    0.0000: real time    0.0000
 Broyden mixing: mesh for mixing (old mesh)
   NGX =  9   NGY =  9   NGZ =  9
  (NGX  = 28   NGY  = 28   NGZ  = 28)
  gives a total of    729 points

 initial charge density was supplied:
 charge density of overlapping atoms calculated
 number of electron      10.0000000 magnetization 
 keeping initial charge density in first step


--------------------------------------------------------------------------------------------------------


 Maximum index for non-local projection operator         1031
 Maximum index for augmentation-charges         2599 (set IRDMAX)


--------------------------------------------------------------------------------------------------------


 First call to EWALD:  gamma=   0.709
 Maximum number of real-space cells 3x 3x 3
 Maximum number of reciprocal cells 3x 3x 3

 FEWALD executed in parallel
    FEWALD:  cpu time    0.0020: real time    0.0015


----------------------------------------- Iteration    1(   1)  ---------------------------------------


    POTLOK:  cpu time    0.0040: real time    0.0036
    SETDIJ:  cpu time    0.0030: real time    0.0037
     EDDAV:  cpu time    0.1660: real time    0.1686
 BZINTS: Fermi energy: 20.861142; 10.000000 electrons
         Band energy: 112.646543;  BLOECHL correction: -0.972611
       DOS:  cpu time    0.0120: real time    0.0119
    --------------------------------------------
      LOOP:  cpu time    0.1870: real time    0.2017

 eigenvalue-minimisations  :  1176
 total energy-change (2. order) : 0.6419064E+02  (-0.5170299E+03)
 number of electron      10.0000000 magnetization 
 augmentation part       10.0000000 magnetization 

 Free energy of the ion-electron system (eV)
  ---------------------------------------------------
  alpha Z        PSCENC =        93.11697920
  Ewald energy   TEWEN  =      -817.12960021
  -Hartree energ DENC   =       -85.73147341
  -exchange      EXHF   =         0.00000000
  -V(xc)+E(xc)   XCENC  =         3.89164828
  PAW double counting   =       573.24549325     -544.96212058
  entropy T*S    EENTRO =         0.00000000
  eigenvalues    EBANDS =       112.64654282
  atomic energy  EATOM  =       729.11316681
  Solvation  Ediel_sol  =         0.00000000
  ---------------------------------------------------
  free energy    TOTEN  =        64.19063616 eV

  energy without entropy =       64.19063616  energy(sigma->0) =       64.19063616


--------------------------------------------------------------------------------------------------------




----------------------------------------- Iteration    1(   2)  ---------------------------------------


     EDDAV:  cpu time    0.1600: real time    0.1607
 BZINTS: Fermi energy:  8.372296; 10.000000 electrons
         Band energy:  44.076553;  BLOECHL correction: -0.177628
       DOS:  cpu time    0.0120: real time    0.0112
    --------------------------------------------
      LOOP:  cpu time    0.1730: real time    0.1759

 eigenvalue-minimisations  :  1144
 total energy-change (2. order) :-0.6856999E+02  (-0.6468729E+02)
 number of electron      10.0000000 magnetization 
 augmentation part       10.0000000 magnetization 

 Free energy of the ion-electron system (eV)
  ---------------------------------------------------
  alpha Z        PSCENC =        93.11697920
  Ewald energy   TEWEN  =      -817.12960021
  -Hartree energ DENC   =       -85.73147341
  -exchange      EXHF   =         0.00000000
  -V(xc)+E(xc)   XCENC  =         3.89164828
  PAW double counting   =       573.24549325     -544.96212058
  entropy T*S    EENTRO =         0.00000000
  eigenvalues    EBANDS =        44.07655286
  atomic energy  EATOM  =       729.11316681
  Solvation  Ediel_sol  =         0.00000000
  ---------------------------------------------------
  free energy    TOTEN  =        -4.37935380 eV

  energy without entropy =       -4.37935380  energy(sigma->0) =       -4.37935380


--------------------------------------------------------------------------------------------------------




----------------------------------------- Iteration    1(   3)  ---------------------------------------


     EDDAV:  cpu time    0.1880: real time    0.1891
 BZINTS: Fermi energy:  8.200454; 10.000000 electrons
         Band energy:  42.827945;  BLOECHL correction: -0.177505
       DOS:  cpu time    0.0100: real time    0.0096
    --------------------------------------------
      LOOP:  cpu time    0.1990: real time    0.2032

 eigenvalue-minimisations  :  1368
 total energy-change (2. order) :-0.1248608E+01  (-0.1246148E+01)
 number of electron      10.0000000 magnetization 
 augmentation part       10.0000000 magnetization 

 Free energy of the ion-electron system (eV)
  ---------------------------------------------------
  alpha Z        PSCENC =        93.11697920
  Ewald energy   TEWEN  =      -817.12960021
  -Hartree energ DENC   =       -85.73147341
  -exchange      EXHF   =         0.00000000
  -V(xc)+E(xc)   XCENC  =         3.89164828
  PAW double counting   =       573.24549325     -544.96212058
  entropy T*S    EENTRO =         0.00000000
  eigenvalues    EBANDS =        42.82794531
  atomic energy  EATOM  =       729.11316681
  Solvation  Ediel_sol  =         0.00000000
  ---------------------------------------------------
  free energy    TOTEN  =        -5.62796135 eV

  energy without entropy =       -5.62796135  energy(sigma->0) =       -5.62796135


--------------------------------------------------------------------------------------------------------




----------------------------------------- Iteration    1(   4)  ---------------------------------------


     EDDAV:  cpu time    0.1870: real time    0.1879
 BZINTS: Fermi energy:  8.198415; 10.000000 electrons
         Band energy:  42.815407;  BLOECHL correction: -0.177465
       DOS:  cpu time    0.0110: real time    0.0111
    --------------------------------------------
      LOOP:  cpu time    0.1990: real time    0.2031

 eigenvalue-minimisations  :  1368
 total energy-change (2. order) :-0.1253836E-01  (-0.1256196E-01)
 number of electron      10.0000000 magnetization 
 augmentation part       10.0000000 magnetization 

 Free energy of the ion-electron system (eV)
  ---------------------------------------------------
  alpha Z        PSCENC =        93.11697920
  Ewald energy   TEWEN  =      -817.12960021
  -Hartree energ DENC   =       -85.73147341
  -exchange      EXHF   =         0.00000000
  -V(xc)+E(xc)   XCENC  =         3.89164828
  PAW double counting   =       573.24549325     -544.96212058
  entropy T*S    EENTRO =         0.00000000
  eigenvalues    EBANDS =        42.81540695
  atomic energy  EATOM  =       729.11316681
  Solvation  Ediel_sol  =         0.00000000
  ---------------------------------------------------
  free energy    TOTEN  =        -5.64049971 eV

  energy without entropy =       -5.64049971  energy(sigma->0) =       -5.64049971


--------------------------------------------------------------------------------------------------------




----------------------------------------- Iteration    1(   5)  ---------------------------------------


     EDDAV:  cpu time    0.1860: real time    0.1855
 BZINTS: Fermi energy:  8.198347; 10.000000 electrons
         Band energy:  42.815102;  BLOECHL correction: -0.177463
       DOS:  cpu time    0.0110: real time    0.0111
    CHARGE:  cpu time    0.0060: real time    0.0061
    MIXING:  cpu time    0.0000: real time    0.0011
    --------------------------------------------
      LOOP:  cpu time    0.2040: real time    0.2082

 eigenvalue-minimisations  :  1350
 total energy-change (2. order) :-0.3052564E-03  (-0.3067066E-03)
 number of electron      10.0000006 magnetization 
 augmentation part        2.9179805 magnetization 

 Broyden mixing:
  rms(total) = 0.34463E+00    rms(broyden)= 0.34463E+00
  rms(prec ) = 0.12411E+01
  weight for this iteration     100.00

 Free energy of the ion-electron system (eV)
  ---------------------------------------------------
  alpha Z        PSCENC =        93.11697920
  Ewald energy   TEWEN  =      -817.12960021
  -Hartree energ DENC   =       -85.73147341
  -exchange      EXHF   =         0.00000000
  -V(xc)+E(xc)   XCENC  =         3.89164828
  PAW double counting   =       573.24549325     -544.96212058
  entropy T*S    EENTRO =         0.00000000
  eigenvalues    EBANDS =        42.81510169
  atomic energy  EATOM  =       729.11316681
  Solvation  Ediel_sol  =         0.00000000
  ---------------------------------------------------
  free energy    TOTEN  =        -5.64080497 eV

  energy without entropy =       -5.64080497  energy(sigma->0) =       -5.64080497


--------------------------------------------------------------------------------------------------------




----------------------------------------- Iteration    1(   6)  ---------------------------------------


    POTLOK:  cpu time    0.0030: real time    0.0031
    SETDIJ:  cpu time    0.0030: real time    0.0024
    EDDIAG:  cpu time    0.0220: real time    0.0234
  RMM-DIIS:  cpu time    0.0990: real time    0.0987
    ORTHCH:  cpu time    0.0040: real time    0.0034
 BZINTS: Fermi energy:  7.641116; 10.000000 electrons
         Band energy:  38.462942;  BLOECHL correction: -0.168345
       DOS:  cpu time    0.0110: real time    0.0111
    CHARGE:  cpu time    0.0060: real time    0.0060
    MIXING:  cpu time    0.0000: real time    0.0004
    --------------------------------------------
      LOOP:  cpu time    0.1490: real time    0.1683

 eigenvalue-minimisations  :  1163
 total energy-change (2. order) : 0.2758506E+00  (-0.2739485E-01)
 number of electron      10.0000006 magnetization 
 augmentation part        3.0416633 magnetization 

 Broyden mixing:
  rms(total) = 0.11274E+00    rms(broyden)= 0.11274E+00
  rms(prec ) = 0.37795E+00
  weight for this iteration     100.00

 eigenvalues of (default mixing * dielectric matrix)
  average eigenvalue GAMMA=   1.4306
  1.4306

 Free energy of the ion-electron system (eV)
  ---------------------------------------------------
  alpha Z        PSCENC =        93.11697920
  Ewald energy   TEWEN  =      -817.12960021
  -Hartree energ DENC   =       -79.32449487
  -exchange      EXHF   =         0.00000000
  -V(xc)+E(xc)   XCENC  =         3.67684778
  PAW double counting   =       589.22801469     -562.50880957
  entropy T*S    EENTRO =         0.00000000
  eigenvalues    EBANDS =        38.46294186
  atomic energy  EATOM  =       729.11316681
  Solvation  Ediel_sol  =         0.00000000
  ---------------------------------------------------
  free energy    TOTEN  =        -5.36495433 eV

  energy without entropy =       -5.36495433  energy(sigma->0) =       -5.36495433


--------------------------------------------------------------------------------------------------------




----------------------------------------- Iteration    1(   7)  ---------------------------------------


    POTLOK:  cpu time    0.0030: real time    0.0031
    SETDIJ:  cpu time    0.0030: real time    0.0025
    EDDIAG:  cpu time    0.0220: real time    0.0229
  RMM-DIIS:  cpu time    0.1040: real time    0.1035
    ORTHCH:  cpu time    0.0030: real time    0.0033
 BZINTS: Fermi energy:  7.453049; 10.000000 electrons
         Band energy:  36.998102;  BLOECHL correction: -0.167833
       DOS:  cpu time    0.0110: real time    0.0107
    CHARGE:  cpu time    0.0060: real time    0.0057
    MIXING:  cpu time    0.0000: real time    0.0002
    --------------------------------------------
      LOOP:  cpu time    0.1530: real time    0.2146

 eigenvalue-minimisations  :  1196
 total energy-change (2. order) : 0.3383193E-01  (-0.4920396E-02)
 number of electron      10.0000006 magnetization 
 augmentation part        3.0809680 magnetization 

 Broyden mixing:
  rms(total) = 0.28916E-01    rms(broyden)= 0.28915E-01
  rms(prec ) = 0.58973E-01
  weight for this iteration     100.00

 eigenvalues of (default mixing * dielectric matrix)
  average eigenvalue GAMMA=   1.9083
  1.2884  2.5282

 Free energy of the ion-electron system (eV)
  ---------------------------------------------------
  alpha Z        PSCENC =        93.11697920
  Ewald energy   TEWEN  =      -817.12960021
  -Hartree energ DENC   =       -76.71407065
  -exchange      EXHF   =         0.00000000
  -V(xc)+E(xc)   XCENC  =         3.59583864
  PAW double counting   =       609.02278495     -583.33432272
  entropy T*S    EENTRO =         0.00000000
  eigenvalues    EBANDS =        36.99810158
  atomic energy  EATOM  =       729.11316681
  Solvation  Ediel_sol  =         0.00000000
  ---------------------------------------------------
  free energy    TOTEN  =        -5.33112240 eV

  energy without entropy =       -5.33112240  energy(sigma->0) =       -5.33112240


--------------------------------------------------------------------------------------------------------




----------------------------------------- Iteration    1(   8)  ---------------------------------------


    POTLOK:  cpu time    0.0020: real time    0.0031
    SETDIJ:  cpu time    0.0030: real time    0.0023
    EDDIAG:  cpu time    0.0230: real time    0.0228
  RMM-DIIS:  cpu time    0.1090: real time    0.1088
    ORTHCH:  cpu time    0.0030: real time    0.0033
 BZINTS: Fermi energy:  7.469504; 10.000000 electrons
         Band energy:  37.128591;  BLOECHL correction: -0.168332
       DOS:  cpu time    0.0110: real time    0.0110
    CHARGE:  cpu time    0.0060: real time    0.0057
    MIXING:  cpu time    0.0000: real time    0.0003
    --------------------------------------------
      LOOP:  cpu time    0.1580: real time    0.1801

 eigenvalue-minimisations  :  1225
 total energy-change (2. order) : 0.4862512E-02  (-0.2646808E-03)
 number of electron      10.0000006 magnetization 
 augmentation part        3.0806516 magnetization 

 Broyden mixing:
  rms(total) = 0.26008E-02    rms(broyden)= 0.26003E-02
  rms(prec ) = 0.95069E-02
  weight for this iteration     100.00

 eigenvalues of (default mixing * dielectric matrix)
  average eigenvalue GAMMA=   1.7962
  1.2281  1.6078  2.5528

 Free energy of the ion-electron system (eV)
  ---------------------------------------------------
  alpha Z        PSCENC =        93.11697920
  Ewald energy   TEWEN  =      -817.12960021
  -Hartree energ DENC   =       -76.16559139
  -exchange      EXHF   =         0.00000000
  -V(xc)+E(xc)   XCENC  =         3.58330912
  PAW double counting   =       628.10585640     -603.07897113
  entropy T*S    EENTRO =         0.00000000
  eigenvalues    EBANDS =        37.12859132
  atomic energy  EATOM  =       729.11316681
  Solvation  Ediel_sol  =         0.00000000
  ---------------------------------------------------
  free energy    TOTEN  =        -5.32625989 eV

  energy without entropy =       -5.32625989  energy(sigma->0) =       -5.32625989


--------------------------------------------------------------------------------------------------------




----------------------------------------- Iteration    1(   9)  ---------------------------------------


    POTLOK:  cpu time    0.0020: real time    0.0031
    SETDIJ:  cpu time    0.0030: real time    0.0023
    EDDIAG:  cpu time    0.0220: real time    0.0228
  RMM-DIIS:  cpu time    0.1220: real time    0.1212
    ORTHCH:  cpu time    0.0030: real time    0.0033
 BZINTS: Fermi energy:  7.476821; 10.000000 electrons
         Band energy:  37.187071;  BLOECHL correction: -0.168336
       DOS:  cpu time    0.0110: real time    0.0107
    CHARGE:  cpu time    0.0050: real time    0.0057
    MIXING:  cpu time    0.0010: real time    0.0002
    --------------------------------------------
      LOOP:  cpu time    0.1700: real time    0.1756

 eigenvalue-minimisations  :  1404
 total energy-change (2. order) :-0.3853849E-04  (-0.1992846E-04)
 number of electron      10.0000006 magnetization 
 augmentation part        3.0793227 magnetization 

 Broyden mixing:
  rms(total) = 0.12978E-02    rms(broyden)= 0.12977E-02
  rms(prec ) = 0.21730E-02
  weight for this iteration     100.00

 eigenvalues of (default mixing * dielectric matrix)
  average eigenvalue GAMMA=   1.9993
  0.9953  1.3342  3.1166  2.5511

 Free energy of the ion-electron system (eV)
  ---------------------------------------------------
  alpha Z        PSCENC =        93.11697920
  Ewald energy   TEWEN  =      -817.12960021
  -Hartree energ DENC   =       -76.23558279
  -exchange      EXHF   =         0.00000000
  -V(xc)+E(xc)   XCENC  =         3.58596941
  PAW double counting   =       628.91617148     -603.88047372
  entropy T*S    EENTRO =         0.00000000
  eigenvalues    EBANDS =        37.18707140
  atomic energy  EATOM  =       729.11316681
  Solvation  Ediel_sol  =         0.00000000
  ---------------------------------------------------
  free energy    TOTEN  =        -5.32629842 eV

  energy without entropy =       -5.32629842  energy(sigma->0) =       -5.32629842


--------------------------------------------------------------------------------------------------------




----------------------------------------- Iteration    1(  10)  ---------------------------------------


    POTLOK:  cpu time    0.0020: real time    0.0031
    SETDIJ:  cpu time    0.0030: real time    0.0023
    EDDIAG:  cpu time    0.0230: real time    0.0227
  RMM-DIIS:  cpu time    0.0870: real time    0.0869
    ORTHCH:  cpu time    0.0030: real time    0.0033
 BZINTS: Fermi energy:  7.475671; 10.000000 electrons
         Band energy:  37.179806;  BLOECHL correction: -0.168330
       DOS:  cpu time    0.0110: real time    0.0110
    CHARGE:  cpu time    0.0050: real time    0.0057
    MIXING:  cpu time    0.0010: real time    0.0002
    --------------------------------------------
      LOOP:  cpu time    0.1360: real time    0.1450

 eigenvalue-minimisations  :   934
 total energy-change (2. order) : 0.1602403E-04  (-0.2514918E-05)
 number of electron      10.0000006 magnetization 
 augmentation part        3.0797324 magnetization 

 Broyden mixing:
  rms(total) = 0.26254E-03    rms(broyden)= 0.26248E-03
  rms(prec ) = 0.53343E-03
  weight for this iteration     100.00

 eigenvalues of (default mixing * dielectric matrix)
  average eigenvalue GAMMA=   1.7499
  2.6340  0.9760  1.3321  1.9036  1.9036

 Free energy of the ion-electron system (eV)
  ---------------------------------------------------
  alpha Z        PSCENC =        93.11697920
  Ewald energy   TEWEN  =      -817.12960021
  -Hartree energ DENC   =       -76.26027168
  -exchange      EXHF   =         0.00000000
  -V(xc)+E(xc)   XCENC  =         3.58701333
  PAW double counting   =       628.98699494     -603.92037064
  entropy T*S    EENTRO =         0.00000000
  eigenvalues    EBANDS =        37.17980586
  atomic energy  EATOM  =       729.11316681
  Solvation  Ediel_sol  =         0.00000000
  ---------------------------------------------------
  free energy    TOTEN  =        -5.32628240 eV

  energy without entropy =       -5.32628240  energy(sigma->0) =       -5.32628240


--------------------------------------------------------------------------------------------------------




----------------------------------------- Iteration    1(  11)  ---------------------------------------


    POTLOK:  cpu time    0.0020: real time    0.0031
    SETDIJ:  cpu time    0.0040: real time    0.0023
    EDDIAG:  cpu time    0.0220: real time    0.0227
  RMM-DIIS:  cpu time    0.0710: real time    0.0706
    ORTHCH:  cpu time    0.0020: real time    0.0033
 BZINTS: Fermi energy:  7.475670; 10.000000 electrons
         Band energy:  37.179381;  BLOECHL correction: -0.168330
       DOS:  cpu time    0.0110: real time    0.0107
    --------------------------------------------
      LOOP:  cpu time    0.1130: real time    0.1294

 eigenvalue-minimisations  :   693
 total energy-change (2. order) :-0.2934919E-05  (-0.4079979E-06)
 number of electron      10.0000006 magnetization 
 augmentation part        3.0797324 magnetization 

 Free energy of the ion-electron system (eV)
  ---------------------------------------------------
  alpha Z        PSCENC =        93.11697920
  Ewald energy   TEWEN  =      -817.12960021
  -Hartree energ DENC   =       -76.25303932
  -exchange      EXHF   =         0.00000000
  -V(xc)+E(xc)   XCENC  =         3.58672987
  PAW double counting   =       628.94751101     -603.88741386
  entropy T*S    EENTRO =         0.00000000
  eigenvalues    EBANDS =        37.17938117
  atomic energy  EATOM  =       729.11316681
  Solvation  Ediel_sol  =         0.00000000
  ---------------------------------------------------
  free energy    TOTEN  =        -5.32628534 eV

  energy without entropy =       -5.32628534  energy(sigma->0) =       -5.32628534


--------------------------------------------------------------------------------------------------------




 average (electrostatic) potential at core
  the test charge radii are     1.2059
  (the norm of the test charge is              1.0000)
       1 -49.3799
 
 
 
 E-fermi :   7.4757     XC(G=0): -13.1178     alpha+bet :-12.7951


 k-point     1 :       0.0000    0.0000    0.0000
  band No.  band energies     occupation 
      1      -2.3588      2.00000
      2       0.4857      2.00000
      3       0.4857      2.00000
      4       7.8864     -0.41114
      5       7.8864     -0.27735
      6       7.8864     -0.04790
      7      23.8014      0.00000
      8      23.8014      0.00000
      9      23.8014      0.00000
     10      29.9745      0.00000

 k-point     2 :       0.1000    0.0000    0.0000
  band No.  band energies     occupation 
      1      -2.0428      2.00000
      2       0.5497      2.00000
      3       0.8045      2.00000
      4       7.5613      1.40606
      5       7.5613      0.77158
      6       7.9119     -0.11377
      7      21.8737      0.00000
      8      24.3860      0.00000
      9      24.3860      0.00000
     10      30.9643      0.00000

 k-point     3 :       0.2000    0.0000    0.0000
  band No.  band energies     occupation 
      1      -1.2690      2.00000
      2       0.7217      2.00000
      3       1.8177      2.00000
      4       6.7896      2.00646
      5       6.7896      2.08093
      6       7.9794     -0.14951
      7      18.7402      0.00000
      8      25.8982      0.00000
      9      25.8982      0.00000
     10      28.6673      0.00000

 k-point     4 :       0.3000    0.0000    0.0000
  band No.  band energies     occupation 
      1      -0.4022      2.00000
      2       0.9434      2.00000
      3       3.5037      2.00000
      4       5.9547      2.00000
      5       5.9547      2.00000
      6       8.0640     -0.05709
      7      15.8993      0.00000
      8      26.5825      0.00000
      9      27.8492      0.00000
     10      27.8492      0.00000

 k-point     5 :       0.4000    0.0000    0.0000
  band No.  band energies     occupation 
      1       0.2759      2.00000
      2       1.1308      2.00000
      3       5.3501      2.00000
      4       5.3501      2.00000
      5       5.3688      2.03211
      6       8.1333     -0.00220
      7      13.7588      0.00000
      8      25.2260      0.00000
      9      29.5232      0.00000
     10      29.7196      0.00000

 k-point     6 :       0.5000    0.0000    0.0000
  band No.  band energies     occupation 
      1       0.5414      2.00000
      2       1.2045      2.00000
      3       5.1327      2.00000
      4       5.1327      2.00000
      5       6.2931      2.12273
      6       8.1600      0.00000
      7      12.8616      0.00000
      8      24.7560      0.00000
      9      28.7188      0.00000
     10      30.6343      0.00000

 k-point     7 :       0.1000    0.1000    0.0000
  band No.  band energies     occupation 
      1      -1.7214      2.00000
      2       0.7466      2.00000
      3       0.9833      2.00000
      4       7.2185      2.01008
      5       7.5375      1.31830
      6       7.6444      0.17597
      7      22.0898      0.00000
      8      22.7353      0.00000
      9      24.9750      0.00000
     10      30.6803      0.00000

 k-point     8 :       0.2000    0.1000    0.0000
  band No.  band energies     occupation 
      1      -0.9453      2.00000
      2       0.9765      2.00000
      3       1.9208      2.00000
      4       6.4303      2.00311
      5       6.8194      2.05045
      6       7.6761      0.36770
      7      19.2239      0.00000
      8      23.6858      0.00000
      9      26.5017      0.00000
     10      29.0205      0.00000

 k-point     9 :       0.3000    0.1000    0.0000
  band No.  band energies     occupation 
      1      -0.0930      2.00000
      2       1.2190      2.00000
      3       3.4287      2.00000
      4       5.7790      2.00000
      5       5.9947      2.00000
      6       7.7683      0.16713
      7      16.3189      0.00000
      8      25.0346      0.00000
      9      27.3437      0.00000
     10      28.4831      0.00000

 k-point    10 :       0.4000    0.1000    0.0000
  band No.  band energies     occupation 
      1       0.5719      2.00000
      2       1.4426      2.00000
      3       4.0341      2.00000
      4       5.3955      2.00000
      5       6.5450      2.06434
      6       7.8451      0.01080
      7      13.9818      0.00000
      8      25.2907      0.00000
      9      27.2734      0.00000
     10      30.4389      0.00000

 k-point    11 :       0.5000    0.1000    0.0000
  band No.  band energies     occupation 
      1       0.8309      2.00000
      2       1.5484      2.00000
      3       3.9157      2.00000
      4       5.1797      2.00000
      5       7.5196      1.76832
      6       7.8747      0.00000
      7      12.8774      0.00000
      8      25.0047      0.00000
      9      28.2852      0.00000
     10      28.7511      0.00000

 k-point    12 :       0.2000    0.2000    0.0000
  band No.  band energies     occupation 
      1      -0.2264      2.00000
      2       1.6186      2.00000
      3       2.4310      2.00000
      4       5.6697      2.00000
      5       6.8053      2.00099
      6       7.0434      2.13439
      7      20.3347      0.00000
      8      20.4816      0.00000
      9      28.0652      0.00000
     10      28.6972      0.00000

 k-point    13 :       0.3000    0.2000    0.0000
  band No.  band energies     occupation 
      1       0.4692      2.00000
      2       2.0278      2.00000
      3       3.4133      2.00000
      4       5.5754      2.00000
      5       6.0985      2.00000
      6       7.0585      1.95936
      7      17.2892      0.00000
      8      21.9339      0.00000
      9      27.5900      0.00000
     10      30.0854      0.00000

 k-point    14 :       0.4000    0.2000    0.0000
  band No.  band energies     occupation 
      1       0.9846      2.00000
      2       2.2863      2.00000
      3       3.2458      2.00000
      4       5.5160      2.00000
      5       7.1475      2.00735
      6       7.5034      0.42125
      7      14.5331      0.00000
      8      23.5822      0.00000
      9      26.4586      0.00000
     10      29.6451      0.00000

 k-point    15 :       0.5000    0.2000    0.0000
  band No.  band energies     occupation 
      1       1.1888      2.00000
      2       2.4225      2.00000
      3       2.9994      2.00000
      4       5.3048      2.00000
      5       7.1832      2.02529
      6       9.0846      0.00000
      7      12.9047      0.00000
      8      25.0123      0.00000
      9      25.5987      0.00000
     10      27.8930      0.00000

 k-point    16 :       0.3000    0.3000    0.0000
  band No.  band energies     occupation 
      1       0.9204      2.00000
      2       1.9778      2.00000
      3       4.6944      2.00000
      4       5.9848      2.00000
      5       6.1514      2.01389
      6       6.3561      1.88280
      7      17.4857      0.00000
      8      19.9972      0.00000
      9      26.9875      0.00000
     10      31.9664      0.00000

 k-point    17 :       0.4000    0.3000    0.0000
  band No.  band energies     occupation 
      1       1.2029      2.00000
      2       1.5766      2.00000
      3       5.2822      2.00000
      4       5.6684      2.00000
      5       6.3764      2.04153
      6       8.3031      0.04180
      7      15.0282      0.00000
      8      21.1015      0.00000
      9      25.3706      0.00000
     10      29.8931      0.00000

 k-point    18 :       0.5000    0.3000    0.0000
  band No.  band energies     occupation 
      1       1.2165      2.00000
      2       1.5029      2.00000
      3       5.3819      2.00000
      4       5.4638      2.00000
      5       6.4167      2.05725
      6      10.4992      0.00000
      7      12.8704      0.00000
      8      22.5666      0.00000
      9      23.7478      0.00000
     10      28.8826      0.00000

 k-point    19 :       0.4000    0.4000    0.0000
  band No.  band energies     occupation 
      1       0.6807      2.00000
      2       1.6601      2.00000
      3       5.7667      2.00000
      4       5.8379      2.00000
      5       7.5337      1.06740
      6       9.4656     -0.03405
      7      14.4417      0.00000
      8      19.8678      0.00000
      9      23.4962      0.00000
     10      30.7622      0.00000

 k-point    20 :       0.5000    0.4000    0.0000
  band No.  band energies     occupation 
      1       0.4411      2.00000
      2       1.7547      2.00000
      3       5.5962      2.00000
      4       5.8524      2.00000
      5       8.1484      0.22104
      6      11.5868      0.00000
      7      12.5827      0.00000
      8      20.0220      0.00000
      9      22.3754      0.00000
     10      30.2565      0.00000

 k-point    21 :       0.5000    0.5000    0.0000
  band No.  band energies     occupation 
      1       0.1742      2.00000
      2       1.8531      2.00000
      3       5.6478      2.00000
      4       5.6478      2.00000
      5       9.9137      0.00000
      6      12.0238      0.00000
      7      12.0238      0.00000
      8      18.8644      0.00000
      9      21.8018      0.00000
     10      30.9393      0.00000

 k-point    22 :       0.1000    0.1000    0.1000
  band No.  band energies     occupation 
      1      -1.3902      2.00000
      2       1.0469      2.00000
      3       1.0469      2.00000
      4       7.1678      2.01051
      5       7.2951      1.95663
      6       7.2951      1.50667
      7      22.2592      0.00000
      8      23.2939      0.00000
      9      23.2939      0.00000
     10      32.2301      0.00000

 k-point    23 :       0.2000    0.1000    0.1000
  band No.  band energies     occupation 
      1      -0.5992      2.00000
      2       1.2192      2.00000
      3       2.0107      2.00000
      4       6.4688      2.00208
      5       6.4691      2.02363
      6       7.3486      1.57839
      7      19.6992      0.00000
      8      23.8024      0.00000
      9      24.6232      0.00000
     10      30.2746      0.00000

 k-point    24 :       0.3000    0.1000    0.1000
  band No.  band energies     occupation 
      1       0.2621      2.00000
      2       1.4465      2.00000
      3       3.3859      2.00000
      4       5.5747      2.00000
      5       6.0387      2.00000
      6       7.4532      1.03950
      7      16.7554      0.00000
      8      25.1373      0.00000
      9      25.7062      0.00000
     10      29.2039      0.00000

 k-point    25 :       0.4000    0.1000    0.1000
  band No.  band energies     occupation 
      1       0.9692      2.00000
      2       1.6466      2.00000
      3       3.7422      2.00000
      4       4.9195      2.00000
      5       7.2086      2.00285
      6       7.5464      0.24566
      7      14.2446      0.00000
      8      25.5494      0.00000
      9      26.5181      0.00000
     10      29.8528      0.00000

 k-point    26 :       0.5000    0.1000    0.1000
  band No.  band energies     occupation 
      1       1.2791      2.00000
      2       1.7284      2.00000
      3       3.5863      2.00000
      4       4.6800      2.00000
      5       7.5686      1.73839
      6       8.4240      0.00000
      7      12.9175      0.00000
      8      25.2971      0.00000
      9      27.6686      0.00000
     10      28.7540      0.00000

 k-point    27 :       0.2000    0.2000    0.1000
  band No.  band energies     occupation 
      1       0.1645      2.00000
      2       1.8338      2.00000
      3       2.4852      2.00000
      4       5.7154      2.00000
      5       6.5209      2.00053
      6       6.6478      2.12059
      7      20.8040      0.00000
      8      20.9469      0.00000
      9      25.4622      0.00000
     10      30.6406      0.00000

 k-point    28 :       0.3000    0.2000    0.1000
  band No.  band energies     occupation 
      1       0.8915      2.00000
      2       2.1792      2.00000
      3       3.4327      2.00000
      4       5.2607      2.00000
      5       6.1865      2.00000
      6       6.7342      1.99962
      7      17.7794      0.00000
      8      22.3067      0.00000
      9      26.4974      0.00000
     10      29.8323      0.00000

 k-point    29 :       0.4000    0.2000    0.1000
  band No.  band energies     occupation 
      1       1.4640      2.00000
      2       2.3732      2.00000
      3       3.2815      2.00000
      4       4.8156      2.00000
      5       6.7986      2.00935
      6       8.0974      0.05093
      7      14.8956      0.00000
      8      23.8763      0.00000
      9      26.5579      0.00000
     10      28.6258      0.00000

 k-point    30 :       0.5000    0.2000    0.1000
  band No.  band energies     occupation 
      1       1.7285      2.00000
      2       2.4374      2.00000
      3       3.0595      2.00000
      4       4.5936      2.00000
      5       6.8494      2.01066
      6       9.9030      0.00000
      7      13.0085      0.00000
      8      25.2159      0.00000
      9      26.1865      0.00000
     10      27.0769      0.00000

 k-point    31 :       0.3000    0.3000    0.1000
  band No.  band energies     occupation 
      1       1.3153      2.00000
      2       2.1598      2.00000
      3       4.6124      2.00000
      4       5.2432      2.00000
      5       6.0431      2.01657
      6       6.7566      1.49459
      7      18.1447      0.00000
      8      20.2152      0.00000
      9      27.1577      0.00000
     10      28.7508      0.00000

 k-point    32 :       0.4000    0.3000    0.1000
  band No.  band energies     occupation 
      1       1.3975      2.00000
      2       1.9829      2.00000
      3       4.9565      2.00000
      4       5.0542      2.00000
      5       6.2586      2.04107
      6       8.8760     -0.07001
      7      15.5445      0.00000
      8      21.3494      0.00000
      9      25.5944      0.00000
     10      28.3932      0.00000

 k-point    33 :       0.5000    0.3000    0.1000
  band No.  band energies     occupation 
      1       1.2986      2.00000
      2       2.0366      2.00000
      3       4.7545      2.00000
      4       5.1224      2.00000
      5       6.3503      2.03808
      6      11.3068      0.00000
      7      13.0857      0.00000
      8      23.0852      0.00000
      9      23.5369      0.00000
     10      28.2023      0.00000

 k-point    34 :       0.4000    0.4000    0.1000
  band No.  band energies     occupation 
      1       0.7790      2.00000
      2       2.1909      2.00000
      3       5.0845      2.00000
      4       5.1437      2.00000
      5       7.7818      0.83015
      6      10.1075     -0.03185
      7      15.1032      0.00000
      8      20.0012      0.00000
      9      23.3556      0.00000
     10      29.3781      0.00000

 k-point    35 :       0.5000    0.4000    0.1000
  band No.  band energies     occupation 
      1       0.5408      2.00000
      2       2.2983      2.00000
      3       4.9153      2.00000
      4       5.1766      2.00000
      5       8.3992      0.10527
      6      12.4074      0.00000
      7      13.0416      0.00000
      8      20.2744      0.00000
      9      21.9960      0.00000
     10      29.6177      0.00000

 k-point    36 :       0.5000    0.5000    0.1000
  band No.  band energies     occupation 
      1       0.2778      2.00000
      2       2.4064      2.00000
      3       4.9801      2.00000
      4       4.9801      2.00000
      5       9.9315      0.00000
      6      12.8583      0.00000
      7      12.8583      0.00000
      8      18.8933      0.00000
      9      21.3688      0.00000
     10      30.9436      0.00000

 k-point    37 :       0.2000    0.2000    0.2000
  band No.  band energies     occupation 
      1       0.9882      2.00000
      2       2.6341      2.00000
      3       2.6341      2.00000
      4       5.7300      2.00000
      5       5.7300      2.00000
      6       6.0937      2.02283
      7      21.4042      0.00000
      8      22.4538      0.00000
      9      22.4538      0.00000
     10      32.7784      0.00000

 k-point    38 :       0.3000    0.2000    0.2000
  band No.  band energies     occupation 
      1       1.6354      2.00000
      2       2.8426      2.00000
      3       3.5254      2.00000
      4       4.7455      2.00000
      5       5.8072      2.00000
      6       6.6258      1.77195
      7      18.9241      0.00000
      8      22.7395      0.00000
      9      24.2341      0.00000
     10      30.9808      0.00000

 k-point    39 :       0.4000    0.2000    0.2000
  band No.  band energies     occupation 
      1       2.0729      2.00000
      2       3.0748      2.00000
      3       3.3713      2.00000
      4       3.9840      2.00000
      5       6.0710      2.00142
      6       8.9647     -0.10346
      7      15.7783      0.00000
      8      23.8232      0.00000
      9      25.7569      0.00000
     10      28.7249      0.00000

 k-point    40 :       0.5000    0.2000    0.2000
  band No.  band energies     occupation 
      1       2.2588      2.00000
      2       3.1851      2.00000
      3       3.2527      2.00000
      4       3.6222      2.00000
      5       6.1448      2.00214
      6      11.4138      0.00000
      7      13.2537      0.00000
      8      24.6134      0.00000
      9      26.4627      0.00000
     10      27.2108      0.00000

 k-point    41 :       0.3000    0.3000    0.2000
  band No.  band energies     occupation 
      1       1.8269      2.00000
      2       3.0751      2.00000
      3       4.1633      2.00000
      4       4.5579      2.00000
      5       5.6195      2.02971
      6       7.4153      0.76666
      7      19.7695      0.00000
      8      20.6402      0.00000
      9      24.8959      0.00000
     10      28.7386      0.00000

 k-point    42 :       0.4000    0.3000    0.2000
  band No.  band energies     occupation 
      1       1.6313      2.00000
      2       3.1733      2.00000
      3       3.8657      2.00000
      4       4.4546      2.00000
      5       6.2532      2.02272
      6       9.8235     -0.07293
      7      16.7558      0.00000
      8      21.6798      0.00000
      9      25.4239      0.00000
     10      27.0471      0.00000

 k-point    43 :       0.5000    0.3000    0.2000
  band No.  band energies     occupation 
      1       1.5020      2.00000
      2       3.4250      2.00000
      3       3.4607      2.00000
      4       4.4880      2.00000
      5       6.4174      1.96861
      6      12.9040      0.00000
      7      13.5761      0.00000
      8      22.6001      0.00000
      9      24.4233      0.00000
     10      27.4268      0.00000

 k-point    44 :       0.4000    0.4000    0.2000
  band No.  band energies     occupation 
      1       1.0410      2.00000
      2       3.3606      2.00000
      3       3.8828      2.00000
      4       4.2045      2.00000
      5       8.0711      0.52951
      6      11.2855     -0.00999
      7      16.6854      0.00000
      8      20.0465      0.00000
      9      22.9631      0.00000
     10      27.9038      0.00000

 k-point    45 :       0.5000    0.4000    0.2000
  band No.  band energies     occupation 
      1       0.8129      2.00000
      2       3.6026      2.00000
      3       3.6037      2.00000
      4       4.1843      2.00000
      5       8.7118     -0.00322
      6      14.0631      0.00000
      7      14.1094      0.00000
      8      20.9050      0.00000
      9      20.9479      0.00000
     10      28.6194      0.00000

 k-point    46 :       0.5000    0.5000    0.2000
  band No.  band energies     occupation 
      1       0.5616      2.00000
      2       3.6782      2.00000
      3       3.6782      2.00000
      4       3.9898      2.00000
      5       9.9782      0.00000
      6      14.6339      0.00000
      7      14.6339      0.00000
      8      18.9546      0.00000
      9      20.1956      0.00000
     10      29.5268      0.00000

 k-point    47 :       0.3000    0.3000    0.3000
  band No.  band energies     occupation 
      1       1.9139      2.00000
      2       3.3702      2.00000
      3       3.3702      2.00000
      4       5.5451      2.00443
      5       5.5451      2.11307
      6       8.4666     -0.01939
      7      20.7916      0.00000
      8      21.7843      0.00000
      9      21.7843      0.00000
     10      29.1810      0.00000

 k-point    48 :       0.4000    0.3000    0.3000
  band No.  band energies     occupation 
      1       1.7164      2.00000
      2       2.7331      2.00000
      3       3.2955      2.00000
      4       5.5924      2.01779
      5       6.6962      1.78371
      6      10.8550     -0.02258
      7      18.0616      0.00000
      8      21.0684      0.00000
      9      23.7931      0.00000
     10      27.7055      0.00000

 k-point    49 :       0.5000    0.3000    0.3000
  band No.  band energies     occupation 
      1       1.5892      2.00000
      2       2.5004      2.00000
      3       3.3171      2.00000
      4       5.6199      2.02836
      5       6.9943      1.42319
      6      14.2025      0.00000
      7      14.5180      0.00000
      8      21.0038      0.00000
      9      25.0484      0.00000
     10      27.1208      0.00000

 k-point    50 :       0.4000    0.4000    0.3000
  band No.  band energies     occupation 
      1       1.3735      2.00000
      2       2.5608      2.00000
      3       2.7341      2.00000
      4       6.1591      2.00654
      5       8.2635      0.20871
      6      12.5347     -0.00005
      7      18.5395      0.00000
      8      19.4067      0.00000
      9      22.2123      0.00000
     10      27.5142      0.00000

 k-point    51 :       0.5000    0.4000    0.3000
  band No.  band energies     occupation 
      1       1.1708      2.00000
      2       2.4134      2.00000
      3       2.7084      2.00000
      4       6.2428      1.99144
      5       8.9400     -0.06347
      6      15.1793      0.00000
      7      15.8536      0.00000
      8      19.4886      0.00000
      9      21.5910      0.00000
     10      28.1605      0.00000

 k-point    52 :       0.5000    0.5000    0.3000
  band No.  band energies     occupation 
      1       0.9418      2.00000
      2       2.4832      2.00000
      3       2.4832      2.00000
      4       6.3430      1.93591
      5      10.0364      0.00000
      6      16.5198      0.00000
      7      16.5198      0.00000
      8      18.7397      0.00000
      9      18.9674      0.00000
     10      28.7762      0.00000

 k-point    53 :       0.4000    0.4000    0.4000
  band No.  band energies     occupation 
      1       1.5355      2.00000
      2       1.9675      2.00000
      3       1.9675      2.00000
      4       8.3809      0.65408
      5       8.3809      0.00488
      6      14.1561      0.00000
      7      18.5079      0.00000
      8      20.1371      0.00000
      9      20.1371      0.00000
     10      27.7978      0.00000

 k-point    54 :       0.5000    0.4000    0.4000
  band No.  band energies     occupation 
      1       1.4127      2.00000
      2       1.7006      2.00000
      3       1.9544      2.00000
      4       8.4215      0.36978
      5       9.3137     -0.03478
      6      16.4189      0.00000
      7      17.1575      0.00000
      8      18.3660      0.00000
      9      20.8297      0.00000
     10      27.7137      0.00000

 k-point    55 :       0.5000    0.5000    0.4000
  band No.  band energies     occupation 
      1       1.2785      2.00000
      2       1.6903      2.00000
      3       1.6903      2.00000
      4       8.8502      0.02323
      5      10.0839      0.00000
      6      17.5862      0.00000
      7      18.0135      0.00000
      8      18.0135      0.00000
      9      18.8082      0.00000
     10      28.4903      0.00000

 k-point    56 :       0.5000    0.5000    0.5000
  band No.  band energies     occupation 
      1       1.4151      2.00000
      2       1.4151      2.00000
      3       1.4151      2.00000
      4      10.1020      0.00000
      5      10.1020      0.00000
      6      17.1517      0.00000
      7      18.6113      0.00000
      8      18.6113      0.00000
      9      18.6113      0.00000
     10      27.3392      0.00000


--------------------------------------------------------------------------------------------------------


 soft charge-density along one line, spin component           1
         0         1         2         3         4         5         6         7         8         9
 total charge-density along one line
 
 pseudopotential strength for first ion, spin component:           1
 -7.571  -0.000   0.000   0.000  -0.000  -0.231   0.000  -0.000
 -0.000  -7.571   0.000   0.000   0.000   0.000  -0.231  -0.000
  0.000   0.000  -7.658   0.000  -0.000  -0.000  -0.000  -0.222
  0.000   0.000   0.000  -7.571  -0.000  -0.000  -0.000  -0.000
 -0.000   0.000  -0.000  -0.000  -7.658   0.000  -0.000   0.000
 -0.231   0.000  -0.000  -0.000   0.000   0.226  -0.000   0.000
  0.000  -0.231  -0.000  -0.000  -0.000  -0.000   0.226   0.000
 -0.000  -0.000  -0.222  -0.000   0.000   0.000   0.000   0.225
 -0.000  -0.000  -0.000  -0.231   0.000   0.000   0.000   0.000
  0.000  -0.000   0.000   0.000  -0.222  -0.000   0.000  -0.000
  0.000   0.000  -0.000   0.000  -0.000  -0.000  -0.000  -0.000
 -0.000  -0.000   0.000  -0.000   0.000   0.000   0.000   0.000
 -0.000   0.000   0.000  -0.000  -0.000   0.000  -0.000   0.000
 -0.000   0.000   0.000   0.000   0.000   0.000  -0.000  -0.000
  0.000  -0.000   0.000   0.000  -0.000  -0.000   0.000  -0.000
  0.000  -0.000  -0.000   0.000   0.000  -0.000   0.000  -0.000
  0.000  -0.000  -0.000  -0.000  -0.000  -0.000   0.000   0.000
 -0.000   0.000  -0.000  -0.000   0.000   0.000  -0.000   0.000
 total augmentation occupancy for first ion, spin component:           1
  1.854  -0.000   0.000  -0.000   0.000   0.005   0.000   0.000   0.000  -0.000   0.000   0.000   0.000   0.000   0.000   0.000
  0.000   1.854   0.000   0.000   0.000   0.000   0.005  -0.000   0.000   0.000  -0.000  -0.000   0.000   0.000   0.000   0.000
 -0.000   0.000   1.635  -0.000   0.000   0.000  -0.000   0.470  -0.000  -0.000   0.000  -0.000   0.000   0.000   0.000   0.000
 -0.000   0.000   0.000   1.854  -0.000   0.000   0.000  -0.000   0.005  -0.000   0.000   0.000   0.000   0.000   0.000   0.000
  0.000   0.000   0.000  -0.000   1.635   0.000   0.000   0.000  -0.000   0.470   0.000   0.000   0.000   0.000   0.000   0.000
  0.005   0.000   0.000   0.000  -0.000   0.356  -0.000   0.000   0.000  -0.000  -0.000  -0.000   0.000   0.000   0.000   0.000
 -0.000   0.005   0.000  -0.000  -0.000  -0.000   0.356  -0.000   0.000   0.000  -0.000  -0.000   0.000   0.000   0.000   0.000
  0.000  -0.000   0.470  -0.000   0.000   0.000  -0.000   0.417  -0.000   0.000   0.000   0.000   0.000   0.000   0.000   0.000
  0.000  -0.000   0.000   0.005  -0.000  -0.000   0.000  -0.000   0.356  -0.000   0.000  -0.000   0.000   0.000   0.000   0.000
  0.000   0.000   0.000  -0.000   0.470   0.000  -0.000   0.000  -0.000   0.417  -0.000   0.000   0.000   0.000   0.000   0.000
  0.000  -0.000   0.000  -0.000   0.000  -0.000  -0.000   0.000   0.000  -0.000   1.424  -0.406   0.000   0.000   0.000   0.000
  0.000  -0.000  -0.000   0.000   0.000   0.000  -0.000   0.000  -0.000   0.000  -0.406   0.204   0.000   0.000   0.000   0.000
  0.000   0.000   0.000   0.000   0.000   0.000   0.000   0.000   0.000   0.000   0.000   0.000   0.219   0.000   0.000  -0.008
  0.000   0.000   0.000   0.000   0.000   0.000   0.000   0.000   0.000   0.000   0.000   0.000   0.000   0.219   0.000  -0.000
  0.000   0.000   0.000   0.000   0.000   0.000   0.000   0.000   0.000   0.000   0.000   0.000   0.000   0.000   0.219   0.000
  0.000   0.000   0.000   0.000   0.000   0.000   0.000   0.000   0.000   0.000   0.000   0.000  -0.008  -0.000  -0.000   0.000
  0.000   0.000   0.000   0.000   0.000   0.000   0.000   0.000   0.000   0.000   0.000   0.000  -0.000  -0.008   0.000   0.000
  0.000   0.000   0.000   0.000   0.000   0.000   0.000   0.000   0.000   0.000   0.000   0.000  -0.000  -0.000  -0.008  -0.000


------------------------ aborting loop because EDIFF is reached ----------------------------------------


    CHARGE:  cpu time    0.0050: real time    0.0057
    FORLOC:  cpu time    0.0000: real time    0.0001
    FORNL :  cpu time    0.0500: real time    0.0492
    STRESS:  cpu time    0.1490: real time    0.1487
    FORCOR:  cpu time    0.0030: real time    0.0033
    FORHAR:  cpu time    0.0000: real time    0.0006
    MIXING:  cpu time    0.0000: real time    0.0002
    OFIELD:  cpu time    0.0000: real time    0.0000

  FORCE on cell =-STRESS in cart. coord.  units (eV):
  Direction    XX          YY          ZZ          XY          YZ          ZX
  --------------------------------------------------------------------------------------
  Alpha Z    93.11698    93.11698    93.11698
  Ewald    -272.37653  -272.37653  -272.37653    -0.00000    -0.00000    -0.00000
  Hartree    25.41778    25.41778    25.41778    -0.00000    -0.00000    -0.00000
  E(xc)     -45.15221   -45.15221   -45.15221     0.00000    -0.00000     0.00000
  Local      47.22322    47.22322    47.22322     0.00000     0.00000    -0.00000
  n-local   -42.01766   -26.54927   -20.28484     2.07972     0.55536     0.71081
  augment    38.43210    38.43210    38.43210    -0.00000     0.00000     0.00000
  Kinetic   144.93487   144.42187   151.79717     1.48880     1.42197     0.86306
  Fock        0.00000     0.00000     0.00000     0.00000     0.00000     0.00000
  -------------------------------------------------------------------------------------
  Total       4.09539     4.09539     4.09539     0.00000     0.00000     0.00000
  in kB     419.93907   419.93907   419.93907     0.00000     0.00000     0.00000
  external pressure =      419.94 kB  Pullay stress =        0.00 kB


 VOLUME and BASIS-vectors are now :
 -----------------------------------------------------------------------------
  energy-cutoff  :      500.00
  volume of cell :       15.62
      direct lattice vectors                 reciprocal lattice vectors
     2.500000000  0.000000000  0.000000000     0.400000000  0.000000000  0.000000000
     0.000000000  2.500000000  0.000000000     0.000000000  0.400000000  0.000000000
     0.000000000  0.000000000  2.500000000     0.000000000  0.000000000  0.400000000

  length of vectors
     2.500000000  2.500000000  2.500000000     0.400000000  0.400000000  0.400000000


 FORCES acting on ions
    electron-ion (+dipol)            ewald-force                    non-local-force                 convergence-correction
 -----------------------------------------------------------------------------------------------
   -.568E-31 0.217E-30 -.775E-14   -.162E-14 0.148E-14 -.151E-15   0.000E+00 0.000E+00 0.000E+00   -.355E-31 -.158E-30 -.700E-14
 -----------------------------------------------------------------------------------------------
   -.568E-31 0.217E-30 -.775E-14   -.162E-14 0.148E-14 -.151E-15   0.000E+00 0.000E+00 0.000E+00   -.355E-31 -.158E-30 -.700E-14
 
 
 POSITION                                       TOTAL-FORCE (eV/Angst)
 -----------------------------------------------------------------------------------
      0.00000      0.00000      0.00000         0.000000      0.000000      0.000000
 -----------------------------------------------------------------------------------
    total drift:                               -0.000000      0.000000     -0.000000


--------------------------------------------------------------------------------------------------------



  FREE ENERGIE OF THE ION-ELECTRON SYSTEM (eV)
  ---------------------------------------------------
  free  energy   TOTEN  =        -5.32628534 eV

  energy  without entropy=       -5.32628534  energy(sigma->0) =       -5.32628534
 


--------------------------------------------------------------------------------------------------------


    POTLOK:  cpu time    0.0060: real time    0.0056


--------------------------------------------------------------------------------------------------------


     LOOP+:  cpu time    2.0837: real time    2.3439
    4ORBIT:  cpu time    0.0000: real time    0.0000
 BZINTS: Fermi energy:  7.475670; 10.000000 electrons
         Band energy:  37.179381;  BLOECHL correction: -0.168330

 total amount of memory used by VASP on root node    31845. kBytes
========================================================================

   base      :      30000. kBytes
   nonlr-proj:        215. kBytes
   fftplans  :        235. kBytes
   grid      :        332. kBytes
   one-center:         15. kBytes
   wavefun   :       1048. kBytes
 
  
  
 General timing and accounting informations for this job:
 ========================================================
  
                  Total CPU time used (sec):        2.642
                            User time (sec):        2.599
                          System time (sec):        0.043
                         Elapsed time (sec):        3.337
  
                   Maximum memory used (kb):       26328.
                   Average memory used (kb):           0.
  
                          Minor page faults:         6739
                          Major page faults:          233
                 Voluntary context switches:         1937
