Starting job 28218116 ("jobfile") on c16-11 at Fri Sep 20 10:33:03 CEST 2019
 running on    4 total cores
 distrk:  each k-point on    4 cores,    1 groups
 distr:  one band on    2 cores,    2 groups
 using from now: INCAR     
 vasp.5.4.1 05Feb16 (build Mar 02 2016 14:09:44) complex                        
  
 POSCAR found type information on POSCAR  Pt
 POSCAR found :  1 types and       1 ions

 ----------------------------------------------------------------------------- 
|                                                                             |
|  ADVICE TO THIS USER RUNNING 'VASP/VAMP'   (HEAR YOUR MASTER'S VOICE ...):  |
|                                                                             |
|      You have a (more or less) 'small supercell' and for smaller cells      |
|      it is recommended  to use the reciprocal-space projection scheme!      |
|      The real space optimization is not  efficient for small cells and it   |
|      is also less accurate ...                                              |
|      Therefore set LREAL=.FALSE. in the  INCAR file                         |
|                                                                             |
 ----------------------------------------------------------------------------- 

 LDA part: xc-table for Pade appr. of Perdew
 POSCAR, INCAR and KPOINTS ok, starting setup
 WARNING: small aliasing (wrap around) errors must be expected
 FFT: planning ...
 WAVECAR not read
 entering main loop
       N       E                     dE             d eps       ncg     rms          rms(c)
DAV:   1     0.641906361604E+02    0.64191E+02   -0.51703E+03  1176   0.952E+02
DAV:   2    -0.437935379723E+01   -0.68570E+02   -0.64687E+02  1144   0.230E+02
DAV:   3    -0.562796134879E+01   -0.12486E+01   -0.12461E+01  1368   0.382E+01
DAV:   4    -0.564049971076E+01   -0.12538E-01   -0.12562E-01  1368   0.358E+00
DAV:   5    -0.564080496717E+01   -0.30526E-03   -0.30671E-03  1350   0.497E-01    0.345E+00
RMM:   6    -0.536495432839E+01    0.27585E+00   -0.27395E-01  1163   0.712E+00    0.113E+00
RMM:   7    -0.533112239814E+01    0.33832E-01   -0.49204E-02  1196   0.223E+00    0.289E-01
RMM:   8    -0.532625988630E+01    0.48625E-02   -0.26468E-03  1225   0.719E-01    0.260E-02
RMM:   9    -0.532629842479E+01   -0.38538E-04   -0.19928E-04  1404   0.183E-01    0.130E-02
RMM:  10    -0.532628240077E+01    0.16024E-04   -0.25149E-05   934   0.535E-02    0.263E-03
RMM:  11    -0.532628533568E+01   -0.29349E-05   -0.40800E-06   693   0.294E-02
   1 F= -.53262853E+01 E0= -.53262853E+01  d E =0.000000E+00

Currently Loaded Modulefiles:
  1) intel/2016.1       2) vasp/5.4.1.Feb16

Job script resource usage:
       JobID  MaxVMSize     MaxRSS 
------------ ---------- ---------- 
28218116.ba+    216752K      2542K 

Job step resource usage:
       JobID    JobName  AllocCPUS  MaxVMSize     MaxRSS    Elapsed ExitCode 
------------ ---------- ---------- ---------- ---------- ---------- -------- 
28218116        jobfile          4                         00:00:05      0:0 
28218116.0    pmi_proxy          1    279832K       524K   00:00:03      0:0 

Job 28218116 ("jobfile") completed on c16-11 at Fri Sep 20 10:33:07 CEST 2019
