<?xml version="1.0" encoding="ISO-8859-1"?>
<modeling>
 <generator>
  <i name="program" type="string">vasp </i>
  <i name="version" type="string">5.4.1  </i>
  <i name="subversion" type="string">05Feb16 (build Mar 02 2016 14:09:44) complex                          parallel </i>
  <i name="platform" type="string">Abel-impi-ifc-cuda </i>
  <i name="date" type="string">2019 09 20 </i>
  <i name="time" type="string">10:33:03 </i>
 </generator>
 <incar>
  <i type="string" name="PREC">normal    ! low/normal/accurate</i>
  <i type="string" name="ALGO"> Fast      ! Algorithm for electronic re</i>
  <i type="int" name="ISPIN">     1</i>
  <i type="int" name="NELMIN">     4</i>
  <i name="EDIFF">      0.00001000</i>
  <i type="int" name="NSW">     0</i>
  <i name="ENCUT">    500.00000000</i>
  <i type="string" name="LREAL"> Auto      ! Projection in reciprocal sp</i>
  <i type="int" name="ISMEAR">    -5</i>
  <i name="SIGMA">      0.20000000</i>
  <i type="logical" name="LWAVE"> F  </i>
  <v type="int" name="KPOINT_BSE">    -1     0     0     0</v>
 </incar>
 <kpoints>
  <generation param="Gamma">
   <v type="int" name="divisions">      10       10       10 </v>
   <v name="usershift">      0.00000000       0.00000000       0.00000000 </v>
   <v name="genvec1">      0.10000000       0.00000000       0.00000000 </v>
   <v name="genvec2">      0.00000000       0.10000000       0.00000000 </v>
   <v name="genvec3">      0.00000000       0.00000000       0.10000000 </v>
   <v name="shift">      0.00000000       0.00000000       0.00000000 </v>
  </generation>
  <varray name="kpointlist" >
   <v>       0.00000000       0.00000000       0.00000000 </v>
   <v>       0.10000000       0.00000000       0.00000000 </v>
   <v>       0.20000000       0.00000000       0.00000000 </v>
   <v>       0.30000000       0.00000000       0.00000000 </v>
   <v>       0.40000000       0.00000000       0.00000000 </v>
   <v>       0.50000000       0.00000000       0.00000000 </v>
   <v>       0.10000000       0.10000000       0.00000000 </v>
   <v>       0.20000000       0.10000000       0.00000000 </v>
   <v>       0.30000000       0.10000000       0.00000000 </v>
   <v>       0.40000000       0.10000000       0.00000000 </v>
   <v>       0.50000000       0.10000000       0.00000000 </v>
   <v>       0.20000000       0.20000000       0.00000000 </v>
   <v>       0.30000000       0.20000000       0.00000000 </v>
   <v>       0.40000000       0.20000000       0.00000000 </v>
   <v>       0.50000000       0.20000000       0.00000000 </v>
   <v>       0.30000000       0.30000000       0.00000000 </v>
   <v>       0.40000000       0.30000000       0.00000000 </v>
   <v>       0.50000000       0.30000000       0.00000000 </v>
   <v>       0.40000000       0.40000000       0.00000000 </v>
   <v>       0.50000000       0.40000000       0.00000000 </v>
   <v>       0.50000000       0.50000000       0.00000000 </v>
   <v>       0.10000000       0.10000000       0.10000000 </v>
   <v>       0.20000000       0.10000000       0.10000000 </v>
   <v>       0.30000000       0.10000000       0.10000000 </v>
   <v>       0.40000000       0.10000000       0.10000000 </v>
   <v>       0.50000000       0.10000000       0.10000000 </v>
   <v>       0.20000000       0.20000000       0.10000000 </v>
   <v>       0.30000000       0.20000000       0.10000000 </v>
   <v>       0.40000000       0.20000000       0.10000000 </v>
   <v>       0.50000000       0.20000000       0.10000000 </v>
   <v>       0.30000000       0.30000000       0.10000000 </v>
   <v>       0.40000000       0.30000000       0.10000000 </v>
   <v>       0.50000000       0.30000000       0.10000000 </v>
   <v>       0.40000000       0.40000000       0.10000000 </v>
   <v>       0.50000000       0.40000000       0.10000000 </v>
   <v>       0.50000000       0.50000000       0.10000000 </v>
   <v>       0.20000000       0.20000000       0.20000000 </v>
   <v>       0.30000000       0.20000000       0.20000000 </v>
   <v>       0.40000000       0.20000000       0.20000000 </v>
   <v>       0.50000000       0.20000000       0.20000000 </v>
   <v>       0.30000000       0.30000000       0.20000000 </v>
   <v>       0.40000000       0.30000000       0.20000000 </v>
   <v>       0.50000000       0.30000000       0.20000000 </v>
   <v>       0.40000000       0.40000000       0.20000000 </v>
   <v>       0.50000000       0.40000000       0.20000000 </v>
   <v>       0.50000000       0.50000000       0.20000000 </v>
   <v>       0.30000000       0.30000000       0.30000000 </v>
   <v>       0.40000000       0.30000000       0.30000000 </v>
   <v>       0.50000000       0.30000000       0.30000000 </v>
   <v>       0.40000000       0.40000000       0.30000000 </v>
   <v>       0.50000000       0.40000000       0.30000000 </v>
   <v>       0.50000000       0.50000000       0.30000000 </v>
   <v>       0.40000000       0.40000000       0.40000000 </v>
   <v>       0.50000000       0.40000000       0.40000000 </v>
   <v>       0.50000000       0.50000000       0.40000000 </v>
   <v>       0.50000000       0.50000000       0.50000000 </v>
  </varray>
  <varray name="weights" >
   <v>       0.00100000 </v>
   <v>       0.00600000 </v>
   <v>       0.00600000 </v>
   <v>       0.00600000 </v>
   <v>       0.00600000 </v>
   <v>       0.00300000 </v>
   <v>       0.01200000 </v>
   <v>       0.02400000 </v>
   <v>       0.02400000 </v>
   <v>       0.02400000 </v>
   <v>       0.01200000 </v>
   <v>       0.01200000 </v>
   <v>       0.02400000 </v>
   <v>       0.02400000 </v>
   <v>       0.01200000 </v>
   <v>       0.01200000 </v>
   <v>       0.02400000 </v>
   <v>       0.01200000 </v>
   <v>       0.01200000 </v>
   <v>       0.01200000 </v>
   <v>       0.00300000 </v>
   <v>       0.00800000 </v>
   <v>       0.02400000 </v>
   <v>       0.02400000 </v>
   <v>       0.02400000 </v>
   <v>       0.01200000 </v>
   <v>       0.02400000 </v>
   <v>       0.04800000 </v>
   <v>       0.04800000 </v>
   <v>       0.02400000 </v>
   <v>       0.02400000 </v>
   <v>       0.04800000 </v>
   <v>       0.02400000 </v>
   <v>       0.02400000 </v>
   <v>       0.02400000 </v>
   <v>       0.00600000 </v>
   <v>       0.00800000 </v>
   <v>       0.02400000 </v>
   <v>       0.02400000 </v>
   <v>       0.01200000 </v>
   <v>       0.02400000 </v>
   <v>       0.04800000 </v>
   <v>       0.02400000 </v>
   <v>       0.02400000 </v>
   <v>       0.02400000 </v>
   <v>       0.00600000 </v>
   <v>       0.00800000 </v>
   <v>       0.02400000 </v>
   <v>       0.01200000 </v>
   <v>       0.02400000 </v>
   <v>       0.02400000 </v>
   <v>       0.00600000 </v>
   <v>       0.00800000 </v>
   <v>       0.01200000 </v>
   <v>       0.00600000 </v>
   <v>       0.00100000 </v>
  </varray>
  <varray name="tetrahedronlist"  type="int" >
   <v type="int" >       12        1        2        2        7 </v>
   <v type="int" >       12        2        2        7        7 </v>
   <v type="int" >       12        2        7        7       22 </v>
   <v type="int" >       12        2        3        7        8 </v>
   <v type="int" >       12        2        7        7        8 </v>
   <v type="int" >       12        7        7        8       22 </v>
   <v type="int" >       12        3        7        8        8 </v>
   <v type="int" >       24        7        8        8       23 </v>
   <v type="int" >       24        7        8       22       23 </v>
   <v type="int" >       12        3        4        8        9 </v>
   <v type="int" >       12        3        8        8        9 </v>
   <v type="int" >       12        8        8        9       23 </v>
   <v type="int" >       12        4        8        9        9 </v>
   <v type="int" >       12        8        9        9       24 </v>
   <v type="int" >       12        8        9       23       24 </v>
   <v type="int" >       12        4        5        9       10 </v>
   <v type="int" >       12        4        9        9       10 </v>
   <v type="int" >       12        9        9       10       24 </v>
   <v type="int" >       12        5        9       10       10 </v>
   <v type="int" >       12        9       10       10       25 </v>
   <v type="int" >       12        9       10       24       25 </v>
   <v type="int" >       12        5        6       10       11 </v>
   <v type="int" >       12        5       10       10       11 </v>
   <v type="int" >       12       10       10       11       25 </v>
   <v type="int" >       12        6       10       11       11 </v>
   <v type="int" >       12       10       11       11       26 </v>
   <v type="int" >       12       10       11       25       26 </v>
   <v type="int" >       12        7        8       12       22 </v>
   <v type="int" >       12        8       12       22       23 </v>
   <v type="int" >       12       12       22       23       27 </v>
   <v type="int" >       12        8        9       13       23 </v>
   <v type="int" >       12        8       12       13       23 </v>
   <v type="int" >       12       12       13       23       27 </v>
   <v type="int" >       12        9       13       23       24 </v>
   <v type="int" >       12       13       23       24       28 </v>
   <v type="int" >       12       13       23       27       28 </v>
   <v type="int" >       12        9       10       14       24 </v>
   <v type="int" >       12        9       13       14       24 </v>
   <v type="int" >       12       13       14       24       28 </v>
   <v type="int" >       12       10       14       24       25 </v>
   <v type="int" >       12       14       24       25       29 </v>
   <v type="int" >       12       14       24       28       29 </v>
   <v type="int" >       12       10       11       15       25 </v>
   <v type="int" >       12       10       14       15       25 </v>
   <v type="int" >       12       14       15       25       29 </v>
   <v type="int" >       12       11       15       25       26 </v>
   <v type="int" >       12       15       25       26       30 </v>
   <v type="int" >       12       15       25       29       30 </v>
   <v type="int" >       12       10       11       14       26 </v>
   <v type="int" >       12       11       14       15       26 </v>
   <v type="int" >       12       14       15       26       30 </v>
   <v type="int" >       12       10       14       25       26 </v>
   <v type="int" >       12       14       25       26       29 </v>
   <v type="int" >       12       14       26       29       30 </v>
   <v type="int" >       12        9       10       13       25 </v>
   <v type="int" >       12       10       13       14       25 </v>
   <v type="int" >       12       13       14       25       29 </v>
   <v type="int" >       12        9       13       24       25 </v>
   <v type="int" >       12       13       24       25       28 </v>
   <v type="int" >       12       13       25       28       29 </v>
   <v type="int" >       12        8        9       12       24 </v>
   <v type="int" >       12        9       12       13       24 </v>
   <v type="int" >       12       12       13       24       28 </v>
   <v type="int" >       12        8       12       23       24 </v>
   <v type="int" >       12       12       23       24       27 </v>
   <v type="int" >       12       12       24       27       28 </v>
   <v type="int" >       12        8        8       12       23 </v>
   <v type="int" >       12        8       12       23       27 </v>
   <v type="int" >       12        8       22       23       23 </v>
   <v type="int" >       12        8       23       23       27 </v>
   <v type="int" >       12        2        3        7       22 </v>
   <v type="int" >       12        3        7        8       22 </v>
   <v type="int" >       12        3        8       22       23 </v>
   <v type="int" >       12       12       13       16       27 </v>
   <v type="int" >       12       13       16       27       28 </v>
   <v type="int" >       12       16       27       28       31 </v>
   <v type="int" >       12       13       14       17       28 </v>
   <v type="int" >       12       13       16       17       28 </v>
   <v type="int" >       12       16       17       28       31 </v>
   <v type="int" >       12       14       17       28       29 </v>
   <v type="int" >       12       17       28       29       32 </v>
   <v type="int" >       12       17       28       31       32 </v>
   <v type="int" >       12       14       15       18       29 </v>
   <v type="int" >       12       14       17       18       29 </v>
   <v type="int" >       12       17       18       29       32 </v>
   <v type="int" >       12       15       18       29       30 </v>
   <v type="int" >       12       18       29       30       33 </v>
   <v type="int" >       12       18       29       32       33 </v>
   <v type="int" >       12       14       15       17       30 </v>
   <v type="int" >       12       15       17       18       30 </v>
   <v type="int" >       12       17       18       30       33 </v>
   <v type="int" >       12       14       17       29       30 </v>
   <v type="int" >       12       17       29       30       32 </v>
   <v type="int" >       12       17       30       32       33 </v>
   <v type="int" >       12       13       14       16       29 </v>
   <v type="int" >       12       14       16       17       29 </v>
   <v type="int" >       12       16       17       29       32 </v>
   <v type="int" >       12       13       16       28       29 </v>
   <v type="int" >       12       16       28       29       31 </v>
   <v type="int" >       12       16       29       31       32 </v>
   <v type="int" >       12       12       13       13       28 </v>
   <v type="int" >       12       13       13       16       28 </v>
   <v type="int" >       12       13       16       28       31 </v>
   <v type="int" >       12       12       13       27       28 </v>
   <v type="int" >       12       13       27       28       28 </v>
   <v type="int" >       12       13       28       28       31 </v>
   <v type="int" >       12        8        9       12       27 </v>
   <v type="int" >       12        9       12       13       27 </v>
   <v type="int" >       12        9       13       27       28 </v>
   <v type="int" >       12        8        9       23       27 </v>
   <v type="int" >       12        9       23       24       27 </v>
   <v type="int" >       12        9       24       27       28 </v>
   <v type="int" >       12        3        4        8       23 </v>
   <v type="int" >       12        4        8        9       23 </v>
   <v type="int" >       12        4        9       23       24 </v>
   <v type="int" >       12       16       17       19       31 </v>
   <v type="int" >       12       17       19       31       32 </v>
   <v type="int" >       12       19       31       32       34 </v>
   <v type="int" >       12       17       18       20       32 </v>
   <v type="int" >       12       17       19       20       32 </v>
   <v type="int" >       12       19       20       32       34 </v>
   <v type="int" >       12       18       20       32       33 </v>
   <v type="int" >       12       20       32       33       35 </v>
   <v type="int" >       12       20       32       34       35 </v>
   <v type="int" >       12       17       18       19       33 </v>
   <v type="int" >       12       18       19       20       33 </v>
   <v type="int" >       12       19       20       33       35 </v>
   <v type="int" >       12       17       19       32       33 </v>
   <v type="int" >       12       19       32       33       34 </v>
   <v type="int" >       12       19       33       34       35 </v>
   <v type="int" >       12       16       17       17       32 </v>
   <v type="int" >       12       17       17       19       32 </v>
   <v type="int" >       12       17       19       32       34 </v>
   <v type="int" >       12       16       17       31       32 </v>
   <v type="int" >       12       17       31       32       32 </v>
   <v type="int" >       12       17       32       32       34 </v>
   <v type="int" >       12       13       14       16       31 </v>
   <v type="int" >       12       14       16       17       31 </v>
   <v type="int" >       12       14       17       31       32 </v>
   <v type="int" >       12       13       14       28       31 </v>
   <v type="int" >       12       14       28       29       31 </v>
   <v type="int" >       12       14       29       31       32 </v>
   <v type="int" >       12        9       10       13       28 </v>
   <v type="int" >       12       10       13       14       28 </v>
   <v type="int" >       12       10       14       28       29 </v>
   <v type="int" >       12        9       10       24       28 </v>
   <v type="int" >       12       10       24       25       28 </v>
   <v type="int" >       12       10       25       28       29 </v>
   <v type="int" >       12        4        5        9       24 </v>
   <v type="int" >       12        5        9       10       24 </v>
   <v type="int" >       12        5       10       24       25 </v>
   <v type="int" >       12       19       20       21       34 </v>
   <v type="int" >       12       20       21       34       35 </v>
   <v type="int" >       12       21       34       35       36 </v>
   <v type="int" >       12       19       20       20       35 </v>
   <v type="int" >       12       20       20       21       35 </v>
   <v type="int" >       12       20       21       35       36 </v>
   <v type="int" >       12       19       20       34       35 </v>
   <v type="int" >       12       20       34       35       35 </v>
   <v type="int" >       12       20       35       35       36 </v>
   <v type="int" >       12       17       18       19       34 </v>
   <v type="int" >       12       18       19       20       34 </v>
   <v type="int" >       12       18       20       34       35 </v>
   <v type="int" >       12       17       18       32       34 </v>
   <v type="int" >       12       18       32       33       34 </v>
   <v type="int" >       12       18       33       34       35 </v>
   <v type="int" >       12       14       15       17       32 </v>
   <v type="int" >       12       15       17       18       32 </v>
   <v type="int" >       12       15       18       32       33 </v>
   <v type="int" >       12       14       15       29       32 </v>
   <v type="int" >       12       15       29       30       32 </v>
   <v type="int" >       12       15       30       32       33 </v>
   <v type="int" >       12       10       11       14       29 </v>
   <v type="int" >       12       11       14       15       29 </v>
   <v type="int" >       12       11       15       29       30 </v>
   <v type="int" >       12       10       11       25       29 </v>
   <v type="int" >       12       11       25       26       29 </v>
   <v type="int" >       12       11       26       29       30 </v>
   <v type="int" >       12        5        6       10       25 </v>
   <v type="int" >       12        6       10       11       25 </v>
   <v type="int" >       12        6       11       25       26 </v>
   <v type="int" >       12       19       20       21       36 </v>
   <v type="int" >       12       19       20       35       36 </v>
   <v type="int" >       12       19       34       35       36 </v>
   <v type="int" >       12       17       18       20       35 </v>
   <v type="int" >       12       17       19       20       35 </v>
   <v type="int" >       12       17       19       34       35 </v>
   <v type="int" >       12       17       18       33       35 </v>
   <v type="int" >       12       17       32       33       35 </v>
   <v type="int" >       12       17       32       34       35 </v>
   <v type="int" >       12       14       15       18       33 </v>
   <v type="int" >       12       14       17       18       33 </v>
   <v type="int" >       12       14       17       32       33 </v>
   <v type="int" >       12       14       15       30       33 </v>
   <v type="int" >       12       14       29       30       33 </v>
   <v type="int" >       12       14       29       32       33 </v>
   <v type="int" >       12       10       11       15       30 </v>
   <v type="int" >       12       10       14       15       30 </v>
   <v type="int" >       12       10       14       29       30 </v>
   <v type="int" >       12       10       11       26       30 </v>
   <v type="int" >       12       10       25       26       30 </v>
   <v type="int" >       12       10       25       29       30 </v>
   <v type="int" >       12        5        6       11       26 </v>
   <v type="int" >       12        5       10       11       26 </v>
   <v type="int" >       12        5       10       25       26 </v>
   <v type="int" >       12       16       17       19       34 </v>
   <v type="int" >       12       16       17       32       34 </v>
   <v type="int" >       12       16       31       32       34 </v>
   <v type="int" >       12       13       14       17       32 </v>
   <v type="int" >       12       13       16       17       32 </v>
   <v type="int" >       12       13       16       31       32 </v>
   <v type="int" >       12       13       14       29       32 </v>
   <v type="int" >       12       13       28       29       32 </v>
   <v type="int" >       12       13       28       31       32 </v>
   <v type="int" >       12        9       10       14       29 </v>
   <v type="int" >       12        9       13       14       29 </v>
   <v type="int" >       12        9       13       28       29 </v>
   <v type="int" >       12        9       10       25       29 </v>
   <v type="int" >       12        9       24       25       29 </v>
   <v type="int" >       12        9       24       28       29 </v>
   <v type="int" >       12        4        5       10       25 </v>
   <v type="int" >       12        4        9       10       25 </v>
   <v type="int" >       12        4        9       24       25 </v>
   <v type="int" >       12       12       13       16       31 </v>
   <v type="int" >       12       12       13       28       31 </v>
   <v type="int" >       12       12       27       28       31 </v>
   <v type="int" >       12        8        9       13       28 </v>
   <v type="int" >       12        8       12       13       28 </v>
   <v type="int" >       12        8       12       27       28 </v>
   <v type="int" >       12        8        9       24       28 </v>
   <v type="int" >       12        8       23       24       28 </v>
   <v type="int" >       12        8       23       27       28 </v>
   <v type="int" >       12        3        4        9       24 </v>
   <v type="int" >       12        3        8        9       24 </v>
   <v type="int" >       12        3        8       23       24 </v>
   <v type="int" >       12        7        8       12       27 </v>
   <v type="int" >       12        7        8       23       27 </v>
   <v type="int" >       12        7       22       23       27 </v>
   <v type="int" >       12        2        3        8       23 </v>
   <v type="int" >       12        2        7        8       23 </v>
   <v type="int" >       12        2        7       22       23 </v>
   <v type="int" >       12        1        2        7       22 </v>
   <v type="int" >       12       22       23       23       27 </v>
   <v type="int" >       12       23       23       27       27 </v>
   <v type="int" >       12       23       27       27       37 </v>
   <v type="int" >       12       23       24       27       28 </v>
   <v type="int" >       12       23       27       27       28 </v>
   <v type="int" >       12       27       27       28       37 </v>
   <v type="int" >       12       24       27       28       28 </v>
   <v type="int" >       24       27       28       28       38 </v>
   <v type="int" >       24       27       28       37       38 </v>
   <v type="int" >       12       24       25       28       29 </v>
   <v type="int" >       12       24       28       28       29 </v>
   <v type="int" >       12       28       28       29       38 </v>
   <v type="int" >       12       25       28       29       29 </v>
   <v type="int" >       12       28       29       29       39 </v>
   <v type="int" >       12       28       29       38       39 </v>
   <v type="int" >       12       25       26       29       30 </v>
   <v type="int" >       12       25       29       29       30 </v>
   <v type="int" >       12       29       29       30       39 </v>
   <v type="int" >       12       26       29       30       30 </v>
   <v type="int" >       12       29       30       30       40 </v>
   <v type="int" >       12       29       30       39       40 </v>
   <v type="int" >       12       27       28       31       37 </v>
   <v type="int" >       12       28       31       37       38 </v>
   <v type="int" >       12       31       37       38       41 </v>
   <v type="int" >       12       28       29       32       38 </v>
   <v type="int" >       12       28       31       32       38 </v>
   <v type="int" >       12       31       32       38       41 </v>
   <v type="int" >       12       29       32       38       39 </v>
   <v type="int" >       12       32       38       39       42 </v>
   <v type="int" >       12       32       38       41       42 </v>
   <v type="int" >       12       29       30       33       39 </v>
   <v type="int" >       12       29       32       33       39 </v>
   <v type="int" >       12       32       33       39       42 </v>
   <v type="int" >       12       30       33       39       40 </v>
   <v type="int" >       12       33       39       40       43 </v>
   <v type="int" >       12       33       39       42       43 </v>
   <v type="int" >       12       29       30       32       40 </v>
   <v type="int" >       12       30       32       33       40 </v>
   <v type="int" >       12       32       33       40       43 </v>
   <v type="int" >       12       29       32       39       40 </v>
   <v type="int" >       12       32       39       40       42 </v>
   <v type="int" >       12       32       40       42       43 </v>
   <v type="int" >       12       28       29       31       39 </v>
   <v type="int" >       12       29       31       32       39 </v>
   <v type="int" >       12       31       32       39       42 </v>
   <v type="int" >       12       28       31       38       39 </v>
   <v type="int" >       12       31       38       39       41 </v>
   <v type="int" >       12       31       39       41       42 </v>
   <v type="int" >       12       28       28       31       38 </v>
   <v type="int" >       12       28       31       38       41 </v>
   <v type="int" >       12       28       37       38       38 </v>
   <v type="int" >       12       28       38       38       41 </v>
   <v type="int" >       12       23       24       27       37 </v>
   <v type="int" >       12       24       27       28       37 </v>
   <v type="int" >       12       24       28       37       38 </v>
   <v type="int" >       12       31       32       34       41 </v>
   <v type="int" >       12       32       34       41       42 </v>
   <v type="int" >       12       34       41       42       44 </v>
   <v type="int" >       12       32       33       35       42 </v>
   <v type="int" >       12       32       34       35       42 </v>
   <v type="int" >       12       34       35       42       44 </v>
   <v type="int" >       12       33       35       42       43 </v>
   <v type="int" >       12       35       42       43       45 </v>
   <v type="int" >       12       35       42       44       45 </v>
   <v type="int" >       12       32       33       34       43 </v>
   <v type="int" >       12       33       34       35       43 </v>
   <v type="int" >       12       34       35       43       45 </v>
   <v type="int" >       12       32       34       42       43 </v>
   <v type="int" >       12       34       42       43       44 </v>
   <v type="int" >       12       34       43       44       45 </v>
   <v type="int" >       12       31       32       32       42 </v>
   <v type="int" >       12       32       32       34       42 </v>
   <v type="int" >       12       32       34       42       44 </v>
   <v type="int" >       12       31       32       41       42 </v>
   <v type="int" >       12       32       41       42       42 </v>
   <v type="int" >       12       32       42       42       44 </v>
   <v type="int" >       12       28       29       31       41 </v>
   <v type="int" >       12       29       31       32       41 </v>
   <v type="int" >       12       29       32       41       42 </v>
   <v type="int" >       12       28       29       38       41 </v>
   <v type="int" >       12       29       38       39       41 </v>
   <v type="int" >       12       29       39       41       42 </v>
   <v type="int" >       12       24       25       28       38 </v>
   <v type="int" >       12       25       28       29       38 </v>
   <v type="int" >       12       25       29       38       39 </v>
   <v type="int" >       12       34       35       36       44 </v>
   <v type="int" >       12       35       36       44       45 </v>
   <v type="int" >       12       36       44       45       46 </v>
   <v type="int" >       12       34       35       35       45 </v>
   <v type="int" >       12       35       35       36       45 </v>
   <v type="int" >       12       35       36       45       46 </v>
   <v type="int" >       12       34       35       44       45 </v>
   <v type="int" >       12       35       44       45       45 </v>
   <v type="int" >       12       35       45       45       46 </v>
   <v type="int" >       12       32       33       34       44 </v>
   <v type="int" >       12       33       34       35       44 </v>
   <v type="int" >       12       33       35       44       45 </v>
   <v type="int" >       12       32       33       42       44 </v>
   <v type="int" >       12       33       42       43       44 </v>
   <v type="int" >       12       33       43       44       45 </v>
   <v type="int" >       12       29       30       32       42 </v>
   <v type="int" >       12       30       32       33       42 </v>
   <v type="int" >       12       30       33       42       43 </v>
   <v type="int" >       12       29       30       39       42 </v>
   <v type="int" >       12       30       39       40       42 </v>
   <v type="int" >       12       30       40       42       43 </v>
   <v type="int" >       12       25       26       29       39 </v>
   <v type="int" >       12       26       29       30       39 </v>
   <v type="int" >       12       26       30       39       40 </v>
   <v type="int" >       12       34       35       36       46 </v>
   <v type="int" >       12       34       35       45       46 </v>
   <v type="int" >       12       34       44       45       46 </v>
   <v type="int" >       12       32       33       35       45 </v>
   <v type="int" >       12       32       34       35       45 </v>
   <v type="int" >       12       32       34       44       45 </v>
   <v type="int" >       12       32       33       43       45 </v>
   <v type="int" >       12       32       42       43       45 </v>
   <v type="int" >       12       32       42       44       45 </v>
   <v type="int" >       12       29       30       33       43 </v>
   <v type="int" >       12       29       32       33       43 </v>
   <v type="int" >       12       29       32       42       43 </v>
   <v type="int" >       12       29       30       40       43 </v>
   <v type="int" >       12       29       39       40       43 </v>
   <v type="int" >       12       29       39       42       43 </v>
   <v type="int" >       12       25       26       30       40 </v>
   <v type="int" >       12       25       29       30       40 </v>
   <v type="int" >       12       25       29       39       40 </v>
   <v type="int" >       12       31       32       34       44 </v>
   <v type="int" >       12       31       32       42       44 </v>
   <v type="int" >       12       31       41       42       44 </v>
   <v type="int" >       12       28       29       32       42 </v>
   <v type="int" >       12       28       31       32       42 </v>
   <v type="int" >       12       28       31       41       42 </v>
   <v type="int" >       12       28       29       39       42 </v>
   <v type="int" >       12       28       38       39       42 </v>
   <v type="int" >       12       28       38       41       42 </v>
   <v type="int" >       12       24       25       29       39 </v>
   <v type="int" >       12       24       28       29       39 </v>
   <v type="int" >       12       24       28       38       39 </v>
   <v type="int" >       12       27       28       31       41 </v>
   <v type="int" >       12       27       28       38       41 </v>
   <v type="int" >       12       27       37       38       41 </v>
   <v type="int" >       12       23       24       28       38 </v>
   <v type="int" >       12       23       27       28       38 </v>
   <v type="int" >       12       23       27       37       38 </v>
   <v type="int" >       12       22       23       27       37 </v>
   <v type="int" >       12       37       38       38       41 </v>
   <v type="int" >       12       38       38       41       41 </v>
   <v type="int" >       12       38       41       41       47 </v>
   <v type="int" >       12       38       39       41       42 </v>
   <v type="int" >       12       38       41       41       42 </v>
   <v type="int" >       12       41       41       42       47 </v>
   <v type="int" >       12       39       41       42       42 </v>
   <v type="int" >       24       41       42       42       48 </v>
   <v type="int" >       24       41       42       47       48 </v>
   <v type="int" >       12       39       40       42       43 </v>
   <v type="int" >       12       39       42       42       43 </v>
   <v type="int" >       12       42       42       43       48 </v>
   <v type="int" >       12       40       42       43       43 </v>
   <v type="int" >       12       42       43       43       49 </v>
   <v type="int" >       12       42       43       48       49 </v>
   <v type="int" >       12       41       42       44       47 </v>
   <v type="int" >       12       42       44       47       48 </v>
   <v type="int" >       12       44       47       48       50 </v>
   <v type="int" >       12       42       43       45       48 </v>
   <v type="int" >       12       42       44       45       48 </v>
   <v type="int" >       12       44       45       48       50 </v>
   <v type="int" >       12       43       45       48       49 </v>
   <v type="int" >       12       45       48       49       51 </v>
   <v type="int" >       12       45       48       50       51 </v>
   <v type="int" >       12       42       43       44       49 </v>
   <v type="int" >       12       43       44       45       49 </v>
   <v type="int" >       12       44       45       49       51 </v>
   <v type="int" >       12       42       44       48       49 </v>
   <v type="int" >       12       44       48       49       50 </v>
   <v type="int" >       12       44       49       50       51 </v>
   <v type="int" >       12       42       42       44       48 </v>
   <v type="int" >       12       42       44       48       50 </v>
   <v type="int" >       12       42       47       48       48 </v>
   <v type="int" >       12       42       48       48       50 </v>
   <v type="int" >       12       38       39       41       47 </v>
   <v type="int" >       12       39       41       42       47 </v>
   <v type="int" >       12       39       42       47       48 </v>
   <v type="int" >       12       44       45       46       50 </v>
   <v type="int" >       12       45       46       50       51 </v>
   <v type="int" >       12       46       50       51       52 </v>
   <v type="int" >       12       44       45       45       51 </v>
   <v type="int" >       12       45       45       46       51 </v>
   <v type="int" >       12       45       46       51       52 </v>
   <v type="int" >       12       44       45       50       51 </v>
   <v type="int" >       12       45       50       51       51 </v>
   <v type="int" >       12       45       51       51       52 </v>
   <v type="int" >       12       42       43       44       50 </v>
   <v type="int" >       12       43       44       45       50 </v>
   <v type="int" >       12       43       45       50       51 </v>
   <v type="int" >       12       42       43       48       50 </v>
   <v type="int" >       12       43       48       49       50 </v>
   <v type="int" >       12       43       49       50       51 </v>
   <v type="int" >       12       39       40       42       48 </v>
   <v type="int" >       12       40       42       43       48 </v>
   <v type="int" >       12       40       43       48       49 </v>
   <v type="int" >       12       44       45       46       52 </v>
   <v type="int" >       12       44       45       51       52 </v>
   <v type="int" >       12       44       50       51       52 </v>
   <v type="int" >       12       42       43       45       51 </v>
   <v type="int" >       12       42       44       45       51 </v>
   <v type="int" >       12       42       44       50       51 </v>
   <v type="int" >       12       42       43       49       51 </v>
   <v type="int" >       12       42       48       49       51 </v>
   <v type="int" >       12       42       48       50       51 </v>
   <v type="int" >       12       39       40       43       49 </v>
   <v type="int" >       12       39       42       43       49 </v>
   <v type="int" >       12       39       42       48       49 </v>
   <v type="int" >       12       41       42       44       50 </v>
   <v type="int" >       12       41       42       48       50 </v>
   <v type="int" >       12       41       47       48       50 </v>
   <v type="int" >       12       38       39       42       48 </v>
   <v type="int" >       12       38       41       42       48 </v>
   <v type="int" >       12       38       41       47       48 </v>
   <v type="int" >       12       37       38       41       47 </v>
   <v type="int" >       12       47       48       48       50 </v>
   <v type="int" >       12       48       48       50       50 </v>
   <v type="int" >       12       48       50       50       53 </v>
   <v type="int" >       12       48       49       50       51 </v>
   <v type="int" >       12       48       50       50       51 </v>
   <v type="int" >       12       50       50       51       53 </v>
   <v type="int" >       12       49       50       51       51 </v>
   <v type="int" >       24       50       51       51       54 </v>
   <v type="int" >       24       50       51       53       54 </v>
   <v type="int" >       12       50       51       52       53 </v>
   <v type="int" >       12       51       52       53       54 </v>
   <v type="int" >       12       52       53       54       55 </v>
   <v type="int" >       12       51       51       52       54 </v>
   <v type="int" >       12       51       52       54       55 </v>
   <v type="int" >       12       51       53       54       54 </v>
   <v type="int" >       12       51       54       54       55 </v>
   <v type="int" >       12       48       49       50       53 </v>
   <v type="int" >       12       49       50       51       53 </v>
   <v type="int" >       12       49       51       53       54 </v>
   <v type="int" >       12       50       51       52       55 </v>
   <v type="int" >       12       50       51       54       55 </v>
   <v type="int" >       12       50       53       54       55 </v>
   <v type="int" >       12       48       49       51       54 </v>
   <v type="int" >       12       48       50       51       54 </v>
   <v type="int" >       12       48       50       53       54 </v>
   <v type="int" >       12       47       48       50       53 </v>
   <v type="int" >       12       53       54       54       55 </v>
   <v type="int" >       12       54       54       55       55 </v>
   <v type="int" >       12       54       55       55       56 </v>
   <v type="int" >       12       53       54       55       56 </v>
  </varray>
  <i name="volumeweight">      0.00016667 </i>
 </kpoints>
 <parameters>
  <separator name="general" >
   <i type="string" name="SYSTEM">unknown system</i>
   <i type="logical" name="LCOMPAT"> F  </i>
  </separator>
  <separator name="electronic" >
   <i type="string" name="PREC">normal</i>
   <i name="ENMAX">    500.00000000</i>
   <i name="ENAUG">    358.96600000</i>
   <i name="EDIFF">      0.00001000</i>
   <i type="int" name="IALGO">    68</i>
   <i type="int" name="IWAVPR">    10</i>
   <i type="int" name="NBANDS">    10</i>
   <i name="NELECT">     10.00000000</i>
   <i type="int" name="TURBO">     0</i>
   <i type="int" name="IRESTART">     0</i>
   <i type="int" name="NREBOOT">     0</i>
   <i type="int" name="NMIN">     0</i>
   <i name="EREF">      0.00000000</i>
   <separator name="electronic smearing" >
    <i type="int" name="ISMEAR">    -5</i>
    <i name="SIGMA">      0.20000000</i>
    <i name="KSPACING">      0.50000000</i>
    <i type="logical" name="KGAMMA"> T  </i>
   </separator>
   <separator name="electronic projectors" >
    <i type="logical" name="LREAL"> T  </i>
    <v name="ROPT">     -0.00050000</v>
    <i type="int" name="LMAXPAW">  -100</i>
    <i type="int" name="LMAXMIX">     2</i>
    <i type="logical" name="NLSPLINE"> F  </i>
   </separator>
   <separator name="electronic startup" >
    <i type="int" name="ISTART">     0</i>
    <i type="int" name="ICHARG">     2</i>
    <i type="int" name="INIWAV">     1</i>
   </separator>
   <separator name="electronic spin" >
    <i type="int" name="ISPIN">     1</i>
    <i type="logical" name="LNONCOLLINEAR"> F  </i>
    <v name="MAGMOM">      1.00000000</v>
    <i name="NUPDOWN">     -1.00000000</i>
    <i type="logical" name="LSORBIT"> F  </i>
    <v name="SAXIS">      0.00000000      0.00000000      1.00000000</v>
    <i type="logical" name="LSPIRAL"> F  </i>
    <v name="QSPIRAL">      0.00000000      0.00000000      0.00000000</v>
    <i type="logical" name="LZEROZ"> F  </i>
   </separator>
   <separator name="electronic exchange-correlation" >
    <i type="logical" name="LASPH"> F  </i>
    <i type="logical" name="LMETAGGA"> F  </i>
   </separator>
   <separator name="electronic convergence" >
    <i type="int" name="NELM">    60</i>
    <i type="int" name="NELMDL">    -5</i>
    <i type="int" name="NELMIN">     4</i>
    <i name="ENINI">    500.00000000</i>
    <separator name="electronic convergence detail" >
     <i type="logical" name="LDIAG"> T  </i>
     <i type="logical" name="LSUBROT"> F  </i>
     <i name="WEIMIN">      0.00000000</i>
     <i name="EBREAK">      0.00000025</i>
     <i name="DEPER">      0.30000000</i>
     <i type="int" name="NRMM">     4</i>
     <i name="TIME">      0.40000000</i>
    </separator>
   </separator>
   <separator name="electronic mixer" >
    <i name="AMIX">      0.40000000</i>
    <i name="BMIX">      1.00000000</i>
    <i name="AMIN">      0.10000000</i>
    <i name="AMIX_MAG">      1.60000000</i>
    <i name="BMIX_MAG">      1.00000000</i>
    <separator name="electronic mixer details" >
     <i type="int" name="IMIX">     4</i>
     <i type="logical" name="MIXFIRST"> F  </i>
     <i type="int" name="MAXMIX">   -45</i>
     <i name="WC">    100.00000000</i>
     <i type="int" name="INIMIX">     1</i>
     <i type="int" name="MIXPRE">     1</i>
     <i type="int" name="MREMOVE">     5</i>
    </separator>
   </separator>
   <separator name="electronic dipolcorrection" >
    <i type="logical" name="LDIPOL"> F  </i>
    <i type="logical" name="LMONO"> F  </i>
    <i type="int" name="IDIPOL">     0</i>
    <i name="EPSILON">      1.00000000</i>
    <v name="DIPOL">   -100.00000000   -100.00000000   -100.00000000</v>
    <i name="EFIELD">      0.00000000</i>
   </separator>
  </separator>
  <separator name="grids" >
   <i type="int" name="NGX">    14</i>
   <i type="int" name="NGY">    14</i>
   <i type="int" name="NGZ">    14</i>
   <i type="int" name="NGXF">    28</i>
   <i type="int" name="NGYF">    28</i>
   <i type="int" name="NGZF">    28</i>
   <i type="logical" name="ADDGRID"> F  </i>
  </separator>
  <separator name="ionic" >
   <i type="int" name="NSW">     0</i>
   <i type="int" name="IBRION">    -1</i>
   <i type="int" name="ISIF">     2</i>
   <i name="PSTRESS">      0.00000000</i>
   <i name="EDIFFG">      0.00010000</i>
   <i type="int" name="NFREE">     0</i>
   <i name="POTIM">      0.50000000</i>
   <i name="SMASS">     -3.00000000</i>
   <i name="SCALEE">      1.00000000</i>
  </separator>
  <separator name="ionic md" >
   <i name="TEBEG">      0.00010000</i>
   <i name="TEEND">      0.00010000</i>
   <i type="int" name="NBLOCK">     1</i>
   <i type="int" name="KBLOCK">     1</i>
   <i type="int" name="NPACO">   256</i>
   <i name="APACO">     16.00000000</i>
  </separator>
  <separator name="symmetry" >
   <i type="int" name="ISYM">     2</i>
   <i name="SYMPREC">      0.00001000</i>
  </separator>
  <separator name="dos" >
   <i type="logical" name="LORBIT"> F  </i>
   <v name="RWIGS">     -1.00000000</v>
   <i type="int" name="NEDOS">   301</i>
   <i name="EMIN">     10.00000000</i>
   <i name="EMAX">    -10.00000000</i>
   <i name="EFERMI">      0.00000000</i>
  </separator>
  <separator name="writing" >
   <i type="int" name="NWRITE">     2</i>
   <i type="logical" name="LWAVE"> F  </i>
   <i type="logical" name="LCHARG"> T  </i>
   <i type="logical" name="LPARD"> F  </i>
   <i type="logical" name="LVTOT"> F  </i>
   <i type="logical" name="LVHAR"> F  </i>
   <i type="logical" name="LELF"> F  </i>
   <i type="logical" name="LOPTICS"> F  </i>
   <v name="STM">      0.00000000      0.00000000      0.00000000      0.00000000      0.00000000      0.00000000      0.00000000</v>
  </separator>
  <separator name="performance" >
   <i type="int" name="NPAR">     2</i>
   <i type="int" name="NSIM">     4</i>
   <i type="int" name="NBLK">    -1</i>
   <i type="logical" name="LPLANE"> T  </i>
   <i type="logical" name="LSCALAPACK"> F  </i>
   <i type="logical" name="LSCAAWARE"> F  </i>
   <i type="logical" name="LSCALU"> F  </i>
   <i type="logical" name="LASYNC"> F  </i>
   <i type="logical" name="LORBITALREAL"> F  </i>
  </separator>
  <separator name="miscellaneous" >
   <i type="int" name="IDIOT">     3</i>
   <i type="logical" name="LMUSIC"> F  </i>
   <v name="POMASS">    195.08000000</v>
   <v name="DARWINR">      0.00000000</v>
   <v name="DARWINV">      1.00000000</v>
   <i type="logical" name="LCORR"> T  </i>
  </separator>
  <i type="logical" name="GGA_COMPAT"> T  </i>
  <i type="logical" name="LBERRY"> F  </i>
  <i type="int" name="ICORELEVEL">     0</i>
  <i type="logical" name="LDAU"> F  </i>
  <i type="int" name="I_CONSTRAINED_M">     0</i>
  <separator name="electronic exchange-correlation" >
   <i type="string" name="GGA">--</i>
   <i type="int" name="VOSKOWN">     0</i>
   <i type="logical" name="LHFCALC"> F  </i>
   <i type="string" name="PRECFOCK"></i>
   <i type="logical" name="LSYMGRAD"> F  </i>
   <i type="logical" name="LHFONE"> F  </i>
   <i type="logical" name="LRHFCALC"> F  </i>
   <i type="logical" name="LTHOMAS"> F  </i>
   <i type="logical" name="LMODELHF"> F  </i>
   <i name="ENCUT4O">     -1.00000000</i>
   <i type="int" name="EXXOEP">     0</i>
   <i type="int" name="FOURORBIT">     0</i>
   <i name="AEXX">      0.00000000</i>
   <i name="HFALPHA">      0.00000000</i>
   <i name="MCALPHA">      0.00000000</i>
   <i name="ALDAX">      1.00000000</i>
   <i name="AGGAX">      1.00000000</i>
   <i name="ALDAC">      1.00000000</i>
   <i name="AGGAC">      1.00000000</i>
   <i type="int" name="NKREDX">     1</i>
   <i type="int" name="NKREDY">     1</i>
   <i type="int" name="NKREDZ">     1</i>
   <i type="logical" name="SHIFTRED"> F  </i>
   <i type="logical" name="ODDONLY"> F  </i>
   <i type="logical" name="EVENONLY"> F  </i>
   <i type="int" name="LMAXFOCK">     0</i>
   <i type="int" name="NMAXFOCKAE">     0</i>
   <i type="logical" name="LFOCKAEDFT"> F  </i>
   <i name="HFSCREEN">      0.00000000</i>
   <i name="HFSCREENC">      0.00000000</i>
   <i type="int" name="NBANDSGWLOW">     0</i>
  </separator>
  <separator name="vdW DFT" >
   <i type="logical" name="LUSE_VDW"> F  </i>
   <i name="Zab_VDW">     -0.84910000</i>
   <i name="PARAM1">      0.12340000</i>
   <i name="PARAM2">      1.00000000</i>
   <i name="PARAM3">      0.00000000</i>
  </separator>
  <separator name="model GW" >
   <i type="int" name="MODEL_GW">     0</i>
   <i name="MODEL_EPS0">      9.37500000</i>
   <i name="MODEL_ALPHA">      1.00000000</i>
  </separator>
  <separator name="linear response parameters" >
   <i type="logical" name="LEPSILON"> F  </i>
   <i type="logical" name="LRPA"> F  </i>
   <i type="logical" name="LNABLA"> F  </i>
   <i type="logical" name="LVEL"> F  </i>
   <i type="int" name="KINTER">     0</i>
   <i name="CSHIFT">      0.10000000</i>
   <i name="OMEGAMAX">     -1.00000000</i>
   <i name="DEG_THRESHOLD">      0.00200000</i>
  </separator>
  <separator name="orbital magnetization" >
   <i type="logical" name="NUCIND"> F  </i>
   <v name="MAGPOS">      0.00000000      0.00000000      0.00000000</v>
   <i type="logical" name="LNICSALL"> T  </i>
   <i type="logical" name="ORBITALMAG"> F  </i>
   <i type="logical" name="LMAGBLOCH"> F  </i>
   <i type="logical" name="LCHIMAG"> F  </i>
   <i type="logical" name="LGAUGE"> T  </i>
   <i type="int" name="MAGATOM">     0</i>
   <v name="MAGDIPOL">      0.00000000      0.00000000      0.00000000</v>
   <v name="AVECCONST">      0.00000000      0.00000000      0.00000000</v>
  </separator>
  <separator name="response functions" >
   <i type="logical" name="LADDER"> F  </i>
   <i type="logical" name="LFXC"> F  </i>
   <i type="logical" name="LHARTREE"> T  </i>
   <i type="int" name="IBSE">     0</i>
   <v type="int" name="KPOINT">    -1     0     0     0</v>
   <i type="logical" name="LTCTE"> F  </i>
   <i type="logical" name="LTETE"> F  </i>
   <i type="logical" name="LTRIPLET"> F  </i>
   <i type="logical" name="LFXCEPS"> F  </i>
   <i type="logical" name="LFXHEG"> F  </i>
   <i type="int" name="NATURALO">     0</i>
   <i type="logical" name="L2ORDER"> F  </i>
   <i type="logical" name="LUSEW"> F  </i>
   <i name="ENCUTGW">     -2.00000000</i>
   <i name="ENCUTGWSOFT">     -2.00000000</i>
   <i name="ENCUTLF">     -1.00000000</i>
   <i type="int" name="LMAXMP2">    -1</i>
   <i name="SCISSOR">      0.00000000</i>
   <i type="int" name="NOMEGA">     0</i>
   <i type="int" name="NOMEGAR">     0</i>
   <i type="int" name="NBANDSGW">    -1</i>
   <i type="int" name="NBANDSO">    -1</i>
   <i type="int" name="NBANDSV">    -1</i>
   <i type="int" name="NELM">     1</i>
   <i type="int" name="NELMHF">     1</i>
   <i type="int" name="DIM">     3</i>
   <i type="int" name="ANTIRES">     0</i>
   <i name="OMEGAMAX">    -30.00000000</i>
   <i name="OMEGAMIN">    -30.00000000</i>
   <i name="OMEGATL">   -200.00000000</i>
   <i type="int" name="OMEGAGRID">     0</i>
   <i name="CSHIFT">     -0.10000000</i>
   <i type="logical" name="SELFENERGY"> F  </i>
   <i type="logical" name="LSPECTRAL"> F  </i>
   <i type="logical" name="LSPECTRALGW"> F  </i>
   <i type="logical" name="LSINGLES"> F  </i>
   <i type="logical" name="LFERMIGW"> F  </i>
   <i type="logical" name="ODDONLYGW"> F  </i>
   <i type="logical" name="EVENONLYGW"> F  </i>
   <i type="int" name="NKREDLFX">     1</i>
   <i type="int" name="NKREDLFY">     1</i>
   <i type="int" name="NKREDLFZ">     1</i>
   <i type="int" name="MAXMEM">  1800</i>
   <i type="int" name="TELESCOPE">     0</i>
   <i type="int" name="TAUPAR">     1</i>
   <i type="int" name="OMEGAPAR">    -1</i>
   <i name="LAMBDA">      1.00000000</i>
  </separator>
  <separator name="External order field" >
   <i name="OFIELD_KAPPA">      0.00000000</i>
   <v name="OFIELD_K">      0.00000000      0.00000000      0.00000000</v>
   <i name="OFIELD_Q6_NEAR">      0.00000000</i>
   <i name="OFIELD_Q6_FAR">      0.00000000</i>
   <i name="OFIELD_A">      0.00000000</i>
  </separator>
 </parameters>
 <atominfo>
  <atoms>       1 </atoms>
  <types>       1 </types>
  <array name="atoms" >
   <dimension dim="1">ion</dimension>
   <field type="string">element</field>
   <field type="int">atomtype</field>
   <set>
    <rc><c>Pt</c><c>   1</c></rc>
   </set>
  </array>
  <array name="atomtypes" >
   <dimension dim="1">type</dimension>
   <field type="int">atomspertype</field>
   <field type="string">element</field>
   <field>mass</field>
   <field>valence</field>
   <field type="string">pseudopotential</field>
   <set>
    <rc><c>   1</c><c>Pt</c><c>    195.08000000</c><c>     10.00000000</c><c> PAW_PBE Pt 05Jan2001                   </c></rc>
   </set>
  </array>
 </atominfo>
 <structure name="initialpos" >
  <crystal>
   <varray name="basis" >
    <v>       2.50000000       0.00000000       0.00000000 </v>
    <v>       0.00000000       2.50000000       0.00000000 </v>
    <v>       0.00000000       0.00000000       2.50000000 </v>
   </varray>
   <i name="volume">     15.62500000 </i>
   <varray name="rec_basis" >
    <v>       0.40000000       0.00000000       0.00000000 </v>
    <v>       0.00000000       0.40000000       0.00000000 </v>
    <v>       0.00000000       0.00000000       0.40000000 </v>
   </varray>
  </crystal>
  <varray name="positions" >
   <v>       0.00000000       0.00000000       0.00000000 </v>
  </varray>
 </structure>
 <calculation>
  <scstep>
   <time name="dav">    0.17    0.17</time>
   <time name="total">    0.19    0.20</time>
   <energy>
    <i name="alphaZ">     93.11697920 </i>
    <i name="ewald">   -817.12960021 </i>
    <i name="hartreedc">    -85.73147341 </i>
    <i name="XCdc">      3.89164828 </i>
    <i name="pawpsdc">    573.24549325 </i>
    <i name="pawaedc">   -544.96212058 </i>
    <i name="eentropy">      0.00000000 </i>
    <i name="bandstr">    112.64654282 </i>
    <i name="atom">    729.11316681 </i>
    <i name="e_fr_energy">     64.19063616 </i>
    <i name="e_wo_entrp">     64.19063616 </i>
    <i name="e_0_energy">     64.19063616 </i>
   </energy>
  </scstep>
  <scstep>
   <time name="dav">    0.16    0.16</time>
   <time name="total">    0.17    0.18</time>
   <energy>
    <i name="e_fr_energy">     -4.37935380 </i>
    <i name="e_wo_entrp">     -4.37935380 </i>
    <i name="e_0_energy">     -4.37935380 </i>
   </energy>
  </scstep>
  <scstep>
   <time name="dav">    0.19    0.19</time>
   <time name="total">    0.20    0.20</time>
   <energy>
    <i name="e_fr_energy">     -5.62796135 </i>
    <i name="e_wo_entrp">     -5.62796135 </i>
    <i name="e_0_energy">     -5.62796135 </i>
   </energy>
  </scstep>
  <scstep>
   <time name="dav">    0.19    0.19</time>
   <time name="total">    0.20    0.20</time>
   <energy>
    <i name="e_fr_energy">     -5.64049971 </i>
    <i name="e_wo_entrp">     -5.64049971 </i>
    <i name="e_0_energy">     -5.64049971 </i>
   </energy>
  </scstep>
  <scstep>
   <time name="dav">    0.19    0.19</time>
   <time name="total">    0.20    0.21</time>
   <energy>
    <i name="e_fr_energy">     -5.64080497 </i>
    <i name="e_wo_entrp">     -5.64080497 </i>
    <i name="e_0_energy">     -5.64080497 </i>
   </energy>
  </scstep>
  <scstep>
   <time name="diag">    0.02    0.02</time>
   <time name="diis">    0.10    0.10</time>
   <time name="orth">    0.00    0.00</time>
   <time name="total">    0.15    0.17</time>
   <energy>
    <i name="e_fr_energy">     -5.36495433 </i>
    <i name="e_wo_entrp">     -5.36495433 </i>
    <i name="e_0_energy">     -5.36495433 </i>
   </energy>
  </scstep>
  <scstep>
   <time name="diag">    0.02    0.02</time>
   <time name="diis">    0.10    0.10</time>
   <time name="orth">    0.00    0.00</time>
   <time name="total">    0.15    0.21</time>
   <energy>
    <i name="e_fr_energy">     -5.33112240 </i>
    <i name="e_wo_entrp">     -5.33112240 </i>
    <i name="e_0_energy">     -5.33112240 </i>
   </energy>
  </scstep>
  <scstep>
   <time name="diag">    0.02    0.02</time>
   <time name="diis">    0.11    0.11</time>
   <time name="orth">    0.00    0.00</time>
   <time name="total">    0.16    0.18</time>
   <energy>
    <i name="e_fr_energy">     -5.32625989 </i>
    <i name="e_wo_entrp">     -5.32625989 </i>
    <i name="e_0_energy">     -5.32625989 </i>
   </energy>
  </scstep>
  <scstep>
   <time name="diag">    0.02    0.02</time>
   <time name="diis">    0.12    0.12</time>
   <time name="orth">    0.00    0.00</time>
   <time name="total">    0.17    0.18</time>
   <energy>
    <i name="e_fr_energy">     -5.32629842 </i>
    <i name="e_wo_entrp">     -5.32629842 </i>
    <i name="e_0_energy">     -5.32629842 </i>
   </energy>
  </scstep>
  <scstep>
   <time name="diag">    0.02    0.02</time>
   <time name="diis">    0.09    0.09</time>
   <time name="orth">    0.00    0.00</time>
   <time name="total">    0.14    0.15</time>
   <energy>
    <i name="e_fr_energy">     -5.32628240 </i>
    <i name="e_wo_entrp">     -5.32628240 </i>
    <i name="e_0_energy">     -5.32628240 </i>
   </energy>
  </scstep>
  <scstep>
   <time name="diag">    0.02    0.02</time>
   <time name="diis">    0.07    0.07</time>
   <time name="orth">    0.00    0.00</time>
   <time name="total">    0.11    0.13</time>
   <energy>
    <i name="alphaZ">     93.11697920 </i>
    <i name="ewald">   -817.12960021 </i>
    <i name="hartreedc">    -76.25303932 </i>
    <i name="XCdc">      3.58672987 </i>
    <i name="pawpsdc">    628.94751101 </i>
    <i name="pawaedc">   -603.88741386 </i>
    <i name="eentropy">      0.00000000 </i>
    <i name="bandstr">     37.17938117 </i>
    <i name="atom">    729.11316681 </i>
    <i name="e_fr_energy">     -5.32628534 </i>
    <i name="e_wo_entrp">     -5.32628534 </i>
    <i name="e_0_energy">     -5.32628534 </i>
   </energy>
  </scstep>
  <structure>
   <crystal>
    <varray name="basis" >
     <v>       2.50000000       0.00000000       0.00000000 </v>
     <v>       0.00000000       2.50000000       0.00000000 </v>
     <v>       0.00000000       0.00000000       2.50000000 </v>
    </varray>
    <i name="volume">     15.62500000 </i>
    <varray name="rec_basis" >
     <v>       0.40000000       0.00000000       0.00000000 </v>
     <v>       0.00000000       0.40000000       0.00000000 </v>
     <v>       0.00000000       0.00000000       0.40000000 </v>
    </varray>
   </crystal>
   <varray name="positions" >
    <v>       0.00000000       0.00000000       0.00000000 </v>
   </varray>
  </structure>
  <varray name="forces" >
   <v>       0.00000000       0.00000000       0.00000000 </v>
  </varray>
  <varray name="stress" >
   <v>     419.93907427      -0.00000000       0.00000000 </v>
   <v>       0.00000000     419.93907427       0.00000000 </v>
   <v>       0.00000000       0.00000000     419.93907427 </v>
  </varray>
  <energy>
   <i name="e_fr_energy">     -5.32628534 </i>
   <i name="e_wo_entrp">     -5.32628534 </i>
   <i name="e_0_energy">      0.00000000 </i>
  </energy>
  <time name="totalsc">    2.08    2.34</time>
  <eigenvalues>
   <array>
    <dimension dim="1">band</dimension>
    <dimension dim="2">kpoint</dimension>
    <dimension dim="3">spin</dimension>
    <field>eigene</field>
    <field>occ</field>
    <set>
     <set comment="spin 1">
      <set comment="kpoint 1">
       <r>   -2.3588    1.0000 </r>
       <r>    0.4857    1.0000 </r>
       <r>    0.4857    1.0000 </r>
       <r>    7.8864   -0.2056 </r>
       <r>    7.8864   -0.1387 </r>
       <r>    7.8864   -0.0240 </r>
       <r>   23.8014    0.0000 </r>
       <r>   23.8014    0.0000 </r>
       <r>   23.8014    0.0000 </r>
       <r>   29.9745    0.0000 </r>
      </set>
      <set comment="kpoint 2">
       <r>   -2.0428    1.0000 </r>
       <r>    0.5497    1.0000 </r>
       <r>    0.8045    1.0000 </r>
       <r>    7.5613    0.7030 </r>
       <r>    7.5613    0.3858 </r>
       <r>    7.9119   -0.0569 </r>
       <r>   21.8737    0.0000 </r>
       <r>   24.3860    0.0000 </r>
       <r>   24.3860    0.0000 </r>
       <r>   30.9643    0.0000 </r>
      </set>
      <set comment="kpoint 3">
       <r>   -1.2690    1.0000 </r>
       <r>    0.7217    1.0000 </r>
       <r>    1.8177    1.0000 </r>
       <r>    6.7896    1.0032 </r>
       <r>    6.7896    1.0405 </r>
       <r>    7.9794   -0.0748 </r>
       <r>   18.7402    0.0000 </r>
       <r>   25.8982    0.0000 </r>
       <r>   25.8982    0.0000 </r>
       <r>   28.6673    0.0000 </r>
      </set>
      <set comment="kpoint 4">
       <r>   -0.4022    1.0000 </r>
       <r>    0.9434    1.0000 </r>
       <r>    3.5037    1.0000 </r>
       <r>    5.9547    1.0000 </r>
       <r>    5.9547    1.0000 </r>
       <r>    8.0640   -0.0285 </r>
       <r>   15.8993    0.0000 </r>
       <r>   26.5825    0.0000 </r>
       <r>   27.8492    0.0000 </r>
       <r>   27.8492    0.0000 </r>
      </set>
      <set comment="kpoint 5">
       <r>    0.2759    1.0000 </r>
       <r>    1.1308    1.0000 </r>
       <r>    5.3501    1.0000 </r>
       <r>    5.3501    1.0000 </r>
       <r>    5.3688    1.0161 </r>
       <r>    8.1333   -0.0011 </r>
       <r>   13.7588    0.0000 </r>
       <r>   25.2260    0.0000 </r>
       <r>   29.5232    0.0000 </r>
       <r>   29.7196    0.0000 </r>
      </set>
      <set comment="kpoint 6">
       <r>    0.5414    1.0000 </r>
       <r>    1.2045    1.0000 </r>
       <r>    5.1327    1.0000 </r>
       <r>    5.1327    1.0000 </r>
       <r>    6.2931    1.0614 </r>
       <r>    8.1600    0.0000 </r>
       <r>   12.8616    0.0000 </r>
       <r>   24.7560    0.0000 </r>
       <r>   28.7188    0.0000 </r>
       <r>   30.6343    0.0000 </r>
      </set>
      <set comment="kpoint 7">
       <r>   -1.7214    1.0000 </r>
       <r>    0.7466    1.0000 </r>
       <r>    0.9833    1.0000 </r>
       <r>    7.2185    1.0050 </r>
       <r>    7.5375    0.6592 </r>
       <r>    7.6444    0.0880 </r>
       <r>   22.0898    0.0000 </r>
       <r>   22.7353    0.0000 </r>
       <r>   24.9750    0.0000 </r>
       <r>   30.6803    0.0000 </r>
      </set>
      <set comment="kpoint 8">
       <r>   -0.9453    1.0000 </r>
       <r>    0.9765    1.0000 </r>
       <r>    1.9208    1.0000 </r>
       <r>    6.4303    1.0016 </r>
       <r>    6.8194    1.0252 </r>
       <r>    7.6761    0.1839 </r>
       <r>   19.2239    0.0000 </r>
       <r>   23.6858    0.0000 </r>
       <r>   26.5017    0.0000 </r>
       <r>   29.0205    0.0000 </r>
      </set>
      <set comment="kpoint 9">
       <r>   -0.0930    1.0000 </r>
       <r>    1.2190    1.0000 </r>
       <r>    3.4287    1.0000 </r>
       <r>    5.7790    1.0000 </r>
       <r>    5.9947    1.0000 </r>
       <r>    7.7683    0.0836 </r>
       <r>   16.3189    0.0000 </r>
       <r>   25.0346    0.0000 </r>
       <r>   27.3437    0.0000 </r>
       <r>   28.4831    0.0000 </r>
      </set>
      <set comment="kpoint 10">
       <r>    0.5719    1.0000 </r>
       <r>    1.4426    1.0000 </r>
       <r>    4.0341    1.0000 </r>
       <r>    5.3955    1.0000 </r>
       <r>    6.5450    1.0322 </r>
       <r>    7.8451    0.0054 </r>
       <r>   13.9818    0.0000 </r>
       <r>   25.2907    0.0000 </r>
       <r>   27.2734    0.0000 </r>
       <r>   30.4389    0.0000 </r>
      </set>
      <set comment="kpoint 11">
       <r>    0.8309    1.0000 </r>
       <r>    1.5484    1.0000 </r>
       <r>    3.9157    1.0000 </r>
       <r>    5.1797    1.0000 </r>
       <r>    7.5196    0.8842 </r>
       <r>    7.8747    0.0000 </r>
       <r>   12.8774    0.0000 </r>
       <r>   25.0047    0.0000 </r>
       <r>   28.2852    0.0000 </r>
       <r>   28.7511    0.0000 </r>
      </set>
      <set comment="kpoint 12">
       <r>   -0.2264    1.0000 </r>
       <r>    1.6186    1.0000 </r>
       <r>    2.4310    1.0000 </r>
       <r>    5.6697    1.0000 </r>
       <r>    6.8053    1.0005 </r>
       <r>    7.0434    1.0672 </r>
       <r>   20.3347    0.0000 </r>
       <r>   20.4816    0.0000 </r>
       <r>   28.0652    0.0000 </r>
       <r>   28.6972    0.0000 </r>
      </set>
      <set comment="kpoint 13">
       <r>    0.4692    1.0000 </r>
       <r>    2.0278    1.0000 </r>
       <r>    3.4133    1.0000 </r>
       <r>    5.5754    1.0000 </r>
       <r>    6.0985    1.0000 </r>
       <r>    7.0585    0.9797 </r>
       <r>   17.2892    0.0000 </r>
       <r>   21.9339    0.0000 </r>
       <r>   27.5900    0.0000 </r>
       <r>   30.0854    0.0000 </r>
      </set>
      <set comment="kpoint 14">
       <r>    0.9846    1.0000 </r>
       <r>    2.2863    1.0000 </r>
       <r>    3.2458    1.0000 </r>
       <r>    5.5160    1.0000 </r>
       <r>    7.1475    1.0037 </r>
       <r>    7.5034    0.2106 </r>
       <r>   14.5331    0.0000 </r>
       <r>   23.5822    0.0000 </r>
       <r>   26.4586    0.0000 </r>
       <r>   29.6451    0.0000 </r>
      </set>
      <set comment="kpoint 15">
       <r>    1.1888    1.0000 </r>
       <r>    2.4225    1.0000 </r>
       <r>    2.9994    1.0000 </r>
       <r>    5.3048    1.0000 </r>
       <r>    7.1832    1.0126 </r>
       <r>    9.0846    0.0000 </r>
       <r>   12.9047    0.0000 </r>
       <r>   25.0123    0.0000 </r>
       <r>   25.5987    0.0000 </r>
       <r>   27.8930    0.0000 </r>
      </set>
      <set comment="kpoint 16">
       <r>    0.9204    1.0000 </r>
       <r>    1.9778    1.0000 </r>
       <r>    4.6944    1.0000 </r>
       <r>    5.9848    1.0000 </r>
       <r>    6.1514    1.0069 </r>
       <r>    6.3561    0.9414 </r>
       <r>   17.4857    0.0000 </r>
       <r>   19.9972    0.0000 </r>
       <r>   26.9875    0.0000 </r>
       <r>   31.9664    0.0000 </r>
      </set>
      <set comment="kpoint 17">
       <r>    1.2029    1.0000 </r>
       <r>    1.5766    1.0000 </r>
       <r>    5.2822    1.0000 </r>
       <r>    5.6684    1.0000 </r>
       <r>    6.3764    1.0208 </r>
       <r>    8.3031    0.0209 </r>
       <r>   15.0282    0.0000 </r>
       <r>   21.1015    0.0000 </r>
       <r>   25.3706    0.0000 </r>
       <r>   29.8931    0.0000 </r>
      </set>
      <set comment="kpoint 18">
       <r>    1.2165    1.0000 </r>
       <r>    1.5029    1.0000 </r>
       <r>    5.3819    1.0000 </r>
       <r>    5.4638    1.0000 </r>
       <r>    6.4167    1.0286 </r>
       <r>   10.4992    0.0000 </r>
       <r>   12.8704    0.0000 </r>
       <r>   22.5666    0.0000 </r>
       <r>   23.7478    0.0000 </r>
       <r>   28.8826    0.0000 </r>
      </set>
      <set comment="kpoint 19">
       <r>    0.6807    1.0000 </r>
       <r>    1.6601    1.0000 </r>
       <r>    5.7667    1.0000 </r>
       <r>    5.8379    1.0000 </r>
       <r>    7.5337    0.5337 </r>
       <r>    9.4656   -0.0170 </r>
       <r>   14.4417    0.0000 </r>
       <r>   19.8678    0.0000 </r>
       <r>   23.4962    0.0000 </r>
       <r>   30.7622    0.0000 </r>
      </set>
      <set comment="kpoint 20">
       <r>    0.4411    1.0000 </r>
       <r>    1.7547    1.0000 </r>
       <r>    5.5962    1.0000 </r>
       <r>    5.8524    1.0000 </r>
       <r>    8.1484    0.1105 </r>
       <r>   11.5868    0.0000 </r>
       <r>   12.5827    0.0000 </r>
       <r>   20.0220    0.0000 </r>
       <r>   22.3754    0.0000 </r>
       <r>   30.2565    0.0000 </r>
      </set>
      <set comment="kpoint 21">
       <r>    0.1742    1.0000 </r>
       <r>    1.8531    1.0000 </r>
       <r>    5.6478    1.0000 </r>
       <r>    5.6478    1.0000 </r>
       <r>    9.9137    0.0000 </r>
       <r>   12.0238    0.0000 </r>
       <r>   12.0238    0.0000 </r>
       <r>   18.8644    0.0000 </r>
       <r>   21.8018    0.0000 </r>
       <r>   30.9393    0.0000 </r>
      </set>
      <set comment="kpoint 22">
       <r>   -1.3902    1.0000 </r>
       <r>    1.0469    1.0000 </r>
       <r>    1.0469    1.0000 </r>
       <r>    7.1678    1.0053 </r>
       <r>    7.2951    0.9783 </r>
       <r>    7.2951    0.7533 </r>
       <r>   22.2592    0.0000 </r>
       <r>   23.2939    0.0000 </r>
       <r>   23.2939    0.0000 </r>
       <r>   32.2301    0.0000 </r>
      </set>
      <set comment="kpoint 23">
       <r>   -0.5992    1.0000 </r>
       <r>    1.2192    1.0000 </r>
       <r>    2.0107    1.0000 </r>
       <r>    6.4688    1.0010 </r>
       <r>    6.4691    1.0118 </r>
       <r>    7.3486    0.7892 </r>
       <r>   19.6992    0.0000 </r>
       <r>   23.8024    0.0000 </r>
       <r>   24.6232    0.0000 </r>
       <r>   30.2746    0.0000 </r>
      </set>
      <set comment="kpoint 24">
       <r>    0.2621    1.0000 </r>
       <r>    1.4465    1.0000 </r>
       <r>    3.3859    1.0000 </r>
       <r>    5.5747    1.0000 </r>
       <r>    6.0387    1.0000 </r>
       <r>    7.4532    0.5198 </r>
       <r>   16.7554    0.0000 </r>
       <r>   25.1373    0.0000 </r>
       <r>   25.7062    0.0000 </r>
       <r>   29.2039    0.0000 </r>
      </set>
      <set comment="kpoint 25">
       <r>    0.9692    1.0000 </r>
       <r>    1.6466    1.0000 </r>
       <r>    3.7422    1.0000 </r>
       <r>    4.9195    1.0000 </r>
       <r>    7.2086    1.0014 </r>
       <r>    7.5464    0.1228 </r>
       <r>   14.2446    0.0000 </r>
       <r>   25.5494    0.0000 </r>
       <r>   26.5181    0.0000 </r>
       <r>   29.8528    0.0000 </r>
      </set>
      <set comment="kpoint 26">
       <r>    1.2791    1.0000 </r>
       <r>    1.7284    1.0000 </r>
       <r>    3.5863    1.0000 </r>
       <r>    4.6800    1.0000 </r>
       <r>    7.5686    0.8692 </r>
       <r>    8.4240    0.0000 </r>
       <r>   12.9175    0.0000 </r>
       <r>   25.2971    0.0000 </r>
       <r>   27.6686    0.0000 </r>
       <r>   28.7540    0.0000 </r>
      </set>
      <set comment="kpoint 27">
       <r>    0.1645    1.0000 </r>
       <r>    1.8338    1.0000 </r>
       <r>    2.4852    1.0000 </r>
       <r>    5.7154    1.0000 </r>
       <r>    6.5209    1.0003 </r>
       <r>    6.6478    1.0603 </r>
       <r>   20.8040    0.0000 </r>
       <r>   20.9469    0.0000 </r>
       <r>   25.4622    0.0000 </r>
       <r>   30.6406    0.0000 </r>
      </set>
      <set comment="kpoint 28">
       <r>    0.8915    1.0000 </r>
       <r>    2.1792    1.0000 </r>
       <r>    3.4327    1.0000 </r>
       <r>    5.2607    1.0000 </r>
       <r>    6.1865    1.0000 </r>
       <r>    6.7342    0.9998 </r>
       <r>   17.7794    0.0000 </r>
       <r>   22.3067    0.0000 </r>
       <r>   26.4974    0.0000 </r>
       <r>   29.8323    0.0000 </r>
      </set>
      <set comment="kpoint 29">
       <r>    1.4640    1.0000 </r>
       <r>    2.3732    1.0000 </r>
       <r>    3.2815    1.0000 </r>
       <r>    4.8156    1.0000 </r>
       <r>    6.7986    1.0047 </r>
       <r>    8.0974    0.0255 </r>
       <r>   14.8956    0.0000 </r>
       <r>   23.8763    0.0000 </r>
       <r>   26.5579    0.0000 </r>
       <r>   28.6258    0.0000 </r>
      </set>
      <set comment="kpoint 30">
       <r>    1.7285    1.0000 </r>
       <r>    2.4374    1.0000 </r>
       <r>    3.0595    1.0000 </r>
       <r>    4.5936    1.0000 </r>
       <r>    6.8494    1.0053 </r>
       <r>    9.9030    0.0000 </r>
       <r>   13.0085    0.0000 </r>
       <r>   25.2159    0.0000 </r>
       <r>   26.1865    0.0000 </r>
       <r>   27.0769    0.0000 </r>
      </set>
      <set comment="kpoint 31">
       <r>    1.3153    1.0000 </r>
       <r>    2.1598    1.0000 </r>
       <r>    4.6124    1.0000 </r>
       <r>    5.2432    1.0000 </r>
       <r>    6.0431    1.0083 </r>
       <r>    6.7566    0.7473 </r>
       <r>   18.1447    0.0000 </r>
       <r>   20.2152    0.0000 </r>
       <r>   27.1577    0.0000 </r>
       <r>   28.7508    0.0000 </r>
      </set>
      <set comment="kpoint 32">
       <r>    1.3975    1.0000 </r>
       <r>    1.9829    1.0000 </r>
       <r>    4.9565    1.0000 </r>
       <r>    5.0542    1.0000 </r>
       <r>    6.2586    1.0205 </r>
       <r>    8.8760   -0.0350 </r>
       <r>   15.5445    0.0000 </r>
       <r>   21.3494    0.0000 </r>
       <r>   25.5944    0.0000 </r>
       <r>   28.3932    0.0000 </r>
      </set>
      <set comment="kpoint 33">
       <r>    1.2986    1.0000 </r>
       <r>    2.0366    1.0000 </r>
       <r>    4.7545    1.0000 </r>
       <r>    5.1224    1.0000 </r>
       <r>    6.3503    1.0190 </r>
       <r>   11.3068    0.0000 </r>
       <r>   13.0857    0.0000 </r>
       <r>   23.0852    0.0000 </r>
       <r>   23.5369    0.0000 </r>
       <r>   28.2023    0.0000 </r>
      </set>
      <set comment="kpoint 34">
       <r>    0.7790    1.0000 </r>
       <r>    2.1909    1.0000 </r>
       <r>    5.0845    1.0000 </r>
       <r>    5.1437    1.0000 </r>
       <r>    7.7818    0.4151 </r>
       <r>   10.1075   -0.0159 </r>
       <r>   15.1032    0.0000 </r>
       <r>   20.0012    0.0000 </r>
       <r>   23.3556    0.0000 </r>
       <r>   29.3781    0.0000 </r>
      </set>
      <set comment="kpoint 35">
       <r>    0.5408    1.0000 </r>
       <r>    2.2983    1.0000 </r>
       <r>    4.9153    1.0000 </r>
       <r>    5.1766    1.0000 </r>
       <r>    8.3992    0.0526 </r>
       <r>   12.4074    0.0000 </r>
       <r>   13.0416    0.0000 </r>
       <r>   20.2744    0.0000 </r>
       <r>   21.9960    0.0000 </r>
       <r>   29.6177    0.0000 </r>
      </set>
      <set comment="kpoint 36">
       <r>    0.2778    1.0000 </r>
       <r>    2.4064    1.0000 </r>
       <r>    4.9801    1.0000 </r>
       <r>    4.9801    1.0000 </r>
       <r>    9.9315    0.0000 </r>
       <r>   12.8583    0.0000 </r>
       <r>   12.8583    0.0000 </r>
       <r>   18.8933    0.0000 </r>
       <r>   21.3688    0.0000 </r>
       <r>   30.9436    0.0000 </r>
      </set>
      <set comment="kpoint 37">
       <r>    0.9882    1.0000 </r>
       <r>    2.6341    1.0000 </r>
       <r>    2.6341    1.0000 </r>
       <r>    5.7300    1.0000 </r>
       <r>    5.7300    1.0000 </r>
       <r>    6.0937    1.0114 </r>
       <r>   21.4042    0.0000 </r>
       <r>   22.4538    0.0000 </r>
       <r>   22.4538    0.0000 </r>
       <r>   32.7784    0.0000 </r>
      </set>
      <set comment="kpoint 38">
       <r>    1.6354    1.0000 </r>
       <r>    2.8426    1.0000 </r>
       <r>    3.5254    1.0000 </r>
       <r>    4.7455    1.0000 </r>
       <r>    5.8072    1.0000 </r>
       <r>    6.6258    0.8860 </r>
       <r>   18.9241    0.0000 </r>
       <r>   22.7395    0.0000 </r>
       <r>   24.2341    0.0000 </r>
       <r>   30.9808    0.0000 </r>
      </set>
      <set comment="kpoint 39">
       <r>    2.0729    1.0000 </r>
       <r>    3.0748    1.0000 </r>
       <r>    3.3713    1.0000 </r>
       <r>    3.9840    1.0000 </r>
       <r>    6.0710    1.0007 </r>
       <r>    8.9647   -0.0517 </r>
       <r>   15.7783    0.0000 </r>
       <r>   23.8232    0.0000 </r>
       <r>   25.7569    0.0000 </r>
       <r>   28.7249    0.0000 </r>
      </set>
      <set comment="kpoint 40">
       <r>    2.2588    1.0000 </r>
       <r>    3.1851    1.0000 </r>
       <r>    3.2527    1.0000 </r>
       <r>    3.6222    1.0000 </r>
       <r>    6.1448    1.0011 </r>
       <r>   11.4138    0.0000 </r>
       <r>   13.2537    0.0000 </r>
       <r>   24.6134    0.0000 </r>
       <r>   26.4627    0.0000 </r>
       <r>   27.2108    0.0000 </r>
      </set>
      <set comment="kpoint 41">
       <r>    1.8269    1.0000 </r>
       <r>    3.0751    1.0000 </r>
       <r>    4.1633    1.0000 </r>
       <r>    4.5579    1.0000 </r>
       <r>    5.6195    1.0149 </r>
       <r>    7.4153    0.3833 </r>
       <r>   19.7695    0.0000 </r>
       <r>   20.6402    0.0000 </r>
       <r>   24.8959    0.0000 </r>
       <r>   28.7386    0.0000 </r>
      </set>
      <set comment="kpoint 42">
       <r>    1.6313    1.0000 </r>
       <r>    3.1733    1.0000 </r>
       <r>    3.8657    1.0000 </r>
       <r>    4.4546    1.0000 </r>
       <r>    6.2532    1.0114 </r>
       <r>    9.8235   -0.0365 </r>
       <r>   16.7558    0.0000 </r>
       <r>   21.6798    0.0000 </r>
       <r>   25.4239    0.0000 </r>
       <r>   27.0471    0.0000 </r>
      </set>
      <set comment="kpoint 43">
       <r>    1.5020    1.0000 </r>
       <r>    3.4250    1.0000 </r>
       <r>    3.4607    1.0000 </r>
       <r>    4.4880    1.0000 </r>
       <r>    6.4174    0.9843 </r>
       <r>   12.9040    0.0000 </r>
       <r>   13.5761    0.0000 </r>
       <r>   22.6001    0.0000 </r>
       <r>   24.4233    0.0000 </r>
       <r>   27.4268    0.0000 </r>
      </set>
      <set comment="kpoint 44">
       <r>    1.0410    1.0000 </r>
       <r>    3.3606    1.0000 </r>
       <r>    3.8828    1.0000 </r>
       <r>    4.2045    1.0000 </r>
       <r>    8.0711    0.2648 </r>
       <r>   11.2855   -0.0050 </r>
       <r>   16.6854    0.0000 </r>
       <r>   20.0465    0.0000 </r>
       <r>   22.9631    0.0000 </r>
       <r>   27.9038    0.0000 </r>
      </set>
      <set comment="kpoint 45">
       <r>    0.8129    1.0000 </r>
       <r>    3.6026    1.0000 </r>
       <r>    3.6037    1.0000 </r>
       <r>    4.1843    1.0000 </r>
       <r>    8.7118   -0.0016 </r>
       <r>   14.0631    0.0000 </r>
       <r>   14.1094    0.0000 </r>
       <r>   20.9050    0.0000 </r>
       <r>   20.9479    0.0000 </r>
       <r>   28.6194    0.0000 </r>
      </set>
      <set comment="kpoint 46">
       <r>    0.5616    1.0000 </r>
       <r>    3.6782    1.0000 </r>
       <r>    3.6782    1.0000 </r>
       <r>    3.9898    1.0000 </r>
       <r>    9.9782    0.0000 </r>
       <r>   14.6339    0.0000 </r>
       <r>   14.6339    0.0000 </r>
       <r>   18.9546    0.0000 </r>
       <r>   20.1956    0.0000 </r>
       <r>   29.5268    0.0000 </r>
      </set>
      <set comment="kpoint 47">
       <r>    1.9139    1.0000 </r>
       <r>    3.3702    1.0000 </r>
       <r>    3.3702    1.0000 </r>
       <r>    5.5451    1.0022 </r>
       <r>    5.5451    1.0565 </r>
       <r>    8.4666   -0.0097 </r>
       <r>   20.7916    0.0000 </r>
       <r>   21.7843    0.0000 </r>
       <r>   21.7843    0.0000 </r>
       <r>   29.1810    0.0000 </r>
      </set>
      <set comment="kpoint 48">
       <r>    1.7164    1.0000 </r>
       <r>    2.7331    1.0000 </r>
       <r>    3.2955    1.0000 </r>
       <r>    5.5924    1.0089 </r>
       <r>    6.6962    0.8919 </r>
       <r>   10.8550   -0.0113 </r>
       <r>   18.0616    0.0000 </r>
       <r>   21.0684    0.0000 </r>
       <r>   23.7931    0.0000 </r>
       <r>   27.7055    0.0000 </r>
      </set>
      <set comment="kpoint 49">
       <r>    1.5892    1.0000 </r>
       <r>    2.5004    1.0000 </r>
       <r>    3.3171    1.0000 </r>
       <r>    5.6199    1.0142 </r>
       <r>    6.9943    0.7116 </r>
       <r>   14.2025    0.0000 </r>
       <r>   14.5180    0.0000 </r>
       <r>   21.0038    0.0000 </r>
       <r>   25.0484    0.0000 </r>
       <r>   27.1208    0.0000 </r>
      </set>
      <set comment="kpoint 50">
       <r>    1.3735    1.0000 </r>
       <r>    2.5608    1.0000 </r>
       <r>    2.7341    1.0000 </r>
       <r>    6.1591    1.0033 </r>
       <r>    8.2635    0.1044 </r>
       <r>   12.5347   -0.0000 </r>
       <r>   18.5395    0.0000 </r>
       <r>   19.4067    0.0000 </r>
       <r>   22.2123    0.0000 </r>
       <r>   27.5142    0.0000 </r>
      </set>
      <set comment="kpoint 51">
       <r>    1.1708    1.0000 </r>
       <r>    2.4134    1.0000 </r>
       <r>    2.7084    1.0000 </r>
       <r>    6.2428    0.9957 </r>
       <r>    8.9400   -0.0317 </r>
       <r>   15.1793    0.0000 </r>
       <r>   15.8536    0.0000 </r>
       <r>   19.4886    0.0000 </r>
       <r>   21.5910    0.0000 </r>
       <r>   28.1605    0.0000 </r>
      </set>
      <set comment="kpoint 52">
       <r>    0.9418    1.0000 </r>
       <r>    2.4832    1.0000 </r>
       <r>    2.4832    1.0000 </r>
       <r>    6.3430    0.9680 </r>
       <r>   10.0364    0.0000 </r>
       <r>   16.5198    0.0000 </r>
       <r>   16.5198    0.0000 </r>
       <r>   18.7397    0.0000 </r>
       <r>   18.9674    0.0000 </r>
       <r>   28.7762    0.0000 </r>
      </set>
      <set comment="kpoint 53">
       <r>    1.5355    1.0000 </r>
       <r>    1.9675    1.0000 </r>
       <r>    1.9675    1.0000 </r>
       <r>    8.3809    0.3270 </r>
       <r>    8.3809    0.0024 </r>
       <r>   14.1561    0.0000 </r>
       <r>   18.5079    0.0000 </r>
       <r>   20.1371    0.0000 </r>
       <r>   20.1371    0.0000 </r>
       <r>   27.7978    0.0000 </r>
      </set>
      <set comment="kpoint 54">
       <r>    1.4127    1.0000 </r>
       <r>    1.7006    1.0000 </r>
       <r>    1.9544    1.0000 </r>
       <r>    8.4215    0.1849 </r>
       <r>    9.3137   -0.0174 </r>
       <r>   16.4189    0.0000 </r>
       <r>   17.1575    0.0000 </r>
       <r>   18.3660    0.0000 </r>
       <r>   20.8297    0.0000 </r>
       <r>   27.7137    0.0000 </r>
      </set>
      <set comment="kpoint 55">
       <r>    1.2785    1.0000 </r>
       <r>    1.6903    1.0000 </r>
       <r>    1.6903    1.0000 </r>
       <r>    8.8502    0.0116 </r>
       <r>   10.0839    0.0000 </r>
       <r>   17.5862    0.0000 </r>
       <r>   18.0135    0.0000 </r>
       <r>   18.0135    0.0000 </r>
       <r>   18.8082    0.0000 </r>
       <r>   28.4903    0.0000 </r>
      </set>
      <set comment="kpoint 56">
       <r>    1.4151    1.0000 </r>
       <r>    1.4151    1.0000 </r>
       <r>    1.4151    1.0000 </r>
       <r>   10.1020    0.0000 </r>
       <r>   10.1020    0.0000 </r>
       <r>   17.1517    0.0000 </r>
       <r>   18.6113    0.0000 </r>
       <r>   18.6113    0.0000 </r>
       <r>   18.6113    0.0000 </r>
       <r>   27.3392    0.0000 </r>
      </set>
     </set>
    </set>
   </array>
  </eigenvalues>
  <separator name="orbital magnetization" >
   <v name="MAGDIPOLOUT">      0.00000000      0.00000000      0.00000000</v>
  </separator>
  <dos>
   <i name="efermi">      7.47567023 </i>
   <total>
    <array>
     <dimension dim="1">gridpoints</dimension>
     <dimension dim="2">spin</dimension>
     <field>energy</field>
     <field>total</field>
     <field>integrated</field>
     <set>
      <set comment="spin 1">
       <r>    -4.3588     0.0000     0.0000 </r>
       <r>    -4.2283     0.0000     0.0000 </r>
       <r>    -4.0979     0.0000     0.0000 </r>
       <r>    -3.9674     0.0000     0.0000 </r>
       <r>    -3.8369     0.0000     0.0000 </r>
       <r>    -3.7065     0.0000     0.0000 </r>
       <r>    -3.5760     0.0000     0.0000 </r>
       <r>    -3.4456     0.0000     0.0000 </r>
       <r>    -3.3151     0.0000     0.0000 </r>
       <r>    -3.1847     0.0000     0.0000 </r>
       <r>    -3.0542     0.0000     0.0000 </r>
       <r>    -2.9237     0.0000     0.0000 </r>
       <r>    -2.7933     0.0000     0.0000 </r>
       <r>    -2.6628     0.0000     0.0000 </r>
       <r>    -2.5324     0.0000     0.0000 </r>
       <r>    -2.4019     0.0000     0.0000 </r>
       <r>    -2.2715     0.0019     0.0001 </r>
       <r>    -2.1410     0.0119     0.0009 </r>
       <r>    -2.0105     0.0297     0.0035 </r>
       <r>    -1.8801     0.0451     0.0085 </r>
       <r>    -1.7496     0.0542     0.0150 </r>
       <r>    -1.6192     0.0599     0.0224 </r>
       <r>    -1.4887     0.0677     0.0307 </r>
       <r>    -1.3582     0.0775     0.0402 </r>
       <r>    -1.2278     0.0881     0.0510 </r>
       <r>    -1.0973     0.0986     0.0632 </r>
       <r>    -0.9669     0.1088     0.0767 </r>
       <r>    -0.8364     0.1199     0.0916 </r>
       <r>    -0.7060     0.1321     0.1080 </r>
       <r>    -0.5755     0.1452     0.1261 </r>
       <r>    -0.4450     0.1586     0.1459 </r>
       <r>    -0.3146     0.1731     0.1675 </r>
       <r>    -0.1841     0.1907     0.1912 </r>
       <r>    -0.0537     0.2152     0.2176 </r>
       <r>     0.0768     0.2425     0.2474 </r>
       <r>     0.2072     0.2749     0.2810 </r>
       <r>     0.3377     0.3840     0.3230 </r>
       <r>     0.4682     0.5647     0.3842 </r>
       <r>     0.5986     0.8004     0.4734 </r>
       <r>     0.7291     1.0018     0.5906 </r>
       <r>     0.8595     1.2520     0.7367 </r>
       <r>     0.9900     1.5172     0.9180 </r>
       <r>     1.1204     1.8035     1.1320 </r>
       <r>     1.2509     2.1955     1.3965 </r>
       <r>     1.3814     2.2687     1.6912 </r>
       <r>     1.5118     1.9310     1.9621 </r>
       <r>     1.6423     1.8999     2.2117 </r>
       <r>     1.7727     1.9531     2.4716 </r>
       <r>     1.9032     1.7138     2.7109 </r>
       <r>     2.0336     1.8380     2.9375 </r>
       <r>     2.1641     1.6278     3.1670 </r>
       <r>     2.2946     1.3531     3.3585 </r>
       <r>     2.4250     1.0425     3.5157 </r>
       <r>     2.5555     1.0445     3.6525 </r>
       <r>     2.6859     1.0446     3.7890 </r>
       <r>     2.8164     1.1003     3.9275 </r>
       <r>     2.9468     1.2120     4.0786 </r>
       <r>     3.0773     1.3416     4.2431 </r>
       <r>     3.2078     1.3691     4.4255 </r>
       <r>     3.3382     1.8267     4.6207 </r>
       <r>     3.4687     1.6871     4.8726 </r>
       <r>     3.5991     1.2639     5.0638 </r>
       <r>     3.7296     0.9832     5.2076 </r>
       <r>     3.8600     0.8366     5.3257 </r>
       <r>     3.9905     0.6999     5.4258 </r>
       <r>     4.1210     0.6608     5.5126 </r>
       <r>     4.2514     0.7670     5.6041 </r>
       <r>     4.3819     0.9395     5.7148 </r>
       <r>     4.5123     1.1217     5.8504 </r>
       <r>     4.6428     1.2683     6.0064 </r>
       <r>     4.7732     1.3371     6.1768 </r>
       <r>     4.9037     1.4294     6.3571 </r>
       <r>     5.0342     1.5866     6.5542 </r>
       <r>     5.1646     1.7285     6.7682 </r>
       <r>     5.2951     1.7013     6.9946 </r>
       <r>     5.4255     1.5426     7.2067 </r>
       <r>     5.5560     1.3500     7.3963 </r>
       <r>     5.6864     1.1271     7.5592 </r>
       <r>     5.8169     0.8024     7.6829 </r>
       <r>     5.9474     0.7988     7.7835 </r>
       <r>     6.0778     1.2549     7.9107 </r>
       <r>     6.2083     2.0036     8.1440 </r>
       <r>     6.3387     1.8284     8.3937 </r>
       <r>     6.4692     1.6994     8.6260 </r>
       <r>     6.5996     1.5751     8.8433 </r>
       <r>     6.7301     1.6439     9.0556 </r>
       <r>     6.8606     1.4537     9.2545 </r>
       <r>     6.9910     1.3517     9.4374 </r>
       <r>     7.1215     1.2253     9.6051 </r>
       <r>     7.2519     1.1242     9.7577 </r>
       <r>     7.3824     1.0786     9.9008 </r>
       <r>     7.5128     1.0852    10.0397 </r>
       <r>     7.6433     1.0962    10.1843 </r>
       <r>     7.7738     1.0739    10.3259 </r>
       <r>     7.9042     0.9316    10.4605 </r>
       <r>     8.0347     0.6520    10.5606 </r>
       <r>     8.1651     0.5413    10.6370 </r>
       <r>     8.2956     0.4931    10.7040 </r>
       <r>     8.4261     0.4925    10.7673 </r>
       <r>     8.5565     0.4765    10.8305 </r>
       <r>     8.6870     0.4564    10.8914 </r>
       <r>     8.8174     0.4299    10.9493 </r>
       <r>     8.9479     0.4067    11.0038 </r>
       <r>     9.0783     0.3802    11.0551 </r>
       <r>     9.2088     0.3561    11.1031 </r>
       <r>     9.3393     0.3342    11.1481 </r>
       <r>     9.4697     0.3119    11.1903 </r>
       <r>     9.6002     0.2889    11.2295 </r>
       <r>     9.7306     0.2652    11.2656 </r>
       <r>     9.8611     0.2410    11.2986 </r>
       <r>     9.9915     0.2194    11.3286 </r>
       <r>    10.1220     0.1947    11.3559 </r>
       <r>    10.2525     0.1918    11.3811 </r>
       <r>    10.3829     0.1888    11.4059 </r>
       <r>    10.5134     0.1857    11.4304 </r>
       <r>    10.6438     0.1824    11.4544 </r>
       <r>    10.7743     0.1789    11.4779 </r>
       <r>    10.9047     0.1750    11.5010 </r>
       <r>    11.0352     0.1710    11.5236 </r>
       <r>    11.1657     0.1667    11.5456 </r>
       <r>    11.2961     0.1624    11.5671 </r>
       <r>    11.4266     0.1580    11.5880 </r>
       <r>    11.5570     0.1536    11.6083 </r>
       <r>    11.6875     0.1535    11.6283 </r>
       <r>    11.8179     0.1521    11.6483 </r>
       <r>    11.9484     0.1476    11.6679 </r>
       <r>    12.0789     0.1406    11.6867 </r>
       <r>    12.2093     0.1359    11.7047 </r>
       <r>    12.3398     0.1348    11.7223 </r>
       <r>    12.4702     0.1356    11.7399 </r>
       <r>    12.6007     0.1381    11.7578 </r>
       <r>    12.7311     0.1435    11.7760 </r>
       <r>    12.8616     0.1622    11.7958 </r>
       <r>    12.9921     0.3272    11.8293 </r>
       <r>    13.1225     0.3741    11.8756 </r>
       <r>    13.2530     0.3957    11.9259 </r>
       <r>    13.3834     0.4090    11.9784 </r>
       <r>    13.5139     0.4186    12.0325 </r>
       <r>    13.6443     0.4237    12.0875 </r>
       <r>    13.7748     0.4266    12.1430 </r>
       <r>    13.9053     0.4242    12.1985 </r>
       <r>    14.0357     0.4152    12.2533 </r>
       <r>    14.1662     0.4067    12.3069 </r>
       <r>    14.2966     0.3984    12.3594 </r>
       <r>    14.4271     0.3894    12.4108 </r>
       <r>    14.5575     0.3798    12.4610 </r>
       <r>    14.6880     0.3711    12.5100 </r>
       <r>    14.8185     0.3645    12.5579 </r>
       <r>    14.9489     0.3604    12.6052 </r>
       <r>    15.0794     0.3555    12.6520 </r>
       <r>    15.2098     0.3484    12.6979 </r>
       <r>    15.3403     0.3404    12.7428 </r>
       <r>    15.4707     0.3313    12.7867 </r>
       <r>    15.6012     0.3239    12.8293 </r>
       <r>    15.7317     0.3202    12.8713 </r>
       <r>    15.8621     0.3168    12.9129 </r>
       <r>    15.9926     0.3143    12.9540 </r>
       <r>    16.1230     0.3114    12.9948 </r>
       <r>    16.2535     0.3081    13.0352 </r>
       <r>    16.3839     0.3044    13.0752 </r>
       <r>    16.5144     0.3008    13.1147 </r>
       <r>    16.6449     0.2972    13.1537 </r>
       <r>    16.7753     0.2930    13.1922 </r>
       <r>    16.9058     0.2893    13.2302 </r>
       <r>    17.0362     0.2857    13.2677 </r>
       <r>    17.1667     0.2823    13.3047 </r>
       <r>    17.2971     0.2811    13.3414 </r>
       <r>    17.4276     0.2942    13.3793 </r>
       <r>    17.5581     0.2818    13.4170 </r>
       <r>    17.6885     0.2728    13.4530 </r>
       <r>    17.8190     0.2633    13.4881 </r>
       <r>    17.9494     0.2483    13.5215 </r>
       <r>    18.0799     0.2544    13.5537 </r>
       <r>    18.2103     0.2700    13.5881 </r>
       <r>    18.3408     0.2607    13.6230 </r>
       <r>    18.4713     0.2446    13.6559 </r>
       <r>    18.6017     0.2055    13.6848 </r>
       <r>    18.7322     0.2086    13.7117 </r>
       <r>    18.8626     0.2167    13.7395 </r>
       <r>    18.9931     0.2378    13.7689 </r>
       <r>    19.1236     0.2617    13.8015 </r>
       <r>    19.2540     0.2835    13.8371 </r>
       <r>    19.3845     0.3068    13.8756 </r>
       <r>    19.5149     0.3409    13.9185 </r>
       <r>    19.6454     0.3495    13.9635 </r>
       <r>    19.7758     0.3544    14.0095 </r>
       <r>    19.9063     0.3641    14.0561 </r>
       <r>    20.0368     0.4549    14.1091 </r>
       <r>    20.1672     0.4770    14.1703 </r>
       <r>    20.2977     0.4720    14.2322 </r>
       <r>    20.4281     0.4842    14.2945 </r>
       <r>    20.5586     0.4954    14.3585 </r>
       <r>    20.6890     0.5082    14.4238 </r>
       <r>    20.8195     0.5252    14.4913 </r>
       <r>    20.9500     0.5408    14.5606 </r>
       <r>    21.0804     0.5654    14.6327 </r>
       <r>    21.2109     0.5735    14.7072 </r>
       <r>    21.3413     0.5699    14.7819 </r>
       <r>    21.4718     0.5634    14.8559 </r>
       <r>    21.6022     0.5480    14.9286 </r>
       <r>    21.7327     0.5222    14.9980 </r>
       <r>    21.8632     0.5262    15.0662 </r>
       <r>    21.9936     0.5700    15.1382 </r>
       <r>    22.1241     0.5409    15.2115 </r>
       <r>    22.2545     0.5080    15.2795 </r>
       <r>    22.3850     0.4956    15.3449 </r>
       <r>    22.5154     0.4915    15.4094 </r>
       <r>    22.6459     0.4742    15.4725 </r>
       <r>    22.7764     0.4548    15.5326 </r>
       <r>    22.9068     0.4643    15.5926 </r>
       <r>    23.0373     0.4736    15.6538 </r>
       <r>    23.1677     0.4829    15.7162 </r>
       <r>    23.2982     0.4921    15.7798 </r>
       <r>    23.4286     0.5004    15.8445 </r>
       <r>    23.5591     0.5048    15.9101 </r>
       <r>    23.6896     0.5104    15.9764 </r>
       <r>    23.8200     0.4692    16.0400 </r>
       <r>    23.9505     0.4797    16.1019 </r>
       <r>    24.0809     0.4912    16.1652 </r>
       <r>    24.2114     0.5040    16.2301 </r>
       <r>    24.3418     0.5224    16.2970 </r>
       <r>    24.4723     0.5460    16.3666 </r>
       <r>    24.6028     0.5692    16.4394 </r>
       <r>    24.7332     0.5875    16.5149 </r>
       <r>    24.8637     0.6104    16.5928 </r>
       <r>    24.9941     0.6606    16.6753 </r>
       <r>    25.1246     0.8289    16.7717 </r>
       <r>    25.2550     0.8752    16.8862 </r>
       <r>    25.3855     0.6022    16.9806 </r>
       <r>    25.5160     0.4674    17.0491 </r>
       <r>    25.6464     0.4637    17.1093 </r>
       <r>    25.7769     0.4737    17.1703 </r>
       <r>    25.9073     0.4898    17.2332 </r>
       <r>    26.0378     0.5063    17.2981 </r>
       <r>    26.1682     0.5237    17.3653 </r>
       <r>    26.2987     0.5674    17.4363 </r>
       <r>    26.4292     0.6021    17.5128 </r>
       <r>    26.5596     0.5003    17.5928 </r>
       <r>    26.6901     0.4759    17.6566 </r>
       <r>    26.8205     0.4406    17.7165 </r>
       <r>    26.9510     0.3946    17.7711 </r>
       <r>    27.0814     0.3681    17.8194 </r>
       <r>    27.2119     0.5014    17.8761 </r>
       <r>    27.3424     0.5835    17.9477 </r>
       <r>    27.4728     0.5878    18.0237 </r>
       <r>    27.6033     0.6872    18.1054 </r>
       <r>    27.7337     0.7268    18.1988 </r>
       <r>    27.8642     0.6885    18.2917 </r>
       <r>    27.9946     0.6476    18.3787 </r>
       <r>    28.1251     0.6167    18.4611 </r>
       <r>    28.2556     0.6014    18.5403 </r>
       <r>    28.3860     0.5955    18.6183 </r>
       <r>    28.5165     0.5980    18.6960 </r>
       <r>    28.6469     0.6315    18.7759 </r>
       <r>    28.7774     0.6381    18.8584 </r>
       <r>    28.9078     0.6618    18.9433 </r>
       <r>    29.0383     0.6736    19.0306 </r>
       <r>    29.1688     0.6820    19.1190 </r>
       <r>    29.2992     0.6884    19.2084 </r>
       <r>    29.4297     0.6891    19.2984 </r>
       <r>    29.5601     0.6816    19.3878 </r>
       <r>    29.6906     0.6680    19.4760 </r>
       <r>    29.8211     0.6500    19.5620 </r>
       <r>    29.9515     0.5673    19.6423 </r>
       <r>    30.0820     0.4778    19.7103 </r>
       <r>    30.2124     0.4029    19.7676 </r>
       <r>    30.3429     0.3333    19.8155 </r>
       <r>    30.4733     0.2710    19.8548 </r>
       <r>    30.6038     0.2142    19.8865 </r>
       <r>    30.7343     0.1896    19.9120 </r>
       <r>    30.8647     0.1597    19.9354 </r>
       <r>    30.9952     0.0993    19.9517 </r>
       <r>    31.1256     0.0814    19.9635 </r>
       <r>    31.2561     0.0653    19.9730 </r>
       <r>    31.3865     0.0512    19.9806 </r>
       <r>    31.5170     0.0390    19.9865 </r>
       <r>    31.6475     0.0288    19.9909 </r>
       <r>    31.7779     0.0204    19.9941 </r>
       <r>    31.9084     0.0140    19.9963 </r>
       <r>    32.0388     0.0094    19.9978 </r>
       <r>    32.1693     0.0060    19.9988 </r>
       <r>    32.2997     0.0037    19.9994 </r>
       <r>    32.4302     0.0019    19.9998 </r>
       <r>    32.5607     0.0008    19.9999 </r>
       <r>    32.6911     0.0001    20.0000 </r>
       <r>    32.8216     0.0000    20.0000 </r>
       <r>    32.9520     0.0000    20.0000 </r>
       <r>    33.0825     0.0000    20.0000 </r>
       <r>    33.2129     0.0000    20.0000 </r>
       <r>    33.3434     0.0000    20.0000 </r>
       <r>    33.4739     0.0000    20.0000 </r>
       <r>    33.6043     0.0000    20.0000 </r>
       <r>    33.7348     0.0000    20.0000 </r>
       <r>    33.8652     0.0000    20.0000 </r>
       <r>    33.9957     0.0000    20.0000 </r>
       <r>    34.1261     0.0000    20.0000 </r>
       <r>    34.2566     0.0000    20.0000 </r>
       <r>    34.3871     0.0000    20.0000 </r>
       <r>    34.5175     0.0000    20.0000 </r>
       <r>    34.6480     0.0000    20.0000 </r>
       <r>    34.7784     0.0000    20.0000 </r>
      </set>
     </set>
    </array>
   </total>
  </dos>
 </calculation>
 <structure name="finalpos" >
  <crystal>
   <varray name="basis" >
    <v>       2.50000000       0.00000000       0.00000000 </v>
    <v>       0.00000000       2.50000000       0.00000000 </v>
    <v>       0.00000000       0.00000000       2.50000000 </v>
   </varray>
   <i name="volume">     15.62500000 </i>
   <varray name="rec_basis" >
    <v>       0.40000000       0.00000000       0.00000000 </v>
    <v>       0.00000000       0.40000000       0.00000000 </v>
    <v>       0.00000000       0.00000000       0.40000000 </v>
   </varray>
  </crystal>
  <varray name="positions" >
   <v>       0.00000000       0.00000000       0.00000000 </v>
  </varray>
 </structure>
</modeling>
