unknown system                          
           1
     2.500000    0.000000    0.000000
     0.000000    2.500000    0.000000
     0.000000    0.000000    2.500000
   Pt
   1
Direct configuration=     1
   0.00000000  0.00000000  0.00000000
