unknown system                          
   1.00000000000000     
     3.946846    0.000000    0.000000
     0.000000    3.946846    0.000000
     0.000000    0.000000   25.813962
   O    Sr   Ti
    12     4     4
Direct
  0.500000  0.500000  0.230985
  0.500000  0.000000  0.307368
  0.000000  0.500000  0.307368
  0.500000  0.500000  0.385098
  0.500000  0.000000  0.461694
  0.000000  0.500000  0.461694
  0.500000  0.500000  0.538208
  0.500000  0.000000  0.614565
  0.000000  0.500000  0.614565
  0.500000  0.500000  0.691373
  0.500000  0.000000  0.767204
  0.000000  0.500000  0.767204
  0.000000  0.000000  0.239619
  0.000000  0.000000  0.387020
  0.000000  0.000000  0.539282
  0.000000  0.000000  0.696742
  0.500000  0.500000  0.305447
  0.500000  0.500000  0.460767
  0.500000  0.500000  0.613329
  0.500000  0.500000  0.763364
 
   24   24  144
 0.94286E-12 0.11193E-11 0.19867E-11 0.30452E-11 0.36982E-11 0.37937E-11 0.38599E-11 0.40740E-11 0.71027E-12 0.94369E-15
 -.55511E-16  0.0000     -.55511E-16 -.55511E-16  0.0000     0.94369E-15 0.71046E-12 0.40415E-11 0.38761E-11 0.37984E-11
 0.37290E-11 0.30325E-11 0.19892E-11 0.11258E-11 0.11194E-11 0.14397E-11 0.29417E-11 0.50212E-11 0.61837E-11 0.67974E-11
 0.71693E-11 0.73228E-11 0.18398E-11 0.24980E-14 0.55511E-16 0.55511E-16 -.16653E-15 -.55511E-16 0.22204E-15 0.24980E-14
 0.18403E-11 0.72961E-11 0.72000E-11 0.67368E-11 0.62521E-11 0.50136E-11 0.29464E-11 0.14437E-11 0.19869E-11 0.29417E-11
 0.91417E-11 0.27499E-10 0.39928E-10 0.42014E-10 0.44707E-10 0.48371E-10 0.29697E-10 0.58287E-13 0.49960E-15  0.0000    
 -.16653E-15  0.0000     0.38858E-15 0.58120E-13 0.29765E-10 0.47971E-10 0.45566E-10 0.41683E-10 0.40165E-10 0.27341E-10
 0.91857E-11 0.29454E-11 0.30455E-11 0.50214E-11 0.27499E-10 0.30144E-09 0.11241E-08 0.12601E-08 0.13039E-08 0.14418E-08
 0.14371E-08 0.21287E-10 0.58120E-13 0.24980E-14 0.66613E-15 0.27200E-14 0.58176E-13 0.21198E-10 0.14727E-08 0.14137E-08
 0.13638E-08 0.12576E-08 0.11292E-08 0.30156E-09 0.27695E-10 0.50240E-11 0.36985E-11 0.61839E-11 0.39928E-10 0.11241E-08
 0.21208E-06 0.35328E-05 0.36986E-05 0.72162E-05 0.47426E-05 0.79629E-06 0.37987E-09 0.56118E-11 0.16340E-11 0.56103E-11
 0.38020E-09 0.62519E-06 0.73336E-05 0.33430E-05 0.50173E-05 0.42126E-05 0.21787E-06 0.11308E-08 0.39994E-10 0.61864E-11
 0.37939E-11 0.67974E-11 0.42014E-10 0.12601E-08 0.35328E-05 0.75190E-06 0.60016E-06 0.70832E-06 0.70866E-06 0.65072E-05
 0.84899E-07 0.65332E-08 0.30199E-08 0.65333E-08 0.84942E-07 0.66799E-05 0.70212E-06 0.71761E-06 0.59807E-06 0.74727E-06
 0.35247E-05 0.12602E-08 0.42013E-10 0.67974E-11 0.38598E-11 0.71693E-11 0.44707E-10 0.13039E-08 0.36986E-05 0.60016E-06
 0.53073E-06 0.60211E-06 0.62470E-06 0.34110E-05 0.85341E-07 0.66926E-08 0.31111E-08 0.66919E-08 0.85294E-07 0.33705E-05
 0.62889E-06 0.60051E-06 0.53279E-06 0.60072E-06 0.37389E-05 0.13037E-08 0.44707E-10 0.71692E-11 0.40740E-11 0.73228E-11
 0.48371E-10 0.14418E-08 0.72162E-05 0.70832E-06 0.60211E-06 0.73724E-06 0.74724E-06 0.39487E-05 0.78129E-07 0.66378E-08
 0.31801E-08 0.66386E-08 0.78098E-07 0.38917E-05 0.75181E-06 0.73398E-06 0.60452E-06 0.71093E-06 0.72730E-05 0.14414E-08
 0.48370E-10 0.73227E-11 0.71029E-12 0.18396E-11 0.29697E-10 0.14371E-08 0.47426E-05 0.70866E-06 0.62470E-06 0.74724E-06
 0.67605E-06 0.42916E-05 0.17735E-09 0.21992E-11 0.63549E-12 0.21994E-11 0.17736E-09 0.38559E-05 0.69258E-06 0.71923E-06
 0.62688E-06 0.72795E-06 0.45743E-05 0.14350E-08 0.29693E-10 0.18396E-11 0.11102E-14 0.24980E-14 0.58287E-13 0.21288E-10
 0.79629E-06 0.65072E-05 0.34110E-05 0.39487E-05 0.42916E-05 0.78885E-11 0.18874E-13 0.88818E-15 0.55511E-16 0.11102E-14
 0.18929E-13 0.78908E-11 0.51164E-05 0.36053E-05 0.33796E-05 0.62259E-05 0.76536E-06 0.21283E-10 0.58120E-13 0.24980E-14
 -.55511E-16  0.0000     0.38858E-15 0.57954E-13 0.37987E-09 0.84899E-07 0.85341E-07 0.78129E-07 0.17735E-09 0.18818E-13
  0.0000     -.11102E-15 -.11102E-15  0.0000     0.27756E-15 0.18818E-13 0.17712E-09 0.80325E-07 0.86163E-07 0.85133E-07
 0.37851E-09 0.58009E-13 0.27756E-15 0.11102E-15 -.11102E-15 0.11102E-15 0.55511E-16 0.26645E-14 0.56119E-11 0.65332E-08
 0.66926E-08 0.66378E-08 0.21992E-11 0.83267E-15 0.55511E-16 -.55511E-16 -.16653E-15 0.16653E-15 0.16653E-15 0.10547E-14
 0.21999E-11 0.67460E-08 0.66726E-08 0.65105E-08 0.56067E-11 0.24980E-14 0.55511E-16 0.11102E-15 0.55511E-16  0.0000    
 -.55511E-16 0.88818E-15 0.16341E-11 0.30199E-08 0.31111E-08 0.31801E-08 0.63560E-12 0.27756E-15  0.0000     -.16653E-15
 -.55511E-16 0.11102E-15 -.55511E-16 0.38858E-15 0.63588E-12 0.33373E-08 0.30942E-08 0.29286E-08 0.16335E-11 0.94369E-15
 -.55511E-16  0.0000     0.55511E-16 0.11102E-15 0.55511E-16 0.23315E-14 0.56100E-11 0.65333E-08 0.66919E-08 0.66386E-08
 0.21996E-11 0.99920E-15 -.11102E-15 -.16653E-15  0.0000     -.11102E-15  0.0000     0.83267E-15 0.22002E-11 0.67469E-08
 0.66720E-08 0.65105E-08 0.56052E-11 0.23315E-14 -.55511E-16 0.55511E-16 -.16653E-15 0.11102E-15 0.27756E-15 0.58009E-13
 0.38020E-09 0.84942E-07 0.85294E-07 0.78098E-07 0.17736E-09 0.19040E-13 0.27756E-15 -.55511E-16  0.0000      0.0000    
 0.11102E-15 0.18874E-13 0.17713E-09 0.80293E-07 0.86116E-07 0.85177E-07 0.37884E-09 0.58065E-13 0.33307E-15 0.22204E-15
 0.83267E-15 0.26645E-14 0.58287E-13 0.21198E-10 0.62519E-06 0.66799E-05 0.33705E-05 0.38917E-05 0.38559E-05 0.78908E-11
 0.18985E-13 0.72164E-15 0.33307E-15 0.88818E-15 0.19040E-13 0.78930E-11 0.45532E-05 0.35556E-05 0.33397E-05 0.63875E-05
 0.60360E-06 0.21193E-10 0.58176E-13 0.25535E-14 0.71038E-12 0.18402E-11 0.29765E-10 0.14727E-08 0.73336E-05 0.70212E-06
 0.62889E-06 0.75181E-06 0.69258E-06 0.51164E-05 0.17712E-09 0.22000E-11 0.63577E-12 0.22001E-11 0.17713E-09 0.45532E-05
 0.70973E-06 0.72355E-06 0.63109E-06 0.72114E-06 0.70122E-05 0.14705E-08 0.29761E-10 0.18404E-11 0.40414E-11 0.72962E-11
 0.47971E-10 0.14137E-08 0.33430E-05 0.71761E-06 0.60051E-06 0.73398E-06 0.71923E-06 0.36053E-05 0.80325E-07 0.67460E-08
 0.33373E-08 0.67469E-08 0.80293E-07 0.35556E-05 0.72355E-06 0.73074E-06 0.60291E-06 0.72029E-06 0.33609E-05 0.14133E-08
 0.47969E-10 0.72962E-11 0.38760E-11 0.72000E-11 0.45566E-10 0.13638E-08 0.50173E-05 0.59807E-06 0.53279E-06 0.60452E-06
 0.62688E-06 0.33796E-05 0.86163E-07 0.66726E-08 0.30942E-08 0.66720E-08 0.86116E-07 0.33397E-05 0.63109E-06 0.60291E-06
 0.53486E-06 0.59863E-06 0.50810E-05 0.13636E-08 0.45567E-10 0.72001E-11 0.37986E-11 0.67370E-11 0.41684E-10 0.12576E-08
 0.42126E-05 0.74727E-06 0.60072E-06 0.71093E-06 0.72795E-06 0.62259E-05 0.85133E-07 0.65105E-08 0.29286E-08 0.65105E-08
 0.85177E-07 0.63875E-05 0.72114E-06 0.72029E-06 0.59863E-06 0.74270E-06 0.42020E-05 0.12577E-08 0.41683E-10 0.67372E-11
 0.37290E-11 0.62523E-11 0.40165E-10 0.11292E-08 0.21787E-06 0.35247E-05 0.37389E-05 0.72730E-05 0.45743E-05 0.76536E-06
 0.37851E-09 0.56066E-11 0.16337E-11 0.56051E-11 0.37884E-09 0.60360E-06 0.70122E-05 0.33609E-05 0.50810E-05 0.42020E-05
 0.22390E-06 0.11359E-08 0.40232E-10 0.62549E-11 0.30326E-11 0.50137E-11 0.27341E-10 0.30156E-09 0.11308E-08 0.12602E-08
 0.13037E-08 0.14414E-08 0.14350E-08 0.21283E-10 0.58120E-13 0.24980E-14 0.99920E-15 0.25535E-14 0.58231E-13 0.21193E-10
 0.14705E-08 0.14133E-08 0.13636E-08 0.12577E-08 0.11359E-08 0.30167E-09 0.27535E-10 0.50162E-11 0.19894E-11 0.29465E-11
 0.91859E-11 0.27695E-10 0.39994E-10 0.42013E-10 0.44707E-10 0.48370E-10 0.29693E-10 0.58398E-13 0.44409E-15  0.0000    
 -.16653E-15 0.22204E-15 0.55511E-15 0.58065E-13 0.29761E-10 0.47970E-10 0.45567E-10 0.41683E-10 0.40232E-10 0.27535E-10
 0.92301E-11 0.29503E-11 0.11258E-11 0.14437E-11 0.29454E-11 0.50240E-11 0.61864E-11 0.67974E-11 0.71693E-11 0.73229E-11
 0.18396E-11 0.26090E-14 -.55511E-16 0.16653E-15  0.0000     0.55511E-16 0.11102E-15 0.25535E-14 0.18403E-11 0.72961E-11
 0.72000E-11 0.67370E-11 0.62549E-11 0.50160E-11 0.29502E-11 0.14478E-11 0.24042E-11 0.30782E-11 0.53923E-11 0.76200E-11
 0.84374E-11 0.83712E-11 0.88445E-11 0.93767E-11 0.98177E-12 0.11657E-14 -.83267E-16 0.55511E-16 -.22204E-15 -.11102E-15
  0.0000     0.83267E-15 0.98396E-12 0.93268E-11 0.89405E-11 0.83549E-11 0.84172E-11 0.76596E-11 0.53626E-11 0.30839E-11
 0.30780E-11 0.40930E-11 0.79395E-11 0.12923E-10 0.15120E-10 0.15022E-10 0.15154E-10 0.16482E-10 0.28227E-11 0.31364E-14
  0.0000     -.11102E-15 -.16653E-15 0.55511E-16  0.0000     0.29421E-14 0.28339E-11 0.16205E-10 0.15248E-10 0.15065E-10
 0.15118E-10 0.12944E-10 0.78925E-11 0.41041E-11 0.53921E-11 0.79395E-11 0.22937E-10 0.67253E-10 0.97375E-10 0.10154E-09
 0.10214E-09 0.11101E-09 0.56909E-10 0.64837E-13 0.33307E-15 0.83267E-16 -.11102E-15 0.13878E-15 0.49960E-15 0.64615E-13
 0.57174E-10 0.10818E-09 0.10282E-09 0.10146E-09 0.97955E-10 0.66678E-10 0.22910E-10 0.79732E-11 0.76198E-11 0.12923E-10
 0.67253E-10 0.73498E-09 0.28531E-08 0.34864E-08 0.35836E-08 0.38001E-08 0.36265E-08 0.24503E-10 0.64088E-13 0.27756E-14
 0.94369E-15 0.27756E-14 0.64171E-13 0.24498E-10 0.37419E-08 0.37072E-08 0.36604E-08 0.33610E-08 0.29176E-08 0.72785E-09
 0.67525E-10 0.12929E-10 0.84375E-11 0.15120E-10 0.97375E-10 0.28531E-08 0.82526E-06 0.28043E-04 0.59479E-04 0.13919E-04
 0.53035E-03 0.53051E-07 0.21274E-09 0.50140E-11 0.15064E-11 0.50136E-11 0.21303E-09 0.53675E-07 0.95326E-03 0.26617E-04
 0.43021E-04 0.32939E-04 0.10011E-05 0.28311E-08 0.97493E-10 0.15115E-10 0.83713E-11 0.15022E-10 0.10154E-09 0.34864E-08
 0.28043E-04 0.60243E-06 0.73979E-06 0.80954E-06 0.10698E-05 0.97750E-07 0.18721E-08 0.25908E-09 0.13889E-09 0.25907E-09
 0.18723E-08 0.97712E-07 0.10631E-05 0.81046E-06 0.74037E-06 0.60415E-06 0.27282E-04 0.34853E-08 0.10154E-09 0.15022E-10
 0.88444E-11 0.15154E-10 0.10214E-09 0.35836E-08 0.59479E-04 0.73979E-06 0.80299E-06 0.69661E-06 0.12480E-05 0.10901E-06
 0.19505E-08 0.27166E-09 0.15343E-09 0.27167E-09 0.19505E-08 0.10903E-06 0.12515E-05 0.69744E-06 0.80357E-06 0.73733E-06
 0.59790E-04 0.35841E-08 0.10213E-09 0.15154E-10 0.93767E-11 0.16482E-10 0.11101E-09 0.38001E-08 0.13919E-04 0.80954E-06
 0.69661E-06 0.62798E-06 0.16261E-05 0.10447E-06 0.19693E-08 0.27443E-09 0.15209E-09 0.27445E-09 0.19692E-08 0.10460E-06
 0.16347E-05 0.62773E-06 0.70070E-06 0.80648E-06 0.14005E-04 0.38013E-08 0.11099E-09 0.16482E-10 0.98163E-12 0.28228E-11
 0.56909E-10 0.36265E-08 0.53035E-03 0.10698E-05 0.12480E-05 0.16261E-05 0.29809E-05 0.83512E-07 0.12703E-09 0.23405E-11
 0.69511E-12 0.23407E-11 0.12693E-09 0.85114E-07 0.29852E-05 0.16226E-05 0.13484E-05 0.10533E-05 0.27093E-03 0.36495E-08
 0.56880E-10 0.28230E-11 0.94369E-15 0.29421E-14 0.64865E-13 0.24503E-10 0.53051E-07 0.97750E-07 0.10901E-06 0.10447E-06
 0.83512E-07 0.88127E-11 0.22871E-13 0.94369E-15 0.38858E-15 0.12768E-14 0.22815E-13 0.88186E-11 0.83690E-07 0.10058E-06
 0.10035E-06 0.10510E-06 0.50835E-07 0.24545E-10 0.64726E-13 0.28866E-14 -.11102E-15 0.11102E-15 0.27756E-15 0.63949E-13
 0.21274E-09 0.18721E-08 0.19505E-08 0.19693E-08 0.12703E-09 0.22871E-13 0.55511E-16 -.55511E-16 -.11102E-15 -.11102E-15
 0.11102E-15 0.22704E-13 0.12703E-09 0.20016E-08 0.19016E-08 0.18910E-08 0.21012E-09 0.63977E-13 0.33307E-15  0.0000    
 -.55511E-16 0.11102E-15 0.83267E-16 0.29698E-14 0.50139E-11 0.25908E-09 0.27166E-09 0.27443E-09 0.23407E-11 0.94369E-15
 -.55511E-16  0.0000     -.55511E-16 0.16653E-15 0.16653E-15 0.12212E-14 0.23399E-11 0.27675E-09 0.26862E-09 0.26187E-09
 0.49985E-11 0.29421E-14  0.0000     0.55511E-16 -.16653E-15  0.0000      0.0000     0.91593E-15 0.15064E-11 0.13889E-09
 0.15343E-09 0.15209E-09 0.69506E-12 0.49960E-15 -.55511E-16 -.11102E-15  0.0000     0.55511E-16  0.0000     0.49960E-15
 0.69511E-12 0.15124E-09 0.15181E-09 0.14263E-09 0.15034E-11 0.88818E-15 -.11102E-15 -.55511E-16 -.55511E-16 0.55511E-16
 0.16653E-15 0.26368E-14 0.50134E-11 0.25907E-09 0.27167E-09 0.27445E-09 0.23408E-11 0.10547E-14 -.16653E-15 -.16653E-15
 -.11102E-15 0.16653E-15 0.55511E-16 0.88818E-15 0.23400E-11 0.27677E-09 0.26863E-09 0.26186E-09 0.49984E-11 0.27200E-14
 -.16653E-15 -.55511E-16 -.27756E-16 -.55511E-16 0.27756E-15 0.63755E-13 0.21303E-09 0.18723E-08 0.19505E-08 0.19692E-08
 0.12693E-09 0.22982E-13 0.11102E-15 -.11102E-15 -.11102E-15 -.11102E-15 0.55511E-16 0.22982E-13 0.12694E-09 0.20015E-08
 0.19016E-08 0.18912E-08 0.21041E-09 0.64004E-13 0.33307E-15 -.13878E-15 0.12768E-14 0.30531E-14 0.64865E-13 0.24498E-10
 0.53675E-07 0.97712E-07 0.10903E-06 0.10460E-06 0.85114E-07 0.88187E-11 0.22871E-13 0.94369E-15 0.55511E-15 0.10547E-14
 0.22982E-13 0.88243E-11 0.85297E-07 0.10069E-06 0.10037E-06 0.10505E-06 0.51420E-07 0.24540E-10 0.64865E-13 0.30531E-14
 0.98396E-12 0.28338E-11 0.57174E-10 0.37419E-08 0.95326E-03 0.10631E-05 0.12515E-05 0.16347E-05 0.29852E-05 0.83690E-07
 0.12703E-09 0.23400E-11 0.69506E-12 0.23401E-11 0.12694E-09 0.85297E-07 0.29895E-05 0.16311E-05 0.13524E-05 0.10468E-05
 0.44018E-02 0.37660E-08 0.57144E-10 0.28342E-11 0.93271E-11 0.16205E-10 0.10818E-09 0.37072E-08 0.26617E-04 0.81046E-06
 0.69744E-06 0.62773E-06 0.16226E-05 0.10058E-06 0.20016E-08 0.27675E-09 0.15124E-09 0.27677E-09 0.20015E-08 0.10069E-06
 0.16311E-05 0.62748E-06 0.70153E-06 0.80740E-06 0.26846E-04 0.37084E-08 0.10817E-09 0.16205E-10 0.89405E-11 0.15248E-10
 0.10282E-09 0.36604E-08 0.43021E-04 0.74037E-06 0.80357E-06 0.70070E-06 0.13484E-05 0.10035E-06 0.19016E-08 0.26862E-09
 0.15181E-09 0.26863E-09 0.19016E-08 0.10037E-06 0.13524E-05 0.70153E-06 0.80415E-06 0.73791E-06 0.43213E-04 0.36609E-08
 0.10281E-09 0.15248E-10 0.83552E-11 0.15065E-10 0.10146E-09 0.33610E-08 0.32939E-04 0.60415E-06 0.73733E-06 0.80648E-06
 0.10533E-05 0.10510E-06 0.18910E-08 0.26187E-09 0.14263E-09 0.26186E-09 0.18912E-08 0.10505E-06 0.10468E-05 0.80740E-06
 0.73791E-06 0.60588E-06 0.31971E-04 0.33600E-08 0.10147E-09 0.15065E-10 0.84170E-11 0.15118E-10 0.97955E-10 0.29176E-08
 0.10011E-05 0.27282E-04 0.59790E-04 0.14005E-04 0.27093E-03 0.50835E-07 0.21012E-09 0.49985E-11 0.15037E-11 0.49982E-11
 0.21041E-09 0.51420E-07 0.44018E-02 0.26846E-04 0.43213E-04 0.31971E-04 0.12397E-05 0.28948E-08 0.98074E-10 0.15114E-10
 0.76594E-11 0.12944E-10 0.66678E-10 0.72785E-09 0.28311E-08 0.34853E-08 0.35841E-08 0.38013E-08 0.36495E-08 0.24545E-10
 0.63977E-13 0.27200E-14 0.12212E-14 0.29976E-14 0.64310E-13 0.24540E-10 0.37660E-08 0.37084E-08 0.36609E-08 0.33600E-08
 0.28948E-08 0.72082E-09 0.66947E-10 0.12950E-10 0.53627E-11 0.78925E-11 0.22910E-10 0.67525E-10 0.97494E-10 0.10154E-09
 0.10213E-09 0.11099E-09 0.56879E-10 0.64893E-13 0.36082E-15 -.55511E-16  0.0000     0.11102E-15 0.38858E-15 0.64643E-13
 0.57144E-10 0.10817E-09 0.10281E-09 0.10147E-09 0.98074E-10 0.66947E-10 0.22884E-10 0.79260E-11 0.30840E-11 0.41042E-11
 0.79733E-11 0.12929E-10 0.15115E-10 0.15022E-10 0.15154E-10 0.16483E-10 0.28230E-11 0.29698E-14 -.55511E-16 -.11102E-15
 -.11102E-15 0.55511E-16 0.24980E-15 0.29421E-14 0.28342E-11 0.16205E-10 0.15247E-10 0.15065E-10 0.15114E-10 0.12949E-10
 0.79257E-11 0.41155E-11 0.67029E-11 0.88493E-11 0.16577E-10 0.28890E-10 0.36163E-10 0.39555E-10 0.40864E-10 0.42945E-10
 0.22006E-11 0.20817E-14 -.27756E-16 0.11102E-15 -.83267E-16 0.27756E-16 -.55511E-16 0.20262E-14 0.22071E-11 0.42444E-10
 0.41320E-10 0.39144E-10 0.36905E-10 0.28015E-10 0.16820E-10 0.88247E-11 0.88491E-11 0.12274E-10 0.25633E-10 0.48525E-10
 0.61642E-10 0.68230E-10 0.70235E-10 0.74383E-10 0.63337E-11 0.52736E-14 0.11102E-15 -.27756E-16 -.19429E-15 -.11102E-15
 0.22204E-15 0.51348E-14 0.63576E-11 0.73248E-10 0.71013E-10 0.67229E-10 0.62936E-10 0.47327E-10 0.25954E-10 0.12223E-10
 0.16577E-10 0.25633E-10 0.79607E-10 0.25374E-09 0.38095E-09 0.42190E-09 0.43274E-09 0.46731E-09 0.15067E-09 0.10494E-12
 0.80491E-15 -.55511E-16 -.55511E-16  0.0000     0.80491E-15 0.10514E-12 0.15115E-09 0.45897E-09 0.44417E-09 0.41244E-09
 0.38839E-09 0.24831E-09 0.80779E-10 0.25538E-10 0.28890E-10 0.48525E-10 0.25374E-09 0.29420E-08 0.12178E-07 0.14962E-07
 0.15057E-07 0.15858E-07 0.12988E-07 0.33031E-10 0.94105E-13 0.44270E-14 0.14433E-14 0.46074E-14 0.94258E-13 0.32968E-10
 0.13050E-07 0.15536E-07 0.16208E-07 0.14166E-07 0.12417E-07 0.29079E-08 0.25630E-09 0.48542E-10 0.36163E-10 0.61642E-10
 0.38095E-09 0.12178E-07 0.40773E-01 0.23811E-05 0.22940E-05 0.28175E-05 0.49760E-04 0.14064E-07 0.12694E-09 0.47726E-11
 0.16156E-11 0.47722E-11 0.12698E-09 0.14054E-07 0.80904E-04 0.32194E-05 0.20686E-05 0.29205E-05 0.12737E-03 0.12142E-07
 0.38131E-09 0.61698E-10 0.39555E-10 0.68230E-10 0.42190E-09 0.14962E-07 0.23811E-05 0.83584E-06 0.66410E-06 0.62758E-06
 0.29328E-05 0.16551E-07 0.44921E-09 0.64624E-10 0.35755E-10 0.64624E-10 0.44920E-09 0.16552E-07 0.29346E-05 0.62827E-06
 0.66440E-06 0.83716E-06 0.23681E-05 0.14960E-07 0.42190E-09 0.68231E-10 0.40864E-10 0.70235E-10 0.43274E-09 0.15057E-07
 0.22940E-05 0.66410E-06 0.66407E-06 0.66079E-06 0.18809E-05 0.19397E-07 0.47797E-09 0.68730E-10 0.38036E-10 0.68730E-10
 0.47797E-09 0.19395E-07 0.18780E-05 0.66032E-06 0.66478E-06 0.66247E-06 0.23055E-05 0.15059E-07 0.43274E-09 0.70234E-10
 0.42945E-10 0.74383E-10 0.46731E-09 0.15858E-07 0.28175E-05 0.62758E-06 0.66079E-06 0.83709E-06 0.19589E-05 0.19241E-07
 0.48890E-09 0.72031E-10 0.40049E-10 0.72033E-10 0.48889E-09 0.19244E-07 0.19442E-05 0.83458E-06 0.66690E-06 0.62489E-06
 0.28616E-05 0.15862E-07 0.46731E-09 0.74379E-10 0.22006E-11 0.63337E-11 0.15067E-09 0.12988E-07 0.49760E-04 0.29328E-05
 0.18809E-05 0.19589E-05 0.50226E-04 0.18926E-07 0.11963E-09 0.29918E-11 0.95868E-12 0.29926E-11 0.11967E-09 0.19090E-07
 0.55224E-04 0.18126E-05 0.21490E-05 0.24789E-05 0.49390E-03 0.13009E-07 0.15080E-09 0.63318E-11 0.20539E-14 0.51903E-14
 0.10512E-12 0.33031E-10 0.14064E-07 0.16551E-07 0.19397E-07 0.19241E-07 0.18926E-07 0.15201E-10 0.38691E-13 0.18874E-14
 0.61062E-15 0.20539E-14 0.38580E-13 0.15228E-10 0.17686E-07 0.20744E-07 0.18598E-07 0.17498E-07 0.13284E-07 0.32982E-10
 0.10511E-12 0.51348E-14 0.55511E-16 0.27756E-16 0.77716E-15 0.94022E-13 0.12694E-09 0.44921E-09 0.47797E-09 0.48890E-09
 0.11963E-09 0.38358E-13 0.33307E-15 0.55511E-16 -.22204E-15  0.0000     0.27756E-15 0.38358E-13 0.11833E-09 0.50251E-09
 0.46498E-09 0.45488E-09 0.12576E-09 0.94008E-13 0.77716E-15 0.27756E-16 -.11102E-15 -.27756E-16 0.55511E-16 0.45380E-14
 0.47726E-11 0.64624E-10 0.68730E-10 0.72031E-10 0.29920E-11 0.18319E-14 -.16653E-15 0.11102E-15 -.55511E-16 0.22204E-15
 0.55511E-16 0.17764E-14 0.29834E-11 0.73433E-10 0.67373E-10 0.64987E-10 0.47708E-11 0.45242E-14 0.19429E-15 0.27756E-16
 -.55511E-16 -.55511E-16 0.11102E-15 0.15682E-14 0.16156E-11 0.35755E-10 0.38036E-10 0.40049E-10 0.95873E-12 0.66613E-15
 0.55511E-16 -.27756E-15 0.11102E-15 0.11102E-15 0.55511E-16 0.94369E-15 0.95673E-12 0.40892E-10 0.37503E-10 0.36027E-10
 0.16155E-11 0.17486E-14 0.27756E-16  0.0000     0.27756E-16 -.55511E-16 0.11102E-15 0.44270E-14 0.47720E-11 0.64624E-10
 0.68730E-10 0.72033E-10 0.29926E-11 0.18319E-14 -.11102E-15  0.0000     0.55511E-16  0.0000     0.55511E-16 0.18319E-14
 0.29839E-11 0.73435E-10 0.67373E-10 0.64987E-10 0.47704E-11 0.42327E-14 0.11102E-15 0.11102E-15 -.13878E-15 0.13878E-15
 0.86042E-15 0.94036E-13 0.12698E-09 0.44920E-09 0.47797E-09 0.48889E-09 0.11967E-09 0.38747E-13 0.44409E-15 -.22204E-15
 -.27756E-15  0.0000     0.27756E-15 0.38580E-13 0.11837E-09 0.50251E-09 0.46499E-09 0.45487E-09 0.12580E-09 0.93994E-13
 0.74940E-15 0.11102E-15 0.21927E-14 0.53429E-14 0.10514E-12 0.32968E-10 0.14054E-07 0.16552E-07 0.19395E-07 0.19244E-07
 0.19090E-07 0.15228E-10 0.38358E-13 0.16653E-14 0.77716E-15 0.19429E-14 0.38525E-13 0.15255E-10 0.17835E-07 0.20747E-07
 0.18596E-07 0.17499E-07 0.13274E-07 0.32918E-10 0.10517E-12 0.53013E-14 0.22069E-11 0.63575E-11 0.15115E-09 0.13050E-07
 0.80904E-04 0.29346E-05 0.18780E-05 0.19442E-05 0.55224E-04 0.17686E-07 0.11833E-09 0.29834E-11 0.95690E-12 0.29838E-11
 0.11837E-09 0.17835E-07 0.61007E-04 0.17996E-05 0.21455E-05 0.24803E-05 0.47999E-02 0.13071E-07 0.15128E-09 0.63561E-11
 0.42444E-10 0.73248E-10 0.45897E-09 0.15536E-07 0.32194E-05 0.62827E-06 0.66032E-06 0.83458E-06 0.18126E-05 0.20744E-07
 0.50251E-09 0.73433E-10 0.40892E-10 0.73435E-10 0.50251E-09 0.20747E-07 0.17996E-05 0.83208E-06 0.66642E-06 0.62558E-06
 0.32732E-05 0.15540E-07 0.45897E-09 0.73245E-10 0.41320E-10 0.71013E-10 0.44417E-09 0.16208E-07 0.20686E-05 0.66440E-06
 0.66478E-06 0.66690E-06 0.21490E-05 0.18598E-07 0.46498E-09 0.67373E-10 0.37503E-10 0.67373E-10 0.46499E-09 0.18596E-07
 0.21455E-05 0.66642E-06 0.66549E-06 0.66277E-06 0.20784E-05 0.16211E-07 0.44417E-09 0.71012E-10 0.39144E-10 0.67229E-10
 0.41244E-09 0.14166E-07 0.29205E-05 0.83716E-06 0.66247E-06 0.62489E-06 0.24789E-05 0.17498E-07 0.45488E-09 0.64987E-10
 0.36027E-10 0.64987E-10 0.45488E-09 0.17499E-07 0.24803E-05 0.62558E-06 0.66277E-06 0.83847E-06 0.29028E-05 0.14165E-07
 0.41243E-09 0.67230E-10 0.36905E-10 0.62936E-10 0.38839E-09 0.12417E-07 0.12737E-03 0.23681E-05 0.23055E-05 0.28616E-05
 0.49390E-03 0.13284E-07 0.12576E-09 0.47707E-11 0.16157E-11 0.47703E-11 0.12580E-09 0.13274E-07 0.47999E-02 0.32732E-05
 0.20784E-05 0.29028E-05 0.33662E-04 0.12380E-07 0.38876E-09 0.62993E-10 0.28015E-10 0.47327E-10 0.24831E-09 0.29079E-08
 0.12142E-07 0.14960E-07 0.15059E-07 0.15862E-07 0.13009E-07 0.32981E-10 0.94008E-13 0.42050E-14 0.17070E-14 0.43715E-14
 0.94189E-13 0.32918E-10 0.13071E-07 0.15540E-07 0.16211E-07 0.14165E-07 0.12380E-07 0.28745E-08 0.25079E-09 0.47344E-10
 0.16820E-10 0.25954E-10 0.80779E-10 0.25630E-09 0.38131E-09 0.42190E-09 0.43274E-09 0.46731E-09 0.15080E-09 0.10528E-12
 0.74940E-15 -.11102E-15 0.27756E-16 0.27756E-15 0.69389E-15 0.10499E-12 0.15128E-09 0.45897E-09 0.44417E-09 0.41243E-09
 0.38876E-09 0.25079E-09 0.81977E-10 0.25857E-10 0.88247E-11 0.12223E-10 0.25538E-10 0.48543E-10 0.61698E-10 0.68231E-10
 0.70234E-10 0.74379E-10 0.63319E-11 0.52042E-14 0.22204E-15 0.13878E-15 -.83267E-16 0.16653E-15 0.19429E-15 0.52874E-14
 0.63559E-11 0.73245E-10 0.71012E-10 0.67229E-10 0.62993E-10 0.47343E-10 0.25857E-10 0.12172E-10 0.46605E-10 0.60154E-10
 0.11014E-09 0.16667E-09 0.19515E-09 0.21889E-09 0.22677E-09 0.23838E-09 0.48911E-11 0.34209E-14 -.97145E-16 0.55511E-16
 -.69389E-16 -.13878E-15 0.11102E-15 0.34903E-14 0.48874E-11 0.23716E-09 0.23257E-09 0.21426E-09 0.20262E-09 0.16483E-09
 0.11086E-09 0.60401E-10 0.60153E-10 0.82161E-10 0.16792E-09 0.28530E-09 0.34128E-09 0.38517E-09 0.39972E-09 0.41815E-09
 0.15654E-10 0.92704E-14 0.33307E-15 -.27756E-16 -.16653E-15 0.13878E-16 0.26368E-15 0.92010E-14 0.15669E-10 0.41495E-09
 0.40924E-09 0.37222E-09 0.35200E-09 0.28363E-09 0.16943E-09 0.82086E-10 0.11014E-09 0.16792E-09 0.50026E-09 0.14567E-08
 0.21301E-08 0.24806E-08 0.25619E-08 0.27434E-08 0.58246E-09 0.20448E-12 0.13253E-14 0.11102E-15 0.27756E-16 0.33307E-15
 0.16445E-14 0.20450E-12 0.59065E-09 0.26869E-08 0.26795E-08 0.23334E-08 0.22219E-08 0.14467E-08 0.50123E-09 0.16767E-09
 0.16667E-09 0.28530E-09 0.14567E-08 0.16812E-07 0.78601E-07 0.12003E-06 0.11789E-06 0.16221E-06 0.91009E-07 0.75581E-10
 0.19744E-12 0.89928E-14 0.32613E-14 0.89859E-14 0.19751E-12 0.75309E-10 0.10395E-06 0.14527E-06 0.14084E-06 0.98996E-07
 0.91599E-07 0.16914E-07 0.14490E-08 0.28503E-09 0.19515E-09 0.34128E-09 0.21301E-08 0.78601E-07 0.25518E-05 0.96236E-06
 0.11537E-05 0.77757E-06 0.56805E-05 0.10218E-07 0.15303E-09 0.75909E-11 0.26697E-11 0.75912E-11 0.15310E-09 0.10097E-07
 0.43058E-05 0.88160E-06 0.10040E-05 0.10775E-05 0.22670E-05 0.79419E-07 0.21293E-08 0.34159E-09 0.21889E-09 0.38517E-09
 0.24806E-08 0.12003E-06 0.96236E-06 0.55253E-06 0.67002E-06 0.81050E-06 0.25823E-05 0.10599E-07 0.30112E-09 0.45305E-10
 0.24739E-10 0.45305E-10 0.30112E-09 0.10600E-07 0.25856E-05 0.80982E-06 0.67049E-06 0.55235E-06 0.96240E-06 0.12002E-06
 0.24806E-08 0.38517E-09 0.22677E-09 0.39972E-09 0.25619E-08 0.11789E-06 0.11537E-05 0.67002E-06 0.70092E-06 0.64999E-06
 0.28577E-05 0.11252E-07 0.32036E-09 0.48826E-10 0.26731E-10 0.48826E-10 0.32035E-09 0.11254E-07 0.28723E-05 0.64833E-06
 0.70252E-06 0.66915E-06 0.11532E-05 0.11787E-06 0.25618E-08 0.39972E-09 0.23838E-09 0.41815E-09 0.27434E-08 0.16221E-06
 0.77757E-06 0.81050E-06 0.64999E-06 0.56180E-06 0.79313E-05 0.10942E-07 0.32871E-09 0.50264E-10 0.27901E-10 0.50265E-10
 0.32868E-09 0.10952E-07 0.81763E-05 0.55515E-06 0.65593E-06 0.80564E-06 0.77952E-06 0.16228E-06 0.27426E-08 0.41811E-09
 0.48907E-11 0.15654E-10 0.58246E-09 0.91009E-07 0.56805E-05 0.25823E-05 0.28577E-05 0.79313E-05 0.85779E-02 0.10823E-07
 0.11779E-09 0.45198E-11 0.15520E-11 0.45207E-11 0.11772E-09 0.11065E-07 0.20136E-03 0.45450E-05 0.40504E-05 0.21309E-05
 0.74407E-05 0.94175E-07 0.58077E-09 0.15654E-10 0.33445E-14 0.92010E-14 0.20463E-12 0.75581E-10 0.10218E-07 0.10599E-07
 0.11252E-07 0.10942E-07 0.10823E-07 0.24669E-10 0.80047E-13 0.39968E-14 0.16098E-14 0.41078E-14 0.79936E-13 0.24773E-10
 0.10239E-07 0.11906E-07 0.10561E-07 0.11189E-07 0.97907E-08 0.76024E-10 0.20458E-12 0.90067E-14 0.27756E-16 0.11102E-15
 0.12698E-14 0.19737E-12 0.15304E-09 0.30112E-09 0.32036E-09 0.32871E-09 0.11779E-09 0.80047E-13 0.55511E-15  0.0000    
  0.0000     -.16653E-15 0.66613E-15 0.79770E-13 0.11526E-09 0.33953E-09 0.31215E-09 0.30644E-09 0.15110E-09 0.19757E-12
 0.14710E-14 0.15266E-15 -.97145E-16 -.11102E-15 0.18041E-15 0.91316E-14 0.75908E-11 0.45305E-10 0.48826E-10 0.50264E-10
 0.45202E-11 0.38858E-14  0.0000     0.22204E-15 -.11102E-15 0.55511E-16 0.11102E-15 0.41078E-14 0.44938E-11 0.51146E-10
 0.47967E-10 0.46072E-10 0.75607E-11 0.91940E-14 0.83267E-16 -.55511E-16 -.24980E-15 0.55511E-16 0.27756E-16 0.33654E-14
 0.26698E-11 0.24739E-10 0.26731E-10 0.27901E-10 0.15522E-11 0.16098E-14 0.11102E-15 -.55511E-16  0.0000     0.22204E-15
 0.11102E-15 0.16098E-14 0.15478E-11 0.28538E-10 0.26293E-10 0.25147E-10 0.26627E-11 0.33654E-14 -.55511E-16 -.69389E-16
 -.55511E-16 -.13878E-16 0.33307E-15 0.88887E-14 0.75912E-11 0.45305E-10 0.48826E-10 0.50266E-10 0.45208E-11 0.41078E-14
 0.55511E-16  0.0000     -.16653E-15 0.55511E-16  0.0000     0.39968E-14 0.44943E-11 0.51147E-10 0.47967E-10 0.46072E-10
 0.75611E-11 0.89859E-14 0.83267E-16 0.13878E-16 0.41633E-16  0.0000     0.13600E-14 0.19713E-12 0.15310E-09 0.30112E-09
 0.32035E-09 0.32868E-09 0.11772E-09 0.80269E-13 0.61062E-15 -.55511E-16 -.55511E-16 0.11102E-15 0.72164E-15 0.80047E-13
 0.11520E-09 0.33951E-09 0.31215E-09 0.30643E-09 0.15117E-09 0.19745E-12 0.14919E-14 0.11102E-15 0.33862E-14 0.92287E-14
 0.20476E-12 0.75309E-10 0.10097E-07 0.10600E-07 0.11254E-07 0.10952E-07 0.11065E-07 0.24772E-10 0.80047E-13 0.37748E-14
 0.18319E-14 0.38858E-14 0.80158E-13 0.24876E-10 0.10461E-07 0.11917E-07 0.10563E-07 0.11190E-07 0.96774E-08 0.75750E-10
 0.20464E-12 0.91802E-14 0.48875E-11 0.15669E-10 0.59065E-09 0.10395E-06 0.43058E-05 0.25856E-05 0.28723E-05 0.81763E-05
 0.20136E-03 0.10239E-07 0.11526E-09 0.44938E-11 0.15479E-11 0.44943E-11 0.11520E-09 0.10461E-07 0.59006E-04 0.46507E-05
 0.40750E-05 0.21334E-05 0.54349E-05 0.10782E-06 0.58892E-09 0.15669E-10 0.23716E-09 0.41495E-09 0.26869E-08 0.14527E-06
 0.88160E-06 0.80982E-06 0.64833E-06 0.55515E-06 0.45450E-05 0.11906E-07 0.33953E-09 0.51145E-10 0.28538E-10 0.51147E-10
 0.33951E-09 0.11917E-07 0.46507E-05 0.54863E-06 0.65425E-06 0.80496E-06 0.88395E-06 0.14533E-06 0.26862E-08 0.41492E-09
 0.23257E-09 0.40924E-09 0.26795E-08 0.14084E-06 0.10040E-05 0.67049E-06 0.70252E-06 0.65593E-06 0.40504E-05 0.10561E-07
 0.31215E-09 0.47967E-10 0.26293E-10 0.47967E-10 0.31215E-09 0.10563E-07 0.40750E-05 0.65425E-06 0.70413E-06 0.66962E-06
 0.10036E-05 0.14081E-06 0.26794E-08 0.40924E-09 0.21426E-09 0.37222E-09 0.23334E-08 0.98996E-07 0.10775E-05 0.55235E-06
 0.66915E-06 0.80564E-06 0.21309E-05 0.11189E-07 0.30644E-09 0.46072E-10 0.25147E-10 0.46071E-10 0.30643E-09 0.11190E-07
 0.21334E-05 0.80496E-06 0.66962E-06 0.55218E-06 0.10776E-05 0.98990E-07 0.23334E-08 0.37222E-09 0.20262E-09 0.35200E-09
 0.22219E-08 0.91599E-07 0.22670E-05 0.96240E-06 0.11532E-05 0.77952E-06 0.74407E-05 0.97907E-08 0.15110E-09 0.75606E-11
 0.26629E-11 0.75611E-11 0.15117E-09 0.96774E-08 0.54349E-05 0.88395E-06 0.10036E-05 0.10776E-05 0.20273E-05 0.92629E-07
 0.22211E-08 0.35232E-09 0.16483E-09 0.28363E-09 0.14467E-08 0.16914E-07 0.79419E-07 0.12002E-06 0.11787E-06 0.16228E-06
 0.94175E-07 0.76024E-10 0.19761E-12 0.88263E-14 0.34833E-14 0.90414E-14 0.19769E-12 0.75750E-10 0.10782E-06 0.14533E-06
 0.14081E-06 0.98990E-07 0.92629E-07 0.17016E-07 0.14391E-08 0.28336E-09 0.11086E-09 0.16944E-09 0.50123E-09 0.14490E-08
 0.21293E-08 0.24806E-08 0.25618E-08 0.27426E-08 0.58077E-09 0.20454E-12 0.14364E-14 0.55511E-16 -.27756E-16 0.30531E-15
 0.13045E-14 0.20449E-12 0.58892E-09 0.26862E-08 0.26794E-08 0.23334E-08 0.22211E-08 0.14391E-08 0.50220E-09 0.16918E-09
 0.60401E-10 0.82086E-10 0.16767E-09 0.28503E-09 0.34159E-09 0.38517E-09 0.39972E-09 0.41811E-09 0.15654E-10 0.91593E-14
 0.36082E-15 0.83267E-16 -.15266E-15 0.55511E-16 0.48572E-15 0.92565E-14 0.15669E-10 0.41492E-09 0.40924E-09 0.37222E-09
 0.35232E-09 0.28336E-09 0.16918E-09 0.82011E-10 0.39314E-09 0.50452E-09 0.90492E-09 0.12530E-08 0.14845E-08 0.16850E-08
 0.17040E-08 0.19462E-08 0.96770E-11 0.71262E-14 0.14572E-15 0.83267E-16 -.12490E-15 0.69389E-17 0.40939E-15 0.70742E-14
 0.97239E-11 0.18156E-08 0.18528E-08 0.15903E-08 0.14630E-08 0.12973E-08 0.90491E-09 0.51253E-09 0.50452E-09 0.68330E-09
 0.13394E-08 0.21713E-08 0.27635E-08 0.32283E-08 0.31872E-08 0.37004E-08 0.31913E-10 0.18766E-13 0.37470E-15 0.12490E-15
 -.69389E-16 0.12490E-15 0.62797E-15 0.18784E-13 0.32114E-10 0.34383E-08 0.34687E-08 0.30075E-08 0.27574E-08 0.22224E-08
 0.13486E-08 0.68535E-09 0.90492E-09 0.13394E-08 0.37083E-08 0.11602E-07 0.20692E-07 0.27020E-07 0.24663E-07 0.30529E-07
 0.13684E-08 0.40750E-12 0.32370E-14 0.22898E-15 0.19082E-15 0.26021E-15 0.34139E-14 0.40766E-12 0.13989E-08 0.26981E-07
 0.28052E-07 0.24128E-07 0.21552E-07 0.11475E-07 0.38056E-08 0.13332E-08 0.12530E-08 0.21713E-08 0.11602E-07 0.23893E-06
 0.85881E-05 0.20504     0.18062E-04 0.17844E-04 0.55773E-06 0.11486E-09 0.39205E-12 0.18908E-13 0.72511E-14 0.19096E-13
 0.39231E-12 0.11447E-09 0.70005E-06 0.67494E-05 0.27309E-03 0.35142E-04 0.20001E-04 0.22244E-06 0.12030E-07 0.21480E-08