PROCAR lm decomposed
# of k-points:   10         # of bands:   76         # of ions:   20

 k-point     1 :    0.00000000 0.00000000 0.00000000     weight = 0.02040816

band     1 # energy  -34.15179213 # occ.  2.00000000
 
ion      s     py     pz     px    dxy    dyz    dz2    dxz  x2-y2    tot
    1  0.000  0.000  0.000  0.000  0.000  0.000  0.000  0.000  0.000  0.000
    2  0.000  0.000  0.000  0.000  0.000  0.000  0.000  0.000  0.000  0.000
    3  0.000  0.000  0.000  0.000  0.000  0.000  0.000  0.000  0.000  0.000
    4  0.000  0.000  0.000  0.000  0.000  0.000  0.000  0.000  0.000  0.000
    5  0.000  0.000  0.000  0.000  0.000  0.000  0.000  0.000  0.000  0.000
    6  0.000  0.000  0.000  0.000  0.000  0.000  0.000  0.000  0.000  0.000
    7  0.000  0.000  0.000  0.000  0.000  0.000  0.000  0.000  0.000  0.000
    8  0.000  0.000  0.000  0.000  0.000  0.000  0.000  0.000  0.000  0.000
    9  0.000  0.000  0.000  0.000  0.000  0.000  0.000  0.000  0.000  0.000
   10  0.000  0.000  0.000  0.000  0.000  0.000  0.000  0.000  0.000  0.000
   11  0.000  0.000  0.000  0.000  0.000  0.000  0.000  0.000  0.000  0.000
   12  0.000  0.000  0.000  0.000  0.000  0.000  0.000  0.000  0.000  0.000
   13  0.976  0.000  0.000  0.000  0.000  0.000  0.000  0.000  0.000  0.976
   14  0.000  0.000  0.000  0.000  0.000  0.000  0.000  0.000  0.000  0.000
   15  0.000  0.000  0.000  0.000  0.000  0.000  0.000  0.000  0.000  0.000
   16  0.000  0.000  0.000  0.000  0.000  0.000  0.000  0.000  0.000  0.000
   17  0.000  0.000  0.000  0.000  0.000  0.000  0.000  0.000  0.000  0.000
   18  0.000  0.000  0.000  0.000  0.000  0.000  0.000  0.000  0.000  0.000
   19  0.000  0.000  0.000  0.000  0.000  0.000  0.000  0.000  0.000  0.000
   20  0.000  0.000  0.000  0.000  0.000  0.000  0.000  0.000  0.000  0.000
tot    0.976  0.000  0.000  0.000  0.000  0.000  0.000  0.000  0.000  0.977
 
band     2 # energy  -33.42251873 # occ.  2.00000000
 
ion      s     py     pz     px    dxy    dyz    dz2    dxz  x2-y2    tot
    1  0.000  0.000  0.000  0.000  0.000  0.000  0.000  0.000  0.000  0.000
    2  0.000  0.000  0.000  0.000  0.000  0.000  0.000  0.000  0.000  0.000
    3  0.000  0.000  0.000  0.000  0.000  0.000  0.000  0.000  0.000  0.000
    4  0.000  0.000  0.000  0.000  0.000  0.000  0.000  0.000  0.000  0.000
    5  0.000  0.000  0.000  0.000  0.000  0.000  0.000  0.000  0.000  0.000
    6  0.000  0.000  0.000  0.000  0.000  0.000  0.000  0.000  0.000  0.000
    7  0.000  0.000  0.000  0.000  0.000  0.000  0.000  0.000  0.000  0.000
    8  0.000  0.000  0.000  0.000  0.000  0.000  0.000  0.000  0.000  0.000
    9  0.000  0.000  0.000  0.000  0.000  0.000  0.000  0.000  0.000  0.000
   10  0.000  0.000  0.000  0.000  0.000  0.000  0.000  0.000  0.000  0.000
   11  0.000  0.000  0.000  0.000  0.000  0.000  0.000  0.000  0.000  0.000
   12  0.000  0.000  0.000  0.000  0.000  0.000  0.000  0.000  0.000  0.000
   13  0.000  0.000  0.000  0.000  0.000  0.000  0.000  0.000  0.000  0.000
   14  0.975  0.000  0.000  0.000  0.000  0.000  0.000  0.000  0.000  0.975
   15  0.001  0.000  0.000  0.000  0.000  0.000  0.000  0.000  0.000  0.001
   16  0.000  0.000  0.000  0.000  0.000  0.000  0.000  0.000  0.000  0.000
   17  0.000  0.000  0.000  0.000  0.000  0.000  0.000  0.000  0.000  0.000
   18  0.000  0.000  0.000  0.000  0.000  0.000  0.000  0.000  0.000  0.000
   19  0.000  0.000  0.000  0.000  0.000  0.000  0.000  0.000  0.000  0.000
   20  0.000  0.000  0.000  0.000  0.000  0.000  0.000  0.000  0.000  0.000
tot    0.976  0.000  0.000  0.000  0.000  0.000  0.000  0.000  0.000  0.976
 
band     3 # energy  -33.20715313 # occ.  2.00000000
 
ion      s     py     pz     px    dxy    dyz    dz2    dxz  x2-y2    tot
    1  0.000  0.000  0.000  0.000  0.000  0.000  0.000  0.000  0.000  0.000
    2  0.000  0.000  0.000  0.000  0.000  0.000  0.000  0.000  0.000  0.000
    3  0.000  0.000  0.000  0.000  0.000  0.000  0.000  0.000  0.000  0.000
    4  0.000  0.000  0.000  0.000  0.000  0.000  0.000  0.000  0.000  0.000
    5  0.000  0.000  0.000  0.000  0.000  0.000  0.000  0.000  0.000  0.000
    6  0.000  0.000  0.000  0.000  0.000  0.000  0.000  0.000  0.000  0.000
    7  0.000  0.000  0.000  0.000  0.000  0.000  0.000  0.000  0.000  0.000
    8  0.000  0.000  0.000  0.000  0.000  0.000  0.000  0.000  0.000  0.000
    9  0.000  0.000  0.000  0.000  0.000  0.000  0.000  0.000  0.000  0.000
   10  0.000  0.000  0.000  0.000  0.000  0.000  0.000  0.000  0.000  0.000
   11  0.000  0.000  0.000  0.000  0.000  0.000  0.000  0.000  0.000  0.000
   12  0.000  0.000  0.000  0.000  0.000  0.000  0.000  0.000  0.000  0.000
   13  0.000  0.000  0.000  0.000  0.000  0.000  0.000  0.000  0.000  0.000
   14  0.001  0.000  0.000  0.000  0.000  0.000  0.000  0.000  0.000  0.001
   15  0.975  0.000  0.000  0.000  0.000  0.000  0.000  0.000  0.000  0.975
   16  0.000  0.000  0.000  0.000  0.000  0.000  0.000  0.000  0.000  0.000
   17  0.000  0.000  0.000  0.000  0.000  0.000  0.000  0.000  0.000  0.000
   18  0.000  0.000  0.000  0.000  0.000  0.000  0.000  0.000  0.000  0.000
   19  0.000  0.000  0.000  0.000  0.000  0.000  0.000  0.000  0.000  0.000
   20  0.000  0.000  0.000  0.000  0.000  0.000  0.000  0.000  0.000  0.000
tot    0.976  0.000  0.000  0.000  0.000  0.000  0.000  0.000  0.000  0.976
 
band     4 # energy  -32.87258089 # occ.  2.00000000
 
ion      s     py     pz     px    dxy    dyz    dz2    dxz  x2-y2    tot
    1  0.000  0.000  0.000  0.000  0.000  0.000  0.000  0.000  0.000  0.000
    2  0.000  0.000  0.000  0.000  0.000  0.000  0.000  0.000  0.000  0.000
    3  0.000  0.000  0.000  0.000  0.000  0.000  0.000  0.000  0.000  0.000
    4  0.000  0.000  0.000  0.000  0.000  0.000  0.000  0.000  0.000  0.000
    5  0.000  0.000  0.000  0.000  0.000  0.000  0.000  0.000  0.000  0.000
    6  0.000  0.000  0.000  0.000  0.000  0.000  0.000  0.000  0.000  0.000
    7  0.000  0.000  0.000  0.000  0.000  0.000  0.000  0.000  0.000  0.000
    8  0.000  0.000  0.000  0.000  0.000  0.000  0.000  0.000  0.000  0.000
    9  0.000  0.000  0.000  0.000  0.000  0.000  0.000  0.000  0.000  0.000
   10  0.000  0.000  0.000  0.000  0.000  0.000  0.000  0.000  0.000  0.000
   11  0.000  0.000  0.000  0.000  0.000  0.000  0.000  0.000  0.000  0.000
   12  0.000  0.000  0.000  0.000  0.000  0.000  0.000  0.000  0.000  0.000
   13  0.000  0.000  0.000  0.000  0.000  0.000  0.000  0.000  0.000  0.000
   14  0.000  0.000  0.000  0.000  0.000  0.000  0.000  0.000  0.000  0.000
   15  0.000  0.000  0.000  0.000  0.000  0.000  0.000  0.000  0.000  0.000
   16  0.975  0.000  0.000  0.000  0.000  0.000  0.000  0.000  0.000  0.975
   17  0.000  0.000  0.000  0.000  0.000  0.000  0.000  0.000  0.000  0.000
   18  0.000  0.000  0.000  0.000  0.000  0.000  0.000  0.000  0.000  0.000
   19  0.000  0.000  0.000  0.000  0.000  0.000  0.000  0.000  0.000  0.000
   20  0.000  0.000  0.000  0.000  0.000  0.000  0.000  0.000  0.000  0.000
tot    0.976  0.000  0.000  0.000  0.000  0.000  0.000  0.000  0.000  0.976
 
band     5 # energy  -18.36513445 # occ.  2.00000000
 
ion      s     py     pz     px    dxy    dyz    dz2    dxz  x2-y2    tot
    1  0.006  0.000  0.000  0.000  0.000  0.000  0.000  0.000  0.000  0.007
    2  0.282  0.000  0.000  0.000  0.000  0.000  0.000  0.000  0.000  0.282
    3  0.282  0.000  0.000  0.000  0.000  0.000  0.000  0.000  0.000  0.282
    4  0.009  0.000  0.000  0.000  0.000  0.000  0.000  0.000  0.000  0.009
    5  0.006  0.000  0.000  0.000  0.000  0.000  0.000  0.000  0.000  0.006
    6  0.006  0.000  0.000  0.000  0.000  0.000  0.000  0.000  0.000  0.006
    7  0.000  0.000  0.000  0.000  0.000  0.000  0.000  0.000  0.000  0.000
    8  0.000  0.000  0.000  0.000  0.000  0.000  0.000  0.000  0.000  0.000
    9  0.000  0.000  0.000  0.000  0.000  0.000  0.000  0.000  0.000  0.000
   10  0.000  0.000  0.000  0.000  0.000  0.000  0.000  0.000  0.000  0.000
   11  0.000  0.000  0.000  0.000  0.000  0.000  0.000  0.000  0.000  0.000
   12  0.000  0.000  0.000  0.000  0.000  0.000  0.000  0.000  0.000  0.000
   13  0.002  0.000  0.118  0.000  0.000  0.000  0.000  0.000  0.000  0.120
   14  0.001  0.000  0.035  0.000  0.000  0.000  0.000  0.000  0.000  0.036
   15  0.000  0.000  0.001  0.000  0.000  0.000  0.000  0.000  0.000  0.001
   16  0.000  0.000  0.000  0.000  0.000  0.000  0.000  0.000  0.000  0.000
   17  0.090  0.000  0.000  0.000  0.000  0.000  0.021  0.000  0.000  0.112
   18  0.001  0.000  0.000  0.000  0.000  0.000  0.002  0.000  0.000  0.003
   19  0.000  0.000  0.000  0.000  0.000  0.000  0.000  0.000  0.000  0.000
   20  0.000  0.000  0.000  0.000  0.000  0.000  0.000  0.000  0.000  0.000
tot    0.686  0.000  0.154  0.000  0.000  0.000  0.023  0.000  0.000  0.863
 
band     6 # energy  -17.90821070 # occ.  2.00000000
 
ion      s     py     pz     px    dxy    dyz    dz2    dxz  x2-y2    tot
    1  0.001  0.000  0.000  0.000  0.000  0.000  0.000  0.000  0.000  0.001
    2  0.006  0.000  0.000  0.000  0.000  0.000  0.000  0.000  0.000  0.006
    3  0.006  0.000  0.000  0.000  0.000  0.000  0.000  0.000  0.000  0.006
    4  0.036  0.000  0.000  0.000  0.000  0.000  0.000  0.000  0.000  0.036
    5  0.270  0.000  0.000  0.000  0.000  0.000  0.000  0.000  0.000  0.270
    6  0.270  0.000  0.000  0.000  0.000  0.000  0.000  0.000  0.000  0.270
    7  0.025  0.000  0.000  0.000  0.000  0.000  0.000  0.000  0.000  0.025
    8  0.013  0.000  0.000  0.000  0.000  0.000  0.000  0.000  0.000  0.013
    9  0.013  0.000  0.000  0.000  0.000  0.000  0.000  0.000  0.000  0.013
   10  0.001  0.000  0.000  0.000  0.000  0.000  0.000  0.000  0.000  0.001
   11  0.000  0.000  0.000  0.000  0.000  0.000  0.000  0.000  0.000  0.000
   12  0.000  0.000  0.000  0.000  0.000  0.000  0.000  0.000  0.000  0.000
   13  0.000  0.000  0.003  0.000  0.000  0.000  0.000  0.000  0.000  0.003
   14  0.002  0.000  0.038  0.000  0.000  0.000  0.000  0.000  0.000  0.041
   15  0.001  0.000  0.050  0.000  0.000  0.000  0.000  0.000  0.000  0.051
   16  0.000  0.000  0.001  0.000  0.000  0.000  0.000  0.000  0.000  0.001
   17  0.004  0.000  0.000  0.000  0.000  0.000  0.000  0.000  0.000  0.004
   18  0.100  0.000  0.000  0.000  0.000  0.000  0.013  0.000  0.000  0.113
   19  0.002  0.000  0.001  0.000  0.000  0.000  0.004  0.000  0.000  0.006
   20  0.000  0.000  0.000  0.000  0.000  0.000  0.000  0.000  0.000  0.000
tot    0.749  0.000  0.094  0.000  0.000  0.000  0.016  0.000  0.000  0.859
 
band     7 # energy  -17.69878683 # occ.  2.00000000
 
ion      s     py     pz     px    dxy    dyz    dz2    dxz  x2-y2    tot
    1  0.000  0.000  0.000  0.000  0.000  0.000  0.000  0.000  0.000  0.000
    2  0.000  0.000  0.000  0.000  0.000  0.000  0.000  0.000  0.000  0.000
    3  0.000  0.000  0.000  0.000  0.000  0.000  0.000  0.000  0.000  0.000
    4  0.005  0.000  0.000  0.000  0.000  0.000  0.000  0.000  0.000  0.005
    5  0.007  0.000  0.000  0.000  0.000  0.000  0.000  0.000  0.000  0.007
    6  0.007  0.000  0.000  0.000  0.000  0.000  0.000  0.000  0.000  0.007
    7  0.087  0.000  0.000  0.000  0.000  0.000  0.000  0.000  0.000  0.087
    8  0.230  0.000  0.000  0.000  0.000  0.000  0.000  0.000  0.000  0.230
    9  0.230  0.000  0.000  0.000  0.000  0.000  0.000  0.000  0.000  0.230
   10  0.114  0.000  0.000  0.000  0.000  0.000  0.000  0.000  0.000  0.114
   11  0.000  0.000  0.000  0.000  0.000  0.000  0.000  0.000  0.000  0.000
   12  0.000  0.000  0.000  0.000  0.000  0.000  0.000  0.000  0.000  0.000
   13  0.000  0.000  0.000  0.000  0.000  0.000  0.000  0.000  0.000  0.000
   14  0.000  0.000  0.001  0.000  0.000  0.000  0.000  0.000  0.000  0.001
   15  0.003  0.000  0.028  0.000  0.000  0.000  0.000  0.000  0.000  0.030
   16  0.002  0.000  0.020  0.000  0.000  0.000  0.000  0.000  0.000  0.022
   17  0.000  0.000  0.000  0.000  0.000  0.000  0.000  0.000  0.000  0.000
   18  0.007  0.000  0.001  0.000  0.000  0.000  0.001  0.000  0.000  0.008
   19  0.108  0.000  0.000  0.000  0.000  0.000  0.003  0.000  0.000  0.110
   20  0.002  0.000  0.003  0.000  0.000  0.000  0.006  0.000  0.000  0.012
tot    0.800  0.000  0.053  0.000  0.000  0.000  0.010  0.000  0.000  0.863
 
band     8 # energy  -17.22330699 # occ.  2.00000000
 
ion      s     py     pz     px    dxy    dyz    dz2    dxz  x2-y2    tot
    1  0.000  0.000  0.000  0.000  0.000  0.000  0.000  0.000  0.000  0.000
    2  0.391  0.000  0.000  0.000  0.000  0.000  0.000  0.000  0.000  0.391
    3  0.391  0.000  0.000  0.000  0.000  0.000  0.000  0.000  0.000  0.391
    4  0.000  0.000  0.000  0.000  0.000  0.000  0.000  0.000  0.000  0.000
    5  0.000  0.000  0.000  0.000  0.000  0.000  0.000  0.000  0.000  0.000
    6  0.000  0.000  0.000  0.000  0.000  0.000  0.000  0.000  0.000  0.000
    7  0.000  0.000  0.000  0.000  0.000  0.000  0.000  0.000  0.000  0.000
    8  0.000  0.000  0.000  0.000  0.000  0.000  0.000  0.000  0.000  0.000
    9  0.000  0.000  0.000  0.000  0.000  0.000  0.000  0.000  0.000  0.000
   10  0.000  0.000  0.000  0.000  0.000  0.000  0.000  0.000  0.000  0.000
   11  0.000  0.000  0.000  0.000  0.000  0.000  0.000  0.000  0.000  0.000
   12  0.000  0.000  0.000  0.000  0.000  0.000  0.000  0.000  0.000  0.000
   13  0.000  0.000  0.000  0.000  0.000  0.000  0.000  0.000  0.001  0.001
   14  0.000  0.000  0.000  0.000  0.000  0.000  0.000  0.000  0.000  0.000
   15  0.000  0.000  0.000  0.000  0.000  0.000  0.000  0.000  0.000  0.000
   16  0.000  0.000  0.000  0.000  0.000  0.000  0.000  0.000  0.000  0.000
   17  0.000  0.000  0.000  0.000  0.000  0.000  0.000  0.000  0.139  0.139
   18  0.000  0.000  0.000  0.000  0.000  0.000  0.000  0.000  0.000  0.000
   19  0.000  0.000  0.000  0.000  0.000  0.000  0.000  0.000  0.000  0.000
   20  0.000  0.000  0.000  0.000  0.000  0.000  0.000  0.000  0.000  0.000
tot    0.783  0.000  0.000  0.000  0.000  0.000  0.000  0.000  0.141  0.924
 
band     9 # energy  -17.18670588 # occ.  2.00000000
 
ion      s     py     pz     px    dxy    dyz    dz2    dxz  x2-y2    tot
    1  0.000  0.000  0.000  0.000  0.000  0.000  0.000  0.000  0.000  0.000
    2  0.000  0.000  0.000  0.000  0.000  0.000  0.000  0.000  0.000  0.000
    3  0.000  0.000  0.000  0.000  0.000  0.000  0.000  0.000  0.000  0.000
    4  0.001  0.000  0.000  0.000  0.000  0.000  0.000  0.000  0.000  0.001
    5  0.001  0.000  0.000  0.000  0.000  0.000  0.000  0.000  0.000  0.001
    6  0.001  0.000  0.000  0.000  0.000  0.000  0.000  0.000  0.000  0.001
    7  0.000  0.000  0.000  0.000  0.000  0.000  0.000  0.000  0.000  0.000
    8  0.030  0.000  0.000  0.000  0.000  0.000  0.000  0.000  0.000  0.030
    9  0.030  0.000  0.000  0.000  0.000  0.000  0.000  0.000  0.000  0.030
   10  0.421  0.000  0.000  0.000  0.000  0.000  0.000  0.000  0.000  0.422
   11  0.109  0.000  0.000  0.000  0.000  0.000  0.000  0.000  0.000  0.110
   12  0.109  0.000  0.000  0.000  0.000  0.000  0.000  0.000  0.000  0.110
   13  0.000  0.000  0.000  0.000  0.000  0.000  0.000  0.000  0.000  0.000
   14  0.000  0.000  0.000  0.000  0.000  0.000  0.000  0.000  0.000  0.000
   15  0.000  0.000  0.006  0.000  0.000  0.000  0.000  0.000  0.000  0.006
   16  0.003  0.000  0.045  0.000  0.000  0.000  0.000  0.000  0.000  0.048
   17  0.000  0.000  0.000  0.000  0.000  0.000  0.000  0.000  0.000  0.000
   18  0.001  0.000  0.000  0.000  0.000  0.000  0.000  0.000  0.000  0.001
   19  0.000  0.000  0.006  0.000  0.000  0.000  0.025  0.000  0.000  0.031
   20  0.079  0.000  0.014  0.000  0.000  0.000  0.002  0.000  0.000  0.095
tot    0.787  0.000  0.072  0.000  0.000  0.000  0.027  0.000  0.000  0.886
 
band    10 # energy  -16.83597554 # occ.  2.00000000
 
ion      s     py     pz     px    dxy    dyz    dz2    dxz  x2-y2    tot
    1  0.000  0.000  0.000  0.000  0.000  0.000  0.000  0.000  0.000  0.000
    2  0.000  0.000  0.000  0.000  0.000  0.000  0.000  0.000  0.000  0.000
    3  0.000  0.000  0.000  0.000  0.000  0.000  0.000  0.000  0.000  0.000
    4  0.000  0.000  0.000  0.000  0.000  0.000  0.000  0.000  0.000  0.000
    5  0.391  0.000  0.000  0.000  0.000  0.000  0.000  0.000  0.000  0.391
    6  0.391  0.000  0.000  0.000  0.000  0.000  0.000  0.000  0.000  0.391
    7  0.000  0.000  0.000  0.000  0.000  0.000  0.000  0.000  0.000  0.000
    8  0.001  0.000  0.000  0.000  0.000  0.000  0.000  0.000  0.000  0.001
    9  0.001  0.000  0.000  0.000  0.000  0.000  0.000  0.000  0.000  0.001
   10  0.000  0.000  0.000  0.000  0.000  0.000  0.000  0.000  0.000  0.000
   11  0.000  0.000  0.000  0.000  0.000  0.000  0.000  0.000  0.000  0.000
   12  0.000  0.000  0.000  0.000  0.000  0.000  0.000  0.000  0.000  0.000
   13  0.000  0.000  0.000  0.000  0.000  0.000  0.000  0.000  0.000  0.000
   14  0.000  0.000  0.000  0.000  0.000  0.000  0.000  0.000  0.001  0.001
   15  0.000  0.000  0.000  0.000  0.000  0.000  0.000  0.000  0.000  0.000
   16  0.000  0.000  0.000  0.000  0.000  0.000  0.000  0.000  0.000  0.000
   17  0.000  0.000  0.000  0.000  0.000  0.000  0.000  0.000  0.000  0.000
   18  0.000  0.000  0.000  0.000  0.000  0.000  0.000  0.000  0.140  0.140
   19  0.000  0.000  0.000  0.000  0.000  0.000  0.000  0.000  0.000  0.000
   20  0.000  0.000  0.000  0.000  0.000  0.000  0.000  0.000  0.000  0.000
tot    0.784  0.000  0.000  0.000  0.000  0.000  0.000  0.000  0.141  0.925
 
band    11 # energy  -16.83249542 # occ.  2.00000000
 
ion      s     py     pz     px    dxy    dyz    dz2    dxz  x2-y2    tot
    1  0.017  0.000  0.000  0.000  0.000  0.000  0.000  0.000  0.000  0.017
    2  0.003  0.000  0.000  0.000  0.000  0.000  0.000  0.000  0.000  0.003
    3  0.003  0.000  0.000  0.000  0.000  0.000  0.000  0.000  0.000  0.003
    4  0.281  0.000  0.000  0.000  0.000  0.000  0.000  0.000  0.000  0.281
    5  0.032  0.000  0.000  0.000  0.000  0.000  0.000  0.000  0.000  0.032
    6  0.032  0.000  0.000  0.000  0.000  0.000  0.000  0.000  0.000  0.032
    7  0.302  0.000  0.000  0.000  0.000  0.000  0.000  0.000  0.000  0.302
    8  0.012  0.000  0.000  0.000  0.000  0.000  0.000  0.000  0.000  0.012
    9  0.012  0.000  0.000  0.000  0.000  0.000  0.000  0.000  0.000  0.012
   10  0.026  0.000  0.000  0.000  0.000  0.000  0.000  0.000  0.000  0.026
   11  0.005  0.000  0.000  0.000  0.000  0.000  0.000  0.000  0.000  0.005
   12  0.005  0.000  0.000  0.000  0.000  0.000  0.000  0.000  0.000  0.005
   13  0.000  0.000  0.029  0.000  0.000  0.000  0.000  0.000  0.000  0.029
   14  0.000  0.000  0.013  0.000  0.000  0.000  0.001  0.000  0.000  0.014
   15  0.000  0.000  0.001  0.000  0.000  0.000  0.001  0.000  0.000  0.002
   16  0.000  0.000  0.009  0.000  0.000  0.000  0.000  0.000  0.000  0.009
   17  0.002  0.000  0.002  0.000  0.000  0.000  0.015  0.000  0.000  0.019
   18  0.002  0.000  0.000  0.000  0.000  0.000  0.063  0.000  0.000  0.065
   19  0.000  0.000  0.012  0.000  0.000  0.000  0.013  0.000  0.000  0.025
   20  0.000  0.000  0.001  0.000  0.000  0.000  0.004  0.000  0.000  0.005
tot    0.735  0.000  0.068  0.000  0.000  0.000  0.096  0.000  0.000  0.899
 
band    12 # energy  -16.72884161 # occ.  2.00000000
 
ion      s     py     pz     px    dxy    dyz    dz2    dxz  x2-y2    tot
    1  0.047  0.000  0.000  0.000  0.000  0.000  0.000  0.000  0.000  0.047
    2  0.001  0.000  0.000  0.000  0.000  0.000  0.000  0.000  0.000  0.001
    3  0.001  0.000  0.000  0.000  0.000  0.000  0.000  0.000  0.000  0.001
    4  0.334  0.000  0.000  0.000  0.000  0.000  0.000  0.000  0.000  0.334
    5  0.000  0.000  0.000  0.000  0.000  0.000  0.000  0.000  0.000  0.000
    6  0.000  0.000  0.000  0.000  0.000  0.000  0.000  0.000  0.000  0.000
    7  0.335  0.000  0.000  0.000  0.000  0.000  0.000  0.000  0.000  0.335
    8  0.006  0.000  0.000  0.000  0.000  0.000  0.000  0.000  0.000  0.006
    9  0.006  0.000  0.000  0.000  0.000  0.000  0.000  0.000  0.000  0.006
   10  0.015  0.000  0.000  0.000  0.000  0.000  0.000  0.000  0.000  0.015
   11  0.000  0.000  0.000  0.000  0.000  0.000  0.000  0.000  0.000  0.000
   12  0.000  0.000  0.000  0.000  0.000  0.000  0.000  0.000  0.000  0.000
   13  0.000  0.000  0.029  0.000  0.000  0.000  0.000  0.000  0.000  0.029
   14  0.001  0.000  0.001  0.000  0.000  0.000  0.001  0.000  0.000  0.003
   15  0.001  0.000  0.003  0.000  0.000  0.000  0.001  0.000  0.000  0.004
   16  0.000  0.000  0.002  0.000  0.000  0.000  0.000  0.000  0.000  0.002
   17  0.006  0.000  0.001  0.000  0.000  0.000  0.020  0.000  0.000  0.027
   18  0.000  0.000  0.028  0.000  0.000  0.000  0.000  0.000  0.000  0.028
   19  0.001  0.000  0.012  0.000  0.000  0.000  0.014  0.000  0.000  0.027
   20  0.000  0.000  0.001  0.000  0.000  0.000  0.001  0.000  0.000  0.002
tot    0.754  0.000  0.077  0.000  0.000  0.000  0.036  0.000  0.000  0.867
 
band    13 # energy  -16.69025963 # occ.  2.00000000
 
ion      s     py     pz     px    dxy    dyz    dz2    dxz  x2-y2    tot
    1  0.000  0.000  0.000  0.000  0.000  0.000  0.000  0.000  0.000  0.000
    2  0.000  0.000  0.000  0.000  0.000  0.000  0.000  0.000  0.000  0.000
    3  0.000  0.000  0.000  0.000  0.000  0.000  0.000  0.000  0.000  0.000
    4  0.001  0.000  0.000  0.000  0.000  0.000  0.000  0.000  0.000  0.001
    5  0.003  0.000  0.000  0.000  0.000  0.000  0.000  0.000  0.000  0.003
    6  0.003  0.000  0.000  0.000  0.000  0.000  0.000  0.000  0.000  0.003
    7  0.014  0.000  0.000  0.000  0.000  0.000  0.000  0.000  0.000  0.014
    8  0.040  0.000  0.000  0.000  0.000  0.000  0.000  0.000  0.000  0.040
    9  0.040  0.000  0.000  0.000  0.000  0.000  0.000  0.000  0.000  0.040
   10  0.193  0.000  0.000  0.000  0.000  0.000  0.000  0.000  0.000  0.193
   11  0.205  0.000  0.000  0.000  0.000  0.000  0.000  0.000  0.000  0.205
   12  0.205  0.000  0.000  0.000  0.000  0.000  0.000  0.000  0.000  0.205
   13  0.000  0.000  0.001  0.000  0.000  0.000  0.000  0.000  0.000  0.001
   14  0.000  0.000  0.002  0.000  0.000  0.000  0.000  0.000  0.000  0.002
   15  0.000  0.000  0.012  0.000  0.000  0.000  0.000  0.000  0.000  0.012
   16  0.000  0.000  0.055  0.000  0.000  0.000  0.001  0.000  0.000  0.056
   17  0.000  0.000  0.000  0.000  0.000  0.000  0.000  0.000  0.000  0.000
   18  0.000  0.000  0.000  0.000  0.000  0.000  0.002  0.000  0.000  0.002
   19  0.001  0.000  0.002  0.000  0.000  0.000  0.026  0.000  0.000  0.029
   20  0.026  0.000  0.008  0.000  0.000  0.000  0.065  0.000  0.000  0.099
tot    0.733  0.000  0.080  0.000  0.000  0.000  0.094  0.000  0.000  0.906
 
band    14 # energy  -16.60262963 # occ.  2.00000000
 
ion      s     py     pz     px    dxy    dyz    dz2    dxz  x2-y2    tot
    1  0.000  0.000  0.000  0.000  0.000  0.000  0.000  0.000  0.000  0.000
    2  0.000  0.000  0.000  0.000  0.000  0.000  0.000  0.000  0.000  0.000
    3  0.000  0.000  0.000  0.000  0.000  0.000  0.000  0.000  0.000  0.000
    4  0.000  0.000  0.000  0.000  0.000  0.000  0.000  0.000  0.000  0.000
    5  0.001  0.000  0.000  0.000  0.000  0.000  0.000  0.000  0.000  0.001
    6  0.001  0.000  0.000  0.000  0.000  0.000  0.000  0.000  0.000  0.001
    7  0.000  0.000  0.000  0.000  0.000  0.000  0.000  0.000  0.000  0.000
    8  0.391  0.000  0.000  0.000  0.000  0.000  0.000  0.000  0.000  0.391
    9  0.391  0.000  0.000  0.000  0.000  0.000  0.000  0.000  0.000  0.391
   10  0.000  0.000  0.000  0.000  0.000  0.000  0.000  0.000  0.000  0.000
   11  0.000  0.000  0.000  0.000  0.000  0.000  0.000  0.000  0.000  0.000
   12  0.000  0.000  0.000  0.000  0.000  0.000  0.000  0.000  0.000  0.000
   13  0.000  0.000  0.000  0.000  0.000  0.000  0.000  0.000  0.000  0.000
   14  0.000  0.000  0.000  0.000  0.000  0.000  0.000  0.000  0.000  0.000
   15  0.000  0.000  0.000  0.000  0.000  0.000  0.000  0.000  0.000  0.000
   16  0.000  0.000  0.000  0.000  0.000  0.000  0.000  0.000  0.000  0.000
   17  0.000  0.000  0.000  0.000  0.000  0.000  0.000  0.000  0.000  0.000
   18  0.000  0.000  0.000  0.000  0.000  0.000  0.000  0.000  0.000  0.000
   19  0.000  0.000  0.000  0.000  0.000  0.000  0.000  0.000  0.141  0.141
   20  0.000  0.000  0.000  0.000  0.000  0.000  0.000  0.000  0.000  0.000
tot    0.784  0.000  0.000  0.000  0.000  0.000  0.000  0.000  0.142  0.926
 
band    15 # energy  -16.38581278 # occ.  2.00000000
 
ion      s     py     pz     px    dxy    dyz    dz2    dxz  x2-y2    tot
    1  0.610  0.000  0.002  0.000  0.000  0.000  0.000  0.000  0.000  0.612
    2  0.002  0.000  0.000  0.000  0.000  0.000  0.000  0.000  0.000  0.002
    3  0.002  0.000  0.000  0.000  0.000  0.000  0.000  0.000  0.000  0.002
    4  0.092  0.000  0.000  0.000  0.000  0.000  0.000  0.000  0.000  0.092
    5  0.001  0.000  0.000  0.000  0.000  0.000  0.000  0.000  0.000  0.001
    6  0.001  0.000  0.000  0.000  0.000  0.000  0.000  0.000  0.000  0.001
    7  0.003  0.000  0.000  0.000  0.000  0.000  0.000  0.000  0.000  0.003
    8  0.000  0.000  0.000  0.000  0.000  0.000  0.000  0.000  0.000  0.000
    9  0.000  0.000  0.000  0.000  0.000  0.000  0.000  0.000  0.000  0.000
   10  0.000  0.000  0.000  0.000  0.000  0.000  0.000  0.000  0.000  0.000
   11  0.000  0.000  0.000  0.000  0.000  0.000  0.000  0.000  0.000  0.000
   12  0.000  0.000  0.000  0.000  0.000  0.000  0.000  0.000  0.000  0.000
   13  0.003  0.000  0.072  0.000  0.000  0.000  0.001  0.000  0.000  0.075
   14  0.000  0.000  0.000  0.000  0.000  0.000  0.000  0.000  0.000  0.001
   15  0.000  0.000  0.000  0.000  0.000  0.000  0.000  0.000  0.000  0.001
   16  0.000  0.000  0.000  0.000  0.000  0.000  0.000  0.000  0.000  0.000
   17  0.012  0.000  0.029  0.000  0.000  0.000  0.012  0.000  0.000  0.053
   18  0.001  0.000  0.003  0.000  0.000  0.000  0.003  0.000  0.000  0.007
   19  0.000  0.000  0.000  0.000  0.000  0.000  0.000  0.000  0.000  0.000
   20  0.000  0.000  0.000  0.000  0.000  0.000  0.000  0.000  0.000  0.000
tot    0.725  0.000  0.106  0.000  0.000  0.000  0.017  0.000  0.000  0.848
 
band    16 # energy  -16.12564823 # occ.  2.00000000
 
ion      s     py     pz     px    dxy    dyz    dz2    dxz  x2-y2    tot
    1  0.000  0.000  0.000  0.001  0.000  0.000  0.000  0.000  0.000  0.001
    2  0.000  0.000  0.000  0.001  0.000  0.000  0.000  0.000  0.000  0.001
    3  0.000  0.000  0.000  0.000  0.000  0.000  0.000  0.000  0.000  0.000
    4  0.000  0.000  0.000  0.000  0.000  0.000  0.000  0.000  0.000  0.000
    5  0.000  0.000  0.000  0.000  0.000  0.000  0.000  0.000  0.000  0.000
    6  0.000  0.000  0.000  0.000  0.000  0.000  0.000  0.000  0.000  0.000
    7  0.000  0.000  0.000  0.000  0.000  0.000  0.000  0.000  0.000  0.000
    8  0.000  0.000  0.000  0.000  0.000  0.000  0.000  0.000  0.000  0.000
    9  0.000  0.000  0.000  0.000  0.000  0.000  0.000  0.000  0.000  0.000
   10  0.000  0.000  0.000  0.000  0.000  0.000  0.000  0.000  0.000  0.000
   11  0.000  0.000  0.000  0.000  0.000  0.000  0.000  0.000  0.000  0.000
   12  0.000  0.000  0.000  0.000  0.000  0.000  0.000  0.000  0.000  0.000
   13  0.000  0.088  0.000  0.857  0.000  0.000  0.000  0.000  0.000  0.945
   14  0.000  0.000  0.000  0.000  0.000  0.000  0.000  0.000  0.000  0.000
   15  0.000  0.000  0.000  0.000  0.000  0.000  0.000  0.000  0.000  0.000
   16  0.000  0.000  0.000  0.000  0.000  0.000  0.000  0.000  0.000  0.000
   17  0.000  0.000  0.000  0.001  0.000  0.000  0.000  0.000  0.000  0.001
   18  0.000  0.000  0.000  0.000  0.000  0.000  0.000  0.000  0.000  0.000
   19  0.000  0.000  0.000  0.000  0.000  0.000  0.000  0.000  0.000  0.000
   20  0.000  0.000  0.000  0.000  0.000  0.000  0.000  0.000  0.000  0.000
tot    0.000  0.088  0.000  0.861  0.000  0.000  0.000  0.001  0.000  0.949
 
band    17 # energy  -16.12564823 # occ.  2.00000000
 
ion      s     py     pz     px    dxy    dyz    dz2    dxz  x2-y2    tot
    1  0.000  0.001  0.000  0.000  0.000  0.000  0.000  0.000  0.000  0.001
    2  0.000  0.000  0.000  0.000  0.000  0.000  0.000  0.000  0.000  0.000
    3  0.000  0.001  0.000  0.000  0.000  0.000  0.000  0.000  0.000  0.001
    4  0.000  0.000  0.000  0.000  0.000  0.000  0.000  0.000  0.000  0.000
    5  0.000  0.000  0.000  0.000  0.000  0.000  0.000  0.000  0.000  0.000
    6  0.000  0.000  0.000  0.000  0.000  0.000  0.000  0.000  0.000  0.000
    7  0.000  0.000  0.000  0.000  0.000  0.000  0.000  0.000  0.000  0.000
    8  0.000  0.000  0.000  0.000  0.000  0.000  0.000  0.000  0.000  0.000
    9  0.000  0.000  0.000  0.000  0.000  0.000  0.000  0.000  0.000  0.000
   10  0.000  0.000  0.000  0.000  0.000  0.000  0.000  0.000  0.000  0.000
   11  0.000  0.000  0.000  0.000  0.000  0.000  0.000  0.000  0.000  0.000
   12  0.000  0.000  0.000  0.000  0.000  0.000  0.000  0.000  0.000  0.000
   13  0.000  0.857  0.000  0.088  0.000  0.000  0.000  0.000  0.000  0.945
   14  0.000  0.000  0.000  0.000  0.000  0.000  0.000  0.000  0.000  0.000
   15  0.000  0.000  0.000  0.000  0.000  0.000  0.000  0.000  0.000  0.000
   16  0.000  0.000  0.000  0.000  0.000  0.000  0.000  0.000  0.000  0.000
   17  0.000  0.001  0.000  0.000  0.000  0.000  0.000  0.000  0.000  0.001
   18  0.000  0.000  0.000  0.000  0.000  0.000  0.000  0.000  0.000  0.000
   19  0.000  0.000  0.000  0.000  0.000  0.000  0.000  0.000  0.000  0.000
   20  0.000  0.000  0.000  0.000  0.000  0.000  0.000  0.000  0.000  0.000
tot    0.000  0.861  0.000  0.088  0.000  0.001  0.000  0.000  0.000  0.949
 
band    18 # energy  -15.96593784 # occ.  2.00000000
 
ion      s     py     pz     px    dxy    dyz    dz2    dxz  x2-y2    tot
    1  0.000  0.000  0.000  0.000  0.000  0.000  0.000  0.000  0.000  0.000
    2  0.000  0.000  0.000  0.000  0.000  0.000  0.000  0.000  0.000  0.000
    3  0.000  0.000  0.000  0.000  0.000  0.000  0.000  0.000  0.000  0.000
    4  0.000  0.000  0.000  0.000  0.000  0.000  0.000  0.000  0.000  0.000