unknown system                          
           1
     3.946846    0.000000    0.000000
     0.000000    3.946846    0.000000
     0.000000    0.000000   25.813962
   O    Sr   Ti
  12   4   4
Direct configuration=     1
   0.50000000  0.50000000  0.23098480
   0.50000000  0.00000000  0.30736757
   0.00000000  0.50000000  0.30736757
   0.50000000  0.50000000  0.38509819
   0.50000000  0.00000000  0.46169411
   0.00000000  0.50000000  0.46169411
   0.50000000  0.50000000  0.53820805
   0.50000000  0.00000000  0.61456534
   0.00000000  0.50000000  0.61456534
   0.50000000  0.50000000  0.69137348
   0.50000000  0.00000000  0.76720366
   0.00000000  0.50000000  0.76720366
   0.00000000  0.00000000  0.23961871
   0.00000000  0.00000000  0.38701953
   0.00000000  0.00000000  0.53928244
   0.00000000  0.00000000  0.69674246
   0.50000000  0.50000000  0.30544725
   0.50000000  0.50000000  0.46076674
   0.50000000  0.50000000  0.61332916
   0.50000000  0.50000000  0.76336363
