  20  20   0   0
  0.2336395E+02  0.5522883E-09  0.3905268E-09  0.2166505E-08  0.5000000E-15
  1.000000000000000E-004
  CAR 
 unknown system                          
      6.55841724    -38.63230098  301     -0.75957887      1.00000000
    -38.632  0.0000E+00  0.0000E+00
    -38.482  0.0000E+00  0.0000E+00
    -38.331  0.0000E+00  0.0000E+00
    -38.180  0.0000E+00  0.0000E+00
    -38.030  0.0000E+00  0.0000E+00
    -37.879  0.0000E+00  0.0000E+00
    -37.728  0.0000E+00  0.0000E+00
    -37.578  0.0000E+00  0.0000E+00
    -37.427  0.0000E+00  0.0000E+00
    -37.277  0.0000E+00  0.0000E+00
    -37.126  0.0000E+00  0.0000E+00
    -36.975  0.0000E+00  0.0000E+00
    -36.825  0.0000E+00  0.0000E+00
    -36.674  0.0000E+00  0.0000E+00
    -36.523  0.0000E+00  0.2000E+01
    -36.373  0.0000E+00  0.2000E+01
    -36.222  0.0000E+00  0.2000E+01
    -36.071  0.0000E+00  0.2000E+01
    -35.921  0.0000E+00  0.2000E+01
    -35.770  0.0000E+00  0.2000E+01
    -35.620  0.0000E+00  0.2000E+01
    -35.469  0.0000E+00  0.2000E+01
    -35.318  0.0000E+00  0.2000E+01
    -35.168  0.0000E+00  0.4000E+01
    -35.017  0.0000E+00  0.4000E+01
    -34.866  0.0000E+00  0.4000E+01
    -34.716  0.0000E+00  0.4000E+01
    -34.565  0.0000E+00  0.4000E+01
    -34.415  0.0000E+00  0.4000E+01
    -34.264  0.0000E+00  0.6000E+01
    -34.113  0.0000E+00  0.6000E+01
    -33.963  0.0000E+00  0.6000E+01
    -33.812  0.0000E+00  0.6000E+01
    -33.661  0.0000E+00  0.6000E+01
    -33.511  0.0000E+00  0.6000E+01
    -33.360  0.0000E+00  0.8000E+01
    -33.209  0.0000E+00  0.8000E+01
    -33.059  0.0000E+00  0.8000E+01
    -32.908  0.0000E+00  0.8000E+01
    -32.758  0.0000E+00  0.8000E+01
    -32.607  0.0000E+00  0.8000E+01
    -32.456  0.0000E+00  0.8000E+01
    -32.306  0.0000E+00  0.8000E+01
    -32.155  0.0000E+00  0.8000E+01
    -32.004  0.0000E+00  0.8000E+01
    -31.854  0.0000E+00  0.8000E+01
    -31.703  0.0000E+00  0.8000E+01
    -31.552  0.0000E+00  0.8000E+01
    -31.402  0.0000E+00  0.8000E+01
    -31.251  0.0000E+00  0.8000E+01
    -31.101  0.0000E+00  0.8000E+01
    -30.950  0.0000E+00  0.8000E+01
    -30.799  0.0000E+00  0.8000E+01
    -30.649  0.0000E+00  0.8000E+01
    -30.498  0.0000E+00  0.8000E+01
    -30.347  0.0000E+00  0.8000E+01
    -30.197  0.0000E+00  0.8000E+01
    -30.046  0.0000E+00  0.8000E+01
    -29.895  0.0000E+00  0.8000E+01
    -29.745  0.0000E+00  0.8000E+01
    -29.594  0.0000E+00  0.8000E+01
    -29.444  0.0000E+00  0.8000E+01
    -29.293  0.0000E+00  0.8000E+01
    -29.142  0.0000E+00  0.8000E+01
    -28.992  0.0000E+00  0.8000E+01
    -28.841  0.0000E+00  0.8000E+01
    -28.690  0.0000E+00  0.8000E+01
    -28.540  0.0000E+00  0.8000E+01
    -28.389  0.0000E+00  0.8000E+01
    -28.238  0.0000E+00  0.8000E+01
    -28.088  0.0000E+00  0.8000E+01
    -27.937  0.0000E+00  0.8000E+01
    -27.787  0.0000E+00  0.8000E+01
    -27.636  0.0000E+00  0.8000E+01
    -27.485  0.0000E+00  0.8000E+01
    -27.335  0.0000E+00  0.8000E+01
    -27.184  0.0000E+00  0.8000E+01
    -27.033  0.0000E+00  0.8000E+01
    -26.883  0.0000E+00  0.8000E+01
    -26.732  0.0000E+00  0.8000E+01
    -26.581  0.0000E+00  0.8000E+01
    -26.431  0.0000E+00  0.8000E+01
    -26.280  0.0000E+00  0.8000E+01
    -26.130  0.0000E+00  0.8000E+01
    -25.979  0.0000E+00  0.8000E+01
    -25.828  0.0000E+00  0.8000E+01
    -25.678  0.0000E+00  0.8000E+01
    -25.527  0.0000E+00  0.8000E+01
    -25.376  0.0000E+00  0.8000E+01
    -25.226  0.0000E+00  0.8000E+01
    -25.075  0.0000E+00  0.8000E+01
    -24.924  0.0000E+00  0.8000E+01
    -24.774  0.0000E+00  0.8000E+01
    -24.623  0.0000E+00  0.8000E+01
    -24.473  0.0000E+00  0.8000E+01
    -24.322  0.0000E+00  0.8000E+01
    -24.171  0.0000E+00  0.8000E+01
    -24.021  0.0000E+00  0.8000E+01
    -23.870  0.0000E+00  0.8000E+01
    -23.719  0.0000E+00  0.8000E+01
    -23.569  0.0000E+00  0.8000E+01
    -23.418  0.0000E+00  0.8000E+01
    -23.267  0.0000E+00  0.8000E+01
    -23.117  0.0000E+00  0.8000E+01
    -22.966  0.0000E+00  0.8000E+01
    -22.816  0.0000E+00  0.8000E+01
    -22.665  0.0000E+00  0.8000E+01
    -22.514  0.0000E+00  0.8000E+01
    -22.364  0.0000E+00  0.8000E+01
    -22.213  0.0000E+00  0.8000E+01
    -22.062  0.0000E+00  0.8000E+01
    -21.912  0.0000E+00  0.8000E+01
    -21.761  0.0000E+00  0.8000E+01
    -21.610  0.0000E+00  0.8000E+01
    -21.460  0.0000E+00  0.8000E+01
    -21.309  0.0000E+00  0.8000E+01
    -21.159  0.0000E+00  0.8000E+01
    -21.008  0.0000E+00  0.8000E+01
    -20.857  0.0000E+00  0.8000E+01
    -20.707  0.0000E+00  0.8000E+01
    -20.556  0.3548E+01  0.8217E+01
    -20.405  0.4103E+01  0.8879E+01
    -20.255  0.5775E+01  0.9804E+01
    -20.104  0.4763E+01  0.1070E+02
    -19.953  0.3351E+01  0.1148E+02
    -19.803  0.2641E+01  0.1187E+02
    -19.652  0.2126E+02  0.1316E+02
    -19.502  0.0000E+00  0.1400E+02
    -19.351  0.0000E+00  0.1400E+02
    -19.200  0.1326E+02  0.1554E+02
    -19.050  0.9424E+01  0.1757E+02
    -18.899  0.0000E+00  0.1800E+02
    -18.748  0.0000E+00  0.1800E+02
    -18.598  0.5189E+01  0.1986E+02
    -18.447  0.1484E+02  0.2305E+02
    -18.296  0.1549E+02  0.2644E+02
    -18.146  0.1239E+02  0.2861E+02
    -17.995  0.0000E+00  0.3000E+02
    -17.845  0.0000E+00  0.3000E+02
    -17.694  0.4907E+01  0.3161E+02
    -17.543  0.0000E+00  0.3200E+02
    -17.393  0.1341E+01  0.3203E+02
    -17.242  0.3410E+02  0.3375E+02
    -17.091  0.3406E+02  0.3728E+02
    -16.941  0.0000E+00  0.4000E+02
    -16.790  0.0000E+00  0.4000E+02
    -16.639  0.0000E+00  0.4000E+02
    -16.489  0.6254E+01  0.4168E+02
    -16.338  0.5868E+01  0.4228E+02
    -16.188  0.1808E+02  0.4551E+02
    -16.037  0.9138E+01  0.4853E+02
    -15.886  0.0000E+00  0.5000E+02
    -15.736  0.0000E+00  0.5000E+02
    -15.585  0.0000E+00  0.5000E+02
    -15.434  0.8442E+01  0.5049E+02
    -15.284  0.4147E+01  0.5254E+02
    -15.133  0.1458E+02  0.5451E+02
    -14.982  0.0000E+00  0.5600E+02
    -14.832  0.0000E+00  0.5600E+02
    -14.681  0.0000E+00  0.5600E+02
    -14.531  0.0000E+00  0.5600E+02
    -14.380  0.0000E+00  0.5600E+02
    -14.229  0.0000E+00  0.5600E+02
    -14.079  0.0000E+00  0.5600E+02
    -13.928  0.0000E+00  0.5600E+02
    -13.777  0.0000E+00  0.5600E+02
    -13.627  0.0000E+00  0.5600E+02
    -13.476  0.0000E+00  0.5600E+02
    -13.325  0.0000E+00  0.5600E+02
    -13.175  0.0000E+00  0.5600E+02
    -13.024  0.0000E+00  0.5600E+02
    -12.874  0.0000E+00  0.5600E+02
    -12.723  0.0000E+00  0.5600E+02
    -12.572  0.0000E+00  0.5600E+02
    -12.422  0.0000E+00  0.5600E+02
    -12.271  0.0000E+00  0.5600E+02
    -12.120  0.0000E+00  0.5600E+02
    -11.970  0.0000E+00  0.5600E+02
    -11.819  0.0000E+00  0.5600E+02
    -11.669  0.0000E+00  0.5600E+02
    -11.518  0.0000E+00  0.5600E+02
    -11.367  0.0000E+00  0.5600E+02
    -11.217  0.0000E+00  0.5600E+02
    -11.066  0.0000E+00  0.5600E+02
    -10.915  0.0000E+00  0.5600E+02
    -10.765  0.0000E+00  0.5600E+02
    -10.614  0.0000E+00  0.5600E+02
    -10.463  0.0000E+00  0.5600E+02
    -10.313  0.0000E+00  0.5600E+02
    -10.162  0.0000E+00  0.5600E+02
    -10.012  0.0000E+00  0.5600E+02
     -9.861  0.0000E+00  0.5600E+02
     -9.710  0.0000E+00  0.5600E+02
     -9.560  0.0000E+00  0.5600E+02
     -9.409  0.0000E+00  0.5600E+02
     -9.258  0.0000E+00  0.5600E+02
     -9.108  0.0000E+00  0.5600E+02
     -8.957  0.0000E+00  0.5600E+02
     -8.806  0.0000E+00  0.5600E+02
     -8.656  0.0000E+00  0.5600E+02
     -8.505  0.0000E+00  0.5600E+02
     -8.355  0.0000E+00  0.5600E+02
     -8.204  0.0000E+00  0.5600E+02
     -8.053  0.0000E+00  0.5600E+02
     -7.903  0.0000E+00  0.5600E+02
     -7.752  0.0000E+00  0.5600E+02
     -7.601  0.0000E+00  0.5600E+02
     -7.451  0.9658E+00  0.5641E+02
     -7.300  0.9653E+00  0.5655E+02
     -7.149  0.9648E+00  0.5670E+02
     -6.999  0.7221E+01  0.5720E+02
     -6.848  0.8205E+01  0.5898E+02
     -6.698  0.1879E+02  0.6077E+02
     -6.547  0.1665E+02  0.6305E+02
     -6.396  0.7342E+01  0.6445E+02
     -6.246  0.5548E+01  0.6550E+02
     -6.095  0.6607E+01  0.6641E+02
     -5.944  0.9005E+01  0.6795E+02
     -5.794  0.1223E+02  0.6996E+02
     -5.643  0.1043E+02  0.7169E+02
     -5.492  0.1531E+02  0.7381E+02
     -5.342  0.1232E+02  0.7582E+02
     -5.191  0.1523E+02  0.7789E+02
     -5.041  0.1339E+02  0.8032E+02
     -4.890  0.1244E+02  0.8252E+02
     -4.739  0.2361E+02  0.8459E+02
     -4.589  0.9933E+01  0.8694E+02
     -4.438  0.8322E+01  0.8828E+02
     -4.287  0.1347E+02  0.8999E+02
     -4.137  0.1686E+02  0.9219E+02
     -3.986  0.1024E+02  0.9487E+02
     -3.835  0.1392E+02  0.9655E+02
     -3.685  0.1095E+02  0.9890E+02
     -3.534  0.1404E+02  0.1005E+03
     -3.384  0.9463E+01  0.1023E+03
     -3.233  0.6097E+01  0.1034E+03
     -3.082  0.1168E+02  0.1047E+03
     -2.932  0.1082E+02  0.1063E+03
     -2.781  0.1594E+02  0.1096E+03
     -2.630  0.9225E+01  0.1111E+03
     -2.480  0.1498E+01  0.1119E+03
     -2.329  0.1222E+02  0.1126E+03
     -2.178  0.7157E+01  0.1140E+03
     -2.028  0.9266E+01  0.1156E+03
     -1.877  0.3798E+01  0.1177E+03
     -1.727  0.1996E+02  0.1181E+03
     -1.576  0.5972E+01  0.1193E+03
     -1.425  0.3063E+01  0.1200E+03
     -1.275  0.1637E+02  0.1210E+03
     -1.124  0.4293E+01  0.1227E+03
     -0.973  0.1443E+02  0.1245E+03
     -0.823  0.1385E+02  0.1269E+03
     -0.672  0.1398E+02  0.1302E+03
     -0.521  0.7278E+01  0.1316E+03
     -0.371  0.8418E+01  0.1328E+03
     -0.220  0.4140E+01  0.1339E+03
     -0.070  0.3560E+01  0.1345E+03
      0.081  0.5424E+01  0.1350E+03
      0.232  0.2740E+01  0.1358E+03
      0.382  0.6226E+01  0.1364E+03
      0.533  0.7634E+01  0.1376E+03
      0.684  0.7766E+01  0.1386E+03
      0.834  0.6898E+01  0.1398E+03
      0.985  0.7017E+01  0.1409E+03
      1.136  0.3581E+01  0.1418E+03
      1.286  0.3425E+01  0.1423E+03
      1.437  0.5353E+01  0.1438E+03
      1.587  0.2901E+01  0.1442E+03
      1.738  0.3095E+01  0.1447E+03
      1.889  0.7730E+01  0.1455E+03
      2.039  0.3370E+01  0.1462E+03
      2.190  0.3155E+01  0.1467E+03
      2.341  0.1197E+01  0.1475E+03
      2.491  0.1035E+01  0.1476E+03
      2.642  0.3726E+01  0.1478E+03
      2.793  0.2577E+01  0.1484E+03
      2.943  0.3726E+01  0.1490E+03
      3.094  0.4371E+01  0.1496E+03
      3.244  0.2370E+01  0.1505E+03
      3.395  0.2317E+01  0.1508E+03
      3.546  0.5805E+00  0.1514E+03
      3.696  0.5277E+00  0.1515E+03
      3.847  0.4749E+00  0.1515E+03
      3.998  0.4220E+00  0.1516E+03
      4.148  0.3797E+00  0.1517E+03
      4.299  0.1543E+01  0.1518E+03
      4.450  0.5068E+00  0.1520E+03
      4.600  0.0000E+00  0.1520E+03
      4.751  0.0000E+00  0.1520E+03
      4.901  0.0000E+00  0.1520E+03
      5.052  0.0000E+00  0.1520E+03
      5.203  0.0000E+00  0.1520E+03
      5.353  0.0000E+00  0.1520E+03
      5.504  0.0000E+00  0.1520E+03
      5.655  0.0000E+00  0.1520E+03
      5.805  0.0000E+00  0.1520E+03
      5.956  0.0000E+00  0.1520E+03
      6.107  0.0000E+00  0.1520E+03
      6.257  0.0000E+00  0.1520E+03
      6.408  0.0000E+00  0.1520E+03
      6.558  0.0000E+00  0.1520E+03
