   20   20    1    1
  0.2336395E+02  0.5522883E-09  0.3905268E-09  0.2166505E-08  0.5000000E-15
  1.000000000000000E-004
  CAR 
 unknown system                          
    128     12     76
 
  0.0000000E+00  0.0000000E+00  0.0000000E+00  0.2857143E-01
    1      -36.578177   1.000000
    2      -35.252711   1.000000
    3      -34.296442   1.000000
    4      -33.410733   1.000000
    5      -20.482670   1.000000
    6      -20.012555   1.000000
    7      -19.821494   1.000000
    8      -19.335690   1.000000
    9      -19.029176   1.000000
   10      -18.665511   1.000000
   11      -18.575486   1.000000
   12      -18.523606   1.000000
   13      -18.503098   1.000000
   14      -18.332326   1.000000
   15      -18.083485   1.000000
   16      -17.821014   1.000000
   17      -17.295615   1.000000
   18      -17.275464   1.000000
   19      -17.118091   1.000000
   20      -17.037227   1.000000
   21      -16.512669   1.000000
   22      -16.334992   1.000000
   23      -16.284868   1.000000
   24      -16.150237   1.000000
   25      -16.081723   1.000000
   26      -15.429984   1.000000
   27      -15.162869   1.000000
   28      -15.112076   1.000000
   29       -7.086389   1.000000
   30       -6.776965   1.000000
   31       -6.611997   1.000000
   32       -5.985939   1.000000
   33       -5.877858   1.000000
   34       -5.524853   1.000000
   35       -5.420943   1.000000
   36       -5.285881   1.000000
   37       -5.128202   1.000000
   38       -5.044735   1.000000
   39       -4.983786   1.000000
   40       -4.852918   1.000000
   41       -4.748510   1.000000
   42       -4.575352   1.000000
   43       -4.235526   1.000000
   44       -4.116966   1.000000
   45       -4.063566   1.000000
   46       -3.968783   1.000000
   47       -3.796536   1.000000
   48       -3.748345   1.000000
   49       -3.525928   1.000000
   50       -3.245788   1.000000
   51       -3.008762   1.000000
   52       -2.915262   1.000000
   53       -2.904694   1.000000
   54       -2.687882   1.000000
   55       -2.656115   1.000000
   56       -2.382242   1.000000
   57       -2.289151   1.000000
   58       -1.944625   1.000000
   59       -1.908031   1.000000
   60       -1.364911   1.000000
   61       -1.340060   1.000000
   62       -1.082933   1.000000
   63       -1.073017   1.000000
   64       -1.033977   1.000000
   65       -0.860270   1.119008
   66       -0.770535   0.186530
   67       -0.744590   0.000000
   68       -0.510579   0.000000
   69        0.077777   0.000000
   70        0.299980   0.000000
   71        0.397236   0.000000
   72        0.659825   0.000000
   73        1.323203   0.000000
   74        2.658007   0.000000
   75        4.092272   0.000000
   76        4.161665   0.000000
 
  0.2000000E+00  0.0000000E+00  0.0000000E+00  0.5714286E-01
    1      -36.577877   1.000000
    2      -35.252380   1.000000
    3      -34.296115   1.000000
    4      -33.410469   1.000000
    5      -20.543967   1.000000
    6      -20.167502   1.000000
    7      -19.693767   1.000000
    8      -19.323890   1.000000
    9      -19.109514   1.000000
   10      -18.701781   1.000000
   11      -18.575821   1.000000
   12      -18.454448   1.000000
   13      -18.387381   1.000000
   14      -18.339696   1.000000
   15      -18.154340   1.000000
   16      -17.786799   1.000000
   17      -17.296248   1.000000
   18      -17.261875   1.000000
   19      -17.077765   1.000000
   20      -17.045115   1.000000
   21      -16.485093   1.000000
   22      -16.335668   1.000000
   23      -16.285268   1.000000
   24      -16.125581   1.000000
   25      -16.022300   1.000000
   26      -15.430903   1.000000
   27      -15.168673   1.000000
   28      -15.093099   1.000000
   29       -6.915892   1.000000
   30       -6.733910   1.000000
   31       -6.641366   1.000000
   32       -5.958620   1.000000
   33       -5.736581   1.000000
   34       -5.596847   1.000000
   35       -5.515522   1.000000
   36       -5.325876   1.000000
   37       -5.161302   1.000000
   38       -5.117228   1.000000
   39       -4.910524   1.000000
   40       -4.765919   1.000000
   41       -4.675761   1.000000
   42       -4.633548   1.000000
   43       -4.357292   1.000000
   44       -4.323461   1.000000
   45       -4.061470   1.000000
   46       -4.030003   1.000000
   47       -3.938750   1.000000
   48       -3.730363   1.000000
   49       -3.490919   1.000000
   50       -3.353948   1.000000
   51       -3.178426   1.000000
   52       -3.020592   1.000000
   53       -2.928305   1.000000
   54       -2.785026   1.000000
   55       -2.603769   1.000000
   56       -2.514114   1.000000
   57       -2.295122   1.000000
   58       -2.195524   1.000000
   59       -1.882981   1.000000
   60       -1.406525   1.000000
   61       -1.385882   1.000000
   62       -1.097133   1.000000
   63       -1.067061   1.000000
   64       -0.957020   1.000000
   65       -0.862379   1.081430
   66       -0.734466   0.039747
   67       -0.719172   0.000000
   68       -0.612803   0.000000
   69        0.096519   0.000000
   70        0.338160   0.000000
   71        0.375001   0.000000
   72        0.824391   0.000000
   73        1.306764   0.000000
   74        1.320260   0.000000
   75        2.643252   0.000000
   76        4.297098   0.000000
 
  0.4000000E+00  0.0000000E+00  0.0000000E+00  0.5714286E-01
    1      -36.577390   1.000000
    2      -35.251843   1.000000
    3      -34.295586   1.000000
    4      -33.410042   1.000000
    5      -20.646453   1.000000
    6      -20.279195   1.000000
    7      -19.644232   1.000000
    8      -19.279452   1.000000
    9      -19.216903   1.000000
   10      -18.712604   1.000000
   11      -18.576364   1.000000
   12      -18.369770   1.000000
   13      -18.333866   1.000000
   14      -18.282291   1.000000
   15      -18.219035   1.000000
   16      -17.763039   1.000000
   17      -17.297275   1.000000
   18      -17.249277   1.000000
   19      -17.049718   1.000000
   20      -17.011071   1.000000
   21      -16.415202   1.000000
   22      -16.336763   1.000000
   23      -16.304796   1.000000
   24      -16.052769   1.000000
   25      -15.977271   1.000000
   26      -15.432391   1.000000
   27      -15.169692   1.000000
   28      -15.055941   1.000000
   29       -6.805450   1.000000
   30       -6.687307   1.000000
   31       -6.281408   1.000000
   32       -5.899033   1.000000
   33       -5.806441   1.000000
   34       -5.647280   1.000000
   35       -5.597742   1.000000
   36       -5.476639   1.000000
   37       -5.292917   1.000000
   38       -5.089555   1.000000
   39       -4.790946   1.000000
   40       -4.768783   1.000000
   41       -4.679448   1.000000
   42       -4.621377   1.000000
   43       -4.562416   1.000000
   44       -4.483659   1.000000
   45       -4.113518   1.000000
   46       -4.096352   1.000000
   47       -3.885402   1.000000
   48       -3.883965   1.000000
   49       -3.667424   1.000000
   50       -3.507979   1.000000
   51       -3.332217   1.000000
   52       -3.099411   1.000000
   53       -3.059290   1.000000
   54       -2.999873   1.000000
   55       -2.755012   1.000000
   56       -2.500133   1.000000
   57       -2.356610   1.000000
   58       -2.308968   1.000000
   59       -1.740240   1.000000
   60       -1.543519   1.000000
   61       -1.456228   1.000000
   62       -1.193905   1.000000
   63       -1.054499   1.000000
   64       -1.022603   1.000000
   65       -0.841922   1.012775
   66       -0.804276   0.593322
   67       -0.733627   0.000000
   68       -0.392601   0.000000
   69        0.055883   0.000000
   70        0.327456   0.000000
   71        0.406573   0.000000
   72        1.040344   0.000000
   73        1.334913   0.000000
   74        1.777785   0.000000
   75        2.614378   0.000000
   76        2.802049   0.000000
 
  0.0000000E+00  0.1428571E+00  0.0000000E+00  0.5714286E-01
    1      -36.574750   1.000000
    2      -35.248802   1.000000
    3      -34.292540   1.000000
    4      -33.406891   1.000000
    5      -20.427467   1.000000
    6      -19.972832   1.000000
    7      -19.774211   1.000000
    8      -19.292014   1.000000
    9      -19.047811   1.000000
   10      -18.620658   1.000000
   11      -18.590467   1.000000
   12      -18.533719   1.000000
   13      -18.485082   1.000000
   14      -18.293630   1.000000
   15      -18.098880   1.000000
   16      -17.780223   1.000000
   17      -17.267748   1.000000
   18      -17.222294   1.000000
   19      -17.167336   1.000000
   20      -17.052536   1.000000
   21      -16.559973   1.000000
   22      -16.294020   1.000000
   23      -16.256449   1.000000
   24      -16.194767   1.000000
   25      -16.099115   1.000000
   26      -15.379350   1.000000
   27      -15.193940   1.000000
   28      -15.176921   1.000000
   29       -7.028177   1.000000
   30       -6.707018   1.000000
   31       -6.606297   1.000000
   32       -6.313878   1.000000
   33       -5.845832   1.000000
   34       -5.812579   1.000000
   35       -5.528728   1.000000
   36       -5.482071   1.000000
   37       -5.268246   1.000000
   38       -5.208426   1.000000
   39       -5.038119   1.000000
   40       -4.966111   1.000000
   41       -4.861646   1.000000
   42       -4.615289   1.000000
   43       -4.413947   1.000000
   44       -4.410805   1.000000
   45       -4.056930   1.000000
   46       -4.055638   1.000000
   47       -4.002902   1.000000
   48       -3.710258   1.000000
   49       -3.695476   1.000000
   50       -3.343852   1.000000
   51       -3.157984   1.000000
   52       -3.061885   1.000000
   53       -2.926905   1.000000
   54       -2.813230   1.000000
   55       -2.694760   1.000000
   56       -2.554228   1.000000
   57       -2.333040   1.000000
   58       -1.996634   1.000000
   59       -1.965643   1.000000
   60       -1.498581   1.000000
   61       -1.308999   1.000000
   62       -1.089044   1.000000
   63       -0.966853   1.000000
   64       -0.963346   1.039017
   65       -0.739044   0.257321
   66       -0.646273  -0.030334
   67       -0.517231   0.000000
   68       -0.458314   0.000000
   69        0.136505   0.000000
   70        0.498233   0.000000
   71        0.579047   0.000000
   72        0.690175   0.000000
   73        1.433670   0.000000
   74        1.497906   0.000000
   75        2.745454   0.000000
   76        4.347599   0.000000
 
  0.2000000E+00  0.1428571E+00  0.0000000E+00  0.1142857E+00
    1      -36.574481   1.000000
    2      -35.248510   1.000000
    3      -34.292252   1.000000
    4      -33.406663   1.000000
    5      -20.469514   1.000000
    6      -20.124547   1.000000
    7      -19.669811   1.000000
    8      -19.289048   1.000000
    9      -19.097511   1.000000
   10      -18.694477   1.000000
   11      -18.572582   1.000000
   12      -18.471162   1.000000
   13      -18.369086   1.000000
   14      -18.307319   1.000000
   15      -18.153073   1.000000
   16      -17.767956   1.000000
   17      -17.263490   1.000000
   18      -17.222594   1.000000
   19      -17.110335   1.000000
   20      -17.068874   1.000000
   21      -16.532021   1.000000
   22      -16.305478   1.000000
   23      -16.252140   1.000000
   24      -16.163866   1.000000
   25      -16.034957   1.000000
   26      -15.374454   1.000000
   27      -15.206160   1.000000
   28      -15.135026   1.000000
   29       -6.892155   1.000000
   30       -6.685700   1.000000
   31       -6.631410   1.000000
   32       -6.295554   1.000000
   33       -5.933770   1.000000
   34       -5.748988   1.000000
   35       -5.590258   1.000000
   36       -5.489904   1.000000
   37       -5.318252   1.000000
   38       -5.160279   1.000000
   39       -5.038110   1.000000
   40       -4.955790   1.000000
   41       -4.812661   1.000000
   42       -4.644322   1.000000
   43       -4.564374   1.000000
   44       -4.399770   1.000000
   45       -4.336840   1.000000
   46       -4.037163   1.000000
   47       -3.919838   1.000000
   48       -3.805984   1.000000
   49       -3.678656   1.000000
   50       -3.467623   1.000000
   51       -3.155524   1.000000
   52       -3.077180   1.000000
   53       -3.013609   1.000000
   54       -2.952990   1.000000
   55       -2.836956   1.000000
   56       -2.530442   1.000000
   57       -2.360904   1.000000
   58       -2.177452   1.000000
   59       -1.929584   1.000000
   60       -1.619089   1.000000
   61       -1.303878   1.000000
   62       -1.093351   1.000000
   63       -0.965758   1.000000
   64       -0.930396   1.018040
   65       -0.725161   0.320827
   66       -0.706179  -0.012803
   67       -0.521785   0.000000
   68       -0.410388   0.000000
   69        0.177842   0.000000
   70        0.529422   0.000000
   71        0.564525   0.000000
   72        0.845791   0.000000
   73        1.461661   0.000000
   74        2.758425   0.000000
   75        2.813528   0.000000
   76        4.504294   0.000000
 
  0.4000000E+00  0.1428571E+00  0.0000000E+00  0.1142857E+00
    1      -36.574047   1.000000
    2      -35.248037   1.000000
    3      -34.291787   1.000000
    4      -33.406294   1.000000
    5      -20.554601   1.000000
    6      -20.227495   1.000000
    7      -19.640663   1.000000
    8      -19.274427   1.000000
    9      -19.168692   1.000000
   10      -18.722503   1.000000
   11      -18.561954   1.000000
   12      -18.359119   1.000000
   13      -18.319464   1.000000
   14      -18.296083   1.000000
   15      -18.206413   1.000000
   16      -17.768235   1.000000
   17      -17.244411   1.000000
   18      -17.229454   1.000000
   19      -17.083046   1.000000
   20      -17.031673   1.000000
   21      -16.466958   1.000000
   22      -16.325066   1.000000
   23      -16.246709   1.000000
   24      -16.090049   1.000000
   25      -15.990863   1.000000
   26      -15.356813   1.000000
   27      -15.197241   1.000000
   28      -15.085116   1.000000
   29       -6.822559   1.000000
   30       -6.694615   1.000000
   31       -6.398067   1.000000
   32       -6.275435   1.000000
   33       -6.003631   1.000000
   34       -5.765796   1.000000
   35       -5.581426   1.000000
   36       -5.515416   1.000000
   37       -5.429272   1.000000
   38       -5.262954   1.000000
   39       -5.054246   1.000000
   40       -4.934120   1.000000
   41       -4.808006   1.000000
   42       -4.713005   1.000000
   43       -4.666800   1.000000
   44       -4.513302   1.000000
   45       -4.331287   1.000000
   46       -4.121536   1.000000
   47       -3.952216   1.000000
   48       -3.804143   1.000000
   49       -3.766284   1.000000
   50       -3.538461   1.000000
   51       -3.460591   1.000000
   52       -3.214552   1.000000
   53       -3.098370   1.000000
   54       -2.979426   1.000000
   55       -2.880120   1.000000
   56       -2.808622   1.000000
   57       -2.420534   1.000000
   58       -2.140361   1.000000
   59       -1.857339   1.000000
   60       -1.695343   1.000000
   61       -1.295299   1.000000
   62       -1.242174   1.000000
   63       -1.099680   1.000000
   64       -0.924708   1.000000
   65       -0.868745   1.064533
   66       -0.613154  -0.057877
   67       -0.361916   0.000000
   68       -0.325004   0.000000
   69        0.171238   0.000000
   70        0.537973   0.000000
   71        0.594899   0.000000
   72        1.029796   0.000000
   73        1.450098   0.000000
   74        1.818057   0.000000
   75        2.718063   0.000000
   76        2.801460   0.000000
 
  0.0000000E+00  0.2857143E+00  0.0000000E+00  0.5714286E-01
    1      -36.567033   1.000000
    2      -35.239996   1.000000
    3      -34.283752   1.000000
    4      -33.398237   1.000000
    5      -20.359820   1.000000
    6      -19.850318   1.000000
    7      -19.653742   1.000000
    8      -19.201059   1.000000
    9      -19.074481   1.000000
   10      -18.620700   1.000000
   11      -18.565202   1.000000
   12      -18.503243   1.000000
   13      -18.434732   1.000000
   14      -18.208995   1.000000
   15      -18.106145   1.000000
   16      -17.676064   1.000000
   17      -17.293170   1.000000
   18      -17.207147   1.000000
   19      -17.157396   1.000000
   20      -17.030278   1.000000
   21      -16.626424   1.000000
   22      -16.349364   1.000000
   23      -16.206358   1.000000
   24      -16.128170   1.000000
   25      -16.127874   1.000000
   26      -15.367505   1.000000
   27      -15.342106   1.000000
   28      -15.190811   1.000000
   29       -6.971579   1.000000
   30       -6.914151   1.000000
   31       -6.591186   1.000000
   32       -6.509242   1.000000
   33       -6.352992   1.000000
   34       -6.257555   1.000000
   35       -5.989829   1.000000
   36       -5.781919   1.000000
   37       -5.548865   1.000000
   38       -5.446754   1.000000
   39       -5.288562   1.000000
   40       -5.164356   1.000000
   41       -5.035975   1.000000
   42       -4.975723   1.000000
   43       -4.730124   1.000000
   44       -4.518783   1.000000
   45       -4.510224   1.000000
   46       -4.233217   1.000000
   47       -4.163139   1.000000
   48       -3.978001   1.000000
   49       -3.889798   1.000000
   50       -3.702587   1.000000
   51       -3.397518   1.000000
   52       -3.357356   1.000000
   53       -2.962994   1.000000
   54       -2.803185   1.000000
   55       -2.759330   1.000000
   56       -2.692569   1.000000
   57       -2.259568   1.000000
   58       -2.135350   1.000000
   59       -1.978215   1.000000
   60       -1.496899   1.000000
   61       -1.292506   1.000000
   62       -0.978745   1.000000
   63       -0.806688   1.035646
   64       -0.733285   0.385336
   65       -0.692695   0.000000
   66       -0.531898   0.000000
   67       -0.298415   0.000000
   68        0.169657   0.000000
   69        0.379052   0.000000
   70        0.743531   0.000000
   71        0.989214   0.000000
   72        1.030008   0.000000
   73        1.873749   0.000000
   74        1.886479   0.000000
   75        3.085836   0.000000
   76        3.157149   0.000000
 
  0.2000000E+00  0.2857143E+00  0.0000000E+00  0.1142857E+00
    1      -36.566838   1.000000
    2      -35.239793   1.000000
    3      -34.283553   1.000000
    4      -33.398090   1.000000
    5      -20.339268   1.000000
    6      -20.008962   1.000000
    7      -19.621396   1.000000
    8      -19.215235   1.000000
    9      -19.076013   1.000000
   10      -18.614244   1.000000
   11      -18.571192   1.000000
   12      -18.491938   1.000000
   13      -18.367539   1.000000
   14      -18.223709   1.000000
   15      -18.136529   1.000000
   16      -17.711109   1.000000
   17      -17.251927   1.000000
   18      -17.162224   1.000000
   19      -17.143910   1.000000
   20      -17.073233   1.000000
   21      -16.602421   1.000000
   22      -16.286306   1.000000
   23      -16.224279   1.000000
   24      -16.165639   1.000000
   25      -16.033503   1.000000
   26      -15.369801   1.000000
   27      -15.292039   1.000000
   28      -15.149707   1.000000
   29       -6.956506   1.000000
   30       -6.874955   1.000000
   31       -6.674800   1.000000
   32       -6.532929   1.000000
   33       -6.398826   1.000000
   34       -6.260084   1.000000
   35       -6.001889   1.000000
   36       -5.785660   1.000000
   37       -5.622134   1.000000
   38       -5.397668   1.000000
   39       -5.341624   1.000000
   40       -5.175714   1.000000
   41       -5.032121   1.000000
   42       -4.954710   1.000000
   43       -4.826100   1.000000
   44       -4.686335   1.000000
   45       -4.376017   1.000000
   46       -4.267841   1.000000
   47       -4.131826   1.000000
   48       -4.048432   1.000000
   49       -3.863986   1.000000
   50       -3.755410   1.000000
   51       -3.529629   1.000000
   52       -3.338029   1.000000
   53       -3.147894   1.000000
   54       -2.882793   1.000000
   55       -2.874191   1.000000
   56       -2.544994   1.000000
   57       -2.321988   1.000000
   58       -2.079169   1.000000
   59       -2.026623   1.000000
   60       -1.656710   1.000000
   61       -1.256709   1.000000
   62       -0.959035   1.000000
   63       -0.824327   1.032632
   64       -0.787461   0.880623
   65       -0.709451   0.023574
   66       -0.547992   0.000000
   67       -0.216902   0.000000
   68        0.203106   0.000000
   69        0.422181   0.000000
   70        0.882225   0.000000
   71        1.002481   0.000000
   72        1.026949   0.000000
   73        1.858747   0.000000
   74        1.874506   0.000000
   75        3.124013   0.000000
   76        3.151785   0.000000
 
  0.4000000E+00  0.2857143E+00  0.0000000E+00  0.1142857E+00
    1      -36.566520   1.000000
    2      -35.239462   1.000000
    3      -34.283229   1.000000
    4      -33.397850   1.000000
    5      -20.329702   1.000000
    6      -20.127979   1.000000
    7      -19.675102   1.000000
    8      -19.261270   1.000000
    9      -19.040193   1.000000
   10      -18.711538   1.000000
   11      -18.534118   1.000000
   12      -18.372422   1.000000
   13      -18.329900   1.000000
   14      -18.266979   1.000000
   15      -18.125234   1.000000
   16      -17.796102   1.000000
   17      -17.211781   1.000000
   18      -17.169443   1.000000
   19      -17.096773   1.000000
   20      -17.049531   1.000000
   21      -16.546854   1.000000
   22      -16.303250   1.000000
   23      -16.162645   1.000000
   24      -16.123601   1.000000
   25      -16.000539   1.000000
   26      -15.372923   1.000000
   27      -15.166987   1.000000
   28      -15.110513   1.000000
   29       -7.018901   1.000000
   30       -6.924315   1.000000
   31       -6.674747   1.000000
   32       -6.602248   1.000000
   33       -6.480800   1.000000
   34       -6.050857   1.000000
   35       -6.000117   1.000000
   36       -5.840695   1.000000
   37       -5.718439   1.000000
   38       -5.453581   1.000000
   39       -5.322331   1.000000
   40       -5.205709   1.000000
   41       -5.180220   1.000000
   42       -5.058322   1.000000
   43       -4.894567   1.000000
   44       -4.727572   1.000000
   45       -4.233702   1.000000
   46       -4.220846   1.000000
   47       -4.138812   1.000000
   48       -4.074371   1.000000
   49       -3.932247   1.000000
   50       -3.802160   1.000000
   51       -3.670714   1.000000
   52       -3.471064   1.000000
   53       -3.428646   1.000000
   54       -2.905082   1.000000
   55       -2.872607   1.000000
   56       -2.827572   1.000000
   57       -2.147288   1.000000
   58       -2.041696   1.000000
   59       -1.990926   1.000000
   60       -1.733655   1.000000
   61       -1.240380   1.000000
   62       -1.198883   1.000000
   63       -0.937394   1.005870
   64       -0.794761   0.994047
   65       -0.771913   0.524443
   66       -0.335638   0.000000
   67       -0.166543   0.000000
   68        0.264429   0.000000
   69        0.890337   0.000000
   70        1.033568   0.000000
   71        1.054724   0.000000
   72        1.847427   0.000000
   73        1.880762   0.000000
   74        3.066169   0.000000
   75        3.102801   0.000000
   76        3.157447   0.000000
 
  0.0000000E+00  0.4285714E+00  0.0000000E+00  0.5714286E-01
    1      -36.560827   1.000000
    2      -35.232911   1.000000
    3      -34.276681   1.000000
    4      -33.391274   1.000000
    5      -20.367547   1.000000
    6      -19.700474   1.000000
    7      -19.534526   1.000000
    8      -19.178197   1.000000
    9      -19.053704   1.000000
   10      -18.711780   1.000000
   11      -18.528488   1.000000
   12      -18.390146   1.000000
   13      -18.382184   1.000000
   14      -18.178530   1.000000
   15      -18.051366   1.000000
   16      -17.571618   1.000000
   17      -17.419473   1.000000
   18      -17.188130   1.000000
   19      -17.142937   1.000000
   20      -16.963708   1.000000
   21      -16.629305   1.000000
   22      -16.472671   1.000000
   23      -16.168011   1.000000
   24      -16.100358   1.000000
   25      -15.996644   1.000000
   26      -15.519243   1.000000
   27      -15.449774   1.000000
   28      -15.125057   1.000000
   29       -7.560160   1.000000
   30       -6.957418   1.000000
   31       -6.691523   1.000000
   32       -6.578114   1.000000
   33       -6.571817   1.000000
   34       -6.508333   1.000000
   35       -6.340510   1.000000
   36       -5.958186   1.000000
   37       -5.818724   1.000000
   38       -5.626572   1.000000
   39       -5.554729   1.000000
   40       -5.463212   1.000000
   41       -5.132130   1.000000
   42       -4.961153   1.000000
   43       -4.900816   1.000000
   44       -4.719747   1.000000
   45       -4.602572   1.000000
   46       -4.574427   1.000000
   47       -4.424485   1.000000
   48       -4.149128   1.000000
   49       -4.052469   1.000000
   50       -3.704255   1.000000
   51       -3.535323   1.000000
   52       -3.484227   1.000000
   53       -2.992503   1.000000
   54       -2.851267   1.000000
   55       -2.760752   1.000000
   56       -2.723496   1.000000
   57       -2.298882   1.000000
   58       -2.136620   1.000000
   59       -1.881240   1.000000
   60       -1.431088   1.000000
   61       -1.281004   1.000000
   62       -0.865112   1.000000
   63       -0.731187   0.131513
   64       -0.705211  -0.036141
   65       -0.548671   0.000000
   66       -0.412889   0.000000
   67       -0.177737   0.000000
   68        0.655871   0.000000
   69        0.723414   0.000000
   70        0.779163   0.000000
   71        1.404617   0.000000
   72        1.447800   0.000000
   73        1.817075   0.000000
   74        2.273597   0.000000
   75        2.852602   0.000000
   76        3.505953   0.000000
 
  0.2000000E+00  0.4285714E+00  0.0000000E+00  0.1142857E+00
    1      -36.560689   1.000000
    2      -35.232778   1.000000
    3      -34.276552   1.000000
    4      -33.391191   1.000000
    5      -20.305505   1.000000
    6      -19.841965   1.000000
    7      -19.605478   1.000000
    8      -19.139944   1.000000
    9      -19.087783   1.000000
   10      -18.557133   1.000000
   11      -18.498143   1.000000
   12      -18.482153   1.000000
   13      -18.403797   1.000000
   14      -18.155765   1.000000
   15      -18.119377   1.000000
   16      -17.655780   1.000000
   17      -17.288413   1.000000
   18      -17.204623   1.000000
   19      -17.094896   1.000000
   20      -17.028349   1.000000
   21      -16.612647   1.000000
   22      -16.341217   1.000000
   23      -16.207888   1.000000
   24      -16.092572   1.000000
   25      -16.009470   1.000000
   26      -15.451707   1.000000
   27      -15.386000   1.000000
   28      -15.086085   1.000000
   29       -7.570480   1.000000
   30       -6.926334   1.000000
   31       -6.777352   1.000000
   32       -6.737182   1.000000
   33       -6.609827   1.000000
   34       -6.558958   1.000000
   35       -6.252346   1.000000
   36       -5.971523   1.000000
   37       -5.838382   1.000000
   38       -5.758510   1.000000
   39       -5.523883   1.000000
   40       -5.430846   1.000000
   41       -5.149786   1.000000
   42       -5.099987   1.000000
   43       -4.946293   1.000000
   44       -4.806987   1.000000
   45       -4.647419   1.000000
   46       -4.408125   1.000000
   47       -4.286565   1.000000
   48       -4.173739   1.000000
   49       -4.118116   1.000000
   50       -3.750907   1.000000
   51       -3.656326   1.000000
   52       -3.491022   1.000000
   53       -3.192990   1.000000
   54       -2.864913   1.000000
   55       -2.795841   1.000000
   56       -2.626953   1.000000
   57       -2.300360   1.000000
   58       -2.044798   1.000000
   59       -1.915878   1.000000
   60       -1.625029   1.000000
   61       -1.216032   1.000000
   62       -0.846317   1.000000
   63       -0.750460   0.546584
   64       -0.730256   0.022647
   65       -0.695907  -0.005820
   66       -0.382241   0.000000
   67       -0.029609   0.000000
   68        0.726268   0.000000
   69        0.897004   0.000000
   70        1.395414   0.000000
   71        1.434867   0.000000
   72        1.860325   0.000000
   73        2.264007   0.000000
   74        2.272816   0.000000
   75        3.144557   0.000000
   76        3.496533   0.000000
 
  0.4000000E+00  0.4285714E+00  0.0000000E+00  0.1142857E+00
    1      -36.560468   1.000000
    2      -35.232564   1.000000
    3      -34.276345   1.000000
    4      -33.391059   1.000000
    5      -20.151092   1.000000
    6      -20.014407   1.000000
    7      -19.779888   1.000000
    8      -19.203491   1.000000
    9      -18.954890   1.000000
   10      -18.694073   1.000000
   11      -18.478033   1.000000
   12      -18.399646   1.000000
   13      -18.340193   1.000000
   14      -18.225628   1.000000
   15      -18.054128   1.000000
   16      -17.832291   1.000000
   17      -17.219708   1.000000
   18      -17.170747   1.000000
   19      -17.068643   1.000000
   20      -17.008358   1.000000
   21      -16.571030   1.000000
   22      -16.257877   1.000000
   23      -16.151939   1.000000
   24      -16.146549   1.000000
   25      -15.979419   1.000000
   26      -15.454428   1.000000
   27      -15.190154   1.000000
   28      -15.032734   1.000000
   29       -7.591190   1.000000
   30       -7.092280   1.000000
   31       -6.952264   1.000000
   32       -6.825838   1.000000
   33       -6.645201   1.000000
   34       -6.538658   1.000000
   35       -6.076793   1.000000
   36       -6.000620   1.000000
   37       -5.903561   1.000000
   38       -5.832608   1.000000
   39       -5.586675   1.000000
   40       -5.357605   1.000000
   41       -5.282294   1.000000
   42       -5.270318   1.000000
   43       -5.133244   1.000000
   44       -4.739431   1.000000