Automatically generated mesh
      12
Reciprocal lattice
    0.00000000000000    0.00000000000000    0.00000000000000             1
    0.20000000000000    0.00000000000000    0.00000000000000             2
    0.40000000000000    0.00000000000000    0.00000000000000             2
    0.00000000000000    0.14285714285714    0.00000000000000             2
    0.20000000000000    0.14285714285714    0.00000000000000             4
    0.40000000000000    0.14285714285714    0.00000000000000             4
    0.00000000000000    0.28571428571429    0.00000000000000             2
    0.20000000000000    0.28571428571429    0.00000000000000             4
    0.40000000000000    0.28571428571429    0.00000000000000             4
    0.00000000000000    0.42857142857143    0.00000000000000             2
    0.20000000000000    0.42857142857143    0.00000000000000             4
    0.40000000000000    0.42857142857143    0.00000000000000             4
Tetrahedra
        88    0.00476190476190
         2         1         1         2         5
         2         1         1         4         5
         2         1         4         4         5
         2         1         2         2         5
         2         1         2         5         5
         2         1         4         5         5
         2         2         2         3         6
         2         2         2         5         6
         2         2         5         5         6
         2         2         3         3         6
         2         2         3         6         6
         2         2         5         6         6
         4         3         3         3         6
         4         3         3         6         6
         4         3         6         6         6
         2         2         3         3         5
         2         3         3         5         6
         2         3         5         6         6
         2         2         2         3         5
         2         2         3         5         5
         2         3         5         5         6
         2         1         2         2         4
         2         2         2         4         5
         2         2         4         5         5
         2         1         1         2         4
         2         1         2         4         4
         2         2         4         4         5
         2         4         4         5         8
         2         4         4         7         8
         2         4         7         7         8
         2         4         5         5         8
         2         4         5         8         8
         2         4         7         8         8
         2         5         5         6         9
         2         5         5         8         9
         2         5         8         8         9
         2         5         6         6         9
         2         5         6         9         9
         2         5         8         9         9
         4         6         6         6         9
         4         6         6         9         9
         4         6         9         9         9
         2         5         6         6         8
         2         6         6         8         9
         2         6         8         9         9
         2         5         5         6         8
         2         5         6         8         8
         2         6         8         8         9
         2         4         5         5         7
         2         5         5         7         8
         2         5         7         8         8
         2         4         4         5         7
         2         4         5         7         7
         2         5         7         7         8
         2         7         7         8        11
         2         7         7        10        11
         2         7        10        10        11
         2         7         8         8        11
         2         7         8        11        11
         2         7        10        11        11
         2         8         8         9        12
         2         8         8        11        12
         2         8        11        11        12
         2         8         9         9        12
         2         8         9        12        12
         2         8        11        12        12
         4         9         9         9        12
         4         9         9        12        12
         4         9        12        12        12
         2         8         9         9        11
         2         9         9        11        12
         2         9        11        12        12
         2         8         8         9        11
         2         8         9        11        11
         2         9        11        11        12
         2         7         8         8        10
         2         8         8        10        11
         2         8        10        11        11
         2         7         7         8        10
         2         7         8        10        10
         2         8        10        10        11
         4        10        10        11        11
         4        10        10        10        11
         4        10        11        11        11
         4        11        11        12        12
         4        11        11        11        12
         4        11        12        12        12
         6        12        12        12        12
