 vasp.5.4.4.18Apr17-6-g9f103f2a35 (build Jun 30 2017 11:15:00) complex          
  
 executed on    STALLO_VASP_5.4.4 date 2019.11.06  14:14:11
 running on    4 total cores
 distrk:  each k-point on    4 cores,    1 groups
 distr:  one band on NCORES_PER_BAND=   2 cores,    2 groups


--------------------------------------------------------------------------------------------------------


 INCAR:
 POTCAR:   PAW_PBE O 08Apr2002                    
 POTCAR:   PAW_PBE Sr_sv 07Sep2000                
 POTCAR:   PAW_PBE Ti 08Apr2002                   
 POTCAR:   PAW_PBE O 08Apr2002                    
   VRHFIN =O: s2p4                                                              
   LEXCH  = PE                                                                  
   EATOM  =   432.3788 eV,   31.7789 Ry                                         
                                                                                
   TITEL  = PAW_PBE O 08Apr2002                                                 
   LULTRA =        F    use ultrasoft PP ?                                      
   IUNSCR =        0    unscreen: 0-lin 1-nonlin 2-no                           
   RPACOR =     .000    partial core radius                                     
   POMASS =   16.000; ZVAL   =    6.000    mass and valenz                      
   RCORE  =    1.520    outmost cutoff radius                                   
   RWIGS  =    1.550; RWIGS  =     .820    wigner-seitz radius (au A)           
   ENMAX  =  400.000; ENMIN  =  300.000 eV                                      
   ICORE  =        2    local potential                                         
   LCOR   =        T    correct aug charges                                     
   LPAW   =        T    paw PP                                                  
   EAUG   =  605.392                                                            
   DEXC   =     .000                                                            
   RMAX   =    2.264    core radius for proj-oper                               
   RAUG   =    1.300    factor for augmentation sphere                          
   RDEP   =    1.550    radius for radial grids                                 
   QCUT   =   -5.520; QGAM   =   11.041    optimization parameters              
                                                                                
   Description                                                                  
     l     E      TYP  RCUT    TYP  RCUT                                        
     0   .000     23  1.200                                                     
     0  -.700     23  1.200                                                     
     1   .000     23  1.520                                                     
     1   .600     23  1.520                                                     
     2   .000      7  1.500                                                     
  local pseudopotential read in
  atomic valenz-charges read in
  non local Contribution for L=           0  read in
    real space projection operators read in
  non local Contribution for L=           0  read in
    real space projection operators read in
  non local Contribution for L=           1  read in
    real space projection operators read in
  non local Contribution for L=           1  read in
    real space projection operators read in
    PAW grid and wavefunctions read in
 
   number of l-projection  operators is LMAX  =           4
   number of lm-projection operators is LMMAX =           8
 
 POTCAR:   PAW_PBE Sr_sv 07Sep2000                
   VRHFIN =Sr: 4s4p5s                                                           
   LEXCH  = PE                                                                  
   EATOM  =   842.4562 eV,   61.9188 Ry                                         
                                                                                
   TITEL  = PAW_PBE Sr_sv 07Sep2000                                             
   LULTRA =        F    use ultrasoft PP ?                                      
   IUNSCR =        1    unscreen: 0-lin 1-nonlin 2-no                           
   RPACOR =    2.200    partial core radius                                     
   POMASS =   87.620; ZVAL   =   10.000    mass and valenz                      
   RCORE  =    2.500    outmost cutoff radius                                   
   RWIGS  =    4.040; RWIGS  =    2.138    wigner-seitz radius (au A)           
   ENMAX  =  229.282; ENMIN  =  171.961 eV                                      
   RCLOC  =    2.201    cutoff for local pot                                    
   LCOR   =        T    correct aug charges                                     
   LPAW   =        T    paw PP                                                  
   EAUG   =  366.804                                                            
   DEXC   =     .000                                                            
   RMAX   =    3.045    core radius for proj-oper                               
   RAUG   =    1.300    factor for augmentation sphere                          
   RDEP   =    2.562    radius for radial grids                                 
   QCUT   =   -4.105; QGAM   =    8.210    optimization parameters              
                                                                                
   Description                                                                  
     l     E      TYP  RCUT    TYP  RCUT                                        
     0   .000     23  2.480                                                     
     0   .000     23  2.480                                                     
     1   .000     23  2.500                                                     
     1   .000     23  2.500                                                     
     2   .000     23  2.500                                                     
     2   .000     23  2.500                                                     
  local pseudopotential read in
  partial core-charges read in
  atomic valenz-charges read in
  non local Contribution for L=           0  read in
    real space projection operators read in
  non local Contribution for L=           0  read in
    real space projection operators read in
  non local Contribution for L=           1  read in
    real space projection operators read in
  non local Contribution for L=           1  read in
    real space projection operators read in
  non local Contribution for L=           2  read in
    real space projection operators read in
  non local Contribution for L=           2  read in
    real space projection operators read in
    PAW grid and wavefunctions read in
 
   number of l-projection  operators is LMAX  =           6
   number of lm-projection operators is LMMAX =          18
 
 POTCAR:   PAW_PBE Ti 08Apr2002                   
   VRHFIN =Ti: d3 s1                                                            
   LEXCH  = PE                                                                  
   EATOM  =    94.7929 eV,    6.9671 Ry                                         
                                                                                
   TITEL  = PAW_PBE Ti 08Apr2002                                                
   LULTRA =        F    use ultrasoft PP ?                                      
   IUNSCR =        1    unscreen: 0-lin 1-nonlin 2-no                           
   RPACOR =    2.200    partial core radius                                     
   POMASS =   47.880; ZVAL   =    4.000    mass and valenz                      
   RCORE  =    2.800    outmost cutoff radius                                   
   RWIGS  =    2.500; RWIGS  =    1.323    wigner-seitz radius (au A)           
   ENMAX  =  178.330; ENMIN  =  133.747 eV                                      
   RCLOC  =    2.215    cutoff for local pot                                    
   LCOR   =        T    correct aug charges                                     
   LPAW   =        T    paw PP                                                  
   EAUG   =  328.883                                                            
   DEXC   =    -.043                                                            
   RMAX   =    3.453    core radius for proj-oper                               
   RAUG   =    1.300    factor for augmentation sphere                          
   RDEP   =    2.885    radius for radial grids                                 
   QCUT   =   -3.620; QGAM   =    7.241    optimization parameters              
                                                                                
   Description                                                                  
     l     E      TYP  RCUT    TYP  RCUT                                        
     2   .000     23  2.800                                                     
     2   .000     23  2.800                                                     
     0   .000     23  2.800                                                     
     0  1.500     23  2.800                                                     
     1  -.400     23  2.800                                                     
     3   .000      7   .000                                                     
  local pseudopotential read in
  partial core-charges read in
  atomic valenz-charges read in
  non local Contribution for L=           2  read in
    real space projection operators read in
  non local Contribution for L=           2  read in
    real space projection operators read in
  non local Contribution for L=           0  read in
    real space projection operators read in
  non local Contribution for L=           0  read in
    real space projection operators read in
  non local Contribution for L=           1  read in
    real space projection operators read in
    PAW grid and wavefunctions read in
 
   number of l-projection  operators is LMAX  =           5
   number of lm-projection operators is LMMAX =          15
 

 ----------------------------------------------------------------------------- 
|                                                                             |
|  ADVICE TO THIS USER RUNNING 'VASP/VAMP'   (HEAR YOUR MASTER'S VOICE ...):  |
|                                                                             |
|      You have a (more or less) 'large supercell' and for larger cells       |
|      it might be more efficient to use real space projection operators      |
|      So try LREAL= Auto  in the INCAR   file.                               |
|      Mind: If you want to do a very accurate calculations keep the          |
|      reciprocal projection scheme          (i.e. LREAL=.FALSE.)             |
|                                                                             |
 ----------------------------------------------------------------------------- 

 WARNING: PSMAXN for non-local potential too small
          PSMAXN should be >   14.4904333269122       NTYP=           3
 PAW_PBE O 08Apr2002                    :
 energy of atom  1       EATOM= -432.3788
 kinetic energy error for atom=    0.0041 (will be added to EATOM!!)
 PAW_PBE Sr_sv 07Sep2000                :
 energy of atom  2       EATOM= -842.4562
 kinetic energy error for atom=    0.0002 (will be added to EATOM!!)
 PAW_PBE Ti 08Apr2002                   :
 energy of atom  3       EATOM=  -94.7929
 kinetic energy error for atom=    0.0000 (will be added to EATOM!!)
 
 
 POSCAR:  O Sr Ti                                
  positions in direct lattice
  No initial velocities read in
 exchange correlation table for  LEXCH =        8
   RHO(1)=    0.500       N(1)  =     2000
   RHO(2)=  100.500       N(2)  =     4000
 


--------------------------------------------------------------------------------------------------------


 ion  position               nearest neighbor table
   1  0.500  0.000  0.277-  17 1.95  17 1.95  14 2.76  13 2.76  13 2.76
   2  0.250  0.500  0.341-  17 1.95  18 1.95  13 2.76  14 2.76  13 2.76  14 2.76
   3  0.750  0.500  0.341-  17 1.95  18 1.95  13 2.76  14 2.76  13 2.76  14 2.76
   4  0.000  0.000  0.404-  18 1.95  18 1.95  13 2.76  14 2.76  14 2.76  15 2.76
   5  0.750  0.500  0.468-  18 1.95  19 1.95  14 2.76  14 2.76  15 2.76  15 2.76
   6  0.250  0.500  0.468-  18 1.95  19 1.95  14 2.76  14 2.76  15 2.76  15 2.76
   7  0.500  0.000  0.532-  19 1.95  19 1.95  16 2.76  15 2.76  15 2.76  14 2.76
   8  0.250  0.500  0.596-  19 1.95  20 1.95  15 2.76  16 2.76  15 2.76  16 2.76
   9  0.750  0.500  0.596-  19 1.95  20 1.95  15 2.76  16 2.76  15 2.76  16 2.76
  10  0.000  0.000  0.659-  20 1.95  20 1.95  15 2.76  16 2.76  16 2.76
  11  0.750  0.500  0.723-  20 1.95  16 2.76  16 2.76
  12  0.250  0.500  0.723-  20 1.95  16 2.76  16 2.76
  13  0.000  0.000  0.277-   4 2.76   3 2.76   2 2.76   2 2.76   3 2.76   1 2.76   1 2.76  18 3.38
                            18 3.38  17 3.38  17 3.38  17 3.38  17 3.38  14 3.91  14 3.91
  14  0.500  0.000  0.404-   1 2.76   2 2.76   3 2.76   5 2.76   6 2.76   2 2.76   3 2.76   5 2.76
                             6 2.76   4 2.76   4 2.76   7 2.76  17 3.38  17 3.38  18 3.38  18 3.38
  15  0.000  0.000  0.532-  10 2.76   9 2.76   8 2.76   8 2.76   9 2.76   7 2.76   7 2.76   6 2.76
                             5 2.76   6 2.76   5 2.76   4 2.76  20 3.38  20 3.38  19 3.38  19 3.38
  16  0.500  0.000  0.659-   7 2.76   8 2.76   9 2.76  11 2.76  12 2.76   8 2.76   9 2.76  11 2.76
                            12 2.76  10 2.76  10 2.76  19 3.38  19 3.38  20 3.38  20 3.38  20 3.38
  17  0.500  0.500  0.277-   2 1.95   3 1.95   1 1.95   1 1.95  14 3.38  14 3.38  13 3.38  13 3.38
                            13 3.38  13 3.38
  18  0.000  0.500  0.404-   2 1.95   3 1.95   5 1.95   6 1.95   4 1.95   4 1.95  13 3.38  13 3.38
                            14 3.38  14 3.38  14 3.38  14 3.38  15 3.38  15 3.38
  19  0.500  0.500  0.532-   8 1.95   9 1.95   7 1.95   7 1.95   5 1.95   6 1.95  16 3.38  16 3.38
                            15 3.38  15 3.38  15 3.38  15 3.38  14 3.38  14 3.38
  20  0.000  0.500  0.659-   8 1.95   9 1.95  11 1.95  12 1.95  10 1.95  10 1.95  15 3.38  15 3.38
                            16 3.38  16 3.38  16 3.38  16 3.38
 
  LATTYP: Found a simple orthorhombic cell.
 ALAT       =     3.9052680000
 B/A-ratio  =     1.4142135624
 C/A-ratio  =     5.5476462046
  
  Lattice vectors:
  
 A1 = (   0.0000000000,  -3.9052680000,   0.0000000000)
 A2 = (  -5.5228829703,   0.0000000000,   0.0000000000)
 A3 = (   0.0000000000,   0.0000000000, -21.6650451980)


Analysis of symmetry for initial positions (statically):
=====================================================================
 Subroutine PRICEL returns:
 Original cell was already a primitive cell.
 

 Routine SETGRP: Setting up the symmetry group for a 
 simple orthorhombic supercell.


 Subroutine GETGRP returns: Found  4 space group operations
 (whereof  4 operations were pure point group operations)
 out of a pool of  8 trial point group operations.


The static configuration has the point symmetry C_2v.


Analysis of symmetry for dynamics (positions and initial velocities):
=====================================================================
 Subroutine PRICEL returns:
 Original cell was already a primitive cell.
 

 Routine SETGRP: Setting up the symmetry group for a 
 simple orthorhombic supercell.


 Subroutine GETGRP returns: Found  4 space group operations
 (whereof  4 operations were pure point group operations)
 out of a pool of  8 trial point group operations.


The dynamic configuration has the point symmetry C_2v.


 Subroutine INISYM returns: Found  4 space group operations
 (whereof  4 operations are pure point group operations),
 and found     1 'primitive' translations

 
 
 KPOINTS: k-density: 4.0                          

Automatic generation of k-mesh.
Space group operators:
 irot       det(A)        alpha          n_x          n_y          n_z        tau_x        tau_y        tau_z
    1     1.000000     0.000000     1.000000     0.000000     0.000000     0.000000     0.000000     0.000000
    2     1.000000   179.999999     0.000000     0.000000     1.000000     0.000000     0.000000     0.000000
    3    -1.000000   180.000000     1.000000     0.000000     0.000000     0.000000     0.000000     0.000000
    4    -1.000000   180.000000     0.000000     1.000000     0.000000     0.000000     0.000000     0.000000
 
 Subroutine IBZKPT returns following result:
 ===========================================
 
 Found     12 irreducible k-points:
 
 Following reciprocal coordinates:
            Coordinates               Weight
  0.000000  0.000000  0.000000      1.000000
  0.200000  0.000000  0.000000      2.000000
  0.400000  0.000000  0.000000      2.000000
  0.000000  0.142857  0.000000      2.000000
  0.200000  0.142857  0.000000      4.000000
  0.400000  0.142857  0.000000      4.000000
  0.000000  0.285714  0.000000      2.000000
  0.200000  0.285714  0.000000      4.000000
  0.400000  0.285714  0.000000      4.000000
  0.000000  0.428571  0.000000      2.000000
  0.200000  0.428571  0.000000      4.000000
  0.400000  0.428571  0.000000      4.000000
 
 Following cartesian coordinates:
            Coordinates               Weight
  0.000000  0.000000  0.000000      1.000000
  0.036213  0.000000  0.000000      2.000000
  0.072426  0.000000  0.000000      2.000000
  0.000000  0.036581  0.000000      2.000000
  0.036213  0.036581  0.000000      4.000000
  0.072426  0.036581  0.000000      4.000000
  0.000000  0.073161  0.000000      2.000000
  0.036213  0.073161  0.000000      4.000000
  0.072426  0.073161  0.000000      4.000000
  0.000000  0.109742  0.000000      2.000000
  0.036213  0.109742  0.000000      4.000000
  0.072426  0.109742  0.000000      4.000000
 
 TETIRR: Found     88 inequivalent tetrahedra from      210


--------------------------------------------------------------------------------------------------------




 Dimension of arrays:
   k-points           NKPTS =     12   k-points in BZ     NKDIM =     12   number of bands    NBANDS=     76
   number of dos      NEDOS =    301   number of ions     NIONS =     20
   non local maximal  LDIM  =      6   non local SUM 2l+1 LMDIM =     18
   total plane-waves  NPLWV = 168000
   max r-space proj   IRMAX =      1   max aug-charges    IRDMAX=  25027
   dimension x,y,z NGX =    40 NGY =   28 NGZ =  150
   dimension x,y,z NGXF=    80 NGYF=   56 NGZF=  300
   support grid    NGXF=    80 NGYF=   56 NGZF=  300
   ions per type =              12   4   4
   NGX,Y,Z   is equivalent  to a cutoff of  12.04, 11.92, 11.51 a.u.
   NGXF,Y,Z  is equivalent  to a cutoff of  24.08, 23.84, 23.02 a.u.

 SYSTEM =  unknown system                          
 POSCAR =   O Sr Ti                                

 Startparameter for this run:
   NWRITE =      2    write-flag & timer
   PREC   = normal    normal or accurate (medium, high low for compatibility)
   ISTART =      0    job   : 0-new  1-cont  2-samecut
   ICHARG =      2    charge: 1-file 2-atom 10-const
   ISPIN  =      1    spin polarized calculation?
   LNONCOLLINEAR =      F non collinear calculations
   LSORBIT =      F    spin-orbit coupling
   INIWAV =      1    electr: 0-lowe 1-rand  2-diag
   LASPH  =      F    aspherical Exc in radial PAW
   METAGGA=      F    non-selfconsistent MetaGGA calc.

 Electronic Relaxation 1
   ENCUT  =  800.0 eV  58.80 Ry    7.67 a.u.  12.74  9.01 49.96*2*pi/ulx,y,z
   ENINI  =  800.0     initial cutoff
   ENAUG  =  605.4 eV  augmentation charge cutoff
   NELM   =     60;   NELMIN=  4; NELMDL= -5     # of ELM steps 
   EDIFF  = 0.1E-04   stopping-criterion for ELM
   LREAL  =      F    real-space projection
   NLSPLINE    = F    spline interpolate recip. space projectors
   LCOMPAT=      F    compatible to vasp.4.4
   GGA_COMPAT  = T    GGA compatible to vasp.4.4-vasp.4.6
   LMAXPAW     = -100 max onsite density
   LMAXMIX     =    2 max onsite mixed and CHGCAR
   VOSKOWN=      0    Vosko Wilk Nusair interpolation
   ROPT   =    0.00000   0.00000   0.00000
 Ionic relaxation
   EDIFFG = 0.1E-03   stopping-criterion for IOM
   NSW    =      0    number of steps for IOM
   NBLOCK =      1;   KBLOCK =      1    inner block; outer block 
   IBRION =     -1    ionic relax: 0-MD 1-quasi-New 2-CG
   NFREE  =      0    steps in history (QN), initial steepest desc. (CG)
   ISIF   =      2    stress and relaxation
   IWAVPR =     10    prediction:  0-non 1-charg 2-wave 3-comb
   ISYM   =      2    0-nonsym 1-usesym 2-fastsym
   LCORR  =      T    Harris-Foulkes like correction to forces

   POTIM  = 0.5000    time-step for ionic-motion
   TEIN   =    0.0    initial temperature
   TEBEG  =    0.0;   TEEND  =   0.0 temperature during run
   SMASS  =  -3.00    Nose mass-parameter (am)
   estimated Nose-frequenzy (Omega)   =  0.10E-29 period in steps =****** mass=  -0.697E-27a.u.
   SCALEE = 1.0000    scale energy and forces
   NPACO  =    256;   APACO  = 16.0  distance and # of slots for P.C.
   PSTRESS=    0.0 pullay stress

  Mass of Ions in am
   POMASS =  16.00 87.62 47.88
  Ionic Valenz
   ZVAL   =   6.00 10.00  4.00
  Atomic Wigner-Seitz radii
   RWIGS  =  -1.00 -1.00 -1.00
  virtual crystal weights 
   VCA    =   1.00  1.00  1.00
   NELECT =     128.0000    total number of electrons
   NUPDOWN=      -1.0000    fix difference up-down

 DOS related values:
   EMIN   =  10.00;   EMAX   =-10.00  energy-range for DOS
   EFERMI =   0.00
   ISMEAR =    -5;   SIGMA  =   0.20  broadening in eV -4-tet -1-fermi 0-gaus

 Electronic relaxation 2 (details)
   IALGO  =     68    algorithm
   LDIAG  =      T    sub-space diagonalisation (order eigenvalues)
   LSUBROT=      F    optimize rotation matrix (better conditioning)
   TURBO    =      0    0=normal 1=particle mesh
   IRESTART =      0    0=no restart 2=restart with 2 vectors
   NREBOOT  =      0    no. of reboots
   NMIN     =      0    reboot dimension
   EREF     =   0.00    reference energy to select bands
   IMIX   =      4    mixing-type and parameters
     AMIX     =   0.40;   BMIX     =  1.00
     AMIX_MAG =   1.60;   BMIX_MAG =  1.00
     AMIN     =   0.10
     WC   =   100.;   INIMIX=   1;  MIXPRE=   1;  MAXMIX= -45

 Intra band minimization:
   WEIMIN = 0.0000     energy-eigenvalue tresh-hold
   EBREAK =  0.33E-07  absolut break condition
   DEPER  =   0.30     relativ break condition  

   TIME   =   0.40     timestep for ELM

  volume/ion in A,a.u.               =      23.36       157.67
  Fermi-wavevector in a.u.,A,eV,Ry     =   1.063211  2.009177 15.380261  1.130417
  Thomas-Fermi vector in A             =   2.198688
 
 Write flags
   LWAVE        =      F    write WAVECAR
   LDOWNSAMPLE  =      F    k-point downsampling of WAVECAR
   LCHARG       =      T    write CHGCAR
   LVTOT        =      F    write LOCPOT, total local potential
   LVHAR        =      F    write LOCPOT, Hartree potential only
   LELF         =      F    write electronic localiz. function (ELF)
   LORBIT       =      0    0 simple, 1 ext, 2 COOP (PROOUT), +10 PAW based schemes


 Dipole corrections
   LMONO  =      F    monopole corrections only (constant potential shift)
   LDIPOL =      F    correct potential (dipole corrections)
   IDIPOL =      0    1-x, 2-y, 3-z, 4-all directions 
   EPSILON=  1.0000000 bulk dielectric constant

 Exchange correlation treatment:
   GGA     =    --    GGA type
   LEXCH   =     8    internal setting for exchange type
   VOSKOWN=      0    Vosko Wilk Nusair interpolation
   LHFCALC =     F    Hartree Fock is set to
   LHFONE  =     F    Hartree Fock one center treatment
   AEXX    =    0.0000 exact exchange contribution

 Linear response parameters
   LEPSILON=     F    determine dielectric tensor
   LRPA    =     F    only Hartree local field effects (RPA)
   LNABLA  =     F    use nabla operator in PAW spheres
   LVEL    =     F    velocity operator in full k-point grid
   LINTERFAST=   F  fast interpolation
   KINTER  =     0    interpolate to denser k-point grid
   CSHIFT  =0.1000    complex shift for real part using Kramers Kronig
   OMEGAMAX=  -1.0    maximum frequency
   DEG_THRESHOLD= 0.2000000E-02 threshold for treating states as degnerate
   RTIME   =   -0.100 relaxation time in fs
  (WPLASMAI=    0.000 imaginary part of plasma frequency in eV, 0.658/RTIME)
   DFIELD  = 0.0000000 0.0000000 0.0000000 field for delta impulse in time
 
 Orbital magnetization related:
   ORBITALMAG=     F  switch on orbital magnetization
   LCHIMAG   =     F  perturbation theory with respect to B field
   DQ        =  0.001000  dq finite difference perturbation B field
   LLRAUG    =     F  two centre corrections for induced B field



--------------------------------------------------------------------------------------------------------


 Static calculation
 charge density and potential will be updated during run
 non-spin polarized calculation
 RMM-DIIS sequential band-by-band and
  variant of blocked Davidson during initial phase
 perform sub-space diagonalisation
    before iterative eigenvector-optimisation
 modified Broyden-mixing scheme, WC =      100.0
 initial mixing is a Kerker type mixing with AMIX =  0.4000 and BMIX =      1.0000
 Hartree-type preconditioning will be used
 using additional bands           12
 reciprocal scheme for non local part
 use partial core corrections
 calculate Harris-corrections to forces 
   (improved forces if not selfconsistent)
 use gradient corrections 
 use of overlap-Matrix (Vanderbilt PP)
 Fermi weights with tetrahedron method with Bloechl corrections


--------------------------------------------------------------------------------------------------------


  energy-cutoff  :      800.00
  volume of cell :      467.28
      direct lattice vectors                 reciprocal lattice vectors
     5.522882970  0.000000000  0.000000000     0.181064854  0.000000000  0.000000000
     0.000000000  3.905268000  0.000000000     0.000000000  0.256064373  0.000000000
     0.000000000  0.000000000 21.665045198     0.000000000  0.000000000  0.046157300

  length of vectors
     5.522882970  3.905268000 21.665045198     0.181064854  0.256064373  0.046157300


 
 k-points in units of 2pi/SCALE and weight: k-density: 4.0                          
   0.00000000  0.00000000  0.00000000       0.029
   0.03621297  0.00000000  0.00000000       0.057
   0.07242594  0.00000000  0.00000000       0.057
   0.00000000  0.03658062  0.00000000       0.057
   0.03621297  0.03658062  0.00000000       0.114
   0.07242594  0.03658062  0.00000000       0.114
   0.00000000  0.07316125  0.00000000       0.057
   0.03621297  0.07316125  0.00000000       0.114
   0.07242594  0.07316125  0.00000000       0.114
   0.00000000  0.10974187  0.00000000       0.057
   0.03621297  0.10974187  0.00000000       0.114
   0.07242594  0.10974187  0.00000000       0.114
 
 k-points in reciprocal lattice and weights: k-density: 4.0                          
   0.00000000  0.00000000  0.00000000       0.029
   0.20000000  0.00000000  0.00000000       0.057
   0.40000000  0.00000000  0.00000000       0.057
   0.00000000  0.14285714  0.00000000       0.057
   0.20000000  0.14285714  0.00000000       0.114
   0.40000000  0.14285714  0.00000000       0.114
   0.00000000  0.28571429  0.00000000       0.057
   0.20000000  0.28571429  0.00000000       0.114
   0.40000000  0.28571429  0.00000000       0.114
   0.00000000  0.42857143  0.00000000       0.057
   0.20000000  0.42857143  0.00000000       0.114
   0.40000000  0.42857143  0.00000000       0.114
 
 position of ions in fractional coordinates (direct lattice) 
   0.50000000  0.00000000  0.27694380
   0.25000000  0.50000000  0.34067414
   0.75000000  0.50000000  0.34067414
   0.00000000  0.00000000  0.40440449
   0.75000000  0.50000000  0.46813483
   0.25000000  0.50000000  0.46813483
   0.50000000  0.00000000  0.53186517
   0.25000000  0.50000000  0.59559551
   0.75000000  0.50000000  0.59559551
   0.00000000  0.00000000  0.65932586
   0.75000000  0.50000000  0.72305620
   0.25000000  0.50000000  0.72305620
   0.00000000  0.00000000  0.27694380
   0.50000000  0.00000000  0.40440449
   0.00000000  0.00000000  0.53186517
   0.50000000  0.00000000  0.65932586
   0.50000000  0.50000000  0.27694380
   0.00000000  0.50000000  0.40440449
   0.50000000  0.50000000  0.53186517
   0.00000000  0.50000000  0.65932586
 
 position of ions in cartesian coordinates  (Angst):
   2.76144149  0.00000000  6.00000000
   1.38072074  1.95263400  7.38072074
   4.14216223  1.95263400  7.38072074
   0.00000000  0.00000000  8.76144149
   4.14216223  1.95263400 10.14216223
   1.38072074  1.95263400 10.14216223
   2.76144149  0.00000000 11.52288297
   1.38072074  1.95263400 12.90360371
   4.14216223  1.95263400 12.90360371
   0.00000000  0.00000000 14.28432446
   4.14216223  1.95263400 15.66504520
   1.38072074  1.95263400 15.66504520
   0.00000000  0.00000000  6.00000000
   2.76144149  0.00000000  8.76144149
   0.00000000  0.00000000 11.52288297
   2.76144149  0.00000000 14.28432446
   2.76144149  1.95263400  6.00000000
   0.00000000  1.95263400  8.76144149
   2.76144149  1.95263400 11.52288297
   0.00000000  1.95263400 14.28432446
 


--------------------------------------------------------------------------------------------------------


 k-point  1 :   0.0000 0.0000 0.0000  plane waves:   23917
 k-point  2 :   0.2000 0.0000 0.0000  plane waves:   23961
 k-point  3 :   0.4000 0.0000 0.0000  plane waves:   23922
 k-point  4 :   0.0000 0.1429 0.0000  plane waves:   24030
 k-point  5 :   0.2000 0.1429 0.0000  plane waves:   24016
 k-point  6 :   0.4000 0.1429 0.0000  plane waves:   23960
 k-point  7 :   0.0000 0.2857 0.0000  plane waves:   24012
 k-point  8 :   0.2000 0.2857 0.0000  plane waves:   24024
 k-point  9 :   0.4000 0.2857 0.0000  plane waves:   24028
 k-point 10 :   0.0000 0.4286 0.0000  plane waves:   23998
 k-point 11 :   0.2000 0.4286 0.0000  plane waves:   24023
 k-point 12 :   0.4000 0.4286 0.0000  plane waves:   24063

 maximum and minimum number of plane-waves per node :     12049    11926

 maximum number of plane-waves:     24063
 maximum index in each direction: 
   IXMAX=   12   IYMAX=    9   IZMAX=   49
   IXMIN=  -13   IYMIN=   -9   IZMIN=  -49


 parallel 3D FFT for wavefunctions:
    minimum data exchange during FFTs selected (reduces bandwidth)
 parallel 3D FFT for charge:
    minimum data exchange during FFTs selected (reduces bandwidth)


 total amount of memory used by VASP MPI-rank0   224128. kBytes
=======================================================================

   base      :      30000. kBytes
   nonl-proj :      66323. kBytes
   fftplans  :      13922. kBytes
   grid      :      24980. kBytes
   one-center:        155. kBytes
   wavefun   :      88748. kBytes
 
     INWAV:  cpu time    0.0000: real time    0.0000
 Broyden mixing: mesh for mixing (old mesh)
   NGX = 25   NGY = 19   NGZ = 99
  (NGX  = 80   NGY  = 56   NGZ  =300)
  gives a total of  47025 points

 initial charge density was supplied:
 charge density of overlapping atoms calculated
 number of electron     128.0000000 magnetization 
 keeping initial charge density in first step


--------------------------------------------------------------------------------------------------------


 Maximum index for augmentation-charges         6073 (set IRDMAX)


--------------------------------------------------------------------------------------------------------


 First call to EWALD:  gamma=   0.228
 Maximum number of real-space cells 4x 5x 1
 Maximum number of reciprocal cells 2x 2x 7

    FEWALD:  cpu time    0.0010: real time    0.0018


--------------------------------------- Iteration      1(   1)  ---------------------------------------


    POTLOK:  cpu time    0.2280: real time    0.2485
    SETDIJ:  cpu time    0.0170: real time    0.0165
     EDDAV:  cpu time   13.8689: real time   13.8725
 BZINTS: Fermi energy: 15.768756;128.000000 electrons
         Band energy: 331.284953;  BLOECHL correction: -0.151542
       DOS:  cpu time    0.0100: real time    0.0094
    --------------------------------------------
      LOOP:  cpu time   14.1239: real time   14.1470

 eigenvalue-minimisations  :  1824
 total energy-change (2. order) : 0.1931939E+04  (-0.6932357E+04)
 number of electron     128.0000000 magnetization 
 augmentation part      128.0000000 magnetization 

 Free energy of the ion-electron system (eV)
  ---------------------------------------------------
  alpha Z        PSCENC =       378.09908315
  Ewald energy   TEWEN  =     22731.27163923
  -Hartree energ DENC   =    -30966.93774878
  -exchange      EXHF   =         0.00000000
  -V(xc)+E(xc)   XCENC  =       325.41602223
  PAW double counting   =      5334.45189010    -5139.13784255
  entropy T*S    EENTRO =         0.00000000
  eigenvalues    EBANDS =       331.28495342
  atomic energy  EATOM  =      8937.49142856
  Solvation  Ediel_sol  =         0.00000000
  ---------------------------------------------------
  free energy    TOTEN  =      1931.93942536 eV

  energy without entropy =     1931.93942536  energy(sigma->0) =     1931.93942536


--------------------------------------------------------------------------------------------------------




--------------------------------------- Iteration      1(   2)  ---------------------------------------


     EDDAV:  cpu time   15.8676: real time   15.8718
 BZINTS: Fermi energy:  4.183428;128.000000 electrons
         Band energy:***********;  BLOECHL correction: -0.039781
       DOS:  cpu time    0.0090: real time    0.0092
    --------------------------------------------
      LOOP:  cpu time   15.8766: real time   15.8809

 eigenvalue-minimisations  :  2168
 total energy-change (2. order) :-0.1644157E+04  (-0.1571666E+04)
 number of electron     128.0000000 magnetization 
 augmentation part      128.0000000 magnetization 

 Free energy of the ion-electron system (eV)
  ---------------------------------------------------
  alpha Z        PSCENC =       378.09908315
  Ewald energy   TEWEN  =     22731.27163923
  -Hartree energ DENC   =    -30966.93774878
  -exchange      EXHF   =         0.00000000
  -V(xc)+E(xc)   XCENC  =       325.41602223
  PAW double counting   =      5334.45189010    -5139.13784255
  entropy T*S    EENTRO =         0.00000000
  eigenvalues    EBANDS =     -1312.87244755
  atomic energy  EATOM  =      8937.49142856
  Solvation  Ediel_sol  =         0.00000000
  ---------------------------------------------------
  free energy    TOTEN  =       287.78202439 eV

  energy without entropy =      287.78202439  energy(sigma->0) =      287.78202439


--------------------------------------------------------------------------------------------------------




--------------------------------------- Iteration      1(   3)  ---------------------------------------


     EDDAV:  cpu time   17.4304: real time   17.4299
 BZINTS: Fermi energy: -2.325044;128.000000 electrons
         Band energy:***********;  BLOECHL correction:  0.000000
       DOS:  cpu time    0.0020: real time    0.0020
    --------------------------------------------
      LOOP:  cpu time   17.4324: real time   17.4320

 eigenvalue-minimisations  :  2444
 total energy-change (2. order) :-0.4442158E+03  (-0.4318496E+03)
 number of electron     128.0000000 magnetization 
 augmentation part      128.0000000 magnetization 

 Free energy of the ion-electron system (eV)
  ---------------------------------------------------
  alpha Z        PSCENC =       378.09908315
  Ewald energy   TEWEN  =     22731.27163923
  -Hartree energ DENC   =    -30966.93774878
  -exchange      EXHF   =         0.00000000
  -V(xc)+E(xc)   XCENC  =       325.41602223
  PAW double counting   =      5334.45189010    -5139.13784255
  entropy T*S    EENTRO =         0.00000000
  eigenvalues    EBANDS =     -1757.08824521
  atomic energy  EATOM  =      8937.49142856
  Solvation  Ediel_sol  =         0.00000000
  ---------------------------------------------------
  free energy    TOTEN  =      -156.43377327 eV

  energy without entropy =     -156.43377327  energy(sigma->0) =     -156.43377327


--------------------------------------------------------------------------------------------------------




--------------------------------------- Iteration      1(   4)  ---------------------------------------


     EDDAV:  cpu time   17.5633: real time   17.5652
 BZINTS: Fermi energy: -4.364608;128.000000 electrons
         Band energy:***********;  BLOECHL correction:  0.000000
       DOS:  cpu time    0.0020: real time    0.0018
    --------------------------------------------
      LOOP:  cpu time   17.5653: real time   17.5671

 eigenvalue-minimisations  :  2464
 total energy-change (2. order) :-0.4067598E+02  (-0.4052962E+02)
 number of electron     128.0000000 magnetization 
 augmentation part      128.0000000 magnetization 

 Free energy of the ion-electron system (eV)
  ---------------------------------------------------
  alpha Z        PSCENC =       378.09908315
  Ewald energy   TEWEN  =     22731.27163923
  -Hartree energ DENC   =    -30966.93774878
  -exchange      EXHF   =         0.00000000
  -V(xc)+E(xc)   XCENC  =       325.41602223
  PAW double counting   =      5334.45189010    -5139.13784255
  entropy T*S    EENTRO =         0.00000000
  eigenvalues    EBANDS =     -1797.76422817
  atomic energy  EATOM  =      8937.49142856
  Solvation  Ediel_sol  =         0.00000000
  ---------------------------------------------------
  free energy    TOTEN  =      -197.10975623 eV

  energy without entropy =     -197.10975623  energy(sigma->0) =     -197.10975623


--------------------------------------------------------------------------------------------------------




--------------------------------------- Iteration      1(   5)  ---------------------------------------


     EDDAV:  cpu time   19.9420: real time   19.9463
 BZINTS: Fermi energy: -4.430185;128.000000 electrons
         Band energy:***********;  BLOECHL correction:  0.000000
       DOS:  cpu time    0.0020: real time    0.0017
    CHARGE:  cpu time    0.5009: real time    0.5017
    MIXING:  cpu time    0.0070: real time    0.0060
    --------------------------------------------
      LOOP:  cpu time   20.4519: real time   20.4557

 eigenvalue-minimisations  :  2880
 total energy-change (2. order) :-0.1651077E+01  (-0.1650107E+01)
 number of electron     128.0000059 magnetization 
 augmentation part       13.8779947 magnetization 

 Broyden mixing:
  rms(total) = 0.37592E+01    rms(broyden)= 0.37591E+01
  rms(prec ) = 0.42679E+01
  weight for this iteration     100.00

 Free energy of the ion-electron system (eV)
  ---------------------------------------------------
  alpha Z        PSCENC =       378.09908315
  Ewald energy   TEWEN  =     22731.27163923
  -Hartree energ DENC   =    -30966.93774878
  -exchange      EXHF   =         0.00000000
  -V(xc)+E(xc)   XCENC  =       325.41602223
  PAW double counting   =      5334.45189010    -5139.13784255
  entropy T*S    EENTRO =         0.00000000
  eigenvalues    EBANDS =     -1799.41530550
  atomic energy  EATOM  =      8937.49142856
  Solvation  Ediel_sol  =         0.00000000
  ---------------------------------------------------
  free energy    TOTEN  =      -198.76083356 eV

  energy without entropy =     -198.76083356  energy(sigma->0) =     -198.76083356


--------------------------------------------------------------------------------------------------------




--------------------------------------- Iteration      1(   6)  ---------------------------------------


    POTLOK:  cpu time    0.2240: real time    0.2262
    SETDIJ:  cpu time    0.0150: real time    0.0152
    EDDIAG:  cpu time    1.5148: real time    1.5156
  RMM-DIIS:  cpu time   13.2370: real time   13.2334
    ORTHCH:  cpu time    0.3070: real time    0.3077
 BZINTS: Fermi energy: -0.909455;128.000000 electrons
         Band energy:***********;  BLOECHL correction: -0.090318
       DOS:  cpu time    0.0100: real time    0.0095
    CHARGE:  cpu time    0.5079: real time    0.5087
    MIXING:  cpu time    0.0070: real time    0.0059
    --------------------------------------------
      LOOP:  cpu time   15.8226: real time   15.8222

 eigenvalue-minimisations  :  2436
 total energy-change (2. order) :-0.6757718E+01  (-0.3978651E+02)
 number of electron     128.0000037 magnetization 
 augmentation part       17.3741072 magnetization 

 Broyden mixing:
  rms(total) = 0.51857E+01    rms(broyden)= 0.51856E+01
  rms(prec ) = 0.80515E+01
  weight for this iteration     100.00

 eigenvalues of (default mixing * dielectric matrix)
  average eigenvalue GAMMA=   0.4116
  0.4116

 Free energy of the ion-electron system (eV)
  ---------------------------------------------------
  alpha Z        PSCENC =       378.09908315
  Ewald energy   TEWEN  =     22731.27163923
  -Hartree energ DENC   =    -31254.18473037
  -exchange      EXHF   =         0.00000000
  -V(xc)+E(xc)   XCENC  =       345.56641910
  PAW double counting   =      5949.20599167    -5767.59851448
  entropy T*S    EENTRO =         0.00000000
  eigenvalues    EBANDS =     -1525.36986851
  atomic energy  EATOM  =      8937.49142856
  Solvation  Ediel_sol  =         0.00000000
  ---------------------------------------------------
  free energy    TOTEN  =      -205.51855164 eV

  energy without entropy =     -205.51855164  energy(sigma->0) =     -205.51855164


--------------------------------------------------------------------------------------------------------




--------------------------------------- Iteration      1(   7)  ---------------------------------------


    POTLOK:  cpu time    0.2090: real time    0.2130
    SETDIJ:  cpu time    0.0160: real time    0.0151
    EDDIAG:  cpu time    1.5158: real time    1.5164
  RMM-DIIS:  cpu time   12.0262: real time   12.0257
    ORTHCH:  cpu time    0.3140: real time    0.3139
 BZINTS: Fermi energy: -1.133521;128.000000 electrons
         Band energy:***********;  BLOECHL correction: -0.199582
       DOS:  cpu time    0.0100: real time    0.0103
    CHARGE:  cpu time    0.5299: real time    0.5292
    MIXING:  cpu time    0.0060: real time    0.0063
    --------------------------------------------
      LOOP:  cpu time   14.6268: real time   14.6298

 eigenvalue-minimisations  :  2190
 total energy-change (2. order) : 0.3318827E+02  (-0.9726112E+01)
 number of electron     128.0000043 magnetization 
 augmentation part       14.5646891 magnetization 

 Broyden mixing:
  rms(total) = 0.23044E+01    rms(broyden)= 0.23044E+01
  rms(prec ) = 0.36173E+01
  weight for this iteration     100.00

 eigenvalues of (default mixing * dielectric matrix)
  average eigenvalue GAMMA=   0.4248
  0.6180  0.2316

 Free energy of the ion-electron system (eV)
  ---------------------------------------------------
  alpha Z        PSCENC =       378.09908315
  Ewald energy   TEWEN  =     22731.27163923
  -Hartree energ DENC   =    -31268.07951306
  -exchange      EXHF   =         0.00000000
  -V(xc)+E(xc)   XCENC  =       340.58472685
  PAW double counting   =      5909.05841140    -5730.43178757
  entropy T*S    EENTRO =         0.00000000
  eigenvalues    EBANDS =     -1470.32427001
  atomic energy  EATOM  =      8937.49142856
  Solvation  Ediel_sol  =         0.00000000
  ---------------------------------------------------
  free energy    TOTEN  =      -172.33028144 eV

  energy without entropy =     -172.33028144  energy(sigma->0) =     -172.33028144


--------------------------------------------------------------------------------------------------------




--------------------------------------- Iteration      1(   8)  ---------------------------------------


    POTLOK:  cpu time    0.2090: real time    0.2122
    SETDIJ:  cpu time    0.0150: real time    0.0155
    EDDIAG:  cpu time    1.5348: real time    1.5350
  RMM-DIIS:  cpu time   11.6092: real time   11.6078
    ORTHCH:  cpu time    0.3150: real time    0.3145
 BZINTS: Fermi energy: -1.838635;128.000000 electrons
         Band energy:***********;  BLOECHL correction:  0.000000
       DOS:  cpu time    0.0010: real time    0.0018
    CHARGE:  cpu time    0.5089: real time    0.5079
    MIXING:  cpu time    0.0060: real time    0.0071
    --------------------------------------------
      LOOP:  cpu time   14.1988: real time   14.2018

 eigenvalue-minimisations  :  2067
 total energy-change (2. order) : 0.1153882E+02  (-0.2532987E+01)
 number of electron     128.0000049 magnetization 
 augmentation part       12.9646342 magnetization 

 Broyden mixing:
  rms(total) = 0.15691E+01    rms(broyden)= 0.15691E+01
  rms(prec ) = 0.20503E+01
  weight for this iteration     100.00

 eigenvalues of (default mixing * dielectric matrix)
  average eigenvalue GAMMA=   0.4411
  0.7559  0.2837  0.2837

 Free energy of the ion-electron system (eV)
  ---------------------------------------------------
  alpha Z        PSCENC =       378.09908315
  Ewald energy   TEWEN  =     22731.27163923
  -Hartree energ DENC   =    -31258.22702646
  -exchange      EXHF   =         0.00000000
  -V(xc)+E(xc)   XCENC  =       338.12164007
  PAW double counting   =      5928.72694977    -5753.18356881
  entropy T*S    EENTRO =         0.00000000
  eigenvalues    EBANDS =     -1463.09160992
  atomic energy  EATOM  =      8937.49142856
  Solvation  Ediel_sol  =         0.00000000
  ---------------------------------------------------
  free energy    TOTEN  =      -160.79146440 eV

  energy without entropy =     -160.79146440  energy(sigma->0) =     -160.79146440


--------------------------------------------------------------------------------------------------------




--------------------------------------- Iteration      1(   9)  ---------------------------------------


    POTLOK:  cpu time    0.2090: real time    0.2124
    SETDIJ:  cpu time    0.0150: real time    0.0153
    EDDIAG:  cpu time    1.5318: real time    1.5306
  RMM-DIIS:  cpu time   13.1760: real time   13.1763
    ORTHCH:  cpu time    0.3170: real time    0.3168
 BZINTS: Fermi energy: -1.677977;128.000000 electrons
         Band energy:***********;  BLOECHL correction:  0.000000
       DOS:  cpu time    0.0010: real time    0.0016
    CHARGE:  cpu time    0.5039: real time    0.5042
    MIXING:  cpu time    0.0070: real time    0.0067
    --------------------------------------------
      LOOP:  cpu time   15.7606: real time   15.7639

 eigenvalue-minimisations  :  2347
 total energy-change (2. order) : 0.4791485E+01  (-0.2199580E+00)
 number of electron     128.0000049 magnetization 
 augmentation part       13.0621891 magnetization 

 Broyden mixing:
  rms(total) = 0.12879E+01    rms(broyden)= 0.12879E+01
  rms(prec ) = 0.17833E+01
  weight for this iteration     100.00

 eigenvalues of (default mixing * dielectric matrix)
  average eigenvalue GAMMA=   0.8927
  1.7952  1.0463  0.2567  0.4725

 Free energy of the ion-electron system (eV)
  ---------------------------------------------------
  alpha Z        PSCENC =       378.09908315
  Ewald energy   TEWEN  =     22731.27163923
  -Hartree energ DENC   =    -31284.67728408
  -exchange      EXHF   =         0.00000000
  -V(xc)+E(xc)   XCENC  =       339.21005072
  PAW double counting   =      5989.39720541    -5815.26610792
  entropy T*S    EENTRO =         0.00000000
  eigenvalues    EBANDS =     -1431.52599418
  atomic energy  EATOM  =      8937.49142856
  Solvation  Ediel_sol  =         0.00000000
  ---------------------------------------------------
  free energy    TOTEN  =      -155.99997911 eV

  energy without entropy =     -155.99997911  energy(sigma->0) =     -155.99997911


--------------------------------------------------------------------------------------------------------




--------------------------------------- Iteration      1(  10)  ---------------------------------------


    POTLOK:  cpu time    0.2090: real time    0.2110
    SETDIJ:  cpu time    0.0150: real time    0.0151
    EDDIAG:  cpu time    1.5168: real time    1.5171
  RMM-DIIS:  cpu time   11.9062: real time   11.9040
    ORTHCH:  cpu time    0.3060: real time    0.3059
 BZINTS: Fermi energy: -0.664327;128.000000 electrons
         Band energy:***********;  BLOECHL correction: -0.060122
       DOS:  cpu time    0.0090: real time    0.0093
    CHARGE:  cpu time    0.5159: real time    0.5157
    MIXING:  cpu time    0.0070: real time    0.0070
    --------------------------------------------
      LOOP:  cpu time   14.4848: real time   14.4851

 eigenvalue-minimisations  :  2187
 total energy-change (2. order) :-0.1481669E+01  (-0.4064398E+01)
 number of electron     128.0000040 magnetization 
 augmentation part       15.2351359 magnetization 

 Broyden mixing:
  rms(total) = 0.30606E+01    rms(broyden)= 0.30606E+01
  rms(prec ) = 0.43140E+01
  weight for this iteration     100.00

 eigenvalues of (default mixing * dielectric matrix)
  average eigenvalue GAMMA=   0.7149
  1.7890  1.0489  0.4738  0.2566  0.0064

 Free energy of the ion-electron system (eV)
  ---------------------------------------------------
  alpha Z        PSCENC =       378.09908315
  Ewald energy   TEWEN  =     22731.27163923
  -Hartree energ DENC   =    -31350.95245397
  -exchange      EXHF   =         0.00000000
  -V(xc)+E(xc)   XCENC  =       342.51599328
  PAW double counting   =      6155.96891929    -5985.06636039
  entropy T*S    EENTRO =         0.00000000
  eigenvalues    EBANDS =     -1366.80989720
  atomic energy  EATOM  =      8937.49142856
  Solvation  Ediel_sol  =         0.00000000
  ---------------------------------------------------
  free energy    TOTEN  =      -157.48164806 eV

  energy without entropy =     -157.48164806  energy(sigma->0) =     -157.48164806


--------------------------------------------------------------------------------------------------------




--------------------------------------- Iteration      1(  11)  ---------------------------------------


    POTLOK:  cpu time    0.2100: real time    0.2122
    SETDIJ:  cpu time    0.0160: real time    0.0152
    EDDIAG:  cpu time    1.5148: real time    1.5149
  RMM-DIIS:  cpu time   15.3947: real time   15.3938
    ORTHCH:  cpu time    0.3070: real time    0.3074
 BZINTS: Fermi energy: -0.621598;128.000000 electrons
         Band energy:***********;  BLOECHL correction: -0.051061
       DOS:  cpu time    0.0090: real time    0.0096
    CHARGE:  cpu time    0.5139: real time    0.5125
    MIXING:  cpu time    0.0070: real time    0.0073
    --------------------------------------------
      LOOP:  cpu time   17.9723: real time   17.9730

 eigenvalue-minimisations  :  2810
 total energy-change (2. order) : 0.1506733E+01  (-0.3278141E+00)
 number of electron     128.0000040 magnetization 
 augmentation part       15.2216014 magnetization 

 Broyden mixing:
  rms(total) = 0.29534E+01    rms(broyden)= 0.29534E+01
  rms(prec ) = 0.40979E+01
  weight for this iteration     100.00

 eigenvalues of (default mixing * dielectric matrix)
  average eigenvalue GAMMA=   0.6549
  1.9411  0.9950  0.4773  0.2578  0.1559  0.1021

 Free energy of the ion-electron system (eV)
  ---------------------------------------------------
  alpha Z        PSCENC =       378.09908315
  Ewald energy   TEWEN  =     22731.27163923
  -Hartree energ DENC   =    -31348.39710709
  -exchange      EXHF   =         0.00000000
  -V(xc)+E(xc)   XCENC  =       342.42668443
  PAW double counting   =      6154.77680588    -5983.91195854
  entropy T*S    EENTRO =         0.00000000
  eigenvalues    EBANDS =     -1367.73149089
  atomic energy  EATOM  =      8937.49142856
  Solvation  Ediel_sol  =         0.00000000
  ---------------------------------------------------
  free energy    TOTEN  =      -155.97491528 eV

  energy without entropy =     -155.97491528  energy(sigma->0) =     -155.97491528


--------------------------------------------------------------------------------------------------------




--------------------------------------- Iteration      1(  12)  ---------------------------------------


    POTLOK:  cpu time    0.2090: real time    0.2125
    SETDIJ:  cpu time    0.0150: real time    0.0151
    EDDIAG:  cpu time    1.5138: real time    1.5131
  RMM-DIIS:  cpu time   14.7258: real time   14.7237
    ORTHCH:  cpu time    0.3090: real time    0.3098
 BZINTS: Fermi energy: -0.648116;128.000000 electrons
         Band energy:***********;  BLOECHL correction: -0.053601
       DOS:  cpu time    0.0090: real time    0.0090
    CHARGE:  cpu time    0.5149: real time    0.5149
    MIXING:  cpu time    0.0080: real time    0.0077
    --------------------------------------------
      LOOP:  cpu time   17.3044: real time   17.3056

 eigenvalue-minimisations  :  2697
 total energy-change (2. order) :-0.2887154E+01  (-0.1729184E+00)
 number of electron     128.0000040 magnetization 
 augmentation part       15.6235890 magnetization 

 Broyden mixing:
  rms(total) = 0.33391E+01    rms(broyden)= 0.33391E+01
  rms(prec ) = 0.45975E+01
  weight for this iteration     100.00

 eigenvalues of (default mixing * dielectric matrix)
  average eigenvalue GAMMA=   0.5978
  1.9782  0.9834  0.4804  0.2587  0.1478  0.1679  0.1679

 Free energy of the ion-electron system (eV)
  ---------------------------------------------------
  alpha Z        PSCENC =       378.09908315
  Ewald energy   TEWEN  =     22731.27163923
  -Hartree energ DENC   =    -31362.56371997
  -exchange      EXHF   =         0.00000000
  -V(xc)+E(xc)   XCENC  =       342.92230864
  PAW double counting   =      6170.10047018    -5999.49478053
  entropy T*S    EENTRO =         0.00000000
  eigenvalues    EBANDS =     -1356.68849860
  atomic energy  EATOM  =      8937.49142856
  Solvation  Ediel_sol  =         0.00000000
  ---------------------------------------------------
  free energy    TOTEN  =      -158.86206934 eV

  energy without entropy =     -158.86206934  energy(sigma->0) =     -158.86206934


--------------------------------------------------------------------------------------------------------




--------------------------------------- Iteration      1(  13)  ---------------------------------------


    POTLOK:  cpu time    0.2100: real time    0.2129
    SETDIJ:  cpu time    0.0150: real time    0.0151
    EDDIAG:  cpu time    1.5178: real time    1.5179
  RMM-DIIS:  cpu time   15.2447: real time   15.2418
    ORTHCH:  cpu time    0.3070: real time    0.3080
 BZINTS: Fermi energy: -0.703992;128.000000 electrons
         Band energy:***********;  BLOECHL correction: -0.046663
       DOS:  cpu time    0.0100: real time    0.0094
    CHARGE:  cpu time    0.5079: real time    0.5078
    MIXING:  cpu time    0.0080: real time    0.0080
    --------------------------------------------
      LOOP:  cpu time   17.8203: real time   17.8210

 eigenvalue-minimisations  :  2797
 total energy-change (2. order) :-0.6834080E+00  (-0.5391910E-01)
 number of electron     128.0000040 magnetization 
 augmentation part       15.7804769 magnetization 

 Broyden mixing:
  rms(total) = 0.34498E+01    rms(broyden)= 0.34498E+01
  rms(prec ) = 0.47740E+01
  weight for this iteration     100.00

 eigenvalues of (default mixing * dielectric matrix)
  average eigenvalue GAMMA=   0.6499
  1.9246  1.0163  0.5354  0.5354  0.4892  0.2561  0.2211  0.2211

 Free energy of the ion-electron system (eV)
  ---------------------------------------------------
  alpha Z        PSCENC =       378.09908315
  Ewald energy   TEWEN  =     22731.27163923
  -Hartree energ DENC   =    -31358.43726460
  -exchange      EXHF   =         0.00000000
  -V(xc)+E(xc)   XCENC  =       342.87351241
  PAW double counting   =      6171.44294190    -6000.79162948
  entropy T*S    EENTRO =         0.00000000
  eigenvalues    EBANDS =     -1361.49518847
  atomic energy  EATOM  =      8937.49142856
  Solvation  Ediel_sol  =         0.00000000
  ---------------------------------------------------
  free energy    TOTEN  =      -159.54547731 eV

  energy without entropy =     -159.54547731  energy(sigma->0) =     -159.54547731


--------------------------------------------------------------------------------------------------------




--------------------------------------- Iteration      1(  14)  ---------------------------------------


    POTLOK:  cpu time    0.2100: real time    0.2147
    SETDIJ:  cpu time    0.0160: real time    0.0151
    EDDIAG:  cpu time    1.5128: real time    1.5135
  RMM-DIIS:  cpu time   11.7322: real time   11.7300
    ORTHCH:  cpu time    0.3080: real time    0.3077
 BZINTS: Fermi energy: -0.745533;128.000000 electrons
         Band energy:***********;  BLOECHL correction: -0.053453
       DOS:  cpu time    0.0100: real time    0.0097
    CHARGE:  cpu time    0.5119: real time    0.5129
    MIXING:  cpu time    0.0090: real time    0.0084
    --------------------------------------------
      LOOP:  cpu time   14.3098: real time   14.3119

 eigenvalue-minimisations  :  2139
 total energy-change (2. order) : 0.4515112E+01  (-0.1595987E+00)
 number of electron     128.0000041 magnetization 
 augmentation part       15.4590989 magnetization 

 Broyden mixing:
  rms(total) = 0.29688E+01    rms(broyden)= 0.29688E+01
  rms(prec ) = 0.40629E+01
  weight for this iteration     100.00

 eigenvalues of (default mixing * dielectric matrix)
  average eigenvalue GAMMA=   0.6753
  1.9605  0.8190  0.8190  0.9585  0.4829  0.2749  0.2749  0.2591  0.2292

 Free energy of the ion-electron system (eV)
  ---------------------------------------------------
  alpha Z        PSCENC =       378.09908315
  Ewald energy   TEWEN  =     22731.27163923
  -Hartree energ DENC   =    -31316.97275683
  -exchange      EXHF   =         0.00000000
  -V(xc)+E(xc)   XCENC  =       341.95681753
  PAW double counting   =      6149.71559480    -5978.48602985
  entropy T*S    EENTRO =         0.00000000
  eigenvalues    EBANDS =     -1398.10614223
  atomic energy  EATOM  =      8937.49142856
  Solvation  Ediel_sol  =         0.00000000
  ---------------------------------------------------
  free energy    TOTEN  =      -155.03036564 eV

  energy without entropy =     -155.03036564  energy(sigma->0) =     -155.03036564


--------------------------------------------------------------------------------------------------------




--------------------------------------- Iteration      1(  15)  ---------------------------------------


    POTLOK:  cpu time    0.2100: real time    0.2125
    SETDIJ:  cpu time    0.0160: real time    0.0151
    EDDIAG:  cpu time    1.5118: real time    1.5130
  RMM-DIIS:  cpu time   12.1392: real time   12.1387
    ORTHCH:  cpu time    0.3080: real time    0.3082
 BZINTS: Fermi energy: -0.709728;128.000000 electrons
         Band energy:***********;  BLOECHL correction: -0.041513
       DOS:  cpu time    0.0090: real time    0.0085
    CHARGE:  cpu time    0.5149: real time    0.5156
    MIXING:  cpu time    0.0090: real time    0.0089
    --------------------------------------------
      LOOP:  cpu time   14.7178: real time   14.7204

 eigenvalue-minimisations  :  2228
 total energy-change (2. order) : 0.3232915E+01  (-0.3417605E+00)
 number of electron     128.0000043 magnetization 
 augmentation part       14.8266199 magnetization 

 Broyden mixing:
  rms(total) = 0.21582E+01    rms(broyden)= 0.21582E+01
  rms(prec ) = 0.30249E+01
  weight for this iteration     100.00

 eigenvalues of (default mixing * dielectric matrix)
  average eigenvalue GAMMA=   0.6324
  1.9555  0.8492  0.8492  0.9728  0.4819  0.2806  0.2806  0.2563  0.1990  0.1990

 Free energy of the ion-electron system (eV)
  ---------------------------------------------------
  alpha Z        PSCENC =       378.09908315
  Ewald energy   TEWEN  =     22731.27163923
  -Hartree energ DENC   =    -31283.99412042
  -exchange      EXHF   =         0.00000000
  -V(xc)+E(xc)   XCENC  =       341.06386693
  PAW double counting   =      6140.42672059    -5968.89945268
  entropy T*S    EENTRO =         0.00000000
  eigenvalues    EBANDS =     -1427.25661593
  atomic energy  EATOM  =      8937.49142856
  Solvation  Ediel_sol  =         0.00000000
  ---------------------------------------------------
  free energy    TOTEN  =      -151.79745055 eV

  energy without entropy =     -151.79745055  energy(sigma->0) =     -151.79745055


--------------------------------------------------------------------------------------------------------




--------------------------------------- Iteration      1(  16)  ---------------------------------------


    POTLOK:  cpu time    0.2130: real time    0.2162
    SETDIJ:  cpu time    0.0170: real time    0.0162
    EDDIAG:  cpu time    1.5058: real time    1.5063
  RMM-DIIS:  cpu time   12.7371: real time   12.7348
    ORTHCH:  cpu time    0.3070: real time    0.3076
 BZINTS: Fermi energy: -0.738228;128.000000 electrons
         Band energy:***********;  BLOECHL correction: -0.021179
       DOS:  cpu time    0.0100: real time    0.0096
    CHARGE:  cpu time    0.5079: real time    0.5081
    MIXING:  cpu time    0.0090: real time    0.0092
    --------------------------------------------
      LOOP:  cpu time   15.3067: real time   15.3080

 eigenvalue-minimisations  :  2342
 total energy-change (2. order) : 0.1695831E+01  (-0.2084530E+00)
 number of electron     128.0000045 magnetization 
 augmentation part       14.0295690 magnetization 

 Broyden mixing:
  rms(total) = 0.11392E+01    rms(broyden)= 0.11392E+01
  rms(prec ) = 0.15027E+01
  weight for this iteration     100.00

 eigenvalues of (default mixing * dielectric matrix)
  average eigenvalue GAMMA=   0.6078
  1.9551  0.8739  0.8739  0.9712  0.4845  0.3093  0.3093  0.2556  0.2378  0.2378
  0.1774

 Free energy of the ion-electron system (eV)
  ---------------------------------------------------
  alpha Z        PSCENC =       378.09908315
  Ewald energy   TEWEN  =     22731.27163923
  -Hartree energ DENC   =    -31268.38228089
  -exchange      EXHF   =         0.00000000
  -V(xc)+E(xc)   XCENC  =       340.50491244
  PAW double counting   =      6132.63239079    -5960.93427309
  entropy T*S    EENTRO =         0.00000000
  eigenvalues    EBANDS =     -1440.78451937
  atomic energy  EATOM  =      8937.49142856
  Solvation  Ediel_sol  =         0.00000000
  ---------------------------------------------------
  free energy    TOTEN  =      -150.10161918 eV

  energy without entropy =     -150.10161918  energy(sigma->0) =     -150.10161918


--------------------------------------------------------------------------------------------------------




--------------------------------------- Iteration      1(  17)  ---------------------------------------


    POTLOK:  cpu time    0.2130: real time    0.2145
    SETDIJ:  cpu time    0.0160: real time    0.0161
    EDDIAG:  cpu time    1.5068: real time    1.5073
  RMM-DIIS:  cpu time   15.3097: real time   15.3079
    ORTHCH:  cpu time    0.3090: real time    0.3090
 BZINTS: Fermi energy: -0.750651;128.000000 electrons
         Band energy:***********;  BLOECHL correction: -0.025229
       DOS:  cpu time    0.0090: real time    0.0087
    CHARGE:  cpu time    0.5129: real time    0.5138
    MIXING:  cpu time    0.0100: real time    0.0097
    --------------------------------------------
      LOOP:  cpu time   17.8863: real time   17.8871

 eigenvalue-minimisations  :  2834
 total energy-change (2. order) :-0.2461413E-01  (-0.2078769E-01)
 number of electron     128.0000045 magnetization 
 augmentation part       14.0831106 magnetization 

 Broyden mixing:
  rms(total) = 0.11826E+01    rms(broyden)= 0.11826E+01
  rms(prec ) = 0.15920E+01
  weight for this iteration     100.00

 eigenvalues of (default mixing * dielectric matrix)
  average eigenvalue GAMMA=   0.5938
  1.9454  0.9653  0.7856  0.7856  0.4655  0.4655  0.4905  0.2817  0.2817  0.2614
  0.2373  0.1599

 Free energy of the ion-electron system (eV)
  ---------------------------------------------------
  alpha Z        PSCENC =       378.09908315
  Ewald energy   TEWEN  =     22731.27163923
  -Hartree energ DENC   =    -31269.07142357
  -exchange      EXHF   =         0.00000000
  -V(xc)+E(xc)   XCENC  =       340.51616338
  PAW double counting   =      6132.82542088    -5961.12366910
  entropy T*S    EENTRO =         0.00000000
  eigenvalues    EBANDS =     -1440.13487584
  atomic energy  EATOM  =      8937.49142856
  Solvation  Ediel_sol  =         0.00000000
  ---------------------------------------------------
  free energy    TOTEN  =      -150.12623331 eV

  energy without entropy =     -150.12623331  energy(sigma->0) =     -150.12623331


--------------------------------------------------------------------------------------------------------




--------------------------------------- Iteration      1(  18)  ---------------------------------------


    POTLOK:  cpu time    0.2110: real time    0.2154
    SETDIJ:  cpu time    0.0160: real time    0.0161
    EDDIAG:  cpu time    1.5068: real time    1.5073
  RMM-DIIS:  cpu time   11.2433: real time   11.2401
    ORTHCH:  cpu time    0.3060: real time    0.3069
 BZINTS: Fermi energy: -0.724662;128.000000 electrons
         Band energy:***********;  BLOECHL correction: -0.045231
       DOS:  cpu time    0.0100: real time    0.0099
    CHARGE:  cpu time    0.5139: real time    0.5142
    MIXING:  cpu time    0.0110: real time    0.0101
    --------------------------------------------
      LOOP:  cpu time   13.8179: real time   13.8201

 eigenvalue-minimisations  :  2060
 total energy-change (2. order) :-0.7551789E+00  (-0.5843519E-01)
 number of electron     128.0000043 magnetization 
 augmentation part       14.5521424 magnetization 

 Broyden mixing:
  rms(total) = 0.17869E+01    rms(broyden)= 0.17869E+01
  rms(prec ) = 0.25287E+01
  weight for this iteration     100.00

 eigenvalues of (default mixing * dielectric matrix)
  average eigenvalue GAMMA=   0.6407
  2.0017  0.9507  0.8261  0.8261  0.7955  0.7955  0.4845  0.3541  0.3541  0.2541
  0.2783  0.2783  0.1307

 Free energy of the ion-electron system (eV)
  ---------------------------------------------------
  alpha Z        PSCENC =       378.09908315
  Ewald energy   TEWEN  =     22731.27163923
  -Hartree energ DENC   =    -31291.32717205
  -exchange      EXHF   =         0.00000000
  -V(xc)+E(xc)   XCENC  =       341.04726271
  PAW double counting   =      6143.08197795    -5971.66103136
  entropy T*S    EENTRO =         0.00000000
  eigenvalues    EBANDS =     -1418.88460041
  atomic energy  EATOM  =      8937.49142856
  Solvation  Ediel_sol  =         0.00000000
  ---------------------------------------------------
  free energy    TOTEN  =      -150.88141222 eV

  energy without entropy =     -150.88141222  energy(sigma->0) =     -150.88141222


--------------------------------------------------------------------------------------------------------




--------------------------------------- Iteration      1(  19)  ---------------------------------------


    POTLOK:  cpu time    0.2100: real time    0.2136
    SETDIJ:  cpu time    0.0160: real time    0.0161
    EDDIAG:  cpu time    1.5048: real time    1.5044
  RMM-DIIS:  cpu time   11.2273: real time   11.2280
    ORTHCH:  cpu time    0.3070: real time    0.3067
 BZINTS: Fermi energy: -0.870500;128.000000 electrons
         Band energy:***********;  BLOECHL correction: -0.020481
       DOS:  cpu time    0.0090: real time    0.0093
    CHARGE:  cpu time    0.5089: real time    0.5081
    MIXING:  cpu time    0.0100: real time    0.0105
    --------------------------------------------
      LOOP:  cpu time   13.7929: real time   13.7968

 eigenvalue-minimisations  :  2063
 total energy-change (2. order) : 0.1562719E+01  (-0.1143464E+00)
 number of electron     128.0000047 magnetization 
 augmentation part       13.6027561 magnetization 

 Broyden mixing:
  rms(total) = 0.53589E+00    rms(broyden)= 0.53587E+00
  rms(prec ) = 0.61071E+00
  weight for this iteration     100.00

 eigenvalues of (default mixing * dielectric matrix)
  average eigenvalue GAMMA=   0.6774
  2.0853  1.0703  1.0703  0.8883  0.8883  0.9381  0.4884  0.3779  0.3779  0.3223
  0.2539  0.2937  0.2937  0.1356

 Free energy of the ion-electron system (eV)
  ---------------------------------------------------
  alpha Z        PSCENC =       378.09908315
  Ewald energy   TEWEN  =     22731.27163923
  -Hartree energ DENC   =    -31266.16534880
  -exchange      EXHF   =         0.00000000
  -V(xc)+E(xc)   XCENC  =       340.35488137
  PAW double counting   =      6142.07492505    -5970.47799808
  entropy T*S    EENTRO =         0.00000000
  eigenvalues    EBANDS =     -1441.96730371
  atomic energy  EATOM  =      8937.49142856
  Solvation  Ediel_sol  =         0.00000000
  ---------------------------------------------------
  free energy    TOTEN  =      -149.31869324 eV

  energy without entropy =     -149.31869324  energy(sigma->0) =     -149.31869324


--------------------------------------------------------------------------------------------------------




--------------------------------------- Iteration      1(  20)  ---------------------------------------


    POTLOK:  cpu time    0.2100: real time    0.2118
    SETDIJ:  cpu time    0.0170: real time    0.0161
    EDDIAG:  cpu time    1.5028: real time    1.5033
  RMM-DIIS:  cpu time   11.3553: real time   11.3534
    ORTHCH:  cpu time    0.3060: real time    0.3067
 BZINTS: Fermi energy: -0.846166;128.000000 electrons
         Band energy:***********;  BLOECHL correction: -0.033155
       DOS:  cpu time    0.0100: real time    0.0094
    CHARGE:  cpu time    0.5139: real time    0.5146
    MIXING:  cpu time    0.0120: real time    0.0110
    --------------------------------------------
      LOOP:  cpu time   13.9269: real time   13.9263

 eigenvalue-minimisations  :  2084
 total energy-change (2. order) : 0.4973316E-01  (-0.4216399E-01)
 number of electron     128.0000045 magnetization 
 augmentation part       13.9524844 magnetization 

 Broyden mixing:
  rms(total) = 0.77758E+00    rms(broyden)= 0.77757E+00
  rms(prec ) = 0.10742E+01
  weight for this iteration     100.00

 eigenvalues of (default mixing * dielectric matrix)
  average eigenvalue GAMMA=   0.6778
  2.1720  0.9637  0.9637  1.1157  0.8974  0.8974  0.4981  0.4981  0.3883  0.3883
  0.4042  0.2544  0.2960  0.2960  0.1344

 Free energy of the ion-electron system (eV)
  ---------------------------------------------------
  alpha Z        PSCENC =       378.09908315
  Ewald energy   TEWEN  =     22731.27163923
  -Hartree energ DENC   =    -31284.47608871
  -exchange      EXHF   =         0.00000000
  -V(xc)+E(xc)   XCENC  =       340.73049562
  PAW double counting   =      6157.66373307    -5986.48890208
  entropy T*S    EENTRO =         0.00000000
  eigenvalues    EBANDS =     -1423.56034891
  atomic energy  EATOM  =      8937.49142856
  Solvation  Ediel_sol  =         0.00000000
  ---------------------------------------------------
  free energy    TOTEN  =      -149.26896007 eV

  energy without entropy =     -149.26896007  energy(sigma->0) =     -149.26896007


--------------------------------------------------------------------------------------------------------




--------------------------------------- Iteration      1(  21)  ---------------------------------------


    POTLOK:  cpu time    0.2140: real time    0.2160
    SETDIJ:  cpu time    0.0160: real time    0.0151
    EDDIAG:  cpu time    1.5008: real time    1.5011
  RMM-DIIS:  cpu time   11.5112: real time   11.5107
    ORTHCH:  cpu time    0.3110: real time    0.3109
 BZINTS: Fermi energy: -0.900765;128.000000 electrons
         Band energy:***********;  BLOECHL correction: -0.010412
       DOS:  cpu time    0.0090: real time    0.0091
    CHARGE:  cpu time    0.5059: real time    0.5062
    MIXING:  cpu time    0.0130: real time    0.0120
    --------------------------------------------
      LOOP:  cpu time   14.0809: real time   14.0810

 eigenvalue-minimisations  :  2105
 total energy-change (2. order) :-0.1528236E+00  (-0.2592151E+00)
 number of electron     128.0000048 magnetization 
 augmentation part       13.4612335 magnetization 

 Broyden mixing:
  rms(total) = 0.79238E+00    rms(broyden)= 0.79237E+00
  rms(prec ) = 0.11571E+01
  weight for this iteration     100.00

 eigenvalues of (default mixing * dielectric matrix)
  average eigenvalue GAMMA=   0.6372
  2.1004  0.9797  0.9797  1.0755  0.7233  0.7233  0.6185  0.5068  0.5068  0.3822
  0.3822  0.2949  0.2949  0.2508  0.2411  0.1345

 Free energy of the ion-electron system (eV)
  ---------------------------------------------------
  alpha Z        PSCENC =       378.09908315
  Ewald energy   TEWEN  =     22731.27163923
  -Hartree energ DENC   =    -31248.28965074
  -exchange      EXHF   =         0.00000000
  -V(xc)+E(xc)   XCENC  =       339.64646018
  PAW double counting   =      6143.32186614    -5971.79894861
  entropy T*S    EENTRO =         0.00000000
  eigenvalues    EBANDS =     -1459.16366154
  atomic energy  EATOM  =      8937.49142856
  Solvation  Ediel_sol  =         0.00000000
  ---------------------------------------------------
  free energy    TOTEN  =      -149.42178364 eV

  energy without entropy =     -149.42178364  energy(sigma->0) =     -149.42178364


--------------------------------------------------------------------------------------------------------




--------------------------------------- Iteration      1(  22)  ---------------------------------------


    POTLOK:  cpu time    0.2140: real time    0.2176
    SETDIJ:  cpu time    0.0150: real time    0.0151
    EDDIAG:  cpu time    1.5038: real time    1.5024
  RMM-DIIS:  cpu time   12.9090: real time   12.9068
    ORTHCH:  cpu time    0.3070: real time    0.3079
 BZINTS: Fermi energy: -0.875849;128.000000 electrons
         Band energy:***********;  BLOECHL correction: -0.013361
       DOS:  cpu time    0.0100: real time    0.0096
    CHARGE:  cpu time    0.5039: real time    0.5035
    MIXING:  cpu time    0.0120: real time    0.0123
    --------------------------------------------
      LOOP:  cpu time   15.4746: real time   15.4753

 eigenvalue-minimisations  :  2383
 total energy-change (2. order) : 0.2811210E+00  (-0.2709905E-01)
 number of electron     128.0000048 magnetization 
 augmentation part       13.4198181 magnetization 

 Broyden mixing:
  rms(total) = 0.54187E+00    rms(broyden)= 0.54187E+00
  rms(prec ) = 0.71955E+00
  weight for this iteration     100.00

 eigenvalues of (default mixing * dielectric matrix)
  average eigenvalue GAMMA=   0.6209
  2.1163  0.9971  0.9971  0.8950  0.7685  0.7685  0.6818  0.6818  0.4871  0.3828
  0.3828  0.2904  0.2904  0.2538  0.2138  0.2138  0.1343

 Free energy of the ion-electron system (eV)
  ---------------------------------------------------
  alpha Z        PSCENC =       378.09908315
  Ewald energy   TEWEN  =     22731.27163923
  -Hartree energ DENC   =    -31255.24434791
  -exchange      EXHF   =         0.00000000
  -V(xc)+E(xc)   XCENC  =       339.74169540
  PAW double counting   =      6145.88926114    -5974.55157321
  entropy T*S    EENTRO =         0.00000000
  eigenvalues    EBANDS =     -1451.83784898
  atomic energy  EATOM  =      8937.49142856
  Solvation  Ediel_sol  =         0.00000000
  ---------------------------------------------------
  free energy    TOTEN  =      -149.14066262 eV

  energy without entropy =     -149.14066262  energy(sigma->0) =     -149.14066262


--------------------------------------------------------------------------------------------------------




--------------------------------------- Iteration      1(  23)  ---------------------------------------


    POTLOK:  cpu time    0.2150: real time    0.2170
    SETDIJ:  cpu time    0.0150: real time    0.0150
    EDDIAG:  cpu time    1.4978: real time    1.4974
  RMM-DIIS:  cpu time   14.0019: real time   14.0004
    ORTHCH:  cpu time    0.3100: real time    0.3107
 BZINTS: Fermi energy: -0.851464;128.000000 electrons
         Band energy:***********;  BLOECHL correction: -0.013723
       DOS:  cpu time    0.0100: real time    0.0097
    CHARGE:  cpu time    0.5079: real time    0.5068
    MIXING:  cpu time    0.0130: real time    0.0130
    --------------------------------------------
      LOOP:  cpu time   16.5705: real time   16.5700

 eigenvalue-minimisations  :  2571
 total energy-change (2. order) : 0.2730264E-01  (-0.3306063E-02)
 number of electron     128.0000048 magnetization 
 augmentation part       13.3939325 magnetization 

 Broyden mixing:
  rms(total) = 0.51998E+00    rms(broyden)= 0.51998E+00
  rms(prec ) = 0.67883E+00
  weight for this iteration     100.00

 eigenvalues of (default mixing * dielectric matrix)
  average eigenvalue GAMMA=   0.6357
  2.0820  1.0377  1.0377  0.9992  0.8959  0.8959  0.6213  0.6213  0.5126  0.3832
  0.3832  0.3435  0.3435  0.3005  0.3005  0.2553  0.2943  0.1344

 Free energy of the ion-electron system (eV)
  ---------------------------------------------------
  alpha Z        PSCENC =       378.09908315
  Ewald energy   TEWEN  =     22731.27163923
  -Hartree energ DENC   =    -31258.16269258
  -exchange      EXHF   =         0.00000000
  -V(xc)+E(xc)   XCENC  =       339.77801655
  PAW double counting   =      6148.17256703    -5976.94987381
  entropy T*S    EENTRO =         0.00000000
  eigenvalues    EBANDS =     -1448.81352811
  atomic energy  EATOM  =      8937.49142856
  Solvation  Ediel_sol  =         0.00000000
  ---------------------------------------------------
  free energy    TOTEN  =      -149.11335998 eV

  energy without entropy =     -149.11335998  energy(sigma->0) =     -149.11335998


--------------------------------------------------------------------------------------------------------




--------------------------------------- Iteration      1(  24)  ---------------------------------------


    POTLOK:  cpu time    0.2140: real time    0.2176
    SETDIJ:  cpu time    0.0160: real time    0.0150
    EDDIAG:  cpu time    1.5008: real time    1.5015
  RMM-DIIS:  cpu time   12.3701: real time   12.3679
    ORTHCH:  cpu time    0.3110: real time    0.3110
 BZINTS: Fermi energy: -0.824353;128.000000 electrons
         Band energy:***********;  BLOECHL correction: -0.016020
       DOS:  cpu time    0.0090: real time    0.0090
    CHARGE:  cpu time    0.5079: real time    0.5077
    MIXING:  cpu time    0.0130: real time    0.0136
    --------------------------------------------
      LOOP:  cpu time   14.9417: real time   14.9433

 eigenvalue-minimisations  :  2263
 total energy-change (2. order) : 0.7021168E-01  (-0.2726963E-02)
 number of electron     128.0000048 magnetization 
 augmentation part       13.3841835 magnetization 

 Broyden mixing:
  rms(total) = 0.44898E+00    rms(broyden)= 0.44898E+00
  rms(prec ) = 0.57623E+00
  weight for this iteration     100.00

 eigenvalues of (default mixing * dielectric matrix)
  average eigenvalue GAMMA=   0.7055
  2.5145  1.0013  1.0013  1.0586  1.0586  0.9235  0.9235  0.7335  0.7335  0.6736
  0.3907  0.3907  0.4393  0.3009  0.3009  0.2546  0.2860  0.2860  0.1344

 Free energy of the ion-electron system (eV)
  ---------------------------------------------------
  alpha Z        PSCENC =       378.09908315
  Ewald energy   TEWEN  =     22731.27163923
  -Hartree energ DENC   =    -31264.25603699
  -exchange      EXHF   =         0.00000000
  -V(xc)+E(xc)   XCENC  =       339.88411866
  PAW double counting   =      6150.58253909    -5979.53292024
  entropy T*S    EENTRO =         0.00000000
  eigenvalues    EBANDS =     -1442.58299976
  atomic energy  EATOM  =      8937.49142856
  Solvation  Ediel_sol  =         0.00000000
  ---------------------------------------------------
  free energy    TOTEN  =      -149.04314830 eV

[...]
     43      -4.8946      2.00000
     44      -4.7276      2.00000
     45      -4.2337      2.00000
     46      -4.2208      2.00000
     47      -4.1388      2.00000
     48      -4.0744      2.00000
     49      -3.9322      2.00000
     50      -3.8022      2.00000
     51      -3.6707      2.00000
     52      -3.4711      2.00000
     53      -3.4286      2.00000
     54      -2.9051      2.00000
     55      -2.8726      2.00000
     56      -2.8276      2.00000
     57      -2.1473      2.00000
     58      -2.0417      2.00000
     59      -1.9909      2.00000
     60      -1.7337      2.00000
     61      -1.2404      2.00000
     62      -1.1989      2.00000
     63      -0.9374      2.01174
     64      -0.7948      1.98809
     65      -0.7719      1.04889
     66      -0.3356      0.00000
     67      -0.1665      0.00000
     68       0.2644      0.00000
     69       0.8903      0.00000
     70       1.0336      0.00000
     71       1.0547      0.00000
     72       1.8474      0.00000
     73       1.8808      0.00000
     74       3.0662      0.00000
     75       3.1028      0.00000
     76       3.1574      0.00000

 k-point    10 :       0.0000    0.4286    0.0000
  band No.  band energies     occupation 
      1     -36.5608      2.00000
      2     -35.2329      2.00000
      3     -34.2767      2.00000
      4     -33.3913      2.00000
      5     -20.3675      2.00000
      6     -19.7005      2.00000
      7     -19.5345      2.00000
      8     -19.1782      2.00000
      9     -19.0537      2.00000
     10     -18.7118      2.00000
     11     -18.5285      2.00000
     12     -18.3901      2.00000
     13     -18.3822      2.00000
     14     -18.1785      2.00000
     15     -18.0514      2.00000
     16     -17.5716      2.00000
     17     -17.4195      2.00000
     18     -17.1881      2.00000
     19     -17.1429      2.00000
     20     -16.9637      2.00000
     21     -16.6293      2.00000
     22     -16.4727      2.00000
     23     -16.1680      2.00000
     24     -16.1004      2.00000
     25     -15.9966      2.00000
     26     -15.5192      2.00000
     27     -15.4498      2.00000
     28     -15.1251      2.00000
     29      -7.5602      2.00000
     30      -6.9574      2.00000
     31      -6.6915      2.00000
     32      -6.5781      2.00000
     33      -6.5718      2.00000
     34      -6.5083      2.00000
     35      -6.3405      2.00000
     36      -5.9582      2.00000
     37      -5.8187      2.00000
     38      -5.6266      2.00000
     39      -5.5547      2.00000
     40      -5.4632      2.00000
     41      -5.1321      2.00000
     42      -4.9612      2.00000
     43      -4.9008      2.00000
     44      -4.7197      2.00000
     45      -4.6026      2.00000
     46      -4.5744      2.00000
     47      -4.4245      2.00000
     48      -4.1491      2.00000
     49      -4.0525      2.00000
     50      -3.7043      2.00000
     51      -3.5353      2.00000
     52      -3.4842      2.00000
     53      -2.9925      2.00000
     54      -2.8513      2.00000
     55      -2.7608      2.00000
     56      -2.7235      2.00000
     57      -2.2989      2.00000
     58      -2.1366      2.00000
     59      -1.8812      2.00000
     60      -1.4311      2.00000
     61      -1.2810      2.00000
     62      -0.8651      2.00000
     63      -0.7312      0.26303
     64      -0.7052     -0.07228
     65      -0.5487      0.00000
     66      -0.4129      0.00000
     67      -0.1777      0.00000
     68       0.6559      0.00000
     69       0.7234      0.00000
     70       0.7792      0.00000
     71       1.4046      0.00000
     72       1.4478      0.00000
     73       1.8171      0.00000
     74       2.2736      0.00000
     75       2.8526      0.00000
     76       3.5060      0.00000

 k-point    11 :       0.2000    0.4286    0.0000
  band No.  band energies     occupation 
      1     -36.5607      2.00000
      2     -35.2328      2.00000
      3     -34.2766      2.00000
      4     -33.3912      2.00000
      5     -20.3055      2.00000
      6     -19.8420      2.00000
      7     -19.6055      2.00000
      8     -19.1399      2.00000
      9     -19.0878      2.00000
     10     -18.5571      2.00000
     11     -18.4981      2.00000
     12     -18.4822      2.00000
     13     -18.4038      2.00000
     14     -18.1558      2.00000
     15     -18.1194      2.00000
     16     -17.6558      2.00000
     17     -17.2884      2.00000
     18     -17.2046      2.00000
     19     -17.0949      2.00000
     20     -17.0283      2.00000
     21     -16.6126      2.00000
     22     -16.3412      2.00000
     23     -16.2079      2.00000
     24     -16.0926      2.00000
     25     -16.0095      2.00000
     26     -15.4517      2.00000
     27     -15.3860      2.00000
     28     -15.0861      2.00000
     29      -7.5705      2.00000
     30      -6.9263      2.00000
     31      -6.7774      2.00000
     32      -6.7372      2.00000
     33      -6.6098      2.00000
     34      -6.5590      2.00000
     35      -6.2523      2.00000
     36      -5.9715      2.00000
     37      -5.8384      2.00000
     38      -5.7585      2.00000
     39      -5.5239      2.00000
     40      -5.4308      2.00000
     41      -5.1498      2.00000
     42      -5.1000      2.00000
     43      -4.9463      2.00000
     44      -4.8070      2.00000
     45      -4.6474      2.00000
     46      -4.4081      2.00000
     47      -4.2866      2.00000
     48      -4.1737      2.00000
     49      -4.1181      2.00000
     50      -3.7509      2.00000
     51      -3.6563      2.00000
     52      -3.4910      2.00000
     53      -3.1930      2.00000
     54      -2.8649      2.00000
     55      -2.7958      2.00000
     56      -2.6270      2.00000
     57      -2.3004      2.00000
     58      -2.0448      2.00000
     59      -1.9159      2.00000
     60      -1.6250      2.00000
     61      -1.2160      2.00000
     62      -0.8463      2.00000
     63      -0.7505      1.09317
     64      -0.7303      0.04529
     65      -0.6959     -0.01164
     66      -0.3822      0.00000
     67      -0.0296      0.00000
     68       0.7263      0.00000
     69       0.8970      0.00000
     70       1.3954      0.00000
     71       1.4349      0.00000
     72       1.8603      0.00000
     73       2.2640      0.00000
     74       2.2728      0.00000
     75       3.1446      0.00000
     76       3.4965      0.00000

 k-point    12 :       0.4000    0.4286    0.0000
  band No.  band energies     occupation 
      1     -36.5605      2.00000
      2     -35.2326      2.00000
      3     -34.2763      2.00000
      4     -33.3911      2.00000
      5     -20.1511      2.00000
      6     -20.0144      2.00000
      7     -19.7799      2.00000
      8     -19.2035      2.00000
      9     -18.9549      2.00000
     10     -18.6941      2.00000
     11     -18.4780      2.00000
     12     -18.3996      2.00000
     13     -18.3402      2.00000
     14     -18.2256      2.00000
     15     -18.0541      2.00000
     16     -17.8323      2.00000
     17     -17.2197      2.00000
     18     -17.1707      2.00000
     19     -17.0686      2.00000
     20     -17.0084      2.00000
     21     -16.5710      2.00000
     22     -16.2579      2.00000
     23     -16.1519      2.00000
     24     -16.1465      2.00000
     25     -15.9794      2.00000
     26     -15.4544      2.00000
     27     -15.1902      2.00000
     28     -15.0327      2.00000
     29      -7.5912      2.00000
     30      -7.0923      2.00000
     31      -6.9523      2.00000
     32      -6.8258      2.00000
     33      -6.6452      2.00000
     34      -6.5387      2.00000
     35      -6.0768      2.00000
     36      -6.0006      2.00000
     37      -5.9036      2.00000
     38      -5.8326      2.00000
     39      -5.5867      2.00000
     40      -5.3576      2.00000
     41      -5.2823      2.00000
     42      -5.2703      2.00000
     43      -5.1332      2.00000
     44      -4.7394      2.00000
     45      -4.6806      2.00000
     46      -4.2892      2.00000
     47      -4.1935      2.00000
     48      -4.1315      2.00000
     49      -4.0377      2.00000
     50      -3.8396      2.00000
     51      -3.7451      2.00000
     52      -3.6548      2.00000
     53      -3.5583      2.00000
     54      -2.8288      2.00000
     55      -2.8119      2.00000
     56      -2.7407      2.00000
     57      -2.0815      2.00000
     58      -1.9888      2.00000
     59      -1.8878      2.00000
     60      -1.7255      2.00000
     61      -1.2166      2.00000
     62      -1.1508      2.00000
     63      -0.8857      2.08517
     64      -0.7329      0.13443
     65      -0.6373     -0.09665
     66      -0.2533      0.00000
     67       0.0870      0.00000
     68       0.7305      0.00000
     69       1.0905      0.00000
     70       1.3953      0.00000
     71       1.4355      0.00000
     72       1.9262      0.00000
     73       2.2321      0.00000
     74       2.2592      0.00000
     75       3.1689      0.00000
     76       3.4869      0.00000


--------------------------------------------------------------------------------------------------------


 soft charge-density along one line, spin component           1
         0         1         2         3         4         5         6         7         8         9
 total charge-density along one line
 
 pseudopotential strength for first ion, spin component:           1
 13.301  -0.446  -0.000   0.001  -0.000   0.000   0.000   0.000
 -0.446   0.103   0.000  -0.000   0.000  -0.000   0.000  -0.000
 -0.000   0.000  -9.829   0.000  -0.000   0.120  -0.000   0.000
  0.001  -0.000   0.000  -9.786   0.000  -0.000   0.114  -0.000
 -0.000   0.000  -0.000   0.000  -9.794   0.000  -0.000   0.115
  0.000  -0.000   0.120  -0.000   0.000   0.181   0.000  -0.000
  0.000   0.000  -0.000   0.114  -0.000   0.000   0.182   0.000
  0.000  -0.000   0.000  -0.000   0.115  -0.000   0.000   0.182
 total augmentation occupancy for first ion, spin component:           1
  1.866   0.127   0.000   0.018   0.000   0.000   0.002   0.000
  0.127   0.013   0.000  -0.005   0.000   0.000   0.001   0.000
  0.000   0.000   1.578   0.000   0.000   0.159   0.000   0.000
  0.018  -0.005   0.000   1.525   0.000   0.000   0.122   0.000
  0.000   0.000   0.000   0.000   1.512   0.000   0.000   0.130
  0.000   0.000   0.159   0.000   0.000   0.018   0.000   0.000
  0.002   0.001   0.000   0.122   0.000   0.000   0.011   0.000
  0.000   0.000   0.000   0.000   0.130   0.000   0.000   0.013


------------------------ aborting loop because EDIFF is reached ----------------------------------------


    CHARGE:  cpu time    0.5079: real time    0.5091
    FORLOC:  cpu time    0.0440: real time    0.0428
    FORNL :  cpu time    5.7151: real time    5.7141
    STRESS:  cpu time   12.8021: real time   12.8011
    FORCOR:  cpu time    0.2380: real time    0.2380
    FORHAR:  cpu time    0.0820: real time    0.0817
    MIXING:  cpu time    0.0350: real time    0.0352
    OFIELD:  cpu time    0.0000: real time    0.0000

  FORCE on cell =-STRESS in cart. coord.  units (eV):
  Direction    XX          YY          ZZ          XY          YZ          ZX
  --------------------------------------------------------------------------------------
  Alpha Z   378.09908   378.09908   378.09908
  Ewald   27809.53423 27749.52952-32827.80614    -0.00000    -0.00000    -0.00000
  Hartree 30087.76241 30015.75625-28820.77785    -0.00000    -0.00000    -0.00000
  E(xc)    -577.36611  -577.45943  -577.19419    -0.00000     0.00000     0.00000
  Local  -59553.03814-59432.50329 59981.07588    -0.00000    -0.00000     0.00000
  n-local  -475.52574  -477.48047  -478.40801     0.76938    -0.00001     0.00001
  augment   113.88557   115.36763   114.39467    -0.00000     0.00000     0.00000
  Kinetic  2220.13970  2237.30010  2232.49426    -1.33581    -0.00002    -0.00003
  Fock        0.00000     0.00000     0.00000     0.00000     0.00000     0.00000
  -------------------------------------------------------------------------------------
  Total       3.49100     8.60940     1.87771     0.00000     0.00000     0.00000
  in kB      11.96974    29.51936     6.43817     0.00000     0.00000     0.00000
  external pressure =       15.98 kB  Pullay stress =        0.00 kB


 VOLUME and BASIS-vectors are now :
 -----------------------------------------------------------------------------
  energy-cutoff  :      800.00
  volume of cell :      467.28
      direct lattice vectors                 reciprocal lattice vectors
     5.522882970  0.000000000  0.000000000     0.181064854  0.000000000  0.000000000
     0.000000000  3.905268000  0.000000000     0.000000000  0.256064373  0.000000000
     0.000000000  0.000000000 21.665045198     0.000000000  0.000000000  0.046157300

  length of vectors
     5.522882970  3.905268000 21.665045198     0.181064854  0.256064373  0.046157300


 FORCES acting on ions
    electron-ion (+dipol)            ewald-force                    non-local-force                 convergence-correction
 -----------------------------------------------------------------------------------------------
   0.120E-12 -.237E-13 0.128E+04   -.677E-14 0.936E-15 -.128E+04   0.000E+00 0.000E+00 -.184E+01   -.427E-12 -.130E-12 0.339E+00
   0.274E+00 0.400E-12 0.948E+03   -.132E+00 -.110E-13 -.946E+03   0.648E+00 0.347E-17 -.444E+01   -.778E-01 -.242E-12 0.259E+00
   -.274E+00 0.648E-12 0.948E+03   0.132E+00 -.115E-13 -.946E+03   -.648E+00 -.347E-17 -.444E+01   0.778E-01 -.333E-12 0.259E+00
   -.105E-13 0.346E-13 0.544E+03   -.628E-14 -.372E-14 -.542E+03   0.000E+00 0.000E+00 -.262E+01   -.174E-12 0.410E-12 0.905E-01
   0.198E+00 0.111E-11 0.149E+03   0.246E-13 -.106E-13 -.148E+03   0.381E+00 -.867E-18 -.267E+01   -.274E-01 -.122E-12 0.403E-01
   -.198E+00 0.320E-12 0.149E+03   -.125E-12 -.112E-13 -.148E+03   -.381E+00 0.867E-18 -.267E+01   0.274E-01 -.322E-12 0.403E-01
   0.138E-12 0.855E-13 -.245E+03   -.187E-14 -.940E-15 0.247E+03   0.000E+00 0.000E+00 -.198E+01   -.998E-14 0.679E-13 -.172E-01
   -.414E+00 0.761E-12 -.640E+03   0.132E+00 -.870E-15 0.641E+03   0.104E+01 0.000E+00 -.262E+01   0.431E-01 0.402E-12 -.718E-01
   0.414E+00 0.377E-12 -.640E+03   -.132E+00 0.195E-17 0.641E+03   -.104E+01 0.000E+00 -.262E+01   -.431E-01 0.192E-12 -.718E-01
   -.394E-14 -.298E-12 -.104E+04   -.158E-13 -.726E-14 0.105E+04   0.000E+00 0.000E+00 -.581E+01   -.127E-13 -.612E-12 -.359E-01
   0.205E+02 0.222E-12 -.134E+04   -.268E+02 0.747E-16 0.136E+04   0.656E+01 0.000E+00 -.167E+02   -.197E-01 0.376E-13 -.907E-01
   -.205E+02 0.640E-12 -.134E+04   0.268E+02 -.841E-15 0.136E+04   -.656E+01 0.000E+00 -.167E+02   0.197E-01 0.998E-14 -.907E-01
   0.187E-13 -.658E-13 0.213E+04   0.588E-13 0.130E-13 -.212E+04   0.000E+00 0.000E+00 -.232E+01   0.417E-12 -.206E-12 0.544E+00
   0.542E-13 0.135E-12 0.906E+03   0.105E-12 0.220E-13 -.904E+03   0.000E+00 0.000E+00 -.158E+01   -.481E-12 -.131E-12 0.178E+00
   0.665E-14 -.233E-12 -.409E+03   0.102E-12 0.196E-13 0.411E+03   0.000E+00 0.000E+00 -.135E+01   -.591E-12 0.698E-12 -.217E-01
   0.701E-13 0.553E-12 -.173E+04   -.674E-14 -.509E-14 0.174E+04   0.000E+00 0.000E+00 -.115E+01   -.367E-12 -.753E-14 -.813E-01
   -.918E-14 -.946E-13 0.900E+03   -.162E-13 0.219E-14 -.895E+03   0.000E+00 0.000E+00 -.261E+01   -.514E-13 0.715E-14 0.246E+00
   0.453E-14 -.921E-13 0.364E+03   -.108E-13 0.545E-15 -.362E+03   0.000E+00 0.000E+00 0.502E+00   0.218E-12 -.127E-12 0.280E-01
   -.116E-13 -.231E-13 -.163E+03   -.935E-14 0.336E-14 0.164E+03   0.000E+00 0.000E+00 0.727E+00   0.149E-12 -.725E-14 -.173E-01
   0.332E-14 0.116E-12 -.682E+03   -.243E-13 0.323E-14 0.685E+03   0.000E+00 0.000E+00 0.113E+01   -.198E-12 0.159E-12 -.270E-01
 -----------------------------------------------------------------------------------------------
   0.145E-11 0.457E-11 0.703E+02   -.390E-13 0.210E-14 -.182E-11   0.000E+00 0.000E+00 -.718E+02   -.670E-12 -.257E-12 0.150E+01
 
 
 POSITION                                       TOTAL-FORCE (eV/Angst)
 -----------------------------------------------------------------------------------
      2.76144      0.00000      6.00000         0.000000      0.000000     -1.525996
      1.38072      1.95263      7.38072         0.712290      0.000000     -2.086968
      4.14216      1.95263      7.38072        -0.712290      0.000000     -2.086968
      0.00000      0.00000      8.76144         0.000000      0.000000     -0.755003
      4.14216      1.95263     10.14216         0.551666      0.000000     -1.262272
      1.38072      1.95263     10.14216        -0.551666     -0.000000     -1.262272
      2.76144      0.00000     11.52288         0.000000      0.000000     -0.585078
      1.38072      1.95263     12.90360         0.798955      0.000000     -1.443630
      4.14216      1.95263     12.90360        -0.798955      0.000000     -1.443630
      0.00000      0.00000     14.28432         0.000000      0.000000     -1.121281
      4.14216      1.95263     15.66505         0.202711      0.000000     -1.003613
      1.38072      1.95263     15.66505        -0.202711      0.000000     -1.003613
      0.00000      0.00000      6.00000         0.000000      0.000000      0.990227
      2.76144      0.00000      8.76144         0.000000      0.000000      0.963466
      0.00000      0.00000     11.52288         0.000000      0.000000      0.742175
      2.76144      0.00000     14.28432         0.000000      0.000000      1.589985
      2.76144      1.95263      6.00000         0.000000      0.000000      2.311099
      0.00000      1.95263      8.76144         0.000000      0.000000      2.600091
      2.76144      1.95263     11.52288         0.000000      0.000000      2.333236
      0.00000      1.95263     14.28432         0.000000      0.000000      4.050048
 -----------------------------------------------------------------------------------
    total drift:                                0.000000      0.000000     -0.015134


--------------------------------------------------------------------------------------------------------



  FREE ENERGIE OF THE ION-ELECTRON SYSTEM (eV)
  ---------------------------------------------------
  free  energy   TOTEN  =      -148.78679775 eV

  energy  without entropy=     -148.78679775  energy(sigma->0) =     -148.78679775
 


--------------------------------------------------------------------------------------------------------


    POTLOK:  cpu time    0.2370: real time    0.2369


--------------------------------------------------------------------------------------------------------


     LOOP+:  cpu time  757.4119: real time  757.7824
    4ORBIT:  cpu time    0.0000: real time    0.0000
 BZINTS: Fermi energy: -0.759579;128.000000 electrons
         Band energy:***********;  BLOECHL correction: -0.020320

 total amount of memory used by VASP MPI-rank0   224128. kBytes
=======================================================================

   base      :      30000. kBytes
   nonl-proj :      66323. kBytes
   fftplans  :      13922. kBytes
   grid      :      24980. kBytes
   one-center:        155. kBytes
   wavefun   :      88748. kBytes
 
  
  
 General timing and accounting informations for this job:
 ========================================================
  
                  Total CPU time used (sec):      762.425
                            User time (sec):      748.476
                          System time (sec):       13.949
                         Elapsed time (sec):      763.031
  
                   Maximum memory used (kb):      248088.
                   Average memory used (kb):           0.
  
                          Minor page faults:       319729
                          Major page faults:          116
                 Voluntary context switches:         4469
