Starting job 28514177 ("jobname") on c14-12 at Wed Nov 6 14:14:09 CET 2019
 running on    4 total cores
 distrk:  each k-point on    4 cores,    1 groups
 distr:  one band on    2 cores,    2 groups
 using from now: INCAR     
 vasp.5.4.4.18Apr17-6-g9f103f2a35 (build Jun 30 2017 11:15:00) complex          
  
 POSCAR found type information on POSCAR  O  Sr Ti
 POSCAR found :  3 types and      20 ions
 scaLAPACK will be used

 ----------------------------------------------------------------------------- 
|                                                                             |
|  ADVICE TO THIS USER RUNNING 'VASP/VAMP'   (HEAR YOUR MASTER'S VOICE ...):  |
|                                                                             |
|      You have a (more or less) 'large supercell' and for larger cells       |
|      it might be more efficient to use real space projection operators      |
|      So try LREAL= Auto  in the INCAR   file.                               |
|      Mind: If you want to do a very accurate calculations keep the          |
|      reciprocal projection scheme          (i.e. LREAL=.FALSE.)             |
|                                                                             |
 ----------------------------------------------------------------------------- 

 WARNING: PSMAXN for non-local potential too small
 LDA part: xc-table for Pade appr. of Perdew
 POSCAR, INCAR and KPOINTS ok, starting setup
 FFT: planning ...
 WAVECAR not read
 entering main loop
       N       E                     dE             d eps       ncg     rms          rms(c)
DAV:   1     0.193193942536E+04    0.19319E+04   -0.69324E+04  1824   0.211E+03
DAV:   2     0.287782024385E+03   -0.16442E+04   -0.15717E+04  2168   0.455E+02
DAV:   3    -0.156433773273E+03   -0.44422E+03   -0.43185E+03  2444   0.220E+02
DAV:   4    -0.197109756231E+03   -0.40676E+02   -0.40530E+02  2464   0.715E+01
DAV:   5    -0.198760833561E+03   -0.16511E+01   -0.16501E+01  2880   0.158E+01    0.376E+01
RMM:   6    -0.205518551645E+03   -0.67577E+01   -0.39787E+02  2436   0.586E+01    0.519E+01
RMM:   7    -0.172330281443E+03    0.33188E+02   -0.97261E+01  2190   0.319E+01    0.230E+01
RMM:   8    -0.160791464398E+03    0.11539E+02   -0.25330E+01  2067   0.174E+01    0.157E+01
RMM:   9    -0.155999979112E+03    0.47915E+01   -0.21996E+00  2347   0.577E+00    0.129E+01
RMM:  10    -0.157481648065E+03   -0.14817E+01   -0.40644E+01  2187   0.168E+01    0.306E+01
RMM:  11    -0.155974915277E+03    0.15067E+01   -0.32781E+00  2810   0.379E+00    0.295E+01
RMM:  12    -0.158862069339E+03   -0.28872E+01   -0.17292E+00  2697   0.294E+00    0.334E+01
RMM:  13    -0.159545477310E+03   -0.68341E+00   -0.53919E-01  2797   0.134E+00    0.345E+01
RMM:  14    -0.155030365642E+03    0.45151E+01   -0.15960E+00  2139   0.334E+00    0.297E+01
RMM:  15    -0.151797450551E+03    0.32329E+01   -0.34176E+00  2228   0.488E+00    0.216E+01
RMM:  16    -0.150101619185E+03    0.16958E+01   -0.20845E+00  2342   0.369E+00    0.114E+01
RMM:  17    -0.150126233313E+03   -0.24614E-01   -0.20788E-01  2834   0.928E-01    0.118E+01
RMM:  18    -0.150881412220E+03   -0.75518E+00   -0.58435E-01  2060   0.211E+00    0.179E+01
RMM:  19    -0.149318693235E+03    0.15627E+01   -0.11435E+00  2063   0.282E+00    0.536E+00
RMM:  20    -0.149268960072E+03    0.49733E-01   -0.42164E-01  2084   0.200E+00    0.778E+00
RMM:  21    -0.149421783638E+03   -0.15282E+00   -0.25922E+00  2105   0.473E+00    0.792E+00
RMM:  22    -0.149140662615E+03    0.28112E+00   -0.27099E-01  2383   0.145E+00    0.542E+00
RMM:  23    -0.149113359978E+03    0.27303E-01   -0.33061E-02  2571   0.436E-01    0.520E+00
RMM:  24    -0.149043148300E+03    0.70212E-01   -0.27270E-02  2263   0.468E-01    0.449E+00
RMM:  25    -0.148937570970E+03    0.10558E+00   -0.97984E-02  2128   0.953E-01    0.383E+00
RMM:  26    -0.148841105386E+03    0.96466E-01   -0.15102E-01  2237   0.106E+00    0.204E+00
RMM:  27    -0.148841486192E+03   -0.38081E-03   -0.14131E-02  2592   0.324E-01    0.203E+00
RMM:  28    -0.148855851979E+03   -0.14366E-01   -0.14762E-02  2448   0.310E-01    0.234E+00
RMM:  29    -0.148836253482E+03    0.19598E-01   -0.78189E-03  2124   0.280E-01    0.210E+00
RMM:  30    -0.148807837177E+03    0.28416E-01   -0.49935E-02  2193   0.602E-01    0.150E+00
RMM:  31    -0.148795920325E+03    0.11917E-01   -0.19809E-02  2236   0.384E-01    0.105E+00
RMM:  32    -0.148797634058E+03   -0.17137E-02   -0.15530E-02  2272   0.318E-01    0.154E+00
RMM:  33    -0.148798162918E+03   -0.52886E-03   -0.24515E-02  2131   0.430E-01    0.102E+00
RMM:  34    -0.148795639246E+03    0.25237E-02   -0.38538E-03  2716   0.132E-01    0.854E-01
RMM:  35    -0.148794578100E+03    0.10611E-02   -0.63426E-04  2298   0.720E-02    0.801E-01
RMM:  36    -0.148793847019E+03    0.73108E-03   -0.17734E-03  2133   0.124E-01    0.106E+00
RMM:  37    -0.148793334594E+03    0.51243E-03   -0.26970E-04  2063   0.527E-02    0.802E-01
RMM:  38    -0.148791568115E+03    0.17665E-02   -0.14071E-03  2082   0.999E-02    0.638E-01
RMM:  39    -0.148789823878E+03    0.17442E-02   -0.13310E-03  2124   0.107E-01    0.520E-01
RMM:  40    -0.148788011005E+03    0.18129E-02   -0.24215E-03  2212   0.135E-01    0.394E-01
RMM:  41    -0.148787666248E+03    0.34476E-03   -0.30530E-03  2204   0.149E-01    0.394E-01
RMM:  42    -0.148786759264E+03    0.90698E-03   -0.60474E-03  2187   0.223E-01    0.210E-01
RMM:  43    -0.148786817764E+03   -0.58499E-04   -0.16218E-03  2342   0.110E-01    0.174E-01
RMM:  44    -0.148787690122E+03   -0.87236E-03   -0.14666E-03  2267   0.976E-02    0.277E-01
RMM:  45    -0.148787712027E+03   -0.21905E-04   -0.28935E-04  2151   0.401E-02    0.276E-01
RMM:  46    -0.148787367958E+03    0.34407E-03   -0.10217E-04  1781   0.257E-02    0.211E-01
RMM:  47    -0.148786924737E+03    0.44322E-03   -0.36660E-04  1941   0.565E-02    0.155E-01
RMM:  48    -0.148786806153E+03    0.11858E-03   -0.57308E-05  1578   0.237E-02    0.133E-01
RMM:  49    -0.148786797753E+03    0.84000E-05   -0.12553E-05  1195   0.118E-02
   1 F= -.14878680E+03 E0= -.14878680E+03  d E =0.000000E+00

Currently Loaded Modulefiles:
  1) intel/2017.4         2) perf-reports/7.0.6

Job script resource usage:
       JobID  MaxVMSize     MaxRSS 
------------ ---------- ---------- 
28514177.ba+    499232K      5845K 

Job step resource usage:
       JobID    JobName  AllocCPUS  MaxVMSize     MaxRSS    Elapsed ExitCode 
------------ ---------- ---------- ---------- ---------- ---------- -------- 
28514177        jobname          4                         00:12:47      0:0 
28514177.0    pmi_proxy          1   2171232K    923964K   00:12:44      0:0 

Job 28514177 ("jobname") completed on c14-12 at Wed Nov 6 14:26:54 CET 2019
