<?xml version="1.0" encoding="ISO-8859-1"?>
<modeling>
 <generator>
  <i name="program" type="string">vasp </i>
  <i name="version" type="string">5.4.4.18Apr17-6-g9f103f2a35  </i>
  <i name="subversion" type="string">(build Jun 30 2017 11:15:00) complex            parallel </i>
  <i name="platform" type="string">STALLO_VASP_5.4.4 </i>
  <i name="date" type="string">2019 11 06 </i>
  <i name="time" type="string">14:14:11 </i>
 </generator>
 <incar>
  <i type="string" name="PREC">normal    ! low/normal/accurate</i>
  <i type="string" name="ALGO"> Fast      ! Algorithm for electronic re</i>
  <i type="int" name="ISPIN">     1</i>
  <i type="int" name="NELMIN">     4</i>
  <i name="EDIFF">      0.00001000</i>
  <i type="int" name="NSW">     0</i>
  <i name="ENCUT">    800.00000000</i>
  <i type="logical" name="LREAL"> F  </i>
  <i type="int" name="ISMEAR">    -5</i>
  <i name="SIGMA">      0.20000000</i>
  <i type="logical" name="LWAVE"> F  </i>
  <v type="int" name="KPOINT_BSE">    -1     0     0     0</v>
 </incar>
 <structure name="primitive_cell" >
  <crystal>
   <varray name="basis" >
    <v>       5.52288297       0.00000000       0.00000000 </v>
    <v>       0.00000000       3.90526800       0.00000000 </v>
    <v>       0.00000000       0.00000000      21.66504520 </v>
   </varray>
   <i name="volume">    467.27902047 </i>
   <varray name="rec_basis" >
    <v>       0.18106485       0.00000000       0.00000000 </v>
    <v>       0.00000000       0.25606437       0.00000000 </v>
    <v>       0.00000000       0.00000000       0.04615730 </v>
   </varray>
  </crystal>
  <varray name="positions" >
   <v>      -0.50000000       0.00000000       0.27694380 </v>
   <v>      -0.50000000      -0.50000000       0.27694380 </v>
   <v>      -0.50000000       0.00000000       0.40440449 </v>
   <v>       0.25000000      -0.50000000       0.34067414 </v>
   <v>      -0.25000000      -0.50000000       0.34067414 </v>
   <v>       0.00000000       0.00000000       0.27694380 </v>
   <v>       0.00000000       0.00000000       0.40440449 </v>
   <v>       0.00000000      -0.50000000       0.40440449 </v>
   <v>      -0.25000000      -0.50000000       0.46813483 </v>
   <v>       0.25000000      -0.50000000       0.46813483 </v>
   <v>      -0.50000000       0.00000000      -0.46813483 </v>
   <v>      -0.50000000      -0.50000000      -0.46813483 </v>
   <v>       0.00000000       0.00000000      -0.46813483 </v>
   <v>       0.25000000      -0.50000000      -0.40440449 </v>
   <v>      -0.25000000      -0.50000000      -0.40440449 </v>
   <v>      -0.50000000       0.00000000      -0.34067414 </v>
   <v>       0.00000000       0.00000000      -0.34067414 </v>
   <v>       0.00000000      -0.50000000      -0.34067414 </v>
   <v>      -0.25000000      -0.50000000      -0.27694380 </v>
   <v>       0.25000000      -0.50000000      -0.27694380 </v>
  </varray>
 </structure>
 <varray name="primitive_index" >
  <v type="int" >        1 </v>
  <v type="int" >       17 </v>
  <v type="int" >       14 </v>
  <v type="int" >        2 </v>
  <v type="int" >        3 </v>
  <v type="int" >       13 </v>
  <v type="int" >        4 </v>
  <v type="int" >       18 </v>
  <v type="int" >        5 </v>
  <v type="int" >        6 </v>
  <v type="int" >        7 </v>
  <v type="int" >       19 </v>
  <v type="int" >       15 </v>
  <v type="int" >        8 </v>
  <v type="int" >        9 </v>
  <v type="int" >       16 </v>
  <v type="int" >       10 </v>
  <v type="int" >       20 </v>
  <v type="int" >       11 </v>
  <v type="int" >       12 </v>
 </varray>
 <kpoints>
  <generation param="Gamma">
   <v type="int" name="divisions">       5        7        1 </v>
   <v name="usershift">      0.00000000       0.00000000       0.00000000 </v>
   <v name="genvec1">      0.20000000       0.00000000       0.00000000 </v>
   <v name="genvec2">      0.00000000       0.14285714       0.00000000 </v>
   <v name="genvec3">      0.00000000       0.00000000       1.00000000 </v>
   <v name="shift">      0.00000000       0.00000000       0.00000000 </v>
  </generation>
  <varray name="kpointlist" >
   <v>       0.00000000       0.00000000       0.00000000 </v>
   <v>       0.20000000       0.00000000       0.00000000 </v>
   <v>       0.40000000       0.00000000       0.00000000 </v>
   <v>       0.00000000       0.14285714       0.00000000 </v>
   <v>       0.20000000       0.14285714       0.00000000 </v>
   <v>       0.40000000       0.14285714       0.00000000 </v>
   <v>       0.00000000       0.28571429       0.00000000 </v>
   <v>       0.20000000       0.28571429       0.00000000 </v>
   <v>       0.40000000       0.28571429       0.00000000 </v>
   <v>       0.00000000       0.42857143       0.00000000 </v>
   <v>       0.20000000       0.42857143       0.00000000 </v>
   <v>       0.40000000       0.42857143       0.00000000 </v>
  </varray>
  <varray name="weights" >
   <v>       0.02857143 </v>
   <v>       0.05714286 </v>
   <v>       0.05714286 </v>
   <v>       0.05714286 </v>
   <v>       0.11428571 </v>
   <v>       0.11428571 </v>
   <v>       0.05714286 </v>
   <v>       0.11428571 </v>
   <v>       0.11428571 </v>
   <v>       0.05714286 </v>
   <v>       0.11428571 </v>
   <v>       0.11428571 </v>
  </varray>
  <varray name="tetrahedronlist"  type="int" >
   <v type="int" >        2        1        1        2        5 </v>
   <v type="int" >        2        1        1        4        5 </v>
   <v type="int" >        2        1        4        4        5 </v>
   <v type="int" >        2        1        2        2        5 </v>
   <v type="int" >        2        1        2        5        5 </v>
   <v type="int" >        2        1        4        5        5 </v>
   <v type="int" >        2        2        2        3        6 </v>
   <v type="int" >        2        2        2        5        6 </v>
   <v type="int" >        2        2        5        5        6 </v>
   <v type="int" >        2        2        3        3        6 </v>
   <v type="int" >        2        2        3        6        6 </v>
   <v type="int" >        2        2        5        6        6 </v>
   <v type="int" >        4        3        3        3        6 </v>
   <v type="int" >        4        3        3        6        6 </v>
   <v type="int" >        4        3        6        6        6 </v>
   <v type="int" >        2        2        3        3        5 </v>
   <v type="int" >        2        3        3        5        6 </v>
   <v type="int" >        2        3        5        6        6 </v>
   <v type="int" >        2        2        2        3        5 </v>
   <v type="int" >        2        2        3        5        5 </v>
   <v type="int" >        2        3        5        5        6 </v>
   <v type="int" >        2        1        2        2        4 </v>
   <v type="int" >        2        2        2        4        5 </v>
   <v type="int" >        2        2        4        5        5 </v>
   <v type="int" >        2        1        1        2        4 </v>
   <v type="int" >        2        1        2        4        4 </v>
   <v type="int" >        2        2        4        4        5 </v>
   <v type="int" >        2        4        4        5        8 </v>
   <v type="int" >        2        4        4        7        8 </v>
   <v type="int" >        2        4        7        7        8 </v>
   <v type="int" >        2        4        5        5        8 </v>
   <v type="int" >        2        4        5        8        8 </v>
   <v type="int" >        2        4        7        8        8 </v>
   <v type="int" >        2        5        5        6        9 </v>
   <v type="int" >        2        5        5        8        9 </v>
   <v type="int" >        2        5        8        8        9 </v>
   <v type="int" >        2        5        6        6        9 </v>
   <v type="int" >        2        5        6        9        9 </v>
   <v type="int" >        2        5        8        9        9 </v>
   <v type="int" >        4        6        6        6        9 </v>
   <v type="int" >        4        6        6        9        9 </v>
   <v type="int" >        4        6        9        9        9 </v>
   <v type="int" >        2        5        6        6        8 </v>
   <v type="int" >        2        6        6        8        9 </v>
   <v type="int" >        2        6        8        9        9 </v>
   <v type="int" >        2        5        5        6        8 </v>
   <v type="int" >        2        5        6        8        8 </v>
   <v type="int" >        2        6        8        8        9 </v>
   <v type="int" >        2        4        5        5        7 </v>
   <v type="int" >        2        5        5        7        8 </v>
   <v type="int" >        2        5        7        8        8 </v>
   <v type="int" >        2        4        4        5        7 </v>
   <v type="int" >        2        4        5        7        7 </v>
   <v type="int" >        2        5        7        7        8 </v>
   <v type="int" >        2        7        7        8       11 </v>
   <v type="int" >        2        7        7       10       11 </v>
   <v type="int" >        2        7       10       10       11 </v>
   <v type="int" >        2        7        8        8       11 </v>
   <v type="int" >        2        7        8       11       11 </v>
   <v type="int" >        2        7       10       11       11 </v>
   <v type="int" >        2        8        8        9       12 </v>
   <v type="int" >        2        8        8       11       12 </v>
   <v type="int" >        2        8       11       11       12 </v>
   <v type="int" >        2        8        9        9       12 </v>
   <v type="int" >        2        8        9       12       12 </v>
   <v type="int" >        2        8       11       12       12 </v>
   <v type="int" >        4        9        9        9       12 </v>
   <v type="int" >        4        9        9       12       12 </v>
   <v type="int" >        4        9       12       12       12 </v>
   <v type="int" >        2        8        9        9       11 </v>
   <v type="int" >        2        9        9       11       12 </v>
   <v type="int" >        2        9       11       12       12 </v>
   <v type="int" >        2        8        8        9       11 </v>
   <v type="int" >        2        8        9       11       11 </v>
   <v type="int" >        2        9       11       11       12 </v>
   <v type="int" >        2        7        8        8       10 </v>
   <v type="int" >        2        8        8       10       11 </v>
   <v type="int" >        2        8       10       11       11 </v>
   <v type="int" >        2        7        7        8       10 </v>
   <v type="int" >        2        7        8       10       10 </v>
   <v type="int" >        2        8       10       10       11 </v>
   <v type="int" >        4       10       10       11       11 </v>
   <v type="int" >        4       10       10       10       11 </v>
   <v type="int" >        4       10       11       11       11 </v>
   <v type="int" >        4       11       11       12       12 </v>
   <v type="int" >        4       11       11       11       12 </v>
   <v type="int" >        4       11       12       12       12 </v>
   <v type="int" >        6       12       12       12       12 </v>
  </varray>
  <i name="volumeweight">      0.00476190 </i>
 </kpoints>
 <parameters>
  <separator name="general" >
   <i type="string" name="SYSTEM">unknown system</i>
   <i type="logical" name="LCOMPAT"> F  </i>
  </separator>
  <separator name="electronic" >
   <i type="string" name="PREC">normal</i>
   <i name="ENMAX">    800.00000000</i>
   <i name="ENAUG">    605.39200000</i>
   <i name="EDIFF">      0.00001000</i>
   <i type="int" name="IALGO">    68</i>
   <i type="int" name="IWAVPR">    10</i>
   <i type="int" name="NBANDS">    76</i>
   <i name="NELECT">    128.00000000</i>
   <i type="int" name="TURBO">     0</i>
   <i type="int" name="IRESTART">     0</i>
   <i type="int" name="NREBOOT">     0</i>
   <i type="int" name="NMIN">     0</i>
   <i name="EREF">      0.00000000</i>
   <separator name="electronic smearing" >
    <i type="int" name="ISMEAR">    -5</i>
    <i name="SIGMA">      0.20000000</i>
    <i name="KSPACING">      0.50000000</i>
    <i type="logical" name="KGAMMA"> T  </i>
   </separator>
   <separator name="electronic projectors" >
    <i type="logical" name="LREAL"> F  </i>
    <v name="ROPT">      0.00000000      0.00000000      0.00000000</v>
    <i type="int" name="LMAXPAW">  -100</i>
    <i type="int" name="LMAXMIX">     2</i>
    <i type="logical" name="NLSPLINE"> F  </i>
   </separator>
   <separator name="electronic startup" >
    <i type="int" name="ISTART">     0</i>
    <i type="int" name="ICHARG">     2</i>
    <i type="int" name="INIWAV">     1</i>
   </separator>
   <separator name="electronic spin" >
    <i type="int" name="ISPIN">     1</i>
    <i type="logical" name="LNONCOLLINEAR"> F  </i>
    <v name="MAGMOM">      1.00000000      1.00000000      1.00000000      1.00000000      1.00000000      1.00000000      1.00000000      1.00000000      1.00000000      1.00000000      1.00000000      1.00000000      1.00000000      1.00000000      1.00000000      1.00000000      1.00000000      1.00000000      1.00000000      1.00000000
</v>
    <i name="NUPDOWN">     -1.00000000</i>
    <i type="logical" name="LSORBIT"> F  </i>
    <v name="SAXIS">      0.00000000      0.00000000      1.00000000</v>
    <i type="logical" name="LSPIRAL"> F  </i>
    <v name="QSPIRAL">      0.00000000      0.00000000      0.00000000</v>
    <i type="logical" name="LZEROZ"> F  </i>
   </separator>
   <separator name="electronic exchange-correlation" >
    <i type="logical" name="LASPH"> F  </i>
    <i type="logical" name="LMETAGGA"> F  </i>
   </separator>
   <separator name="electronic convergence" >
    <i type="int" name="NELM">    60</i>
    <i type="int" name="NELMDL">    -5</i>
    <i type="int" name="NELMIN">     4</i>
    <i name="ENINI">    800.00000000</i>
    <separator name="electronic convergence detail" >
     <i type="logical" name="LDIAG"> T  </i>
     <i type="logical" name="LSUBROT"> F  </i>
     <i name="WEIMIN">      0.00000000</i>
     <i name="EBREAK">      0.00000003</i>
     <i name="DEPER">      0.30000000</i>
     <i type="int" name="NRMM">     4</i>
     <i name="TIME">      0.40000000</i>
    </separator>
   </separator>
   <separator name="electronic mixer" >
    <i name="AMIX">      0.40000000</i>
    <i name="BMIX">      1.00000000</i>
    <i name="AMIN">      0.10000000</i>
    <i name="AMIX_MAG">      1.60000000</i>
    <i name="BMIX_MAG">      1.00000000</i>
    <separator name="electronic mixer details" >
     <i type="int" name="IMIX">     4</i>
     <i type="logical" name="MIXFIRST"> F  </i>
     <i type="int" name="MAXMIX">   -45</i>
     <i name="WC">    100.00000000</i>
     <i type="int" name="INIMIX">     1</i>
     <i type="int" name="MIXPRE">     1</i>
     <i type="int" name="MREMOVE">     5</i>
    </separator>
   </separator>
   <separator name="electronic dipolcorrection" >
    <i type="logical" name="LDIPOL"> F  </i>
    <i type="logical" name="LMONO"> F  </i>
    <i type="int" name="IDIPOL">     0</i>
    <i name="EPSILON">      1.00000000</i>
    <v name="DIPOL">   -100.00000000   -100.00000000   -100.00000000</v>
    <i name="EFIELD">      0.00000000</i>
   </separator>
  </separator>
  <separator name="grids" >
   <i type="int" name="NGX">    40</i>
   <i type="int" name="NGY">    28</i>
   <i type="int" name="NGZ">   150</i>
   <i type="int" name="NGXF">    80</i>
   <i type="int" name="NGYF">    56</i>
   <i type="int" name="NGZF">   300</i>
   <i type="logical" name="ADDGRID"> F  </i>
  </separator>
  <separator name="ionic" >
   <i type="int" name="NSW">     0</i>
   <i type="int" name="IBRION">    -1</i>
   <i type="int" name="MDALGO">     0</i>
   <i type="int" name="ISIF">     2</i>
   <i name="PSTRESS">      0.00000000</i>
   <i name="EDIFFG">      0.00010000</i>
   <i type="int" name="NFREE">     0</i>
   <i name="POTIM">      0.50000000</i>
   <i name="SMASS">     -3.00000000</i>
   <i name="SCALEE">      1.00000000</i>
  </separator>
  <separator name="ionic md" >
   <i name="TEBEG">      0.00010000</i>
   <i name="TEEND">      0.00010000</i>
   <i type="int" name="NBLOCK">     1</i>
   <i type="int" name="KBLOCK">     1</i>
   <i type="int" name="NPACO">   256</i>
   <i name="APACO">     16.00000000</i>
  </separator>
  <separator name="symmetry" >
   <i type="int" name="ISYM">     2</i>
   <i name="SYMPREC">      0.00001000</i>
  </separator>
  <separator name="dos" >
   <i type="int" name="LORBIT">     0</i>
   <v name="RWIGS">     -1.00000000     -1.00000000     -1.00000000</v>
   <i type="int" name="NEDOS">   301</i>
   <i name="EMIN">     10.00000000</i>
   <i name="EMAX">    -10.00000000</i>
   <i name="EFERMI">      0.00000000</i>
  </separator>
  <separator name="writing" >
   <i type="int" name="NWRITE">     2</i>
   <i type="logical" name="LWAVE"> F  </i>
   <i type="logical" name="LDOWNSAMPLE"> F  </i>
   <i type="logical" name="LCHARG"> T  </i>
   <i type="logical" name="LPARD"> F  </i>
   <i type="logical" name="LVTOT"> F  </i>
   <i type="logical" name="LVHAR"> F  </i>
   <i type="logical" name="LELF"> F  </i>
   <i type="logical" name="LOPTICS"> F  </i>
   <v name="STM">      0.00000000      0.00000000      0.00000000      0.00000000      0.00000000      0.00000000      0.00000000</v>
  </separator>
  <separator name="performance" >
   <i type="int" name="NPAR">     2</i>
   <i type="int" name="NSIM">     4</i>
   <i type="int" name="NBLK">    -1</i>
   <i type="logical" name="LPLANE"> T  </i>
   <i type="logical" name="LSCALAPACK"> T  </i>
   <i type="logical" name="LSCAAWARE"> F  </i>
   <i type="logical" name="LSCALU"> F  </i>
   <i type="logical" name="LASYNC"> F  </i>
   <i type="logical" name="LORBITALREAL"> F  </i>
  </separator>
  <separator name="miscellaneous" >
   <i type="int" name="IDIOT">     3</i>
   <i type="int" name="ISPECIAL">     0</i>
   <i type="logical" name="LMUSIC"> F  </i>
   <v name="POMASS">     16.00000000     87.62000000     47.88000000</v>
   <v name="DARWINR">      0.00000000      0.00000000      0.00000000</v>
   <v name="DARWINV">      1.00000000      1.00000000      1.00000000</v>
   <i type="logical" name="LCORR"> T  </i>
  </separator>
  <i type="logical" name="GGA_COMPAT"> T  </i>
  <i type="logical" name="LBERRY"> F  </i>
  <i type="int" name="ICORELEVEL">     0</i>
  <i type="logical" name="LDAU"> F  </i>
  <i type="int" name="I_CONSTRAINED_M">     0</i>
  <separator name="electronic exchange-correlation" >
   <i type="string" name="GGA">--</i>
   <i type="int" name="VOSKOWN">     0</i>
   <i type="logical" name="LHFCALC"> F  </i>
   <i type="string" name="PRECFOCK"></i>
   <i type="logical" name="LSYMGRAD"> F  </i>
   <i type="logical" name="LHFONE"> F  </i>
   <i type="logical" name="LRHFCALC"> F  </i>
   <i type="logical" name="LTHOMAS"> F  </i>
   <i type="logical" name="LMODELHF"> F  </i>
   <i name="ENCUT4O">     -1.00000000</i>
   <i type="int" name="EXXOEP">     0</i>
   <i type="int" name="FOURORBIT">     0</i>
   <i name="AEXX">      0.00000000</i>
   <i name="HFALPHA">      0.00000000</i>
   <i name="MCALPHA">      0.00000000</i>
   <i name="ALDAX">      1.00000000</i>
   <i name="AGGAX">      1.00000000</i>
   <i name="ALDAC">      1.00000000</i>
   <i name="AGGAC">      1.00000000</i>
   <i type="int" name="NKREDX">     1</i>
   <i type="int" name="NKREDY">     1</i>
   <i type="int" name="NKREDZ">     1</i>
   <i type="logical" name="SHIFTRED"> F  </i>
   <i type="logical" name="ODDONLY"> F  </i>
   <i type="logical" name="EVENONLY"> F  </i>
   <i type="int" name="LMAXFOCK">     0</i>
   <i type="int" name="NMAXFOCKAE">     0</i>
   <i type="logical" name="LFOCKAEDFT"> F  </i>
   <i name="HFSCREEN">      0.00000000</i>
   <i name="HFSCREENC">      0.00000000</i>
   <i type="int" name="NBANDSGWLOW">     0</i>
  </separator>
  <separator name="vdW DFT" >
   <i type="logical" name="LUSE_VDW"> F  </i>
   <i name="Zab_VDW">     -0.84910000</i>
   <i name="PARAM1">      0.12340000</i>
   <i name="PARAM2">      1.00000000</i>
   <i name="PARAM3">      0.00000000</i>
  </separator>
  <separator name="model GW" >
   <i type="int" name="MODEL_GW">     0</i>
   <i name="MODEL_EPS0">     14.01837061</i>
   <i name="MODEL_ALPHA">      1.00000000</i>
  </separator>
  <separator name="linear response parameters" >
   <i type="logical" name="LEPSILON"> F  </i>
   <i type="logical" name="LRPA"> F  </i>
   <i type="logical" name="LNABLA"> F  </i>
   <i type="logical" name="LVEL"> F  </i>
   <i type="int" name="KINTER">     0</i>
   <i name="CSHIFT">      0.10000000</i>
   <i name="OMEGAMAX">     -1.00000000</i>
   <i name="DEG_THRESHOLD">      0.00200000</i>
   <i name="RTIME">     -0.10000000</i>
   <i name="WPLASMAI">      0.00000000</i>
   <v name="DFIELD">      0.00000000      0.00000000      0.00000000</v>
   <v name="WPLASMA">      0.00000000      0.00000000      0.00000000      0.00000000      0.00000000      0.00000000      0.00000000      0.00000000      0.00000000</v>
  </separator>
  <separator name="orbital magnetization" >
   <i type="logical" name="NUCIND"> F  </i>
   <v name="MAGPOS">      0.00000000      0.00000000      0.00000000</v>
   <i type="logical" name="LNICSALL"> T  </i>
   <i type="logical" name="ORBITALMAG"> F  </i>
   <i type="logical" name="LMAGBLOCH"> F  </i>
   <i type="logical" name="LCHIMAG"> F  </i>
   <i type="logical" name="LGAUGE"> T  </i>
   <i type="int" name="MAGATOM">     0</i>
   <v name="MAGDIPOL">      0.00000000      0.00000000      0.00000000</v>
   <v name="AVECCONST">      0.00000000      0.00000000      0.00000000</v>
  </separator>
  <separator name="response functions" >
   <i type="logical" name="LADDER"> F  </i>
   <i type="logical" name="LRPAFORCE"> F  </i>
   <i type="logical" name="LFXC"> F  </i>
   <i type="logical" name="LHARTREE"> T  </i>
   <i type="int" name="IBSE">     0</i>
   <v type="int" name="KPOINT">    -1     0     0     0</v>
   <i type="logical" name="LTCTE"> F  </i>
   <i type="logical" name="LTETE"> F  </i>
   <i type="logical" name="LTRIPLET"> F  </i>
   <i type="logical" name="LFXCEPS"> F  </i>
   <i type="logical" name="LFXHEG"> F  </i>
   <i type="int" name="NATURALO">     2</i>
   <i type="logical" name="L2ORDER"> F  </i>
   <i type="logical" name="LMP2LT"> F  </i>
   <i type="logical" name="LUSEW"> F  </i>
   <i name="ENCUTGW">     -2.00000000</i>
   <i name="ENCUTGWSOFT">     -2.00000000</i>
   <i name="ENCUTLF">     -1.00000000</i>
   <i type="int" name="LMAXMP2">    -1</i>
   <i name="SCISSOR">      0.00000000</i>
   <i type="int" name="NOMEGA">     0</i>
   <i type="int" name="NOMEGAR">     0</i>
   <i type="int" name="NBANDSGW">    -1</i>
   <i type="int" name="NBANDSO">    -1</i>
   <i type="int" name="NBANDSV">    -1</i>
   <i type="int" name="NELM">     1</i>
   <i type="int" name="NELMHF">     1</i>
   <i type="int" name="DIM">     3</i>
   <i type="int" name="ANTIRES">     0</i>
   <i name="OMEGAMAX">    -30.00000000</i>
   <i name="OMEGAMIN">    -30.00000000</i>
   <i name="OMEGATL">   -200.00000000</i>
   <i type="int" name="OMEGAGRID">   140</i>
   <i name="CSHIFT">     -0.10000000</i>
   <i type="logical" name="SELFENERGY"> F  </i>
   <i type="logical" name="LSPECTRAL"> F  </i>
   <i type="logical" name="LSPECTRALGW"> F  </i>
   <i type="logical" name="LSINGLES"> F  </i>
   <i type="logical" name="LFERMIGW"> F  </i>
   <i type="logical" name="ODDONLYGW"> F  </i>
   <i type="logical" name="EVENONLYGW"> F  </i>
   <i type="int" name="NKREDLFX">     1</i>
   <i type="int" name="NKREDLFY">     1</i>
   <i type="int" name="NKREDLFZ">     1</i>
   <i type="int" name="MAXMEM">  2800</i>
   <i type="int" name="TELESCOPE">     0</i>
   <i type="int" name="TAUPAR">     1</i>
   <i type="int" name="OMEGAPAR">    -1</i>
   <i name="LAMBDA">      1.00000000</i>
  </separator>
  <separator name="External order field" >
   <i name="OFIELD_KAPPA">      0.00000000</i>
   <v name="OFIELD_K">      0.00000000      0.00000000      0.00000000</v>
   <i name="OFIELD_Q6_NEAR">      0.00000000</i>
   <i name="OFIELD_Q6_FAR">      0.00000000</i>
   <i name="OFIELD_A">      0.00000000</i>
  </separator>
 </parameters>
 <atominfo>
  <atoms>      20 </atoms>
  <types>       3 </types>
  <array name="atoms" >
   <dimension dim="1">ion</dimension>
   <field type="string">element</field>
   <field type="int">atomtype</field>
   <set>
    <rc><c>O </c><c>   1</c></rc>
    <rc><c>O </c><c>   1</c></rc>
    <rc><c>O </c><c>   1</c></rc>
    <rc><c>O </c><c>   1</c></rc>
    <rc><c>O </c><c>   1</c></rc>
    <rc><c>O </c><c>   1</c></rc>
    <rc><c>O </c><c>   1</c></rc>
    <rc><c>O </c><c>   1</c></rc>
    <rc><c>O </c><c>   1</c></rc>
    <rc><c>O </c><c>   1</c></rc>
    <rc><c>O </c><c>   1</c></rc>
    <rc><c>O </c><c>   1</c></rc>
    <rc><c>Sr</c><c>   2</c></rc>
    <rc><c>Sr</c><c>   2</c></rc>
    <rc><c>Sr</c><c>   2</c></rc>
    <rc><c>Sr</c><c>   2</c></rc>
    <rc><c>Ti</c><c>   3</c></rc>
    <rc><c>Ti</c><c>   3</c></rc>
    <rc><c>Ti</c><c>   3</c></rc>
    <rc><c>Ti</c><c>   3</c></rc>
   </set>
  </array>
  <array name="atomtypes" >
   <dimension dim="1">type</dimension>
   <field type="int">atomspertype</field>
   <field type="string">element</field>
   <field>mass</field>
   <field>valence</field>
   <field type="string">pseudopotential</field>
   <set>
    <rc><c>  12</c><c>O </c><c>     16.00000000</c><c>      6.00000000</c><c> PAW_PBE O 08Apr2002                    </c></rc>
    <rc><c>   4</c><c>Sr</c><c>     87.62000000</c><c>     10.00000000</c><c> PAW_PBE Sr_sv 07Sep2000                </c></rc>
    <rc><c>   4</c><c>Ti</c><c>     47.88000000</c><c>      4.00000000</c><c> PAW_PBE Ti 08Apr2002                   </c></rc>
   </set>
  </array>
 </atominfo>
 <structure name="initialpos" >
  <crystal>
   <varray name="basis" >
    <v>       5.52288297       0.00000000       0.00000000 </v>
    <v>       0.00000000       3.90526800       0.00000000 </v>
    <v>       0.00000000       0.00000000      21.66504520 </v>
   </varray>
   <i name="volume">    467.27902047 </i>
   <varray name="rec_basis" >
    <v>       0.18106485       0.00000000       0.00000000 </v>
    <v>       0.00000000       0.25606437       0.00000000 </v>
    <v>       0.00000000       0.00000000       0.04615730 </v>
   </varray>
  </crystal>
  <varray name="positions" >
   <v>       0.50000000       0.00000000       0.27694380 </v>
   <v>       0.25000000       0.50000000       0.34067414 </v>
   <v>       0.75000000       0.50000000       0.34067414 </v>
   <v>       0.00000000       0.00000000       0.40440449 </v>
   <v>       0.75000000       0.50000000       0.46813483 </v>
   <v>       0.25000000       0.50000000       0.46813483 </v>
   <v>       0.50000000       0.00000000       0.53186517 </v>
   <v>       0.25000000       0.50000000       0.59559551 </v>
   <v>       0.75000000       0.50000000       0.59559551 </v>
   <v>       0.00000000       0.00000000       0.65932586 </v>
   <v>       0.75000000       0.50000000       0.72305620 </v>
   <v>       0.25000000       0.50000000       0.72305620 </v>
   <v>       0.00000000       0.00000000       0.27694380 </v>
   <v>       0.50000000       0.00000000       0.40440449 </v>
   <v>       0.00000000       0.00000000       0.53186517 </v>
   <v>       0.50000000       0.00000000       0.65932586 </v>
   <v>       0.50000000       0.50000000       0.27694380 </v>
   <v>       0.00000000       0.50000000       0.40440449 </v>
   <v>       0.50000000       0.50000000       0.53186517 </v>
   <v>       0.00000000       0.50000000       0.65932586 </v>
  </varray>
 </structure>
 <calculation>
  <scstep>
   <time name="dav">   13.87   13.87</time>
   <time name="total">   14.12   14.15</time>
   <energy>
    <i name="alphaZ">    378.09908315 </i>
    <i name="ewald">  22731.27163923 </i>
    <i name="hartreedc"> -30966.93774878 </i>
    <i name="XCdc">    325.41602223 </i>
    <i name="pawpsdc">   5334.45189010 </i>
    <i name="pawaedc">  -5139.13784255 </i>
    <i name="eentropy">      0.00000000 </i>
    <i name="bandstr">    331.28495342 </i>
    <i name="atom">   8937.49142856 </i>
    <i name="e_fr_energy">   1931.93942536 </i>
    <i name="e_wo_entrp">   1931.93942536 </i>
    <i name="e_0_energy">   1931.93942536 </i>
   </energy>
  </scstep>
  <scstep>
   <time name="dav">   15.87   15.87</time>
   <time name="total">   15.88   15.88</time>
   <energy>
    <i name="e_fr_energy">    287.78202439 </i>
    <i name="e_wo_entrp">    287.78202439 </i>
    <i name="e_0_energy">    287.78202439 </i>
   </energy>
  </scstep>
  <scstep>
   <time name="dav">   17.43   17.43</time>
   <time name="total">   17.43   17.43</time>
   <energy>
    <i name="e_fr_energy">   -156.43377327 </i>
    <i name="e_wo_entrp">   -156.43377327 </i>
    <i name="e_0_energy">   -156.43377327 </i>
   </energy>
  </scstep>
  <scstep>
   <time name="dav">   17.56   17.57</time>
   <time name="total">   17.57   17.57</time>
   <energy>
    <i name="e_fr_energy">   -197.10975623 </i>
    <i name="e_wo_entrp">   -197.10975623 </i>
    <i name="e_0_energy">   -197.10975623 </i>
   </energy>
  </scstep>
  <scstep>
   <time name="dav">   19.94   19.95</time>
   <time name="total">   20.45   20.46</time>
   <energy>
    <i name="e_fr_energy">   -198.76083356 </i>
    <i name="e_wo_entrp">   -198.76083356 </i>
    <i name="e_0_energy">   -198.76083356 </i>
   </energy>
  </scstep>
  <scstep>
   <time name="diag">    1.51    1.52</time>
   <time name="diis">   13.24   13.23</time>
   <time name="orth">    0.31    0.31</time>
   <time name="total">   15.82   15.82</time>
   <energy>
    <i name="e_fr_energy">   -205.51855164 </i>
    <i name="e_wo_entrp">   -205.51855164 </i>
    <i name="e_0_energy">   -205.51855164 </i>
   </energy>
  </scstep>
  <scstep>
   <time name="diag">    1.52    1.52</time>
   <time name="diis">   12.03   12.03</time>
   <time name="orth">    0.31    0.31</time>
   <time name="total">   14.63   14.63</time>
   <energy>
    <i name="e_fr_energy">   -172.33028144 </i>
    <i name="e_wo_entrp">   -172.33028144 </i>
    <i name="e_0_energy">   -172.33028144 </i>
   </energy>
  </scstep>
  <scstep>
   <time name="diag">    1.53    1.54</time>
   <time name="diis">   11.61   11.61</time>
   <time name="orth">    0.31    0.31</time>
   <time name="total">   14.20   14.20</time>
   <energy>
    <i name="e_fr_energy">   -160.79146440 </i>
    <i name="e_wo_entrp">   -160.79146440 </i>
    <i name="e_0_energy">   -160.79146440 </i>
   </energy>
  </scstep>
  <scstep>
   <time name="diag">    1.53    1.53</time>
   <time name="diis">   13.18   13.18</time>
   <time name="orth">    0.32    0.32</time>
   <time name="total">   15.76   15.76</time>
   <energy>
    <i name="e_fr_energy">   -155.99997911 </i>
    <i name="e_wo_entrp">   -155.99997911 </i>
    <i name="e_0_energy">   -155.99997911 </i>
   </energy>
  </scstep>
  <scstep>
   <time name="diag">    1.52    1.52</time>
   <time name="diis">   11.91   11.90</time>
   <time name="orth">    0.31    0.31</time>
   <time name="total">   14.48   14.49</time>
   <energy>
    <i name="e_fr_energy">   -157.48164806 </i>
    <i name="e_wo_entrp">   -157.48164806 </i>
    <i name="e_0_energy">   -157.48164806 </i>
   </energy>
  </scstep>
  <scstep>
   <time name="diag">    1.51    1.51</time>
   <time name="diis">   15.39   15.39</time>
   <time name="orth">    0.31    0.31</time>
   <time name="total">   17.97   17.97</time>
   <energy>
    <i name="e_fr_energy">   -155.97491528 </i>
    <i name="e_wo_entrp">   -155.97491528 </i>
    <i name="e_0_energy">   -155.97491528 </i>
   </energy>
  </scstep>
  <scstep>
   <time name="diag">    1.51    1.51</time>
   <time name="diis">   14.73   14.72</time>
   <time name="orth">    0.31    0.31</time>
   <time name="total">   17.30   17.31</time>
   <energy>
    <i name="e_fr_energy">   -158.86206934 </i>
    <i name="e_wo_entrp">   -158.86206934 </i>
    <i name="e_0_energy">   -158.86206934 </i>
   </energy>
  </scstep>
  <scstep>
   <time name="diag">    1.52    1.52</time>
   <time name="diis">   15.24   15.24</time>
   <time name="orth">    0.31    0.31</time>
   <time name="total">   17.82   17.82</time>
   <energy>
    <i name="e_fr_energy">   -159.54547731 </i>
    <i name="e_wo_entrp">   -159.54547731 </i>
    <i name="e_0_energy">   -159.54547731 </i>
   </energy>
  </scstep>
  <scstep>
   <time name="diag">    1.51    1.51</time>
   <time name="diis">   11.73   11.73</time>
   <time name="orth">    0.31    0.31</time>
   <time name="total">   14.31   14.31</time>
   <energy>
    <i name="e_fr_energy">   -155.03036564 </i>
    <i name="e_wo_entrp">   -155.03036564 </i>
    <i name="e_0_energy">   -155.03036564 </i>
   </energy>
  </scstep>
  <scstep>
   <time name="diag">    1.51    1.51</time>
   <time name="diis">   12.14   12.14</time>
   <time name="orth">    0.31    0.31</time>
   <time name="total">   14.72   14.72</time>
   <energy>
    <i name="e_fr_energy">   -151.79745055 </i>
    <i name="e_wo_entrp">   -151.79745055 </i>
    <i name="e_0_energy">   -151.79745055 </i>
   </energy>
  </scstep>
  <scstep>
   <time name="diag">    1.51    1.51</time>
   <time name="diis">   12.74   12.73</time>
   <time name="orth">    0.31    0.31</time>
   <time name="total">   15.31   15.31</time>
   <energy>
    <i name="e_fr_energy">   -150.10161918 </i>
    <i name="e_wo_entrp">   -150.10161918 </i>
    <i name="e_0_energy">   -150.10161918 </i>
   </energy>
  </scstep>
  <scstep>
   <time name="diag">    1.51    1.51</time>
   <time name="diis">   15.31   15.31</time>
   <time name="orth">    0.31    0.31</time>
   <time name="total">   17.89   17.89</time>
   <energy>
    <i name="e_fr_energy">   -150.12623331 </i>
    <i name="e_wo_entrp">   -150.12623331 </i>
    <i name="e_0_energy">   -150.12623331 </i>
   </energy>
  </scstep>
  <scstep>
   <time name="diag">    1.51    1.51</time>
   <time name="diis">   11.24   11.24</time>
   <time name="orth">    0.31    0.31</time>
   <time name="total">   13.82   13.82</time>
   <energy>
    <i name="e_fr_energy">   -150.88141222 </i>
    <i name="e_wo_entrp">   -150.88141222 </i>
    <i name="e_0_energy">   -150.88141222 </i>
   </energy>
  </scstep>
  <scstep>
   <time name="diag">    1.50    1.50</time>
   <time name="diis">   11.23   11.23</time>
   <time name="orth">    0.31    0.31</time>
   <time name="total">   13.79   13.80</time>
   <energy>
    <i name="e_fr_energy">   -149.31869324 </i>
    <i name="e_wo_entrp">   -149.31869324 </i>
    <i name="e_0_energy">   -149.31869324 </i>
   </energy>
  </scstep>
  <scstep>
   <time name="diag">    1.50    1.50</time>
   <time name="diis">   11.36   11.35</time>
   <time name="orth">    0.31    0.31</time>
   <time name="total">   13.93   13.93</time>
   <energy>
    <i name="e_fr_energy">   -149.26896007 </i>
    <i name="e_wo_entrp">   -149.26896007 </i>
    <i name="e_0_energy">   -149.26896007 </i>
   </energy>
  </scstep>
  <scstep>
   <time name="diag">    1.50    1.50</time>
   <time name="diis">   11.51   11.51</time>
   <time name="orth">    0.31    0.31</time>
   <time name="total">   14.08   14.08</time>
   <energy>
    <i name="e_fr_energy">   -149.42178364 </i>
    <i name="e_wo_entrp">   -149.42178364 </i>
    <i name="e_0_energy">   -149.42178364 </i>
   </energy>
  </scstep>
  <scstep>
   <time name="diag">    1.50    1.50</time>
   <time name="diis">   12.91   12.91</time>
   <time name="orth">    0.31    0.31</time>
   <time name="total">   15.47   15.48</time>
   <energy>
    <i name="e_fr_energy">   -149.14066262 </i>
    <i name="e_wo_entrp">   -149.14066262 </i>
    <i name="e_0_energy">   -149.14066262 </i>
   </energy>
  </scstep>
  <scstep>
   <time name="diag">    1.50    1.50</time>
   <time name="diis">   14.00   14.00</time>
   <time name="orth">    0.31    0.31</time>
   <time name="total">   16.57   16.57</time>
   <energy>
    <i name="e_fr_energy">   -149.11335998 </i>
    <i name="e_wo_entrp">   -149.11335998 </i>
    <i name="e_0_energy">   -149.11335998 </i>
   </energy>
  </scstep>
  <scstep>
   <time name="diag">    1.50    1.50</time>
   <time name="diis">   12.37   12.37</time>
   <time name="orth">    0.31    0.31</time>
   <time name="total">   14.94   14.94</time>
   <energy>
    <i name="e_fr_energy">   -149.04314830 </i>
    <i name="e_wo_entrp">   -149.04314830 </i>
    <i name="e_0_energy">   -149.04314830 </i>
   </energy>
  </scstep>
  <scstep>
   <time name="diag">    1.50    1.50</time>
   <time name="diis">   11.70   11.70</time>
   <time name="orth">    0.31    0.31</time>
   <time name="total">   14.27   14.27</time>
   <energy>
    <i name="e_fr_energy">   -148.93757097 </i>
    <i name="e_wo_entrp">   -148.93757097 </i>
    <i name="e_0_energy">   -148.93757097 </i>
   </energy>
  </scstep>
  <scstep>
   <time name="diag">    1.50    1.50</time>
   <time name="diis">   12.07   12.07</time>
   <time name="orth">    0.31    0.31</time>
   <time name="total">   14.65   14.65</time>
   <energy>
    <i name="e_fr_energy">   -148.84110539 </i>
    <i name="e_wo_entrp">   -148.84110539 </i>
    <i name="e_0_energy">   -148.84110539 </i>
   </energy>
  </scstep>
  <scstep>
   <time name="diag">    1.50    1.50</time>
   <time name="diis">   14.08   14.08</time>
   <time name="orth">    0.31    0.31</time>
   <time name="total">   16.66   16.66</time>
   <energy>
    <i name="e_fr_energy">   -148.84148619 </i>
    <i name="e_wo_entrp">   -148.84148619 </i>
    <i name="e_0_energy">   -148.84148619 </i>
   </energy>
  </scstep>
  <scstep>
   <time name="diag">    1.51    1.51</time>
   <time name="diis">   13.28   13.27</time>
   <time name="orth">    0.31    0.31</time>
   <time name="total">   15.86   15.86</time>
   <energy>
    <i name="e_fr_energy">   -148.85585198 </i>
    <i name="e_wo_entrp">   -148.85585198 </i>
    <i name="e_0_energy">   -148.85585198 </i>
   </energy>
  </scstep>
  <scstep>
   <time name="diag">    1.51    1.50</time>
   <time name="diis">   11.67   11.67</time>
   <time name="orth">    0.31    0.31</time>
   <time name="total">   14.25   14.26</time>
   <energy>
    <i name="e_fr_energy">   -148.83625348 </i>
    <i name="e_wo_entrp">   -148.83625348 </i>
    <i name="e_0_energy">   -148.83625348 </i>
   </energy>
  </scstep>
  <scstep>
   <time name="diag">    1.51    1.51</time>
   <time name="diis">   11.98   11.98</time>
   <time name="orth">    0.31    0.31</time>
   <time name="total">   14.56   14.56</time>
   <energy>
    <i name="e_fr_energy">   -148.80783718 </i>
    <i name="e_wo_entrp">   -148.80783718 </i>
    <i name="e_0_energy">   -148.80783718 </i>
   </energy>
  </scstep>
  <scstep>
   <time name="diag">    1.51    1.51</time>
   <time name="diis">   12.20   12.19</time>
   <time name="orth">    0.31    0.31</time>
   <time name="total">   14.78   14.78</time>
   <energy>
    <i name="e_fr_energy">   -148.79592033 </i>
    <i name="e_wo_entrp">   -148.79592033 </i>
    <i name="e_0_energy">   -148.79592033 </i>
   </energy>
  </scstep>
  <scstep>
   <time name="diag">    1.51    1.51</time>
   <time name="diis">   12.35   12.35</time>
   <time name="orth">    0.31    0.31</time>
   <time name="total">   14.94   14.94</time>
   <energy>
    <i name="e_fr_energy">   -148.79763406 </i>
    <i name="e_wo_entrp">   -148.79763406 </i>
    <i name="e_0_energy">   -148.79763406 </i>
   </energy>
  </scstep>
  <scstep>
   <time name="diag">    1.51    1.51</time>
   <time name="diis">   11.65   11.65</time>
   <time name="orth">    0.31    0.31</time>
   <time name="total">   14.24   14.24</time>
   <energy>
    <i name="e_fr_energy">   -148.79816292 </i>
    <i name="e_wo_entrp">   -148.79816292 </i>
    <i name="e_0_energy">   -148.79816292 </i>
   </energy>
  </scstep>
  <scstep>
   <time name="diag">    1.51    1.52</time>
   <time name="diis">   14.82   14.82</time>
   <time name="orth">    0.31    0.31</time>
   <time name="total">   17.41   17.42</time>
   <energy>
    <i name="e_fr_energy">   -148.79563925 </i>
    <i name="e_wo_entrp">   -148.79563925 </i>
    <i name="e_0_energy">   -148.79563925 </i>
   </energy>
  </scstep>
  <scstep>
   <time name="diag">    1.51    1.51</time>
   <time name="diis">   12.50   12.50</time>
   <time name="orth">    0.31    0.31</time>
   <time name="total">   15.08   15.08</time>
   <energy>
    <i name="e_fr_energy">   -148.79457810 </i>
    <i name="e_wo_entrp">   -148.79457810 </i>
    <i name="e_0_energy">   -148.79457810 </i>
   </energy>
  </scstep>
  <scstep>
   <time name="diag">    1.51    1.51</time>
   <time name="diis">   11.73   11.73</time>
   <time name="orth">    0.31    0.31</time>
   <time name="total">   14.32   14.32</time>
   <energy>
    <i name="e_fr_energy">   -148.79384702 </i>
    <i name="e_wo_entrp">   -148.79384702 </i>
    <i name="e_0_energy">   -148.79384702 </i>
   </energy>
  </scstep>
  <scstep>
   <time name="diag">    1.51    1.51</time>
   <time name="diis">   11.40   11.40</time>
   <time name="orth">    0.31    0.31</time>
   <time name="total">   13.99   13.99</time>
   <energy>
    <i name="e_fr_energy">   -148.79333459 </i>
    <i name="e_wo_entrp">   -148.79333459 </i>
    <i name="e_0_energy">   -148.79333459 </i>
   </energy>
  </scstep>
  <scstep>
   <time name="diag">    1.51    1.51</time>
   <time name="diis">   11.43   11.43</time>
   <time name="orth">    0.31    0.31</time>
   <time name="total">   14.03   14.03</time>
   <energy>
    <i name="e_fr_energy">   -148.79156812 </i>
    <i name="e_wo_entrp">   -148.79156812 </i>
    <i name="e_0_energy">   -148.79156812 </i>
   </energy>
  </scstep>
  <scstep>
   <time name="diag">    1.51    1.51</time>
   <time name="diis">   11.65   11.65</time>
   <time name="orth">    0.31    0.31</time>
   <time name="total">   14.25   14.25</time>
   <energy>
    <i name="e_fr_energy">   -148.78982388 </i>
    <i name="e_wo_entrp">   -148.78982388 </i>
    <i name="e_0_energy">   -148.78982388 </i>
   </energy>
  </scstep>
  <scstep>
   <time name="diag">    1.51    1.51</time>
   <time name="diis">   12.07   12.07</time>
   <time name="orth">    0.31    0.31</time>
   <time name="total">   14.67   14.67</time>
   <energy>
    <i name="e_fr_energy">   -148.78801100 </i>
    <i name="e_wo_entrp">   -148.78801100 </i>
    <i name="e_0_energy">   -148.78801100 </i>
   </energy>
  </scstep>
  <scstep>
   <time name="diag">    1.51    1.51</time>
   <time name="diis">   12.08   12.08</time>
   <time name="orth">    0.31    0.31</time>
   <time name="total">   14.68   14.68</time>
   <energy>
    <i name="e_fr_energy">   -148.78766625 </i>
    <i name="e_wo_entrp">   -148.78766625 </i>
    <i name="e_0_energy">   -148.78766625 </i>
   </energy>
  </scstep>
  <scstep>
   <time name="diag">    1.51    1.51</time>
   <time name="diis">   11.94   11.93</time>
   <time name="orth">    0.31    0.31</time>
   <time name="total">   14.53   14.53</time>
   <energy>
    <i name="e_fr_energy">   -148.78675926 </i>
    <i name="e_wo_entrp">   -148.78675926 </i>
    <i name="e_0_energy">   -148.78675926 </i>
   </energy>
  </scstep>
  <scstep>
   <time name="diag">    1.51    1.51</time>
   <time name="diis">   12.81   12.81</time>
   <time name="orth">    0.31    0.31</time>
   <time name="total">   15.41   15.41</time>
   <energy>
    <i name="e_fr_energy">   -148.78681776 </i>
    <i name="e_wo_entrp">   -148.78681776 </i>
    <i name="e_0_energy">   -148.78681776 </i>
   </energy>
  </scstep>
  <scstep>
   <time name="diag">    1.51    1.51</time>
   <time name="diis">   12.40   12.40</time>
   <time name="orth">    0.31    0.31</time>
   <time name="total">   15.00   15.00</time>
   <energy>
    <i name="e_fr_energy">   -148.78769012 </i>
    <i name="e_wo_entrp">   -148.78769012 </i>
    <i name="e_0_energy">   -148.78769012 </i>
   </energy>
  </scstep>
  <scstep>
   <time name="diag">    1.51    1.51</time>
   <time name="diis">   11.74   11.75</time>
   <time name="orth">    0.31    0.31</time>
   <time name="total">   14.35   14.35</time>
   <energy>
    <i name="e_fr_energy">   -148.78771203 </i>
    <i name="e_wo_entrp">   -148.78771203 </i>
    <i name="e_0_energy">   -148.78771203 </i>
   </energy>
  </scstep>
  <scstep>
   <time name="diag">    1.51    1.51</time>
   <time name="diis">    9.84    9.84</time>
   <time name="orth">    0.31    0.31</time>
   <time name="total">   12.45   12.45</time>
   <energy>
    <i name="e_fr_energy">   -148.78736796 </i>
    <i name="e_wo_entrp">   -148.78736796 </i>
    <i name="e_0_energy">   -148.78736796 </i>
   </energy>
  </scstep>
  <scstep>
   <time name="diag">    1.51    1.51</time>
   <time name="diis">   10.66   10.66</time>
   <time name="orth">    0.31    0.31</time>
   <time name="total">   13.27   13.27</time>
   <energy>
    <i name="e_fr_energy">   -148.78692474 </i>
    <i name="e_wo_entrp">   -148.78692474 </i>
    <i name="e_0_energy">   -148.78692474 </i>
   </energy>
  </scstep>
  <scstep>
   <time name="diag">    1.51    1.51</time>
   <time name="diis">    8.91    8.91</time>
   <time name="orth">    0.31    0.31</time>
   <time name="total">   11.51   11.51</time>
   <energy>
    <i name="e_fr_energy">   -148.78680615 </i>
    <i name="e_wo_entrp">   -148.78680615 </i>
    <i name="e_0_energy">   -148.78680615 </i>
   </energy>
  </scstep>
  <scstep>
   <time name="diag">    1.51    1.51</time>
   <time name="diis">    6.93    6.93</time>
   <time name="orth">    0.31    0.31</time>
   <time name="total">    9.00    9.00</time>
   <energy>
    <i name="alphaZ">    378.09908315 </i>
    <i name="ewald">  22731.27163923 </i>
    <i name="hartreedc"> -31291.17577323 </i>
    <i name="XCdc">    340.22251621 </i>
    <i name="pawpsdc">   6159.41552720 </i>
    <i name="pawaedc">  -5988.81051586 </i>
    <i name="eentropy">      0.00000000 </i>
    <i name="bandstr">  -1415.30070302 </i>
    <i name="atom">   8937.49142856 </i>
    <i name="e_fr_energy">   -148.78679775 </i>
    <i name="e_wo_entrp">   -148.78679775 </i>
    <i name="e_0_energy">   -148.78679775 </i>
   </energy>
  </scstep>
  <structure>
   <crystal>
    <varray name="basis" >
     <v>       5.52288297       0.00000000       0.00000000 </v>
     <v>       0.00000000       3.90526800       0.00000000 </v>
     <v>       0.00000000       0.00000000      21.66504520 </v>
    </varray>
    <i name="volume">    467.27902047 </i>
    <varray name="rec_basis" >
     <v>       0.18106485       0.00000000       0.00000000 </v>
     <v>       0.00000000       0.25606437       0.00000000 </v>
     <v>       0.00000000       0.00000000       0.04615730 </v>
    </varray>
   </crystal>
   <varray name="positions" >
    <v>       0.50000000       0.00000000       0.27694380 </v>
    <v>       0.25000000       0.50000000       0.34067414 </v>
    <v>       0.75000000       0.50000000       0.34067414 </v>
    <v>       0.00000000       0.00000000       0.40440449 </v>
    <v>       0.75000000       0.50000000       0.46813483 </v>
    <v>       0.25000000       0.50000000       0.46813483 </v>
    <v>       0.50000000       0.00000000       0.53186517 </v>
    <v>       0.25000000       0.50000000       0.59559551 </v>
    <v>       0.75000000       0.50000000       0.59559551 </v>
    <v>       0.00000000       0.00000000       0.65932586 </v>
    <v>       0.75000000       0.50000000       0.72305620 </v>
    <v>       0.25000000       0.50000000       0.72305620 </v>
    <v>       0.00000000       0.00000000       0.27694380 </v>
    <v>       0.50000000       0.00000000       0.40440449 </v>
    <v>       0.00000000       0.00000000       0.53186517 </v>
    <v>       0.50000000       0.00000000       0.65932586 </v>
    <v>       0.50000000       0.50000000       0.27694380 </v>
    <v>       0.00000000       0.50000000       0.40440449 </v>
    <v>       0.50000000       0.50000000       0.53186517 </v>
    <v>       0.00000000       0.50000000       0.65932586 </v>
   </varray>
  </structure>
  <varray name="forces" >
   <v>       0.00000000       0.00000000      -1.52599581 </v>
   <v>       0.71229029       0.00000000      -2.08696835 </v>
   <v>      -0.71229029       0.00000000      -2.08696835 </v>
   <v>       0.00000000       0.00000000      -0.75500325 </v>
   <v>       0.55166602       0.00000000      -1.26227246 </v>
   <v>      -0.55166602      -0.00000000      -1.26227246 </v>
   <v>       0.00000000       0.00000000      -0.58507833 </v>
   <v>       0.79895467       0.00000000      -1.44363027 </v>
   <v>      -0.79895467       0.00000000      -1.44363027 </v>
   <v>       0.00000000       0.00000000      -1.12128058 </v>
   <v>       0.20271106       0.00000000      -1.00361300 </v>
   <v>      -0.20271106       0.00000000      -1.00361300 </v>
   <v>       0.00000000       0.00000000       0.99022675 </v>
   <v>       0.00000000       0.00000000       0.96346571 </v>
   <v>       0.00000000       0.00000000       0.74217490 </v>
   <v>       0.00000000       0.00000000       1.58998455 </v>
   <v>       0.00000000       0.00000000       2.31109905 </v>
   <v>       0.00000000       0.00000000       2.60009117 </v>
   <v>       0.00000000       0.00000000       2.33323582 </v>
   <v>       0.00000000       0.00000000       4.05004816 </v>
  </varray>
  <varray name="stress" >
   <v>      11.96974128       0.00000000       0.00000000 </v>
   <v>       0.00000000      29.51935984       0.00000000 </v>
   <v>       0.00000000       0.00000000       6.43816753 </v>
  </varray>
  <energy>
   <i name="e_fr_energy">   -148.78679775 </i>
   <i name="e_wo_entrp">   -148.78679775 </i>
   <i name="e_0_energy">      0.00000000 </i>
  </energy>
  <time name="totalsc">  757.41  757.78</time>
  <eigenvalues>
   <array>
    <dimension dim="1">band</dimension>
    <dimension dim="2">kpoint</dimension>
    <dimension dim="3">spin</dimension>
    <field>eigene</field>
    <field>occ</field>
    <set>
     <set comment="spin 1">
      <set comment="kpoint 1">
       <r>  -36.5782    1.0000 </r>
       <r>  -35.2527    1.0000 </r>
       <r>  -34.2964    1.0000 </r>
       <r>  -33.4107    1.0000 </r>
       <r>  -20.4827    1.0000 </r>
       <r>  -20.0126    1.0000 </r>
       <r>  -19.8215    1.0000 </r>
       <r>  -19.3357    1.0000 </r>
       <r>  -19.0292    1.0000 </r>
       <r>  -18.6655    1.0000 </r>
       <r>  -18.5755    1.0000 </r>
       <r>  -18.5236    1.0000 </r>
       <r>  -18.5031    1.0000 </r>
       <r>  -18.3323    1.0000 </r>
       <r>  -18.0835    1.0000 </r>
       <r>  -17.8210    1.0000 </r>
       <r>  -17.2956    1.0000 </r>
       <r>  -17.2755    1.0000 </r>
       <r>  -17.1181    1.0000 </r>
       <r>  -17.0372    1.0000 </r>
       <r>  -16.5127    1.0000 </r>
       <r>  -16.3350    1.0000 </r>
       <r>  -16.2849    1.0000 </r>
       <r>  -16.1502    1.0000 </r>
       <r>  -16.0817    1.0000 </r>
       <r>  -15.4300    1.0000 </r>
       <r>  -15.1629    1.0000 </r>
       <r>  -15.1121    1.0000 </r>
       <r>   -7.0864    1.0000 </r>
       <r>   -6.7770    1.0000 </r>
       <r>   -6.6120    1.0000 </r>
       <r>   -5.9859    1.0000 </r>
       <r>   -5.8779    1.0000 </r>
       <r>   -5.5249    1.0000 </r>
       <r>   -5.4209    1.0000 </r>
       <r>   -5.2859    1.0000 </r>
       <r>   -5.1282    1.0000 </r>
       <r>   -5.0447    1.0000 </r>
       <r>   -4.9838    1.0000 </r>
       <r>   -4.8529    1.0000 </r>
       <r>   -4.7485    1.0000 </r>
       <r>   -4.5754    1.0000 </r>
       <r>   -4.2355    1.0000 </r>
       <r>   -4.1170    1.0000 </r>
       <r>   -4.0636    1.0000 </r>
       <r>   -3.9688    1.0000 </r>
       <r>   -3.7965    1.0000 </r>
       <r>   -3.7483    1.0000 </r>
       <r>   -3.5259    1.0000 </r>
       <r>   -3.2458    1.0000 </r>
       <r>   -3.0088    1.0000 </r>
       <r>   -2.9153    1.0000 </r>
       <r>   -2.9047    1.0000 </r>
       <r>   -2.6879    1.0000 </r>
       <r>   -2.6561    1.0000 </r>
       <r>   -2.3822    1.0000 </r>
       <r>   -2.2892    1.0000 </r>
       <r>   -1.9446    1.0000 </r>
       <r>   -1.9080    1.0000 </r>
       <r>   -1.3649    1.0000 </r>
       <r>   -1.3401    1.0000 </r>
       <r>   -1.0829    1.0000 </r>
       <r>   -1.0730    1.0000 </r>
       <r>   -1.0340    1.0000 </r>
       <r>   -0.8603    1.1190 </r>
       <r>   -0.7705    0.1865 </r>
       <r>   -0.7446    0.0000 </r>
       <r>   -0.5106    0.0000 </r>
       <r>    0.0778    0.0000 </r>
       <r>    0.3000    0.0000 </r>
       <r>    0.3972    0.0000 </r>
       <r>    0.6598    0.0000 </r>
       <r>    1.3232    0.0000 </r>
       <r>    2.6580    0.0000 </r>
       <r>    4.0923    0.0000 </r>
       <r>    4.1617    0.0000 </r>
      </set>
      <set comment="kpoint 2">
       <r>  -36.5779    1.0000 </r>
       <r>  -35.2524    1.0000 </r>
       <r>  -34.2961    1.0000 </r>
       <r>  -33.4105    1.0000 </r>
       <r>  -20.5440    1.0000 </r>
       <r>  -20.1675    1.0000 </r>
       <r>  -19.6938    1.0000 </r>
       <r>  -19.3239    1.0000 </r>
       <r>  -19.1095    1.0000 </r>
       <r>  -18.7018    1.0000 </r>
       <r>  -18.5758    1.0000 </r>
       <r>  -18.4544    1.0000 </r>
       <r>  -18.3874    1.0000 </r>
       <r>  -18.3397    1.0000 </r>
       <r>  -18.1543    1.0000 </r>
       <r>  -17.7868    1.0000 </r>
       <r>  -17.2962    1.0000 </r>
       <r>  -17.2619    1.0000 </r>
       <r>  -17.0778    1.0000 </r>
       <r>  -17.0451    1.0000 </r>
       <r>  -16.4851    1.0000 </r>
       <r>  -16.3357    1.0000 </r>
       <r>  -16.2853    1.0000 </r>
       <r>  -16.1256    1.0000 </r>
       <r>  -16.0223    1.0000 </r>
       <r>  -15.4309    1.0000 </r>
       <r>  -15.1687    1.0000 </r>
       <r>  -15.0931    1.0000 </r>
       <r>   -6.9159    1.0000 </r>
       <r>   -6.7339    1.0000 </r>
       <r>   -6.6414    1.0000 </r>
       <r>   -5.9586    1.0000 </r>
       <r>   -5.7366    1.0000 </r>
       <r>   -5.5968    1.0000 </r>
       <r>   -5.5155    1.0000 </r>
       <r>   -5.3259    1.0000 </r>
       <r>   -5.1613    1.0000 </r>
       <r>   -5.1172    1.0000 </r>
       <r>   -4.9105    1.0000 </r>
       <r>   -4.7659    1.0000 </r>
       <r>   -4.6758    1.0000 </r>
       <r>   -4.6335    1.0000 </r>
       <r>   -4.3573    1.0000 </r>
       <r>   -4.3235    1.0000 </r>
       <r>   -4.0615    1.0000 </r>
       <r>   -4.0300    1.0000 </r>
       <r>   -3.9388    1.0000 </r>
       <r>   -3.7304    1.0000 </r>
       <r>   -3.4909    1.0000 </r>
       <r>   -3.3539    1.0000 </r>
       <r>   -3.1784    1.0000 </r>
       <r>   -3.0206    1.0000 </r>
       <r>   -2.9283    1.0000 </r>
       <r>   -2.7850    1.0000 </r>
       <r>   -2.6038    1.0000 </r>
       <r>   -2.5141    1.0000 </r>
       <r>   -2.2951    1.0000 </r>
       <r>   -2.1955    1.0000 </r>
       <r>   -1.8830    1.0000 </r>
       <r>   -1.4065    1.0000 </r>
       <r>   -1.3859    1.0000 </r>
       <r>   -1.0971    1.0000 </r>
       <r>   -1.0671    1.0000 </r>
       <r>   -0.9570    1.0000 </r>
       <r>   -0.8624    1.0814 </r>
       <r>   -0.7345    0.0397 </r>
       <r>   -0.7192    0.0000 </r>
       <r>   -0.6128    0.0000 </r>
       <r>    0.0965    0.0000 </r>
       <r>    0.3382    0.0000 </r>
       <r>    0.3750    0.0000 </r>
       <r>    0.8244    0.0000 </r>
       <r>    1.3068    0.0000 </r>
       <r>    1.3203    0.0000 </r>
       <r>    2.6433    0.0000 </r>
       <r>    4.2971    0.0000 </r>
      </set>
      <set comment="kpoint 3">
       <r>  -36.5774    1.0000 </r>
       <r>  -35.2518    1.0000 </r>
       <r>  -34.2956    1.0000 </r>
       <r>  -33.4100    1.0000 </r>
       <r>  -20.6465    1.0000 </r>
       <r>  -20.2792    1.0000 </r>
       <r>  -19.6442    1.0000 </r>
       <r>  -19.2795    1.0000 </r>
       <r>  -19.2169    1.0000 </r>
       <r>  -18.7126    1.0000 </r>
       <r>  -18.5764    1.0000 </r>
       <r>  -18.3698    1.0000 </r>
       <r>  -18.3339    1.0000 </r>
       <r>  -18.2823    1.0000 </r>
       <r>  -18.2190    1.0000 </r>
       <r>  -17.7630    1.0000 </r>
       <r>  -17.2973    1.0000 </r>
       <r>  -17.2493    1.0000 </r>
       <r>  -17.0497    1.0000 </r>
       <r>  -17.0111    1.0000 </r>
       <r>  -16.4152    1.0000 </r>
       <r>  -16.3368    1.0000 </r>
       <r>  -16.3048    1.0000 </r>
       <r>  -16.0528    1.0000 </r>
       <r>  -15.9773    1.0000 </r>
       <r>  -15.4324    1.0000 </r>
       <r>  -15.1697    1.0000 </r>
       <r>  -15.0559    1.0000 </r>
       <r>   -6.8054    1.0000 </r>
       <r>   -6.6873    1.0000 </r>
       <r>   -6.2814    1.0000 </r>
       <r>   -5.8990    1.0000 </r>
       <r>   -5.8064    1.0000 </r>
       <r>   -5.6473    1.0000 </r>
       <r>   -5.5977    1.0000 </r>
       <r>   -5.4766    1.0000 </r>
       <r>   -5.2929    1.0000 </r>
       <r>   -5.0896    1.0000 </r>
       <r>   -4.7909    1.0000 </r>
       <r>   -4.7688    1.0000 </r>
       <r>   -4.6794    1.0000 </r>
       <r>   -4.6214    1.0000 </r>
       <r>   -4.5624    1.0000 </r>
       <r>   -4.4837    1.0000 </r>
       <r>   -4.1135    1.0000 </r>
       <r>   -4.0964    1.0000 </r>
       <r>   -3.8854    1.0000 </r>
       <r>   -3.8840    1.0000 </r>
       <r>   -3.6674    1.0000 </r>
       <r>   -3.5080    1.0000 </r>
       <r>   -3.3322    1.0000 </r>
       <r>   -3.0994    1.0000 </r>
       <r>   -3.0593    1.0000 </r>
       <r>   -2.9999    1.0000 </r>
       <r>   -2.7550    1.0000 </r>
       <r>   -2.5001    1.0000 </r>
       <r>   -2.3566    1.0000 </r>
       <r>   -2.3090    1.0000 </r>
       <r>   -1.7402    1.0000 </r>
       <r>   -1.5435    1.0000 </r>
       <r>   -1.4562    1.0000 </r>
       <r>   -1.1939    1.0000 </r>
       <r>   -1.0545    1.0000 </r>
       <r>   -1.0226    1.0000 </r>
       <r>   -0.8419    1.0128 </r>
       <r>   -0.8043    0.5933 </r>
       <r>   -0.7336    0.0000 </r>
       <r>   -0.3926    0.0000 </r>
       <r>    0.0559    0.0000 </r>
       <r>    0.3275    0.0000 </r>
       <r>    0.4066    0.0000 </r>
       <r>    1.0403    0.0000 </r>
       <r>    1.3349    0.0000 </r>
       <r>    1.7778    0.0000 </r>
       <r>    2.6144    0.0000 </r>
       <r>    2.8020    0.0000 </r>
      </set>
      <set comment="kpoint 4">
       <r>  -36.5747    1.0000 </r>
       <r>  -35.2488    1.0000 </r>
       <r>  -34.2925    1.0000 </r>
       <r>  -33.4069    1.0000 </r>
       <r>  -20.4275    1.0000 </r>
       <r>  -19.9728    1.0000 </r>
       <r>  -19.7742    1.0000 </r>
       <r>  -19.2920    1.0000 </r>
       <r>  -19.0478    1.0000 </r>
       <r>  -18.6207    1.0000 </r>
       <r>  -18.5905    1.0000 </r>
       <r>  -18.5337    1.0000 </r>
       <r>  -18.4851    1.0000 </r>
       <r>  -18.2936    1.0000 </r>
       <r>  -18.0989    1.0000 </r>
       <r>  -17.7802    1.0000 </r>
       <r>  -17.2677    1.0000 </r>
       <r>  -17.2223    1.0000 </r>
       <r>  -17.1673    1.0000 </r>
       <r>  -17.0525    1.0000 </r>
       <r>  -16.5600    1.0000 </r>
       <r>  -16.2940    1.0000 </r>
       <r>  -16.2564    1.0000 </r>
       <r>  -16.1948    1.0000 </r>
       <r>  -16.0991    1.0000 </r>
       <r>  -15.3793    1.0000 </r>
       <r>  -15.1939    1.0000 </r>
       <r>  -15.1769    1.0000 </r>
       <r>   -7.0282    1.0000 </r>
       <r>   -6.7070    1.0000 </r>
       <r>   -6.6063    1.0000 </r>
       <r>   -6.3139    1.0000 </r>
       <r>   -5.8458    1.0000 </r>
       <r>   -5.8126    1.0000 </r>
       <r>   -5.5287    1.0000 </r>
       <r>   -5.4821    1.0000 </r>
       <r>   -5.2682    1.0000 </r>
       <r>   -5.2084    1.0000 </r>
       <r>   -5.0381    1.0000 </r>
       <r>   -4.9661    1.0000 </r>
       <r>   -4.8616    1.0000 </r>
       <r>   -4.6153    1.0000 </r>
       <r>   -4.4139    1.0000 </r>
       <r>   -4.4108    1.0000 </r>
       <r>   -4.0569    1.0000 </r>
       <r>   -4.0556    1.0000 </r>
       <r>   -4.0029    1.0000 </r>
       <r>   -3.7103    1.0000 </r>
       <r>   -3.6955    1.0000 </r>
       <r>   -3.3439    1.0000 </r>
       <r>   -3.1580    1.0000 </r>
       <r>   -3.0619    1.0000 </r>
       <r>   -2.9269    1.0000 </r>
       <r>   -2.8132    1.0000 </r>
       <r>   -2.6948    1.0000 </r>
       <r>   -2.5542    1.0000 </r>
       <r>   -2.3330    1.0000 </r>
       <r>   -1.9966    1.0000 </r>
       <r>   -1.9656    1.0000 </r>
       <r>   -1.4986    1.0000 </r>
       <r>   -1.3090    1.0000 </r>
       <r>   -1.0890    1.0000 </r>
       <r>   -0.9669    1.0000 </r>
       <r>   -0.9633    1.0390 </r>
       <r>   -0.7390    0.2573 </r>
       <r>   -0.6463   -0.0303 </r>
       <r>   -0.5172    0.0000 </r>
       <r>   -0.4583    0.0000 </r>
       <r>    0.1365    0.0000 </r>
       <r>    0.4982    0.0000 </r>
       <r>    0.5790    0.0000 </r>
       <r>    0.6902    0.0000 </r>
       <r>    1.4337    0.0000 </r>
       <r>    1.4979    0.0000 </r>
       <r>    2.7455    0.0000 </r>
       <r>    4.3476    0.0000 </r>
      </set>
      <set comment="kpoint 5">
       <r>  -36.5745    1.0000 </r>
       <r>  -35.2485    1.0000 </r>
       <r>  -34.2923    1.0000 </r>
       <r>  -33.4067    1.0000 </r>
       <r>  -20.4695    1.0000 </r>
       <r>  -20.1245    1.0000 </r>
       <r>  -19.6698    1.0000 </r>
       <r>  -19.2890    1.0000 </r>
       <r>  -19.0975    1.0000 </r>
       <r>  -18.6945    1.0000 </r>
       <r>  -18.5726    1.0000 </r>
       <r>  -18.4712    1.0000 </r>
       <r>  -18.3691    1.0000 </r>
       <r>  -18.3073    1.0000 </r>
       <r>  -18.1531    1.0000 </r>
       <r>  -17.7680    1.0000 </r>
       <r>  -17.2635    1.0000 </r>
       <r>  -17.2226    1.0000 </r>
       <r>  -17.1103    1.0000 </r>
       <r>  -17.0689    1.0000 </r>
       <r>  -16.5320    1.0000 </r>
       <r>  -16.3055    1.0000 </r>
       <r>  -16.2521    1.0000 </r>
       <r>  -16.1639    1.0000 </r>
       <r>  -16.0350    1.0000 </r>
       <r>  -15.3745    1.0000 </r>
       <r>  -15.2062    1.0000 </r>
       <r>  -15.1350    1.0000 </r>
       <r>   -6.8922    1.0000 </r>
       <r>   -6.6857    1.0000 </r>
       <r>   -6.6314    1.0000 </r>
       <r>   -6.2956    1.0000 </r>
       <r>   -5.9338    1.0000 </r>
       <r>   -5.7490    1.0000 </r>
       <r>   -5.5903    1.0000 </r>
       <r>   -5.4899    1.0000 </r>
       <r>   -5.3183    1.0000 </r>
       <r>   -5.1603    1.0000 </r>
       <r>   -5.0381    1.0000 </r>
       <r>   -4.9558    1.0000 </r>
       <r>   -4.8127    1.0000 </r>
       <r>   -4.6443    1.0000 </r>
       <r>   -4.5644    1.0000 </r>
       <r>   -4.3998    1.0000 </r>
       <r>   -4.3368    1.0000 </r>
       <r>   -4.0372    1.0000 </r>
       <r>   -3.9198    1.0000 </r>
       <r>   -3.8060    1.0000 </r>
       <r>   -3.6787    1.0000 </r>
       <r>   -3.4676    1.0000 </r>
       <r>   -3.1555    1.0000 </r>
       <r>   -3.0772    1.0000 </r>
       <r>   -3.0136    1.0000 </r>
       <r>   -2.9530    1.0000 </r>
       <r>   -2.8370    1.0000 </r>
       <r>   -2.5304    1.0000 </r>
       <r>   -2.3609    1.0000 </r>
       <r>   -2.1775    1.0000 </r>
       <r>   -1.9296    1.0000 </r>
       <r>   -1.6191    1.0000 </r>
       <r>   -1.3039    1.0000 </r>
       <r>   -1.0934    1.0000 </r>
       <r>   -0.9658    1.0000 </r>
       <r>   -0.9304    1.0180 </r>
       <r>   -0.7252    0.3208 </r>
       <r>   -0.7062   -0.0128 </r>
       <r>   -0.5218    0.0000 </r>
       <r>   -0.4104    0.0000 </r>
       <r>    0.1778    0.0000 </r>
       <r>    0.5294    0.0000 </r>
       <r>    0.5645    0.0000 </r>
       <r>    0.8458    0.0000 </r>
       <r>    1.4617    0.0000 </r>
       <r>    2.7584    0.0000 </r>
       <r>    2.8135    0.0000 </r>
       <r>    4.5043    0.0000 </r>
      </set>
      <set comment="kpoint 6">
       <r>  -36.5740    1.0000 </r>
       <r>  -35.2480    1.0000 </r>
       <r>  -34.2918    1.0000 </r>
       <r>  -33.4063    1.0000 </r>
       <r>  -20.5546    1.0000 </r>
       <r>  -20.2275    1.0000 </r>
       <r>  -19.6407    1.0000 </r>
       <r>  -19.2744    1.0000 </r>
       <r>  -19.1687    1.0000 </r>
       <r>  -18.7225    1.0000 </r>
       <r>  -18.5620    1.0000 </r>
       <r>  -18.3591    1.0000 </r>
       <r>  -18.3195    1.0000 </r>
       <r>  -18.2961    1.0000 </r>
       <r>  -18.2064    1.0000 </r>
       <r>  -17.7682    1.0000 </r>
       <r>  -17.2444    1.0000 </r>
       <r>  -17.2295    1.0000 </r>
       <r>  -17.0830    1.0000 </r>
       <r>  -17.0317    1.0000 </r>
       <r>  -16.4670    1.0000 </r>
       <r>  -16.3251    1.0000 </r>
       <r>  -16.2467    1.0000 </r>
       <r>  -16.0900    1.0000 </r>
       <r>  -15.9909    1.0000 </r>
       <r>  -15.3568    1.0000 </r>
       <r>  -15.1972    1.0000 </r>
       <r>  -15.0851    1.0000 </r>
       <r>   -6.8226    1.0000 </r>
       <r>   -6.6946    1.0000 </r>
       <r>   -6.3981    1.0000 </r>
       <r>   -6.2754    1.0000 </r>
       <r>   -6.0036    1.0000 </r>
       <r>   -5.7658    1.0000 </r>
       <r>   -5.5814    1.0000 </r>
       <r>   -5.5154    1.0000 </r>
       <r>   -5.4293    1.0000 </r>
       <r>   -5.2630    1.0000 </r>
       <r>   -5.0542    1.0000 </r>
       <r>   -4.9341    1.0000 </r>
       <r>   -4.8080    1.0000 </r>
       <r>   -4.7130    1.0000 </r>
       <r>   -4.6668    1.0000 </r>
       <r>   -4.5133    1.0000 </r>
       <r>   -4.3313    1.0000 </r>
       <r>   -4.1215    1.0000 </r>
       <r>   -3.9522    1.0000 </r>
       <r>   -3.8041    1.0000 </r>
       <r>   -3.7663    1.0000 </r>
       <r>   -3.5385    1.0000 </r>
       <r>   -3.4606    1.0000 </r>
       <r>   -3.2146    1.0000 </r>
       <r>   -3.0984    1.0000 </r>
       <r>   -2.9794    1.0000 </r>
       <r>   -2.8801    1.0000 </r>
       <r>   -2.8086    1.0000 </r>
       <r>   -2.4205    1.0000 </r>
       <r>   -2.1404    1.0000 </r>
       <r>   -1.8573    1.0000 </r>
       <r>   -1.6953    1.0000 </r>
       <r>   -1.2953    1.0000 </r>
       <r>   -1.2422    1.0000 </r>
       <r>   -1.0997    1.0000 </r>
       <r>   -0.9247    1.0000 </r>
       <r>   -0.8687    1.0645 </r>
       <r>   -0.6132   -0.0579 </r>
       <r>   -0.3619    0.0000 </r>
       <r>   -0.3250    0.0000 </r>
       <r>    0.1712    0.0000 </r>
       <r>    0.5380    0.0000 </r>
       <r>    0.5949    0.0000 </r>
       <r>    1.0298    0.0000 </r>
       <r>    1.4501    0.0000 </r>
       <r>    1.8181    0.0000 </r>
       <r>    2.7181    0.0000 </r>
       <r>    2.8015    0.0000 </r>
      </set>
      <set comment="kpoint 7">
       <r>  -36.5670    1.0000 </r>
       <r>  -35.2400    1.0000 </r>
       <r>  -34.2838    1.0000 </r>
       <r>  -33.3982    1.0000 </r>
       <r>  -20.3598    1.0000 </r>
       <r>  -19.8503    1.0000 </r>
       <r>  -19.6537    1.0000 </r>
       <r>  -19.2011    1.0000 </r>
       <r>  -19.0745    1.0000 </r>
       <r>  -18.6207    1.0000 </r>
       <r>  -18.5652    1.0000 </r>
       <r>  -18.5032    1.0000 </r>
       <r>  -18.4347    1.0000 </r>
       <r>  -18.2090    1.0000 </r>
       <r>  -18.1061    1.0000 </r>
       <r>  -17.6761    1.0000 </r>
       <r>  -17.2932    1.0000 </r>
       <r>  -17.2071    1.0000 </r>
       <r>  -17.1574    1.0000 </r>
       <r>  -17.0303    1.0000 </r>
       <r>  -16.6264    1.0000 </r>
       <r>  -16.3494    1.0000 </r>
       <r>  -16.2064    1.0000 </r>
       <r>  -16.1282    1.0000 </r>
       <r>  -16.1279    1.0000 </r>
       <r>  -15.3675    1.0000 </r>
       <r>  -15.3421    1.0000 </r>
       <r>  -15.1908    1.0000 </r>
       <r>   -6.9716    1.0000 </r>
       <r>   -6.9142    1.0000 </r>
       <r>   -6.5912    1.0000 </r>
       <r>   -6.5092    1.0000 </r>
       <r>   -6.3530    1.0000 </r>
       <r>   -6.2576    1.0000 </r>
       <r>   -5.9898    1.0000 </r>
       <r>   -5.7819    1.0000 </r>
       <r>   -5.5489    1.0000 </r>
       <r>   -5.4468    1.0000 </r>
       <r>   -5.2886    1.0000 </r>
       <r>   -5.1644    1.0000 </r>
       <r>   -5.0360    1.0000 </r>
       <r>   -4.9757    1.0000 </r>
       <r>   -4.7301    1.0000 </r>
       <r>   -4.5188    1.0000 </r>
       <r>   -4.5102    1.0000 </r>
       <r>   -4.2332    1.0000 </r>
       <r>   -4.1631    1.0000 </r>
       <r>   -3.9780    1.0000 </r>
       <r>   -3.8898    1.0000 </r>
       <r>   -3.7026    1.0000 </r>
       <r>   -3.3975    1.0000 </r>
       <r>   -3.3574    1.0000 </r>
       <r>   -2.9630    1.0000 </r>
       <r>   -2.8032    1.0000 </r>
       <r>   -2.7593    1.0000 </r>
       <r>   -2.6926    1.0000 </r>
       <r>   -2.2596    1.0000 </r>
       <r>   -2.1354    1.0000 </r>
       <r>   -1.9782    1.0000 </r>
       <r>   -1.4969    1.0000 </r>
       <r>   -1.2925    1.0000 </r>
       <r>   -0.9787    1.0000 </r>
       <r>   -0.8067    1.0356 </r>
       <r>   -0.7333    0.3853 </r>
       <r>   -0.6927    0.0000 </r>
       <r>   -0.5319    0.0000 </r>
       <r>   -0.2984    0.0000 </r>
       <r>    0.1697    0.0000 </r>
       <r>    0.3791    0.0000 </r>
       <r>    0.7435    0.0000 </r>
       <r>    0.9892    0.0000 </r>
       <r>    1.0300    0.0000 </r>
       <r>    1.8737    0.0000 </r>
       <r>    1.8865    0.0000 </r>
       <r>    3.0858    0.0000 </r>
       <r>    3.1571    0.0000 </r>
      </set>
      <set comment="kpoint 8">
       <r>  -36.5668    1.0000 </r>
       <r>  -35.2398    1.0000 </r>
       <r>  -34.2836    1.0000 </r>
       <r>  -33.3981    1.0000 </r>
       <r>  -20.3393    1.0000 </r>
       <r>  -20.0090    1.0000 </r>
       <r>  -19.6214    1.0000 </r>
       <r>  -19.2152    1.0000 </r>
       <r>  -19.0760    1.0000 </r>
       <r>  -18.6142    1.0000 </r>
       <r>  -18.5712    1.0000 </r>
       <r>  -18.4919    1.0000 </r>
       <r>  -18.3675    1.0000 </r>
       <r>  -18.2237    1.0000 </r>
       <r>  -18.1365    1.0000 </r>
       <r>  -17.7111    1.0000 </r>
       <r>  -17.2519    1.0000 </r>
       <r>  -17.1622    1.0000 </r>
       <r>  -17.1439    1.0000 </r>
       <r>  -17.0732    1.0000 </r>
       <r>  -16.6024    1.0000 </r>
       <r>  -16.2863    1.0000 </r>
       <r>  -16.2243    1.0000 </r>
       <r>  -16.1656    1.0000 </r>
       <r>  -16.0335    1.0000 </r>
       <r>  -15.3698    1.0000 </r>
       <r>  -15.2920    1.0000 </r>
       <r>  -15.1497    1.0000 </r>
       <r>   -6.9565    1.0000 </r>
       <r>   -6.8750    1.0000 </r>
       <r>   -6.6748    1.0000 </r>
       <r>   -6.5329    1.0000 </r>
       <r>   -6.3988    1.0000 </r>
       <r>   -6.2601    1.0000 </r>
       <r>   -6.0019    1.0000 </r>
       <r>   -5.7857    1.0000 </r>
       <r>   -5.6221    1.0000 </r>
       <r>   -5.3977    1.0000 </r>
       <r>   -5.3416    1.0000 </r>
       <r>   -5.1757    1.0000 </r>
       <r>   -5.0321    1.0000 </r>
       <r>   -4.9547    1.0000 </r>
       <r>   -4.8261    1.0000 </r>
       <r>   -4.6863    1.0000 </r>
       <r>   -4.3760    1.0000 </r>
       <r>   -4.2678    1.0000 </r>
       <r>   -4.1318    1.0000 </r>
       <r>   -4.0484    1.0000 </r>
       <r>   -3.8640    1.0000 </r>
       <r>   -3.7554    1.0000 </r>
       <r>   -3.5296    1.0000 </r>
       <r>   -3.3380    1.0000 </r>
       <r>   -3.1479    1.0000 </r>
       <r>   -2.8828    1.0000 </r>
       <r>   -2.8742    1.0000 </r>
       <r>   -2.5450    1.0000 </r>
       <r>   -2.3220    1.0000 </r>
       <r>   -2.0792    1.0000 </r>
       <r>   -2.0266    1.0000 </r>
       <r>   -1.6567    1.0000 </r>
       <r>   -1.2567    1.0000 </r>
       <r>   -0.9590    1.0000 </r>
       <r>   -0.8243    1.0326 </r>
       <r>   -0.7875    0.8806 </r>
       <r>   -0.7095    0.0236 </r>
       <r>   -0.5480    0.0000 </r>
       <r>   -0.2169    0.0000 </r>
       <r>    0.2031    0.0000 </r>
       <r>    0.4222    0.0000 </r>
       <r>    0.8822    0.0000 </r>
       <r>    1.0025    0.0000 </r>
       <r>    1.0269    0.0000 </r>
       <r>    1.8587    0.0000 </r>
       <r>    1.8745    0.0000 </r>
       <r>    3.1240    0.0000 </r>
       <r>    3.1518    0.0000 </r>
      </set>
      <set comment="kpoint 9">
       <r>  -36.5665    1.0000 </r>
       <r>  -35.2395    1.0000 </r>
       <r>  -34.2832    1.0000 </r>
       <r>  -33.3979    1.0000 </r>
       <r>  -20.3297    1.0000 </r>
       <r>  -20.1280    1.0000 </r>
       <r>  -19.6751    1.0000 </r>
       <r>  -19.2613    1.0000 </r>
       <r>  -19.0402    1.0000 </r>
       <r>  -18.7115    1.0000 </r>
       <r>  -18.5341    1.0000 </r>
       <r>  -18.3724    1.0000 </r>
       <r>  -18.3299    1.0000 </r>
       <r>  -18.2670    1.0000 </r>
       <r>  -18.1252    1.0000 </r>
       <r>  -17.7961    1.0000 </r>
       <r>  -17.2118    1.0000 </r>
       <r>  -17.1694    1.0000 </r>
       <r>  -17.0968    1.0000 </r>
       <r>  -17.0495    1.0000 </r>
       <r>  -16.5469    1.0000 </r>
       <r>  -16.3032    1.0000 </r>
       <r>  -16.1626    1.0000 </r>
       <r>  -16.1236    1.0000 </r>
       <r>  -16.0005    1.0000 </r>
       <r>  -15.3729    1.0000 </r>
       <r>  -15.1670    1.0000 </r>
       <r>  -15.1105    1.0000 </r>
       <r>   -7.0189    1.0000 </r>
       <r>   -6.9243    1.0000 </r>
       <r>   -6.6747    1.0000 </r>
       <r>   -6.6022    1.0000 </r>
       <r>   -6.4808    1.0000 </r>
       <r>   -6.0509    1.0000 </r>
       <r>   -6.0001    1.0000 </r>
       <r>   -5.8407    1.0000 </r>
       <r>   -5.7184    1.0000 </r>
       <r>   -5.4536    1.0000 </r>
       <r>   -5.3223    1.0000 </r>
       <r>   -5.2057    1.0000 </r>
       <r>   -5.1802    1.0000 </r>
       <r>   -5.0583    1.0000 </r>
       <r>   -4.8946    1.0000 </r>
       <r>   -4.7276    1.0000 </r>
       <r>   -4.2337    1.0000 </r>
       <r>   -4.2208    1.0000 </r>
       <r>   -4.1388    1.0000 </r>
       <r>   -4.0744    1.0000 </r>
       <r>   -3.9322    1.0000 </r>
       <r>   -3.8022    1.0000 </r>
       <r>   -3.6707    1.0000 </r>
       <r>   -3.4711    1.0000 </r>
       <r>   -3.4286    1.0000 </r>
       <r>   -2.9051    1.0000 </r>
       <r>   -2.8726    1.0000 </r>
       <r>   -2.8276    1.0000 </r>
       <r>   -2.1473    1.0000 </r>
       <r>   -2.0417    1.0000 </r>
       <r>   -1.9909    1.0000 </r>
       <r>   -1.7337    1.0000 </r>
       <r>   -1.2404    1.0000 </r>
       <r>   -1.1989    1.0000 </r>
       <r>   -0.9374    1.0059 </r>
       <r>   -0.7948    0.9940 </r>
       <r>   -0.7719    0.5244 </r>
       <r>   -0.3356    0.0000 </r>
       <r>   -0.1665    0.0000 </r>
       <r>    0.2644    0.0000 </r>
       <r>    0.8903    0.0000 </r>
       <r>    1.0336    0.0000 </r>
       <r>    1.0547    0.0000 </r>
       <r>    1.8474    0.0000 </r>
       <r>    1.8808    0.0000 </r>
       <r>    3.0662    0.0000 </r>
       <r>    3.1028    0.0000 </r>
       <r>    3.1574    0.0000 </r>
      </set>
      <set comment="kpoint 10">
       <r>  -36.5608    1.0000 </r>
       <r>  -35.2329    1.0000 </r>
       <r>  -34.2767    1.0000 </r>
       <r>  -33.3913    1.0000 </r>
       <r>  -20.3675    1.0000 </r>
       <r>  -19.7005    1.0000 </r>
       <r>  -19.5345    1.0000 </r>
       <r>  -19.1782    1.0000 </r>
       <r>  -19.0537    1.0000 </r>
       <r>  -18.7118    1.0000 </r>
       <r>  -18.5285    1.0000 </r>
       <r>  -18.3901    1.0000 </r>
       <r>  -18.3822    1.0000 </r>
       <r>  -18.1785    1.0000 </r>
       <r>  -18.0514    1.0000 </r>
       <r>  -17.5716    1.0000 </r>
       <r>  -17.4195    1.0000 </r>
       <r>  -17.1881    1.0000 </r>
       <r>  -17.1429    1.0000 </r>
       <r>  -16.9637    1.0000 </r>
       <r>  -16.6293    1.0000 </r>
       <r>  -16.4727    1.0000 </r>
       <r>  -16.1680    1.0000 </r>
       <r>  -16.1004    1.0000 </r>
       <r>  -15.9966    1.0000 </r>
       <r>  -15.5192    1.0000 </r>
       <r>  -15.4498    1.0000 </r>
       <r>  -15.1251    1.0000 </r>
       <r>   -7.5602    1.0000 </r>
       <r>   -6.9574    1.0000 </r>
       <r>   -6.6915    1.0000 </r>
       <r>   -6.5781    1.0000 </r>
       <r>   -6.5718    1.0000 </r>
       <r>   -6.5083    1.0000 </r>
       <r>   -6.3405    1.0000 </r>
       <r>   -5.9582    1.0000 </r>
       <r>   -5.8187    1.0000 </r>
       <r>   -5.6266    1.0000 </r>
       <r>   -5.5547    1.0000 </r>
       <r>   -5.4632    1.0000 </r>
       <r>   -5.1321    1.0000 </r>
       <r>   -4.9612    1.0000 </r>
       <r>   -4.9008    1.0000 </r>
       <r>   -4.7197    1.0000 </r>
       <r>   -4.6026    1.0000 </r>
       <r>   -4.5744    1.0000 </r>
       <r>   -4.4245    1.0000 </r>
       <r>   -4.1491    1.0000 </r>
       <r>   -4.0525    1.0000 </r>
       <r>   -3.7043    1.0000 </r>
       <r>   -3.5353    1.0000 </r>
       <r>   -3.4842    1.0000 </r>
       <r>   -2.9925    1.0000 </r>
       <r>   -2.8513    1.0000 </r>
       <r>   -2.7608    1.0000 </r>
       <r>   -2.7235    1.0000 </r>
       <r>   -2.2989    1.0000 </r>
       <r>   -2.1366    1.0000 </r>
       <r>   -1.8812    1.0000 </r>
       <r>   -1.4311    1.0000 </r>
       <r>   -1.2810    1.0000 </r>
       <r>   -0.8651    1.0000 </r>
       <r>   -0.7312    0.1315 </r>
       <r>   -0.7052   -0.0361 </r>
       <r>   -0.5487    0.0000 </r>
       <r>   -0.4129    0.0000 </r>
       <r>   -0.1777    0.0000 </r>
       <r>    0.6559    0.0000 </r>
       <r>    0.7234    0.0000 </r>
       <r>    0.7792    0.0000 </r>
       <r>    1.4046    0.0000 </r>
       <r>    1.4478    0.0000 </r>
       <r>    1.8171    0.0000 </r>
       <r>    2.2736    0.0000 </r>
       <r>    2.8526    0.0000 </r>
       <r>    3.5060    0.0000 </r>
      </set>
      <set comment="kpoint 11">
       <r>  -36.5607    1.0000 </r>
       <r>  -35.2328    1.0000 </r>
       <r>  -34.2766    1.0000 </r>
       <r>  -33.3912    1.0000 </r>
       <r>  -20.3055    1.0000 </r>
       <r>  -19.8420    1.0000 </r>
       <r>  -19.6055    1.0000 </r>
       <r>  -19.1399    1.0000 </r>
       <r>  -19.0878    1.0000 </r>
       <r>  -18.5571    1.0000 </r>
       <r>  -18.4981    1.0000 </r>
       <r>  -18.4822    1.0000 </r>
       <r>  -18.4038    1.0000 </r>
       <r>  -18.1558    1.0000 </r>
       <r>  -18.1194    1.0000 </r>
       <r>  -17.6558    1.0000 </r>
       <r>  -17.2884    1.0000 </r>
       <r>  -17.2046    1.0000 </r>
       <r>  -17.0949    1.0000 </r>
       <r>  -17.0283    1.0000 </r>
       <r>  -16.6126    1.0000 </r>
       <r>  -16.3412    1.0000 </r>
       <r>  -16.2079    1.0000 </r>
       <r>  -16.0926    1.0000 </r>
       <r>  -16.0095    1.0000 </r>
       <r>  -15.4517    1.0000 </r>
       <r>  -15.3860    1.0000 </r>
       <r>  -15.0861    1.0000 </r>
       <r>   -7.5705    1.0000 </r>
       <r>   -6.9263    1.0000 </r>
       <r>   -6.7774    1.0000 </r>
       <r>   -6.7372    1.0000 </r>
       <r>   -6.6098    1.0000 </r>
       <r>   -6.5590    1.0000 </r>
       <r>   -6.2523    1.0000 </r>
       <r>   -5.9715    1.0000 </r>
       <r>   -5.8384    1.0000 </r>
       <r>   -5.7585    1.0000 </r>
       <r>   -5.5239    1.0000 </r>
       <r>   -5.4308    1.0000 </r>
       <r>   -5.1498    1.0000 </r>
       <r>   -5.1000    1.0000 </r>
       <r>   -4.9463    1.0000 </r>
       <r>   -4.8070    1.0000 </r>
       <r>   -4.6474    1.0000 </r>
       <r>   -4.4081    1.0000 </r>
       <r>   -4.2866    1.0000 </r>
       <r>   -4.1737    1.0000 </r>
       <r>   -4.1181    1.0000 </r>
       <r>   -3.7509    1.0000 </r>
       <r>   -3.6563    1.0000 </r>
[...]
      </set>
      <set comment="kpoint 12">
       <r>  -36.5605    1.0000 </r>
       <r>  -35.2326    1.0000 </r>
       <r>  -34.2763    1.0000 </r>
       <r>  -33.3911    1.0000 </r>
       <r>  -20.1511    1.0000 </r>
       <r>  -20.0144    1.0000 </r>
       <r>  -19.7799    1.0000 </r>
       <r>  -19.2035    1.0000 </r>
       <r>  -18.9549    1.0000 </r>
       <r>  -18.6941    1.0000 </r>
       <r>  -18.4780    1.0000 </r>
       <r>  -18.3996    1.0000 </r>
       <r>  -18.3402    1.0000 </r>
       <r>  -18.2256    1.0000 </r>
       <r>  -18.0541    1.0000 </r>
       <r>  -17.8323    1.0000 </r>
       <r>  -17.2197    1.0000 </r>
       <r>  -17.1707    1.0000 </r>
       <r>  -17.0686    1.0000 </r>
       <r>  -17.0084    1.0000 </r>
       <r>  -16.5710    1.0000 </r>
       <r>  -16.2579    1.0000 </r>
       <r>  -16.1519    1.0000 </r>
       <r>  -16.1465    1.0000 </r>
       <r>  -15.9794    1.0000 </r>
       <r>  -15.4544    1.0000 </r>
       <r>  -15.1902    1.0000 </r>
       <r>  -15.0327    1.0000 </r>
       <r>   -7.5912    1.0000 </r>
       <r>   -7.0923    1.0000 </r>
       <r>   -6.9523    1.0000 </r>
       <r>   -6.8258    1.0000 </r>
       <r>   -6.6452    1.0000 </r>
       <r>   -6.5387    1.0000 </r>
       <r>   -6.0768    1.0000 </r>
       <r>   -6.0006    1.0000 </r>
       <r>   -5.9036    1.0000 </r>
       <r>   -5.8326    1.0000 </r>
       <r>   -5.5867    1.0000 </r>
       <r>   -5.3576    1.0000 </r>
       <r>   -5.2823    1.0000 </r>
       <r>   -5.2703    1.0000 </r>
       <r>   -5.1332    1.0000 </r>
       <r>   -4.7394    1.0000 </r>
       <r>   -4.6806    1.0000 </r>
       <r>   -4.2892    1.0000 </r>
       <r>   -4.1935    1.0000 </r>
       <r>   -4.1315    1.0000 </r>
       <r>   -4.0377    1.0000 </r>
       <r>   -3.8396    1.0000 </r>
       <r>   -3.7451    1.0000 </r>
       <r>   -3.6548    1.0000 </r>
       <r>   -3.5583    1.0000 </r>
       <r>   -2.8288    1.0000 </r>
       <r>   -2.8119    1.0000 </r>
       <r>   -2.7407    1.0000 </r>
       <r>   -2.0815    1.0000 </r>
       <r>   -1.9888    1.0000 </r>
       <r>   -1.8878    1.0000 </r>
       <r>   -1.7255    1.0000 </r>
       <r>   -1.2166    1.0000 </r>
       <r>   -1.1508    1.0000 </r>
       <r>   -0.8857    1.0426 </r>
       <r>   -0.7329    0.0672 </r>
       <r>   -0.6373   -0.0483 </r>
       <r>   -0.2533    0.0000 </r>
       <r>    0.0870    0.0000 </r>
       <r>    0.7305    0.0000 </r>
       <r>    1.0905    0.0000 </r>
       <r>    1.3953    0.0000 </r>
       <r>    1.4355    0.0000 </r>
       <r>    1.9262    0.0000 </r>
       <r>    2.2321    0.0000 </r>
       <r>    2.2592    0.0000 </r>
       <r>    3.1689    0.0000 </r>
       <r>    3.4869    0.0000 </r>
      </set>
     </set>
    </set>
   </array>
  </eigenvalues>
  <separator name="orbital magnetization" >
   <v name="MAGDIPOLOUT">      0.00000000      0.00000000      0.00000000</v>
  </separator>
  <dos>
   <i name="efermi">     -0.75957887 </i>
   <total>
    <array>
     <dimension dim="1">gridpoints</dimension>
     <dimension dim="2">spin</dimension>
     <field>energy</field>
     <field>total</field>
     <field>integrated</field>
     <set>
      <set comment="spin 1">
       <r>   -38.6323     0.0000     0.0000 </r>
       <r>   -38.4817     0.0000     0.0000 </r>
       <r>   -38.3310     0.0000     0.0000 </r>
       <r>   -38.1804     0.0000     0.0000 </r>
       <r>   -38.0298     0.0000     0.0000 </r>
       <r>   -37.8791     0.0000     0.0000 </r>
       <r>   -37.7285     0.0000     0.0000 </r>
       <r>   -37.5779     0.0000     0.0000 </r>
       <r>   -37.4272     0.0000     0.0000 </r>
       <r>   -37.2766     0.0000     0.0000 </r>
       <r>   -37.1259     0.0000     0.0000 </r>
       <r>   -36.9753     0.0000     0.0000 </r>
       <r>   -36.8247     0.0000     0.0000 </r>
       <r>   -36.6740     0.0000     0.0000 </r>
       <r>   -36.5234     0.0000     2.0000 </r>
       <r>   -36.3728     0.0000     2.0000 </r>
       <r>   -36.2221     0.0000     2.0000 </r>
       <r>   -36.0715     0.0000     2.0000 </r>
       <r>   -35.9209     0.0000     2.0000 </r>
       <r>   -35.7702     0.0000     2.0000 </r>
       <r>   -35.6196     0.0000     2.0000 </r>
       <r>   -35.4690     0.0000     2.0000 </r>
       <r>   -35.3183     0.0000     2.0000 </r>
       <r>   -35.1677     0.0000     4.0000 </r>
       <r>   -35.0170     0.0000     4.0000 </r>
       <r>   -34.8664     0.0000     4.0000 </r>
       <r>   -34.7158     0.0000     4.0000 </r>
       <r>   -34.5651     0.0000     4.0000 </r>
       <r>   -34.4145     0.0000     4.0000 </r>
       <r>   -34.2639     0.0000     6.0000 </r>
       <r>   -34.1132     0.0000     6.0000 </r>
       <r>   -33.9626     0.0000     6.0000 </r>
       <r>   -33.8120     0.0000     6.0000 </r>
       <r>   -33.6613     0.0000     6.0000 </r>
       <r>   -33.5107     0.0000     6.0000 </r>
       <r>   -33.3601     0.0000     8.0000 </r>
       <r>   -33.2094     0.0000     8.0000 </r>
       <r>   -33.0588     0.0000     8.0000 </r>
       <r>   -32.9081     0.0000     8.0000 </r>
       <r>   -32.7575     0.0000     8.0000 </r>
       <r>   -32.6069     0.0000     8.0000 </r>
       <r>   -32.4562     0.0000     8.0000 </r>
       <r>   -32.3056     0.0000     8.0000 </r>
       <r>   -32.1550     0.0000     8.0000 </r>
       <r>   -32.0043     0.0000     8.0000 </r>
       <r>   -31.8537     0.0000     8.0000 </r>
       <r>   -31.7031     0.0000     8.0000 </r>
       <r>   -31.5524     0.0000     8.0000 </r>
       <r>   -31.4018     0.0000     8.0000 </r>
       <r>   -31.2512     0.0000     8.0000 </r>
       <r>   -31.1005     0.0000     8.0000 </r>
       <r>   -30.9499     0.0000     8.0000 </r>
       <r>   -30.7992     0.0000     8.0000 </r>
       <r>   -30.6486     0.0000     8.0000 </r>
       <r>   -30.4980     0.0000     8.0000 </r>
       <r>   -30.3473     0.0000     8.0000 </r>
       <r>   -30.1967     0.0000     8.0000 </r>
       <r>   -30.0461     0.0000     8.0000 </r>
       <r>   -29.8954     0.0000     8.0000 </r>
       <r>   -29.7448     0.0000     8.0000 </r>
       <r>   -29.5942     0.0000     8.0000 </r>
       <r>   -29.4435     0.0000     8.0000 </r>
       <r>   -29.2929     0.0000     8.0000 </r>
       <r>   -29.1423     0.0000     8.0000 </r>
       <r>   -28.9916     0.0000     8.0000 </r>
       <r>   -28.8410     0.0000     8.0000 </r>
       <r>   -28.6903     0.0000     8.0000 </r>
       <r>   -28.5397     0.0000     8.0000 </r>
       <r>   -28.3891     0.0000     8.0000 </r>
       <r>   -28.2384     0.0000     8.0000 </r>
       <r>   -28.0878     0.0000     8.0000 </r>
       <r>   -27.9372     0.0000     8.0000 </r>
       <r>   -27.7865     0.0000     8.0000 </r>
       <r>   -27.6359     0.0000     8.0000 </r>
       <r>   -27.4853     0.0000     8.0000 </r>
       <r>   -27.3346     0.0000     8.0000 </r>
       <r>   -27.1840     0.0000     8.0000 </r>
       <r>   -27.0333     0.0000     8.0000 </r>
       <r>   -26.8827     0.0000     8.0000 </r>
       <r>   -26.7321     0.0000     8.0000 </r>
       <r>   -26.5814     0.0000     8.0000 </r>
       <r>   -26.4308     0.0000     8.0000 </r>
       <r>   -26.2802     0.0000     8.0000 </r>
       <r>   -26.1295     0.0000     8.0000 </r>
       <r>   -25.9789     0.0000     8.0000 </r>
       <r>   -25.8283     0.0000     8.0000 </r>
       <r>   -25.6776     0.0000     8.0000 </r>
       <r>   -25.5270     0.0000     8.0000 </r>
       <r>   -25.3764     0.0000     8.0000 </r>
       <r>   -25.2257     0.0000     8.0000 </r>
       <r>   -25.0751     0.0000     8.0000 </r>
       <r>   -24.9244     0.0000     8.0000 </r>
       <r>   -24.7738     0.0000     8.0000 </r>
       <r>   -24.6232     0.0000     8.0000 </r>
       <r>   -24.4725     0.0000     8.0000 </r>
       <r>   -24.3219     0.0000     8.0000 </r>
       <r>   -24.1713     0.0000     8.0000 </r>
       <r>   -24.0206     0.0000     8.0000 </r>
       <r>   -23.8700     0.0000     8.0000 </r>
       <r>   -23.7194     0.0000     8.0000 </r>
       <r>   -23.5687     0.0000     8.0000 </r>
       <r>   -23.4181     0.0000     8.0000 </r>
       <r>   -23.2675     0.0000     8.0000 </r>
       <r>   -23.1168     0.0000     8.0000 </r>
       <r>   -22.9662     0.0000     8.0000 </r>
       <r>   -22.8155     0.0000     8.0000 </r>
       <r>   -22.6649     0.0000     8.0000 </r>
       <r>   -22.5143     0.0000     8.0000 </r>
       <r>   -22.3636     0.0000     8.0000 </r>
       <r>   -22.2130     0.0000     8.0000 </r>
       <r>   -22.0624     0.0000     8.0000 </r>
       <r>   -21.9117     0.0000     8.0000 </r>
       <r>   -21.7611     0.0000     8.0000 </r>
       <r>   -21.6105     0.0000     8.0000 </r>
       <r>   -21.4598     0.0000     8.0000 </r>
       <r>   -21.3092     0.0000     8.0000 </r>
       <r>   -21.1586     0.0000     8.0000 </r>
       <r>   -21.0079     0.0000     8.0000 </r>
       <r>   -20.8573     0.0000     8.0000 </r>
       <r>   -20.7066     0.0000     8.0000 </r>
       <r>   -20.5560     3.5482     8.2167 </r>
       <r>   -20.4054     4.1028     8.8791 </r>
       <r>   -20.2547     5.7754     9.8044 </r>
       <r>   -20.1041     4.7629    10.7012 </r>
       <r>   -19.9535     3.3509    11.4796 </r>
       <r>   -19.8028     2.6411    11.8695 </r>
       <r>   -19.6522    21.2649    13.1573 </r>
       <r>   -19.5016     0.0000    14.0000 </r>
       <r>   -19.3509     0.0000    14.0000 </r>
       <r>   -19.2003    13.2607    15.5424 </r>
       <r>   -19.0497     9.4240    17.5680 </r>
       <r>   -18.8990     0.0000    18.0000 </r>
       <r>   -18.7484     0.0000    18.0000 </r>
       <r>   -18.5977     5.1894    19.8627 </r>
       <r>   -18.4471    14.8381    23.0461 </r>
       <r>   -18.2965    15.4861    26.4351 </r>
       <r>   -18.1458    12.3935    28.6083 </r>
       <r>   -17.9952     0.0000    30.0000 </r>
       <r>   -17.8446     0.0000    30.0000 </r>
       <r>   -17.6939     4.9068    31.6116 </r>
       <r>   -17.5433     0.0000    32.0000 </r>
       <r>   -17.3927     1.3414    32.0297 </r>
       <r>   -17.2420    34.1032    33.7483 </r>
       <r>   -17.0914    34.0594    37.2835 </r>
       <r>   -16.9408     0.0000    40.0000 </r>
       <r>   -16.7901     0.0000    40.0000 </r>
       <r>   -16.6395     0.0000    40.0000 </r>
       <r>   -16.4888     6.2536    41.6820 </r>
       <r>   -16.3382     5.8676    42.2824 </r>
       <r>   -16.1876    18.0786    45.5059 </r>
       <r>   -16.0369     9.1382    48.5289 </r>
       <r>   -15.8863     0.0000    50.0000 </r>
       <r>   -15.7357     0.0000    50.0000 </r>
       <r>   -15.5850     0.0000    50.0000 </r>
       <r>   -15.4344     8.4418    50.4931 </r>
       <r>   -15.2838     4.1469    52.5419 </r>
       <r>   -15.1331    14.5759    54.5122 </r>
       <r>   -14.9825     0.0000    56.0000 </r>
       <r>   -14.8319     0.0000    56.0000 </r>
       <r>   -14.6812     0.0000    56.0000 </r>
       <r>   -14.5306     0.0000    56.0000 </r>
       <r>   -14.3799     0.0000    56.0000 </r>
       <r>   -14.2293     0.0000    56.0000 </r>
       <r>   -14.0787     0.0000    56.0000 </r>
       <r>   -13.9280     0.0000    56.0000 </r>
       <r>   -13.7774     0.0000    56.0000 </r>
       <r>   -13.6268     0.0000    56.0000 </r>
       <r>   -13.4761     0.0000    56.0000 </r>
       <r>   -13.3255     0.0000    56.0000 </r>
       <r>   -13.1749     0.0000    56.0000 </r>
       <r>   -13.0242     0.0000    56.0000 </r>
       <r>   -12.8736     0.0000    56.0000 </r>
       <r>   -12.7230     0.0000    56.0000 </r>
       <r>   -12.5723     0.0000    56.0000 </r>
       <r>   -12.4217     0.0000    56.0000 </r>
       <r>   -12.2710     0.0000    56.0000 </r>
       <r>   -12.1204     0.0000    56.0000 </r>
       <r>   -11.9698     0.0000    56.0000 </r>
       <r>   -11.8191     0.0000    56.0000 </r>
       <r>   -11.6685     0.0000    56.0000 </r>
       <r>   -11.5179     0.0000    56.0000 </r>
       <r>   -11.3672     0.0000    56.0000 </r>
       <r>   -11.2166     0.0000    56.0000 </r>
       <r>   -11.0660     0.0000    56.0000 </r>
       <r>   -10.9153     0.0000    56.0000 </r>
       <r>   -10.7647     0.0000    56.0000 </r>
       <r>   -10.6141     0.0000    56.0000 </r>
       <r>   -10.4634     0.0000    56.0000 </r>
       <r>   -10.3128     0.0000    56.0000 </r>
       <r>   -10.1621     0.0000    56.0000 </r>
       <r>   -10.0115     0.0000    56.0000 </r>
       <r>    -9.8609     0.0000    56.0000 </r>
       <r>    -9.7102     0.0000    56.0000 </r>
       <r>    -9.5596     0.0000    56.0000 </r>
       <r>    -9.4090     0.0000    56.0000 </r>
       <r>    -9.2583     0.0000    56.0000 </r>
       <r>    -9.1077     0.0000    56.0000 </r>
       <r>    -8.9571     0.0000    56.0000 </r>
       <r>    -8.8064     0.0000    56.0000 </r>
       <r>    -8.6558     0.0000    56.0000 </r>
       <r>    -8.5052     0.0000    56.0000 </r>
       <r>    -8.3545     0.0000    56.0000 </r>
       <r>    -8.2039     0.0000    56.0000 </r>
       <r>    -8.0532     0.0000    56.0000 </r>
       <r>    -7.9026     0.0000    56.0000 </r>
       <r>    -7.7520     0.0000    56.0000 </r>
       <r>    -7.6013     0.0000    56.0000 </r>
       <r>    -7.4507     0.9658    56.4076 </r>
       <r>    -7.3001     0.9653    56.5530 </r>
       <r>    -7.1494     0.9648    56.6984 </r>
       <r>    -6.9988     7.2211    57.1957 </r>
       <r>    -6.8482     8.2054    58.9809 </r>
       <r>    -6.6975    18.7913    60.7673 </r>
       <r>    -6.5469    16.6508    63.0450 </r>
       <r>    -6.3963     7.3424    64.4464 </r>
       <r>    -6.2456     5.5483    65.4977 </r>
       <r>    -6.0950     6.6070    66.4132 </r>
       <r>    -5.9443     9.0054    67.9475 </r>
       <r>    -5.7937    12.2276    69.9566 </r>
       <r>    -5.6431    10.4270    71.6937 </r>
       <r>    -5.4924    15.3067    73.8060 </r>
       <r>    -5.3418    12.3183    75.8172 </r>
       <r>    -5.1912    15.2252    77.8917 </r>
       <r>    -5.0405    13.3899    80.3196 </r>
       <r>    -4.8899    12.4417    82.5185 </r>
       <r>    -4.7393    23.6076    84.5879 </r>
       <r>    -4.5886     9.9329    86.9408 </r>
       <r>    -4.4380     8.3222    88.2784 </r>
       <r>    -4.2874    13.4725    89.9925 </r>
       <r>    -4.1367    16.8593    92.1878 </r>
       <r>    -3.9861    10.2401    94.8653 </r>
       <r>    -3.8354    13.9242    96.5539 </r>
       <r>    -3.6848    10.9533    98.9000 </r>
       <r>    -3.5342    14.0430   100.5239 </r>
       <r>    -3.3835     9.4633   102.2805 </r>
       <r>    -3.2329     6.0973   103.4282 </r>
       <r>    -3.0823    11.6758   104.7076 </r>
       <r>    -2.9316    10.8217   106.3349 </r>
       <r>    -2.7810    15.9374   109.5628 </r>
       <r>    -2.6304     9.2250   111.1298 </r>
       <r>    -2.4797     1.4984   111.9270 </r>
       <r>    -2.3291    12.2248   112.6121 </r>
       <r>    -2.1785     7.1571   113.9511 </r>
       <r>    -2.0278     9.2659   115.6434 </r>
       <r>    -1.8772     3.7984   117.7095 </r>
       <r>    -1.7265    19.9575   118.1316 </r>
       <r>    -1.5759     5.9715   119.2786 </r>
       <r>    -1.4253     3.0630   119.9759 </r>
       <r>    -1.2746    16.3687   121.0006 </r>
       <r>    -1.1240     4.2932   122.7470 </r>
       <r>    -0.9734    14.4283   124.4844 </r>
       <r>    -0.8227    13.8493   126.9049 </r>
       <r>    -0.6721    13.9826   130.2380 </r>
       <r>    -0.5215     7.2776   131.5753 </r>
       <r>    -0.3708     8.4178   132.8451 </r>
       <r>    -0.2202     4.1403   133.8721 </r>
       <r>    -0.0696     3.5596   134.4895 </r>
       <r>     0.0811     5.4238   134.9882 </r>
       <r>     0.2317     2.7399   135.8421 </r>
       <r>     0.3824     6.2259   136.4202 </r>
       <r>     0.5330     7.6339   137.6281 </r>
       <r>     0.6836     7.7658   138.5542 </r>
       <r>     0.8343     6.8984   139.8215 </r>
       <r>     0.9849     7.0169   140.8525 </r>
       <r>     1.1355     3.5813   141.8053 </r>
       <r>     1.2862     3.4252   142.3331 </r>
       <r>     1.4368     5.3535   143.7608 </r>
       <r>     1.5874     2.9010   144.2252 </r>
       <r>     1.7381     3.0948   144.6768 </r>
       <r>     1.8887     7.7305   145.5004 </r>
       <r>     2.0393     3.3702   146.2188 </r>
       <r>     2.1900     3.1552   146.7103 </r>
       <r>     2.3406     1.1967   147.4782 </r>
       <r>     2.4913     1.0355   147.6463 </r>
       <r>     2.6419     3.7258   147.8446 </r>
       <r>     2.7925     2.5766   148.3556 </r>
       <r>     2.9432     3.7262   148.9569 </r>
       <r>     3.0938     4.3714   149.5697 </r>
       <r>     3.2444     2.3703   150.4914 </r>
       <r>     3.3951     2.3174   150.8445 </r>
       <r>     3.5457     0.5805   151.3890 </r>
       <r>     3.6963     0.5277   151.4725 </r>
       <r>     3.8470     0.4749   151.5480 </r>
       <r>     3.9976     0.4220   151.6155 </r>
       <r>     4.1482     0.3797   151.6754 </r>
       <r>     4.2989     1.5430   151.8135 </r>
       <r>     4.4495     0.5068   151.9861 </r>
       <r>     4.6002     0.0000   152.0000 </r>
       <r>     4.7508     0.0000   152.0000 </r>
       <r>     4.9014     0.0000   152.0000 </r>
       <r>     5.0521     0.0000   152.0000 </r>
       <r>     5.2027     0.0000   152.0000 </r>
       <r>     5.3533     0.0000   152.0000 </r>
       <r>     5.5040     0.0000   152.0000 </r>
       <r>     5.6546     0.0000   152.0000 </r>
       <r>     5.8052     0.0000   152.0000 </r>
       <r>     5.9559     0.0000   152.0000 </r>
       <r>     6.1065     0.0000   152.0000 </r>
       <r>     6.2571     0.0000   152.0000 </r>
       <r>     6.4078     0.0000   152.0000 </r>
       <r>     6.5584     0.0000   152.0000 </r>
      </set>
     </set>
    </array>
   </total>
  </dos>
 </calculation>
 <structure name="finalpos" >
  <crystal>
   <varray name="basis" >
    <v>       5.52288297       0.00000000       0.00000000 </v>
    <v>       0.00000000       3.90526800       0.00000000 </v>
    <v>       0.00000000       0.00000000      21.66504520 </v>
   </varray>
   <i name="volume">    467.27902047 </i>
   <varray name="rec_basis" >
    <v>       0.18106485       0.00000000       0.00000000 </v>
    <v>       0.00000000       0.25606437       0.00000000 </v>
    <v>       0.00000000       0.00000000       0.04615730 </v>
   </varray>
  </crystal>
  <varray name="positions" >
   <v>       0.50000000       0.00000000       0.27694380 </v>
   <v>       0.25000000       0.50000000       0.34067414 </v>
   <v>       0.75000000       0.50000000       0.34067414 </v>
   <v>       0.00000000       0.00000000       0.40440449 </v>
   <v>       0.75000000       0.50000000       0.46813483 </v>
   <v>       0.25000000       0.50000000       0.46813483 </v>
   <v>       0.50000000       0.00000000       0.53186517 </v>
   <v>       0.25000000       0.50000000       0.59559551 </v>
   <v>       0.75000000       0.50000000       0.59559551 </v>
   <v>       0.00000000       0.00000000       0.65932586 </v>
   <v>       0.75000000       0.50000000       0.72305620 </v>
   <v>       0.25000000       0.50000000       0.72305620 </v>
   <v>       0.00000000       0.00000000       0.27694380 </v>
   <v>       0.50000000       0.00000000       0.40440449 </v>
   <v>       0.00000000       0.00000000       0.53186517 </v>
   <v>       0.50000000       0.00000000       0.65932586 </v>
   <v>       0.50000000       0.50000000       0.27694380 </v>
   <v>       0.00000000       0.50000000       0.40440449 </v>
   <v>       0.50000000       0.50000000       0.53186517 </v>
   <v>       0.00000000       0.50000000       0.65932586 </v>
  </varray>
 </structure>
</modeling>
