   5   5   0   0
  0.3477306E+02  0.2573869E-09  0.2573869E-09  0.3030467E-08  0.1000000E-15
  1.000000000000000E-004
  CAR 
 unknown system                          
      7.90816634    -14.07825318  301     -2.30889529      1.00000000
    -14.078  0.0000E+00  0.0000E+00
    -14.005  0.0000E+00  0.0000E+00
    -13.932  0.0000E+00  0.0000E+00
    -13.858  0.0000E+00  0.0000E+00
    -13.785  0.0000E+00  0.0000E+00
    -13.712  0.0000E+00  0.0000E+00
    -13.639  0.0000E+00  0.0000E+00
    -13.565  0.0000E+00  0.0000E+00
    -13.492  0.0000E+00  0.0000E+00
    -13.419  0.0000E+00  0.0000E+00
    -13.345  0.0000E+00  0.0000E+00
    -13.272  0.0000E+00  0.0000E+00
    -13.199  0.0000E+00  0.0000E+00
    -13.126  0.0000E+00  0.0000E+00
    -13.052  0.0000E+00  0.0000E+00
    -12.979  0.0000E+00  0.0000E+00
    -12.906  0.0000E+00  0.0000E+00
    -12.832  0.0000E+00  0.0000E+00
    -12.759  0.0000E+00  0.0000E+00
    -12.686  0.0000E+00  0.0000E+00
    -12.612  0.0000E+00  0.0000E+00
    -12.539  0.0000E+00  0.0000E+00
    -12.466  0.0000E+00  0.0000E+00
    -12.393  0.0000E+00  0.0000E+00
    -12.319  0.0000E+00  0.0000E+00
    -12.246  0.0000E+00  0.0000E+00
    -12.173  0.0000E+00  0.0000E+00
    -12.099  0.0000E+00  0.0000E+00
    -12.026  0.7850E-03  0.2044E-04
    -11.953  0.1890E-02  0.1185E-03
    -11.880  0.2995E-02  0.2975E-03
    -11.806  0.3790E-02  0.5564E-03
    -11.733  0.2353E-02  0.7541E-03
    -11.660  0.2462E-02  0.9305E-03
    -11.586  0.2570E-02  0.1115E-02
    -11.513  0.2679E-02  0.1307E-02
    -11.440  0.2787E-02  0.1508E-02
    -11.367  0.2896E-02  0.1716E-02
    -11.293  0.3005E-02  0.1932E-02
    -11.220  0.3036E-02  0.2154E-02
    -11.147  0.3008E-02  0.2376E-02
    -11.073  0.2963E-02  0.2595E-02
    -11.000  0.2967E-02  0.2812E-02
    -10.927  0.2973E-02  0.3029E-02
    -10.854  0.3040E-02  0.3250E-02
    -10.780  0.3131E-02  0.3475E-02
    -10.707  0.4198E-02  0.3744E-02
    -10.634  0.5266E-02  0.4090E-02
    -10.560  0.6334E-02  0.4516E-02
    -10.487  0.7402E-02  0.5019E-02
    -10.414  0.5664E-02  0.5440E-02
    -10.341  0.5899E-02  0.5863E-02
    -10.267  0.6133E-02  0.6304E-02
    -10.194  0.6357E-02  0.6762E-02
    -10.121  0.6622E-02  0.7237E-02
    -10.047  0.6860E-02  0.7731E-02
     -9.974  0.7099E-02  0.8242E-02
     -9.901  0.7337E-02  0.8771E-02
     -9.828  0.7419E-02  0.9312E-02
     -9.754  0.7500E-02  0.9859E-02
     -9.681  0.7583E-02  0.1041E-01
     -9.608  0.8009E-02  0.1097E-01
     -9.534  0.9338E-02  0.1161E-01
     -9.461  0.1038E-01  0.1233E-01
     -9.388  0.1134E-01  0.1313E-01
     -9.315  0.1179E-01  0.1398E-01
     -9.241  0.9446E-02  0.1481E-01
     -9.168  0.9704E-02  0.1551E-01
     -9.095  0.1018E-01  0.1624E-01
     -9.021  0.1177E-01  0.1704E-01
     -8.948  0.1346E-01  0.1796E-01
     -8.875  0.1503E-01  0.1901E-01
     -8.802  0.1428E-01  0.2013E-01
     -8.728  0.1494E-01  0.2120E-01
     -8.655  0.1612E-01  0.2233E-01
     -8.582  0.1939E-01  0.2357E-01
     -8.508  0.2485E-01  0.2520E-01
     -8.435  0.3613E-01  0.2774E-01
     -8.362  0.7180E-02  0.2940E-01
     -8.288  0.7402E-02  0.2994E-01
     -8.215  0.7592E-02  0.3049E-01
     -8.142  0.7782E-02  0.3105E-01
     -8.069  0.8038E-02  0.3163E-01
     -7.995  0.8319E-02  0.3223E-01
     -7.922  0.8599E-02  0.3285E-01
     -7.849  0.8879E-02  0.3349E-01
     -7.775  0.9197E-02  0.3415E-01
     -7.702  0.9869E-02  0.3485E-01
     -7.629  0.1086E-01  0.3560E-01
     -7.556  0.1220E-01  0.3644E-01
     -7.482  0.1538E-01  0.3744E-01
     -7.409  0.1873E-01  0.3869E-01
     -7.336  0.2249E-01  0.4020E-01
     -7.262  0.2276E-01  0.4181E-01
     -7.189  0.2518E-01  0.4356E-01
     -7.116  0.3041E-01  0.4553E-01
     -7.043  0.2955E-01  0.4793E-01
     -6.969  0.3649E-01  0.5032E-01
     -6.896  0.4586E-01  0.5336E-01
     -6.823  0.4950E-01  0.5659E-01
     -6.749  0.5700E-01  0.6058E-01
     -6.676  0.5566E-01  0.6479E-01
     -6.603  0.4509E-01  0.6849E-01
     -6.530  0.4463E-01  0.7162E-01
     -6.456  0.1112E+00  0.7743E-01
     -6.383  0.1145E+00  0.8476E-01
     -6.310  0.1126E+00  0.9330E-01
     -6.236  0.1063E+00  0.1019E+00
     -6.163  0.7192E-01  0.1095E+00
     -6.090  0.5624E-01  0.1133E+00
     -6.017  0.1066E+00  0.1199E+00
     -5.943  0.1867E+00  0.1291E+00
     -5.870  0.9549E-01  0.1361E+00
     -5.797  0.1257E+00  0.1448E+00
     -5.723  0.9135E-01  0.1516E+00
     -5.650  0.8387E-01  0.1584E+00
     -5.577  0.1898E+00  0.1691E+00
     -5.504  0.1157E+00  0.1791E+00
     -5.430  0.8579E-01  0.1866E+00
     -5.357  0.1154E+00  0.1983E+00
     -5.284  0.3584E+00  0.2132E+00
     -5.210  0.1276E+00  0.2254E+00
     -5.137  0.7166E-01  0.2353E+00
     -5.064  0.2709E+00  0.2450E+00
     -4.991  0.2553E+00  0.2583E+00
     -4.917  0.1909E+00  0.2724E+00
     -4.844  0.1696E+00  0.2850E+00
     -4.771  0.1228E+00  0.2944E+00
     -4.697  0.1273E+00  0.3026E+00
     -4.624  0.1510E+00  0.3134E+00
     -4.551  0.1577E+00  0.3227E+00
     -4.478  0.1397E+00  0.3370E+00
     -4.404  0.1284E+00  0.3495E+00
     -4.331  0.1065E+00  0.3585E+00
     -4.258  0.2058E+00  0.3687E+00
     -4.184  0.1294E+00  0.3795E+00
     -4.111  0.1437E+00  0.3908E+00
     -4.038  0.2525E+00  0.4022E+00
     -3.965  0.1475E+00  0.4149E+00
     -3.891  0.1343E+00  0.4261E+00
     -3.818  0.4998E-01  0.4333E+00
     -3.745  0.4311E-01  0.4367E+00
     -3.671  0.3504E-01  0.4395E+00
     -3.598  0.3044E-01  0.4419E+00
     -3.525  0.1987E-01  0.4437E+00
     -3.451  0.1686E-01  0.4450E+00
     -3.378  0.1690E-01  0.4463E+00
     -3.305  0.1695E-01  0.4475E+00
     -3.232  0.1699E-01  0.4488E+00
     -3.158  0.1701E-01  0.4500E+00
     -3.085  0.1693E-01  0.4513E+00
     -3.012  0.1679E-01  0.4525E+00
     -2.938  0.1668E-01  0.4537E+00
     -2.865  0.1617E-01  0.4549E+00
     -2.792  0.1743E-01  0.4562E+00
     -2.719  0.1524E-01  0.4574E+00
     -2.645  0.1474E-01  0.4585E+00
     -2.572  0.1491E-01  0.4596E+00
     -2.499  0.1511E-01  0.4607E+00
     -2.425  0.1542E-01  0.4618E+00
     -2.352  0.1532E-01  0.4629E+00
     -2.279  0.1819E-01  0.4645E+00
     -2.206  0.1531E-01  0.4657E+00
     -2.132  0.1426E-01  0.4668E+00
     -2.059  0.1356E-01  0.4678E+00
     -1.986  0.1351E-01  0.4688E+00
     -1.912  0.1338E-01  0.4698E+00
     -1.839  0.1250E-01  0.4707E+00
     -1.766  0.1169E-01  0.4716E+00
     -1.693  0.1166E-01  0.4725E+00
     -1.619  0.1189E-01  0.4733E+00
     -1.546  0.1212E-01  0.4742E+00
     -1.473  0.1122E-01  0.4750E+00
     -1.399  0.1135E-01  0.4759E+00
     -1.326  0.1073E-01  0.4771E+00
     -1.253  0.1078E-01  0.4779E+00
     -1.180  0.1084E-01  0.4787E+00
     -1.106  0.1089E-01  0.4795E+00
     -1.033  0.1094E-01  0.4803E+00
     -0.960  0.1100E-01  0.4811E+00
     -0.886  0.1118E-01  0.4819E+00
     -0.813  0.1183E-01  0.4827E+00
     -0.740  0.1284E-01  0.4836E+00
     -0.667  0.1293E-01  0.4846E+00
     -0.593  0.1260E-01  0.4855E+00
     -0.520  0.1242E-01  0.4864E+00
     -0.447  0.1330E-01  0.4874E+00
     -0.373  0.1064E-01  0.4885E+00
     -0.300  0.1114E-01  0.4893E+00
     -0.227  0.1164E-01  0.4902E+00
     -0.154  0.1161E-01  0.4910E+00
     -0.080  0.1076E-01  0.4918E+00
     -0.007  0.9921E-02  0.4926E+00
      0.066  0.9081E-02  0.4933E+00
      0.140  0.9284E-02  0.4940E+00
      0.213  0.9185E-02  0.4946E+00
      0.286  0.9089E-02  0.4953E+00
      0.359  0.9356E-02  0.4960E+00
      0.433  0.9204E-02  0.4967E+00
      0.506  0.9052E-02  0.4973E+00
      0.579  0.8939E-02  0.4980E+00
      0.653  0.8765E-02  0.4986E+00
      0.726  0.1063E-01  0.4994E+00
      0.799  0.7142E-02  0.5000E+00
      0.873  0.7117E-02  0.5005E+00
      0.946  0.7121E-02  0.5011E+00
      1.019  0.7280E-02  0.5016E+00
      1.092  0.7008E-02  0.5021E+00
      1.166  0.6737E-02  0.5026E+00
      1.239  0.6585E-02  0.5031E+00
      1.312  0.7334E-02  0.5036E+00
      1.386  0.8082E-02  0.5042E+00
      1.459  0.8831E-02  0.5048E+00
      1.532  0.9580E-02  0.5055E+00
      1.605  0.1155E-01  0.5064E+00
      1.679  0.9325E-02  0.5071E+00
      1.752  0.1203E-01  0.5079E+00
      1.825  0.1369E-01  0.5088E+00
      1.899  0.1536E-01  0.5099E+00
      1.972  0.1463E-01  0.5110E+00
      2.045  0.1578E-01  0.5121E+00
      2.118  0.1525E-01  0.5133E+00
      2.192  0.1461E-01  0.5144E+00
      2.265  0.1723E-01  0.5155E+00
      2.338  0.2073E-01  0.5169E+00
      2.412  0.1526E-01  0.5182E+00
      2.485  0.1790E-01  0.5193E+00
      2.558  0.2071E-01  0.5208E+00
      2.631  0.1926E-01  0.5223E+00
      2.705  0.1680E-01  0.5236E+00
      2.778  0.1677E-01  0.5248E+00
      2.851  0.1492E-01  0.5261E+00
      2.925  0.1477E-01  0.5271E+00
      2.998  0.1482E-01  0.5282E+00
      3.071  0.1478E-01  0.5293E+00
      3.144  0.2081E-01  0.5305E+00
      3.218  0.3747E-01  0.5325E+00
      3.291  0.2442E-01  0.5345E+00
      3.364  0.2329E-01  0.5363E+00
      3.438  0.2363E-01  0.5380E+00
      3.511  0.2577E-01  0.5398E+00
      3.584  0.2668E-01  0.5417E+00
      3.657  0.2655E-01  0.5437E+00
      3.731  0.2574E-01  0.5456E+00
      3.804  0.2262E-01  0.5474E+00
      3.877  0.2179E-01  0.5490E+00
      3.951  0.1943E-01  0.5505E+00
      4.024  0.1880E-01  0.5519E+00
      4.097  0.1856E-01  0.5532E+00
      4.170  0.1844E-01  0.5546E+00
      4.244  0.1973E-01  0.5560E+00
      4.317  0.2098E-01  0.5575E+00
      4.390  0.2858E-01  0.5592E+00
      4.464  0.2448E-01  0.5613E+00
      4.537  0.2346E-01  0.5631E+00
      4.610  0.1891E-01  0.5647E+00
      4.683  0.1543E-01  0.5659E+00
      4.757  0.1517E-01  0.5670E+00
      4.830  0.1491E-01  0.5681E+00
      4.903  0.1479E-01  0.5692E+00
      4.977  0.1780E-01  0.5704E+00
      5.050  0.1588E-01  0.5717E+00
      5.123  0.1485E-01  0.5728E+00
      5.197  0.1408E-01  0.5738E+00
      5.270  0.1003E-01  0.5747E+00
      5.343  0.7301E-02  0.5753E+00
      5.416  0.6506E-02  0.5758E+00
      5.490  0.5803E-02  0.5763E+00
      5.563  0.4632E-02  0.5767E+00
      5.636  0.3382E-02  0.5770E+00
      5.710  0.2132E-02  0.5772E+00
      5.783  0.8816E-03  0.5773E+00
      5.856  0.1849E-03  0.5773E+00
      5.929  0.0000E+00  0.5773E+00
      6.003  0.0000E+00  0.5773E+00
      6.076  0.0000E+00  0.5773E+00
      6.149  0.0000E+00  0.5773E+00
      6.223  0.0000E+00  0.5773E+00
      6.296  0.0000E+00  0.5773E+00
      6.369  0.0000E+00  0.5773E+00
      6.442  0.0000E+00  0.5773E+00
      6.516  0.0000E+00  0.5773E+00
      6.589  0.0000E+00  0.5773E+00
      6.662  0.0000E+00  0.5773E+00
      6.736  0.0000E+00  0.5773E+00
      6.809  0.0000E+00  0.5773E+00
      6.882  0.0000E+00  0.5773E+00
      6.955  0.0000E+00  0.5773E+00
      7.029  0.0000E+00  0.5773E+00
      7.102  0.0000E+00  0.5773E+00
      7.175  0.0000E+00  0.5773E+00
      7.249  0.0000E+00  0.5773E+00
      7.322  0.0000E+00  0.5773E+00
      7.395  0.0000E+00  0.5773E+00
      7.468  0.0000E+00  0.5773E+00
      7.542  0.0000E+00  0.5773E+00
      7.615  0.0000E+00  0.5773E+00
      7.688  0.0000E+00  0.5773E+00
      7.762  0.0000E+00  0.5773E+00
      7.835  0.0000E+00  0.5773E+00
      7.908  0.0000E+00  0.5773E+00
