    5    5   97    1
  0.3477306E+02  0.2573869E-09  0.2573869E-09  0.3030466E-08  0.1000000E-15
  1.000000000000000E-004
  CAR 
 unknown system                          
     45     31     28
 
  0.0000000E+00  0.0000000E+00  0.0000000E+00  0.1000000E-01
    1      -12.078253   1.000000
    2      -10.782003   1.000000
    3       -9.084603   1.000000
    4       -7.544757   1.000000
    5       -6.154908   1.000000
    6       -5.828456   1.000000
    7       -5.644051   1.000000
    8       -5.386053   1.000000
    9       -5.286621   1.000000
   10       -5.251265   1.000000
   11       -5.233658   1.000000
   12       -5.229126   1.000000
   13       -5.207110   1.000000
   14       -5.024667   1.000000
   15       -4.976657   1.000000
   16       -4.955648   1.000000
   17       -4.745778   1.000000
   18       -4.696748   1.000000
   19       -4.459683   1.000000
   20       -4.458277   1.000000
   21       -4.241768   1.000000
   22       -4.235952   1.000000
   23       -3.956595   1.000000
   24       -3.956119   1.000000
   25       -2.878262   1.305517
   26        1.706305   0.000000
   27        2.110865   0.000000
   28        2.548967   0.000000
 
  0.1000000E+00  0.6938894E-17  0.0000000E+00  0.4000000E-01
    1      -11.780237   1.000000
    2      -10.480632   1.000000
    3       -8.820776   1.000000
    4       -7.325929   1.000000
    5       -6.203346   1.000000
    6       -5.818405   1.000000
    7       -5.700881   1.000000
    8       -5.548291   1.000000
    9       -5.384723   1.000000
   10       -5.316236   1.000000
   11       -5.283127   1.000000
   12       -5.146556   1.000000
   13       -5.130147   1.000000
   14       -5.070298   1.000000
   15       -4.998939   1.000000
   16       -4.897004   1.000000
   17       -4.794990   1.000000
   18       -4.647933   1.000000
   19       -4.483391   1.000000
   20       -4.440333   1.000000
   21       -4.260057   1.000000
   22       -4.233137   1.000000
   23       -3.953196   1.000000
   24       -3.701008   1.000000
   25       -2.180058   0.116325
   26        1.948450   0.000000
   27        2.410795   0.000000
   28        2.849782   0.000000
 
  0.2000000E+00 -0.1387779E-16  0.0000000E+00  0.4000000E-01
    1      -10.929687   1.000000
    2       -9.623982   1.000000
    3       -8.135813   1.000000
    4       -6.825638   1.000000
    5       -6.388984   1.000000
    6       -5.992027   1.000000
    7       -5.838304   1.000000
    8       -5.660587   1.000000
    9       -5.497678   1.000000
   10       -5.355269   1.000000
   11       -5.263020   1.000000
   12       -5.191733   1.000000
   13       -5.054775   1.000000
   14       -4.984430   1.000000
   15       -4.889348   1.000000
   16       -4.831198   1.000000
   17       -4.753962   1.000000
   18       -4.604473   1.000000
   19       -4.519564   1.000000
   20       -4.439555   1.000000
   21       -4.236812   1.000000
   22       -4.023970   1.000000
   23       -3.946019   1.000000
   24       -2.769185   0.911892
   25       -0.813105   0.000000
   26        2.676747   0.000000
   27        3.306829   0.000000
   28        3.750997   0.000000
 
  0.3000000E+00 -0.2775558E-16  0.0000000E+00  0.4000000E-01
    1       -9.717842   1.000000
    2       -8.422911   1.000000
    3       -7.457272   1.000000
    4       -6.715151   1.000000
    5       -6.382706   1.000000
    6       -6.242138   1.000000
    7       -5.939746   1.000000
    8       -5.690748   1.000000
    9       -5.576386   1.000000
   10       -5.284711   1.000000
   11       -5.141328   1.000000
   12       -5.038684   1.000000
   13       -4.944421   1.000000
   14       -4.898395   1.000000
   15       -4.823125   1.000000
   16       -4.614962   1.000000
   17       -4.522325   1.000000
   18       -4.338903   1.000000
   19       -4.314578   1.000000
   20       -4.237274   1.000000
   21       -4.123803   1.000000
   22       -3.934286   1.000000
   23       -3.540814   1.000000
   24       -1.556657  -0.039580
   25        0.933460   0.000000
   26        3.860033   0.000000
   27        4.661721   0.000000
   28        5.193395   0.000000
 
  0.4000000E+00 -0.2775558E-16  0.0000000E+00  0.4000000E-01
    1       -8.713582   1.000000
    2       -7.413677   1.000000
    3       -7.125776   1.000000
    4       -6.824681   1.000000
    5       -6.475194   1.000000
    6       -6.393247   1.000000
    7       -6.035828   1.000000
    8       -5.539117   1.000000
    9       -5.407593   1.000000
   10       -5.253816   1.000000
   11       -5.186933   1.000000
   12       -4.946211   1.000000
   13       -4.853655   1.000000
   14       -4.592083   1.000000
   15       -4.428473   1.000000
   16       -4.324525   1.000000
   17       -4.096391   1.000000
   18       -4.072810   1.000000
   19       -4.009867   1.000000
   20       -3.932546   1.000000
   21       -3.805609   1.000000
   22       -3.548248   1.083277
   23       -2.515042   0.621441
   24       -0.181295   0.000000
   25        2.127297   0.000000
   26        2.902124   0.000000
   27        3.317767   0.000000
   28        4.543585   0.000000
 
  0.5000000E+00 -0.2775558E-16  0.0000000E+00  0.2000000E-01
    1       -8.427385   1.000000
    2       -7.147736   1.000000
    3       -6.947267   1.000000
    4       -6.883358   1.000000
    5       -6.534390   1.000000
    6       -6.427844   1.000000
    7       -6.048967   1.000000
    8       -5.424487   1.000000
    9       -5.391755   1.000000
   10       -5.217078   1.000000
   11       -5.140080   1.000000
   12       -4.930874   1.000000
   13       -4.596647   1.000000
   14       -4.497668   1.000000
   15       -4.413058   1.000000
   16       -4.213282   1.000000
   17       -4.011076   1.000000
   18       -3.913528   1.000000
   19       -3.853316   1.000000
   20       -3.725383   1.000000
   21       -3.688072   1.000000
   22       -2.257587   0.558533
   23       -1.384444  -0.029348
   24       -0.836154   0.000000
   25        1.230399   0.000000
   26        2.226072   0.000000
   27        3.108603   0.000000
   28        3.897176   0.000000
 
  0.0000000E+00  0.1000000E+00  0.0000000E+00  0.2000000E-01
    1      -11.813044   1.000000
    2      -10.481786   1.000000
    3       -8.814595   1.000000
    4       -7.321633   1.000000
    5       -6.156064   1.000000
    6       -5.827544   1.000000
    7       -5.540548   1.000000
    8       -5.509353   1.000000
    9       -5.339324   1.000000
   10       -5.302177   1.000000
   11       -5.267855   1.000000
   12       -5.253980   1.000000
   13       -5.129062   1.000000
   14       -5.051420   1.000000
   15       -4.996145   1.000000
   16       -4.995557   1.000000
   17       -4.864371   1.000000
   18       -4.667563   1.000000
   19       -4.486456   1.000000
   20       -4.430149   1.000000
   21       -4.263393   1.000000
   22       -4.239181   1.000000
   23       -3.953512   1.000000
   24       -3.722686   1.000000
   25       -2.191455   0.123122
   26        1.951608   0.000000
   27        2.409866   0.000000
   28        2.849349   0.000000
 
  0.2000000E+00  0.1000000E+00  0.0000000E+00  0.2000000E-01
    1      -11.180980   1.000000
    2       -9.900534   1.000000
    3       -8.350599   1.000000
    4       -6.957395   1.000000
    5       -6.327902   1.000000
    6       -5.891863   1.000000
    7       -5.837196   1.000000
    8       -5.604184   1.000000
    9       -5.544782   1.000000
   10       -5.446395   1.000000
   11       -5.313061   1.000000
   12       -5.140685   1.000000
   13       -5.091123   1.000000
   14       -5.036438   1.000000
   15       -4.925035   1.000000
   16       -4.840643   1.000000
   17       -4.685215   1.000000
   18       -4.593614   1.000000
   19       -4.557898   1.000000
   20       -4.418377   1.000000
   21       -4.309224   1.000000
   22       -4.057873   1.000000
   23       -3.980420   1.000000
   24       -3.013096   1.042715
   25       -1.206662   0.000000
   26        2.431359   0.000000
   27        3.010010   0.000000
   28        3.451653   0.000000
 
  0.3000000E+00  0.1000000E+00  0.0000000E+00  0.4000000E-01
    1      -10.137789   1.000000
    2       -8.856988   1.000000
    3       -7.651637   1.000000
    4       -6.616096   1.000000
    5       -6.295277   1.000000
    6       -6.099427   1.000000
    7       -5.914910   1.000000
    8       -5.761874   1.000000
    9       -5.623132   1.000000
   10       -5.314306   1.000000
   11       -5.269494   1.000000
   12       -5.230655   1.000000
   13       -5.105690   1.000000
   14       -5.014716   1.000000
   15       -4.881421   1.000000
   16       -4.745505   1.000000
   17       -4.607357   1.000000
   18       -4.440538   1.000000
   19       -4.323717   1.000000
   20       -4.274077   1.000000
   21       -4.129680   1.000000
   22       -4.010205   1.000000
   23       -3.655339   1.000000
   24       -1.960938   0.111609
   25        0.309607   0.000000
   26        3.413751   0.000000
   27        4.185341   0.000000
   28        4.645189   0.000000
 
  0.4000000E+00  0.1000000E+00  0.0000000E+00  0.4000000E-01
    1       -9.050582   1.000000
    2       -7.692138   1.000000
    3       -7.132346   1.000000
    4       -6.655358   1.000000
    5       -6.345922   1.000000
    6       -6.246741   1.000000
    7       -5.949507   1.000000
    8       -5.654843   1.000000
    9       -5.568789   1.000000
   10       -5.279694   1.000000
   11       -5.227820   1.000000
   12       -5.071611   1.000000
   13       -4.935587   1.000000
   14       -4.813534   1.000000
   15       -4.731695   1.000000
   16       -4.560449   1.000000
   17       -4.434174   1.000000
   18       -4.276081   1.000000
   19       -4.143838   1.000000
   20       -3.960185   1.000000
   21       -3.917403   1.000000
   22       -3.610706   1.000000
   23       -2.788664   0.851608
   24       -0.544629   0.000000
   25        2.167875   0.000000
   26        3.739472   0.000000
   27        4.488439   0.000000
   28        5.322072   0.000000
 
  0.5000000E+00  0.1000000E+00  0.0000000E+00  0.4000000E-01
    1       -8.491275   1.000000
    2       -7.049143   1.000000
    3       -6.886846   1.000000
    4       -6.737489   1.000000
    5       -6.436518   1.000000
    6       -6.323074   1.000000
    7       -6.018350   1.000000
    8       -5.545866   1.000000
    9       -5.404393   1.000000
   10       -5.299905   1.000000
   11       -5.179620   1.000000
   12       -5.041834   1.000000
   13       -4.822531   1.000000
   14       -4.530564   1.000000
   15       -4.472139   1.000000
   16       -4.263452   1.000000
   17       -4.145902   1.000000
   18       -4.083178   1.000000
   19       -3.999197   1.000000
   20       -3.845962   1.000000
   21       -3.591919   1.000000
   22       -2.348577   0.741781
   23       -1.347539  -0.047126
   24        0.114963   0.000000
   25        1.545497   0.000000
   26        2.595149   0.000000
   27        3.203652   0.000000
   28        4.458247   0.000000
 
 -0.4000000E+00  0.1000000E+00  0.0000000E+00  0.4000000E-01
    1       -8.445963   1.000000
    2       -7.048684   1.000000
    3       -6.884091   1.000000
    4       -6.773245   1.000000
    5       -6.437656   1.000000
    6       -6.355567   1.000000
    7       -6.053015   1.000000
    8       -5.633753   1.000000
    9       -5.401490   1.000000
   10       -5.320240   1.000000
   11       -5.216585   1.000000
   12       -5.053147   1.000000
   13       -4.842057   1.000000
   14       -4.510964   1.000000
   15       -4.425923   1.000000
   16       -4.254082   1.000000
   17       -4.127393   1.000000
   18       -4.054013   1.000000
   19       -3.996018   1.000000
   20       -3.843555   1.000000
   21       -3.478630   1.000000
   22       -2.346432   0.737901
   23       -1.356314  -0.045099
   24        0.113038   0.000000
   25        1.552009   0.000000
   26        2.580471   0.000000
   27        3.225614   0.000000
   28        4.414409   0.000000
 
 -0.3000000E+00  0.1000000E+00  0.0000000E+00  0.4000000E-01
    1       -9.072580   1.000000
    2       -7.675877   1.000000
    3       -7.122154   1.000000
    4       -6.693402   1.000000
    5       -6.380165   1.000000
    6       -6.274913   1.000000
    7       -6.006804   1.000000
    8       -5.715626   1.000000
    9       -5.586131   1.000000
   10       -5.329626   1.000000
   11       -5.252575   1.000000
   12       -5.095974   1.000000
   13       -4.927223   1.000000
   14       -4.737763   1.000000
   15       -4.635306   1.000000
   16       -4.497391   1.000000
   17       -4.394247   1.000000
   18       -4.233129   1.000000
   19       -4.122942   1.000000
   20       -3.949064   1.000000
   21       -3.904798   1.000000
   22       -3.607791   1.000000
   23       -2.814082   0.864239
   24       -0.624831   0.000000
   25        2.087090   0.000000
   26        3.901233   0.000000
   27        4.529623   0.000000
   28        5.294450   0.000000
 
 -0.2000000E+00  0.1000000E+00  0.0000000E+00  0.4000000E-01
    1      -10.251557   1.000000
    2       -8.841871   1.000000
    3       -7.586651   1.000000
    4       -6.595051   1.000000
    5       -6.305287   1.000000
    6       -6.120743   1.000000
    7       -5.929086   1.000000
    8       -5.764487   1.000000
    9       -5.618922   1.000000
   10       -5.326008   1.000000
   11       -5.268652   1.000000
   12       -5.186362   1.000000
   13       -5.044651   1.000000
   14       -4.912639   1.000000
   15       -4.895878   1.000000
   16       -4.760614   1.000000
   17       -4.595345   1.000000
   18       -4.460236   1.000000
   19       -4.338202   1.000000
   20       -4.273414   1.000000
   21       -4.129553   1.000000
   22       -4.013674   1.000000
   23       -3.687373   1.000000
   24       -2.060834   0.169482
   25        0.245949   0.000000
   26        3.426089   0.000000
   27        4.186606   0.000000
   28        4.642578   0.000000
 
 -0.1000000E+00  0.1000000E+00  0.0000000E+00  0.4000000E-01
    1      -11.272463   1.000000
    2       -9.899977   1.000000
    3       -8.322928   1.000000
    4       -6.938031   1.000000
    5       -6.242301   1.000000
    6       -5.859593   1.000000
    7       -5.790971   1.000000
    8       -5.586899   1.000000
    9       -5.450063   1.000000
   10       -5.331086   1.000000
   11       -5.321092   1.000000
   12       -5.175992   1.000000
   13       -5.110618   1.000000
   14       -5.093511   1.000000
   15       -4.935623   1.000000
   16       -4.890642   1.000000
   17       -4.693996   1.000000
   18       -4.620449   1.000000
   19       -4.584296   1.000000
   20       -4.441316   1.000000
   21       -4.324167   1.000000
   22       -4.055459   1.000000
   23       -3.993946   1.000000
   24       -3.093773   1.072574
   25       -1.243549   0.000000
   26        2.439791   0.000000
   27        3.007780   0.000000
   28        3.450155   0.000000
 
  0.0000000E+00  0.2000000E+00  0.0000000E+00  0.2000000E-01
    1      -11.089094   1.000000
    2       -9.624473   1.000000
    3       -8.095972   1.000000
    4       -6.787034   1.000000
    5       -6.150657   1.000000
    6       -5.851481   1.000000
    7       -5.720672   1.000000
    8       -5.654451   1.000000
    9       -5.478003   1.000000
   10       -5.290716   1.000000
   11       -5.274435   1.000000
   12       -5.235247   1.000000
   13       -5.183515   1.000000
   14       -5.010852   1.000000
   15       -4.931390   1.000000
   16       -4.837528   1.000000
   17       -4.785503   1.000000
   18       -4.618005   1.000000
   19       -4.548088   1.000000
   20       -4.447792   1.000000
   21       -4.240127   1.000000
   22       -4.082681   1.000000
   23       -3.946766   1.000000
   24       -2.894789   1.030502
   25       -0.873543   0.000000
   26        2.684939   0.000000
   27        3.303354   0.000000
   28        3.747346   0.000000
 
  0.4000000E+00  0.2000000E+00  0.0000000E+00  0.2000000E-01
    1       -9.195455   1.000000
    2       -7.794227   1.000000
    3       -7.083559   1.000000
    4       -6.471126   1.000000
    5       -6.273287   1.000000
    6       -6.021346   1.000000
    7       -5.951801   1.000000
    8       -5.864901   1.000000
    9       -5.586459   1.000000
   10       -5.436827   1.000000
   11       -5.307320   1.000000
   12       -5.253159   1.000000
   13       -5.006117   1.000000
   14       -4.921635   1.000000
   15       -4.834610   1.000000
   16       -4.736535   1.000000
   17       -4.496494   1.000000
   18       -4.338163   1.000000
   19       -4.191199   1.000000
   20       -3.946285   1.000000
   21       -3.927314   1.000000
   22       -3.553317   1.000000
   23       -2.784490   0.838421
   24       -0.667612   0.000000
   25        1.946455   0.000000
   26        4.526179   0.000000
   27        4.988313   0.000000
   28        5.908166   0.000000
 
  0.5000000E+00  0.2000000E+00  0.0000000E+00  0.4000000E-01
    1       -8.584059   1.000000
    2       -6.871024   1.000000
    3       -6.663350   1.000000
    4       -6.482229   1.000000
    5       -6.270793   1.000000
    6       -6.151231   1.000000
    7       -5.927909   1.000000
    8       -5.778110   1.000000
    9       -5.567086   1.000000
   10       -5.465348   1.000000
   11       -5.374386   1.000000
   12       -5.052634   1.000000
   13       -4.976420   1.000000
   14       -4.830825   1.000000
   15       -4.675686   1.000000
   16       -4.540077   1.000000
   17       -4.387438   1.000000
   18       -4.221631   1.000000
   19       -4.050729   1.000000
   20       -3.854930   1.000000
   21       -3.461853   1.007811
   22       -2.354227   0.601005
   23       -1.183602  -0.043102
   24        0.969027   0.000000
   25        2.673180   0.000000
   26        3.578510   0.000000
   27        4.032979   0.000000
   28        5.043420   0.000000
 
 -0.4000000E+00  0.2000000E+00  0.0000000E+00  0.4000000E-01
    1       -8.372027   1.000000
    2       -6.672247   1.000000
    3       -6.570709   1.000000
    4       -6.468324   1.000000
    5       -6.254613   1.000000
    6       -6.166593   1.000000
    7       -5.947264   1.000000
    8       -5.827395   1.000000
    9       -5.580973   1.000000
   10       -5.445924   1.000000
   11       -5.360975   1.000000
   12       -5.097452   1.000000
   13       -4.920964   1.000000
   14       -4.696656   1.000000
   15       -4.558088   1.000000
   16       -4.524898   1.000000
   17       -4.250126   1.000000
   18       -4.108584   1.000000
   19       -4.025580   1.000000
   20       -3.924299   1.000000
   21       -2.659708   1.005234
   22       -0.716789  -0.222327
   23       -0.150754   0.000000
   24        0.613403   0.000000
   25        1.661938   0.000000
   26        2.833978   0.000000
   27        3.691764   0.000000
   28        4.349356   0.000000
 
 -0.3000000E+00  0.2000000E+00  0.0000000E+00  0.4000000E-01
    1       -8.609638   1.000000
    2       -6.874467   1.000000
    3       -6.666927   1.000000
    4       -6.499868   1.000000
    5       -6.315751   1.000000
    6       -6.170032   1.000000
    7       -5.960936   1.000000
    8       -5.808449   1.000000
    9       -5.610200   1.000000
   10       -5.508744   1.000000
   11       -5.429554   1.000000
   12       -5.058853   1.000000
   13       -4.976386   1.000000
   14       -4.827743   1.000000
   15       -4.685617   1.000000
   16       -4.522860   1.000000
   17       -4.356943   1.000000
   18       -4.182607   1.000000
   19       -4.004142   1.000000
   20       -3.856580   1.000000
   21       -3.172875   1.034397
   22       -2.351956   0.599782
   23       -1.234028  -0.034457
   24        0.848760   0.000000
   25        2.717497   0.000000
   26        3.675721   0.000000
   27        3.896254   0.000000
   28        4.856591   0.000000
 
 -0.2000000E+00  0.2000000E+00  0.0000000E+00  0.4000000E-01
    1       -9.442435   1.000000
    2       -7.744420   1.000000
    3       -6.979374   1.000000
    4       -6.447485   1.000000
    5       -6.214786   1.000000
    6       -6.032569   1.000000
    7       -5.951379   1.000000
    8       -5.875909   1.000000
    9       -5.592002   1.000000
   10       -5.469710   1.000000
   11       -5.414864   1.000000
   12       -5.299492   1.000000
   13       -4.995827   1.000000
   14       -4.919830   1.000000
   15       -4.822800   1.000000
   16       -4.572538   1.000000
   17       -4.441477   1.000000
   18       -4.265734   1.000000
   19       -4.141392   1.000000
   20       -3.949959   1.000000
   21       -3.884923   1.000000
   22       -3.556850   1.000000
   23       -2.853980   0.870419
   24       -0.871321   0.000000
   25        1.737096   0.000000
   26        4.608172   0.000000
   27        5.099213   0.000000
   28        5.815120   0.000000
 
 -0.1000000E+00  0.2000000E+00  0.0000000E+00  0.4000000E-01
    1      -10.418847   1.000000
    2       -8.838555   1.000000
    3       -7.538269   1.000000
    4       -6.478678   1.000000
    5       -6.186229   1.000000
    6       -5.945055   1.000000
    7       -5.894762   1.000000
    8       -5.759874   1.000000
    9       -5.619639   1.000000
   10       -5.324730   1.000000
   11       -5.288035   1.000000
   12       -5.259325   1.000000
   13       -5.075959   1.000000
   14       -4.929621   1.000000
   15       -4.904763   1.000000
   16       -4.765508   1.000000
   17       -4.597401   1.000000
   18       -4.469542   1.000000
   19       -4.364424   1.000000
   20       -4.274405   1.000000
   21       -4.129458   1.000000
   22       -4.014577   1.000000
   23       -3.735560   1.000000
   24       -2.161568   0.243498
   25        0.179837   0.000000
   26        3.420856   0.000000
   27        4.184215   0.000000
   28        4.636683   0.000000
 
  0.0000000E+00  0.3000000E+00  0.0000000E+00  0.2000000E-01
    1      -10.181882   1.000000
    2       -8.395797   1.000000
    3       -7.309239   1.000000
    4       -6.470962   1.000000
    5       -6.274349   1.000000
    6       -5.972515   1.000000
    7       -5.720485   1.000000
    8       -5.619517   1.000000
    9       -5.488286   1.000000
   10       -5.344882   1.000000
   11       -5.283802   1.000000
   12       -5.053310   1.000000
   13       -4.968674   1.000000
   14       -4.864163   1.000000
   15       -4.828846   1.000000
   16       -4.689918   1.000000
   17       -4.527416   1.000000
   18       -4.355196   1.000000
   19       -4.325110   1.000000
   20       -4.238619   1.000000
   21       -4.124174   1.000000
   22       -3.935057   1.000000
   23       -3.681614   1.000000
   24       -1.829930  -0.004148
   25        0.706689   0.000000
   26        3.777130   0.000000
   27        4.659007   0.000000
   28        4.980861   0.000000
 
 -0.4000000E+00  0.3000000E+00  0.0000000E+00  0.2000000E-01
    1       -8.369885   1.000000
    2       -6.438065   1.000000
    3       -6.343714   1.000000
    4       -6.260808   1.000000
    5       -6.201579   1.000000
    6       -5.999765   1.000000
    7       -5.968980   1.000000
    8       -5.892860   1.000000
    9       -5.760972   1.000000
   10       -5.575103   1.000000
   11       -5.421870   1.000000
   12       -5.033793   1.000000
   13       -4.983445   1.000000
   14       -4.875823   1.000000
   15       -4.700197   1.000000
   16       -4.524664   1.000000
   17       -4.424529   1.000000
   18       -4.149121   1.000000
   19       -4.041113   1.000000
   20       -3.945660   1.000000
   21       -2.272298   0.609285
   22       -0.389117  -0.076552
   23        0.794237   0.000000
   24        2.193525   0.000000
   25        2.240664   0.000000
   26        2.577231   0.000000
   27        3.248264   0.000000
   28        4.023678   0.000000
 
 -0.3000000E+00  0.3000000E+00  0.0000000E+00  0.4000000E-01
    1       -8.465184   1.000000
    2       -6.427740   1.000000
    3       -6.335531   1.000000
    4       -6.249352   1.000000
    5       -6.182405   1.000000
    6       -5.997839   1.000000
    7       -5.966562   1.000000
    8       -5.878008   1.000000
    9       -5.781748   1.000000
   10       -5.633674   1.000000
   11       -5.423222   1.000000
   12       -5.034133   1.000000
   13       -4.983465   1.000000
   14       -4.900477   1.000000
   15       -4.693038   1.000000
   16       -4.518632   1.000000
   17       -4.422029   1.000000
   18       -4.127888   1.000000
   19       -4.040997   1.000000
   20       -3.948560   1.000000
   21       -1.962853   0.188192
   22       -0.388114  -0.076607
   23        0.693145   0.000000
   24        1.750319   0.000000
   25        2.342786   0.000000
   26        2.526914   0.000000
   27        3.211819   0.000000
   28        3.856876   0.000000
 
 -0.2000000E+00  0.3000000E+00  0.0000000E+00  0.4000000E-01
    1       -8.953469   1.000000
    2       -6.825481   1.000000
    3       -6.616303   1.000000
    4       -6.368849   1.000000
    5       -6.204208   1.000000
    6       -6.025466   1.000000
    7       -5.913824   1.000000
    8       -5.756596   1.000000
    9       -5.647398   1.000000
   10       -5.550852   1.000000
   11       -5.410050   1.000000
   12       -5.074143   1.000000
   13       -5.001271   1.000000
   14       -4.846505   1.000000
   15       -4.661294   1.000000
   16       -4.540204   1.000000
   17       -4.361230   1.000000
   18       -4.183353   1.000000
   19       -3.996091   1.000000
   20       -3.856649   1.000000
   21       -3.010756   1.009493
   22       -2.353062   0.600219
   23       -1.296093  -0.022519
   24        0.553671   0.000000
   25        2.096711   0.000000
   26        3.295400   0.000000
   27        4.298476   0.000000
   28        5.500242   0.000000
 
 -0.1000000E+00  0.3000000E+00  0.0000000E+00  0.4000000E-01
    1       -9.626209   1.000000
    2       -7.626268   1.000000
    3       -6.963841   1.000000
    4       -6.431011   1.000000
    5       -6.295975   1.000000
    6       -6.035330   1.000000
    7       -5.801270   1.000000
    8       -5.596355   1.000000
    9       -5.519034   1.000000
   10       -5.459123   1.000000
   11       -5.259684   1.000000
   12       -5.119214   1.000000
   13       -4.968409   1.000000
   14       -4.742345   1.000000
   15       -4.660469   1.000000
   16       -4.511770   1.000000
   17       -4.387830   1.000000
   18       -4.207675   1.000000
   19       -4.137673   1.000000
   20       -3.951147   1.000000
   21       -3.899008   1.000000
   22       -3.617543   1.000000
   23       -2.923196   0.912777
   24       -0.908953   0.000000
   25        1.634432   0.000000
   26        3.540593   0.000000
   27        4.561471   0.000000
   28        5.352502   0.000000
 
  0.0000000E+00  0.4000000E+00  0.0000000E+00  0.2000000E-01
    1       -9.555891   1.000000
    2       -7.343144   1.000000
    3       -6.968836   1.000000
    4       -6.507362   1.000000
    5       -6.443582   1.000000
    6       -6.144088   1.000000
    7       -5.775443   1.000000
    8       -5.436233   1.000000
    9       -5.414725   1.000000
   10       -5.280155   1.000000
   11       -5.019902   1.000000
   12       -5.018694   1.000000
   13       -4.645002   1.000000
   14       -4.561645   1.000000
   15       -4.437417   1.000000
   16       -4.304975   1.000000
   17       -4.076991   1.000000
   18       -4.009352   1.000000
   19       -4.007972   1.000000
   20       -3.933827   1.000000
   21       -3.805747   1.000000
   22       -3.518472   1.118600
   23       -2.689968   0.790184
   24       -0.716866   0.000000
   25        1.013785   0.000000
   26        2.625058   0.000000
   27        3.517254   0.000000
   28        4.938069   0.000000
 
 -0.2000000E+00  0.4000000E+00  0.0000000E+00  0.2000000E-01
    1       -8.831429   1.000000
    2       -6.593384   1.000000
    3       -6.553164   1.000000
    4       -6.265635   1.000000
    5       -6.221873   1.000000
    6       -6.018453   1.000000
    7       -5.949008   1.000000
    8       -5.861308   1.000000
    9       -5.526279   1.000000
   10       -5.447957   1.000000
   11       -5.329038   1.000000
   12       -5.115320   1.000000
   13       -4.966683   1.000000
   14       -4.696952   1.000000
   15       -4.560801   1.000000
   16       -4.521836   1.000000
   17       -4.252107   1.000000
   18       -4.085194   1.000000
   19       -4.025091   1.000000
   20       -3.925697   1.000000
   21       -1.745583   0.134272
   22       -0.793691  -0.223294
   23       -0.464365   0.000000
   24        0.113044   0.000000
   25        0.797695   0.000000
   26        2.447918   0.000000
   27        3.815405   0.000000
   28        5.018597   0.000000
 
 -0.1000000E+00  0.4000000E+00  0.0000000E+00  0.4000000E-01
    1       -9.258653   1.000000
    2       -6.966605   1.000000
    3       -6.827955   1.000000
    4       -6.443223   1.000000
    5       -6.409016   1.000000
    6       -6.134973   1.000000
    7       -5.810615   1.000000
    8       -5.633299   1.000000
    9       -5.388656   1.000000
   10       -5.256778   1.000000
   11       -5.203598   1.000000
   12       -4.943252   1.000000
   13       -4.827721   1.000000
   14       -4.553971   1.000000
   15       -4.423821   1.000000
   16       -4.247015   1.000000
   17       -4.107579   1.000000
   18       -4.044274   1.000000
   19       -3.983231   1.000000
   20       -3.844118   1.000000
   21       -2.849308   0.998154
   22       -2.333103   0.622495
   23       -1.511891  -0.015754
   24       -0.509019   0.000000
   25        0.288869   0.000000
   26        2.216712   0.000000
   27        3.357602   0.000000
   28        4.916798   0.000000
 
  0.0000000E+00  0.5000000E+00  0.0000000E+00  0.1000000E-01
    1       -9.373519   1.000000
    2       -7.035561   1.000000
    3       -6.928107   1.000000
    4       -6.535177   1.000000