Automatically generated mesh
      31
Reciprocal lattice
    0.00000000000000    0.00000000000000    0.00000000000000             1
    0.10000000000000    0.00000000000000    0.00000000000000             4
    0.20000000000000   -0.00000000000000    0.00000000000000             4
    0.30000000000000   -0.00000000000000    0.00000000000000             4
    0.40000000000000   -0.00000000000000    0.00000000000000             4
    0.50000000000000   -0.00000000000000    0.00000000000000             2
    0.00000000000000    0.10000000000000    0.00000000000000             2
    0.20000000000000    0.10000000000000    0.00000000000000             2
    0.30000000000000    0.10000000000000    0.00000000000000             4
    0.40000000000000    0.10000000000000    0.00000000000000             4
    0.50000000000000    0.10000000000000    0.00000000000000             4
   -0.40000000000000    0.10000000000000    0.00000000000000             4
   -0.30000000000000    0.10000000000000    0.00000000000000             4
   -0.20000000000000    0.10000000000000    0.00000000000000             4
   -0.10000000000000    0.10000000000000    0.00000000000000             4
    0.00000000000000    0.20000000000000    0.00000000000000             2
    0.40000000000000    0.20000000000000    0.00000000000000             2
    0.50000000000000    0.20000000000000    0.00000000000000             4
   -0.40000000000000    0.20000000000000    0.00000000000000             4
   -0.30000000000000    0.20000000000000    0.00000000000000             4
   -0.20000000000000    0.20000000000000    0.00000000000000             4
   -0.10000000000000    0.20000000000000    0.00000000000000             4
    0.00000000000000    0.30000000000000    0.00000000000000             2
   -0.40000000000000    0.30000000000000    0.00000000000000             2
   -0.30000000000000    0.30000000000000    0.00000000000000             4
   -0.20000000000000    0.30000000000000    0.00000000000000             4
   -0.10000000000000    0.30000000000000    0.00000000000000             4
    0.00000000000000    0.40000000000000    0.00000000000000             2
   -0.20000000000000    0.40000000000000    0.00000000000000             2
   -0.10000000000000    0.40000000000000    0.00000000000000             4
    0.00000000000000    0.50000000000000    0.00000000000000             1
Tetrahedra
       155    0.00166666666667
         2         1         1         2         2
         4         1         1         2         7
         4         1         2         7         7
         4         1         2         2         2
         4         1         2         2         7
         4         2         2         3         8
         4         2         2         2         8
         4         2         3         3         8
         4         2         3         8         8
         2         2         2         8         8
         4         3         3         4         9
         4         3         3         8         9
         4         3         8         8         9
         4         3         4         4         9
         4         3         4         9         9
         4         3         8         9         9
         4         4         4         5        10
         4         4         4         9        10
         4         4         9         9        10
         4         4         5         5        10
         4         4         5        10        10
         4         4         9        10        10
         4         5         5         6        11
         4         5         5        10        11
         4         5        10        10        11
         4         5         6         6        11
         4         5         6        11        11
         4         5        10        11        11
         4         5         6         6        12
         4         6         6        11        12
         4         6        11        11        12
         4         5         5         6        12
         4         5         6        12        12
         4         6        11        12        12
         4         4         5         5        13
         4         5         5        12        13
         4         5        12        12        13
         4         4         4         5        13
         4         4         5        13        13
         4         5        12        13        13
         4         3         4         4        14
         4         4         4        13        14
         4         4        13        13        14
         4         3         3         4        14
         4         3         4        14        14
         4         4        13        14        14
         4         2         3         3        15
         4         3         3        14        15
         4         3        14        14        15
         4         2         2         3        15
         4         2         3        15        15
         4         3        14        15        15
         4         2         2         7        15
         4         2         7        15        15
         4         2         7         7        15
         4         7         7        15        16
         4         7        15        16        16
         4         7        15        15        16
         2         8         8         9         9
         4         8         9         9         9
         4         9         9        10        17
         4         9         9         9        17
         4         9        10        10        17
         4         9        10        17        17
         2         9         9        17        17
         4        10        10        11        18
         4        10        10        17        18
         4        10        17        17        18
         4        10        11        11        18
         4        10        11        18        18
         4        10        17        18        18
         4        11        11        12        19
         4        11        11        18        19
         4        11        18        18        19
         4        11        12        12        19
         4        11        12        19        19
         4        11        18        19        19
         4        12        12        13        20
         4        12        12        19        20
         4        12        19        19        20
         4        12        13        13        20
         4        12        13        20        20
         4        12        19        20        20
         4        13        13        14        21
         4        13        13        20        21
         4        13        20        20        21
         4        13        14        14        21
         4        13        14        21        21
         4        13        20        21        21
         4        14        14        15        22
         4        14        14        21        22
         4        14        21        21        22
         4        14        15        15        22
         4        14        15        22        22
         4        14        21        22        22
         4        15        15        16        22
         4        15        16        22        22
         4        15        16        16        22
         4        16        16        22        23
         4        16        22        23        23
         4        16        22        22        23
         2        17        17        18        18
         4        17        18        18        18
         4        18        18        19        24
         4        18        18        18        24
         4        18        19        19        24
         4        18        19        24        24
         2        18        18        24        24
         4        19        19        20        25
         4        19        19        24        25
         4        19        24        24        25
         4        19        20        20        25
         4        19        20        25        25
         4        19        24        25        25
         4        20        20        21        26
         4        20        20        25        26
         4        20        25        25        26
         4        20        21        21        26
         4        20        21        26        26
         4        20        25        26        26
         4        21        21        22        27
         4        21        21        26        27
         4        21        26        26        27
         4        21        22        22        27
         4        21        22        27        27
         4        21        26        27        27
         4        22        22        23        27
         4        22        23        27        27
         4        22        23        23        27
         4        23        23        27        28
         4        23        27        28        28
         4        23        27        27        28
         2        24        24        25        25
         4        24        25        25        25
         4        25        25        26        29
         4        25        25        25        29
         4        25        26        26        29
         4        25        26        29        29
         2        25        25        29        29
         4        26        26        27        30
         4        26        26        29        30
         4        26        29        29        30
         4        26        27        27        30
         4        26        27        30        30
         4        26        29        30        30
         4        27        27        28        30
         4        27        28        30        30
         4        27        28        28        30
         4        28        28        30        31
         4        28        30        31        31
         4        28        30        30        31
         2        29        29        30        30
         4        29        30        30        30
         4        30        30        30        31
         2        30        30        31        31
