<?xml version="1.0" encoding="ISO-8859-1"?>
<modeling>
 <generator>
  <i name="program" type="string">vasp </i>
  <i name="version" type="string">5.4.4.18Apr17-6-g9f103f2a35  </i>
  <i name="subversion" type="string">(build Jun 30 2017 11:15:00) complex            parallel </i>
  <i name="platform" type="string">STALLO_VASP_5.4.4 </i>
  <i name="date" type="string">2019 10 11 </i>
  <i name="time" type="string">16:37:02 </i>
 </generator>
 <incar>
  <i type="string" name="PREC">accurate  ! normal/accurate</i>
  <i type="string" name="ALGO"> Fast      ! Algorithm for electronic re</i>
  <i type="int" name="ISPIN">     1</i>
  <i type="int" name="NELMIN">     4</i>
  <i type="int" name="IBRION">     5</i>
  <i type="int" name="NFREE">     2</i>
  <i name="EDIFF">      0.00000100</i>
  <i type="int" name="ISIF">     2</i>
  <i name="ENCUT">    500.00000000</i>
  <i name="POTIM">      0.10000000</i>
  <i type="string" name="LREAL"> Auto      ! Projection in reciprocal sp</i>
  <i type="int" name="ISMEAR">    -5</i>
  <i name="SIGMA">      0.20000000</i>
  <i type="logical" name="LWAVE"> F  </i>
  <i type="logical" name="LCHARG"> F  </i>
  <v type="int" name="KPOINT_BSE">    -1     0     0     0</v>
 </incar>
 <structure name="primitive_cell" >
  <crystal>
   <varray name="basis" >
    <v>       2.57386868       0.00000000       0.00000000 </v>
    <v>       1.28693434       2.22903567       0.00000000 </v>
    <v>       0.00000000       0.00000000      30.30466494 </v>
   </varray>
   <i name="volume">    173.86529028 </i>
   <varray name="rec_basis" >
    <v>       0.38852021      -0.22431225       0.00000000 </v>
    <v>       0.00000000       0.44862450       0.00000000 </v>
    <v>       0.00000000       0.00000000       0.03299822 </v>
   </varray>
  </crystal>
  <varray name="positions" >
   <v>       0.00000000       0.00000000       0.39644015 </v>
   <v>       0.33333333       0.33333333       0.46515176 </v>
   <v>      -0.33333333      -0.33333333      -0.46608379 </v>
   <v>       0.00000000       0.00000000      -0.39325599 </v>
   <v>      -0.50000000       0.00000000      -0.36523255 </v>
  </varray>
 </structure>
 <varray name="primitive_index" >
  <v type="int" >        1 </v>
  <v type="int" >        2 </v>
  <v type="int" >        3 </v>
  <v type="int" >        4 </v>
  <v type="int" >        5 </v>
 </varray>
 <kpoints>
  <generation param="Gamma">
   <v type="int" name="divisions">      10       10        1 </v>
   <v name="usershift">      0.00000000       0.00000000       0.00000000 </v>
   <v name="genvec1">      0.10000000       0.00000000       0.00000000 </v>
   <v name="genvec2">      0.00000000       0.10000000       0.00000000 </v>
   <v name="genvec3">      0.00000000       0.00000000       1.00000000 </v>
   <v name="shift">      0.00000000       0.00000000       0.00000000 </v>
  </generation>
  <varray name="kpointlist" >
   <v>       0.00000000       0.00000000       0.00000000 </v>
   <v>       0.10000000       0.00000000       0.00000000 </v>
   <v>       0.20000000      -0.00000000       0.00000000 </v>
   <v>       0.30000000      -0.00000000       0.00000000 </v>
   <v>       0.40000000      -0.00000000       0.00000000 </v>
   <v>       0.50000000      -0.00000000       0.00000000 </v>
   <v>       0.00000000       0.10000000       0.00000000 </v>
   <v>       0.20000000       0.10000000       0.00000000 </v>
   <v>       0.30000000       0.10000000       0.00000000 </v>
   <v>       0.40000000       0.10000000       0.00000000 </v>
   <v>       0.50000000       0.10000000       0.00000000 </v>
   <v>      -0.40000000       0.10000000       0.00000000 </v>
   <v>      -0.30000000       0.10000000       0.00000000 </v>
   <v>      -0.20000000       0.10000000       0.00000000 </v>
   <v>      -0.10000000       0.10000000       0.00000000 </v>
   <v>       0.00000000       0.20000000       0.00000000 </v>
   <v>       0.40000000       0.20000000       0.00000000 </v>
   <v>       0.50000000       0.20000000       0.00000000 </v>
   <v>      -0.40000000       0.20000000       0.00000000 </v>
   <v>      -0.30000000       0.20000000       0.00000000 </v>
   <v>      -0.20000000       0.20000000       0.00000000 </v>
   <v>      -0.10000000       0.20000000       0.00000000 </v>
   <v>       0.00000000       0.30000000       0.00000000 </v>
   <v>      -0.40000000       0.30000000       0.00000000 </v>
   <v>      -0.30000000       0.30000000       0.00000000 </v>
   <v>      -0.20000000       0.30000000       0.00000000 </v>
   <v>      -0.10000000       0.30000000       0.00000000 </v>
   <v>       0.00000000       0.40000000       0.00000000 </v>
   <v>      -0.20000000       0.40000000       0.00000000 </v>
   <v>      -0.10000000       0.40000000       0.00000000 </v>
   <v>       0.00000000       0.50000000       0.00000000 </v>
  </varray>
  <varray name="weights" >
   <v>       0.01000000 </v>
   <v>       0.04000000 </v>
   <v>       0.04000000 </v>
   <v>       0.04000000 </v>
   <v>       0.04000000 </v>
   <v>       0.02000000 </v>
   <v>       0.02000000 </v>
   <v>       0.02000000 </v>
   <v>       0.04000000 </v>
   <v>       0.04000000 </v>
   <v>       0.04000000 </v>
   <v>       0.04000000 </v>
   <v>       0.04000000 </v>
   <v>       0.04000000 </v>
   <v>       0.04000000 </v>
   <v>       0.02000000 </v>
   <v>       0.02000000 </v>
   <v>       0.04000000 </v>
   <v>       0.04000000 </v>
   <v>       0.04000000 </v>
   <v>       0.04000000 </v>
   <v>       0.04000000 </v>
   <v>       0.02000000 </v>
   <v>       0.02000000 </v>
   <v>       0.04000000 </v>
   <v>       0.04000000 </v>
   <v>       0.04000000 </v>
   <v>       0.02000000 </v>
   <v>       0.02000000 </v>
   <v>       0.04000000 </v>
   <v>       0.01000000 </v>
  </varray>
  <varray name="tetrahedronlist"  type="int" >
   <v type="int" >        2        1        1        2        2 </v>
   <v type="int" >        4        1        1        2        7 </v>
   <v type="int" >        4        1        2        7        7 </v>
   <v type="int" >        4        1        2        2        2 </v>
   <v type="int" >        4        1        2        2        7 </v>
   <v type="int" >        4        2        2        3        8 </v>
   <v type="int" >        4        2        2        2        8 </v>
   <v type="int" >        4        2        3        3        8 </v>
   <v type="int" >        4        2        3        8        8 </v>
   <v type="int" >        2        2        2        8        8 </v>
   <v type="int" >        4        3        3        4        9 </v>
   <v type="int" >        4        3        3        8        9 </v>
   <v type="int" >        4        3        8        8        9 </v>
   <v type="int" >        4        3        4        4        9 </v>
   <v type="int" >        4        3        4        9        9 </v>
   <v type="int" >        4        3        8        9        9 </v>
   <v type="int" >        4        4        4        5       10 </v>
   <v type="int" >        4        4        4        9       10 </v>
   <v type="int" >        4        4        9        9       10 </v>
   <v type="int" >        4        4        5        5       10 </v>
   <v type="int" >        4        4        5       10       10 </v>
   <v type="int" >        4        4        9       10       10 </v>
   <v type="int" >        4        5        5        6       11 </v>
   <v type="int" >        4        5        5       10       11 </v>
   <v type="int" >        4        5       10       10       11 </v>
   <v type="int" >        4        5        6        6       11 </v>
   <v type="int" >        4        5        6       11       11 </v>
   <v type="int" >        4        5       10       11       11 </v>
   <v type="int" >        4        5        6        6       12 </v>
   <v type="int" >        4        6        6       11       12 </v>
   <v type="int" >        4        6       11       11       12 </v>
   <v type="int" >        4        5        5        6       12 </v>
   <v type="int" >        4        5        6       12       12 </v>
   <v type="int" >        4        6       11       12       12 </v>
   <v type="int" >        4        4        5        5       13 </v>
   <v type="int" >        4        5        5       12       13 </v>
   <v type="int" >        4        5       12       12       13 </v>
   <v type="int" >        4        4        4        5       13 </v>
   <v type="int" >        4        4        5       13       13 </v>
   <v type="int" >        4        5       12       13       13 </v>
   <v type="int" >        4        3        4        4       14 </v>
   <v type="int" >        4        4        4       13       14 </v>
   <v type="int" >        4        4       13       13       14 </v>
   <v type="int" >        4        3        3        4       14 </v>
   <v type="int" >        4        3        4       14       14 </v>
   <v type="int" >        4        4       13       14       14 </v>
   <v type="int" >        4        2        3        3       15 </v>
   <v type="int" >        4        3        3       14       15 </v>
   <v type="int" >        4        3       14       14       15 </v>
   <v type="int" >        4        2        2        3       15 </v>
   <v type="int" >        4        2        3       15       15 </v>
   <v type="int" >        4        3       14       15       15 </v>
   <v type="int" >        4        2        2        7       15 </v>
   <v type="int" >        4        2        7       15       15 </v>
   <v type="int" >        4        2        7        7       15 </v>
   <v type="int" >        4        7        7       15       16 </v>
   <v type="int" >        4        7       15       16       16 </v>
   <v type="int" >        4        7       15       15       16 </v>
   <v type="int" >        2        8        8        9        9 </v>
   <v type="int" >        4        8        9        9        9 </v>
   <v type="int" >        4        9        9       10       17 </v>
   <v type="int" >        4        9        9        9       17 </v>
   <v type="int" >        4        9       10       10       17 </v>
   <v type="int" >        4        9       10       17       17 </v>
   <v type="int" >        2        9        9       17       17 </v>
   <v type="int" >        4       10       10       11       18 </v>
   <v type="int" >        4       10       10       17       18 </v>
   <v type="int" >        4       10       17       17       18 </v>
   <v type="int" >        4       10       11       11       18 </v>
   <v type="int" >        4       10       11       18       18 </v>
   <v type="int" >        4       10       17       18       18 </v>
   <v type="int" >        4       11       11       12       19 </v>
   <v type="int" >        4       11       11       18       19 </v>
   <v type="int" >        4       11       18       18       19 </v>
   <v type="int" >        4       11       12       12       19 </v>
   <v type="int" >        4       11       12       19       19 </v>
   <v type="int" >        4       11       18       19       19 </v>
   <v type="int" >        4       12       12       13       20 </v>
   <v type="int" >        4       12       12       19       20 </v>
   <v type="int" >        4       12       19       19       20 </v>
   <v type="int" >        4       12       13       13       20 </v>
   <v type="int" >        4       12       13       20       20 </v>
   <v type="int" >        4       12       19       20       20 </v>
   <v type="int" >        4       13       13       14       21 </v>
   <v type="int" >        4       13       13       20       21 </v>
   <v type="int" >        4       13       20       20       21 </v>
   <v type="int" >        4       13       14       14       21 </v>
   <v type="int" >        4       13       14       21       21 </v>
   <v type="int" >        4       13       20       21       21 </v>
   <v type="int" >        4       14       14       15       22 </v>
   <v type="int" >        4       14       14       21       22 </v>
   <v type="int" >        4       14       21       21       22 </v>
   <v type="int" >        4       14       15       15       22 </v>
   <v type="int" >        4       14       15       22       22 </v>
   <v type="int" >        4       14       21       22       22 </v>
   <v type="int" >        4       15       15       16       22 </v>
   <v type="int" >        4       15       16       22       22 </v>
   <v type="int" >        4       15       16       16       22 </v>
   <v type="int" >        4       16       16       22       23 </v>
   <v type="int" >        4       16       22       23       23 </v>
   <v type="int" >        4       16       22       22       23 </v>
   <v type="int" >        2       17       17       18       18 </v>
   <v type="int" >        4       17       18       18       18 </v>
   <v type="int" >        4       18       18       19       24 </v>
   <v type="int" >        4       18       18       18       24 </v>
   <v type="int" >        4       18       19       19       24 </v>
   <v type="int" >        4       18       19       24       24 </v>
   <v type="int" >        2       18       18       24       24 </v>
   <v type="int" >        4       19       19       20       25 </v>
   <v type="int" >        4       19       19       24       25 </v>
   <v type="int" >        4       19       24       24       25 </v>
   <v type="int" >        4       19       20       20       25 </v>
   <v type="int" >        4       19       20       25       25 </v>
   <v type="int" >        4       19       24       25       25 </v>
   <v type="int" >        4       20       20       21       26 </v>
   <v type="int" >        4       20       20       25       26 </v>
   <v type="int" >        4       20       25       25       26 </v>
   <v type="int" >        4       20       21       21       26 </v>
   <v type="int" >        4       20       21       26       26 </v>
   <v type="int" >        4       20       25       26       26 </v>
   <v type="int" >        4       21       21       22       27 </v>
   <v type="int" >        4       21       21       26       27 </v>
   <v type="int" >        4       21       26       26       27 </v>
   <v type="int" >        4       21       22       22       27 </v>
   <v type="int" >        4       21       22       27       27 </v>
   <v type="int" >        4       21       26       27       27 </v>
   <v type="int" >        4       22       22       23       27 </v>
   <v type="int" >        4       22       23       27       27 </v>
   <v type="int" >        4       22       23       23       27 </v>
   <v type="int" >        4       23       23       27       28 </v>
   <v type="int" >        4       23       27       28       28 </v>
   <v type="int" >        4       23       27       27       28 </v>
   <v type="int" >        2       24       24       25       25 </v>
   <v type="int" >        4       24       25       25       25 </v>
   <v type="int" >        4       25       25       26       29 </v>
   <v type="int" >        4       25       25       25       29 </v>
   <v type="int" >        4       25       26       26       29 </v>
   <v type="int" >        4       25       26       29       29 </v>
   <v type="int" >        2       25       25       29       29 </v>
   <v type="int" >        4       26       26       27       30 </v>
   <v type="int" >        4       26       26       29       30 </v>
   <v type="int" >        4       26       29       29       30 </v>
   <v type="int" >        4       26       27       27       30 </v>
   <v type="int" >        4       26       27       30       30 </v>
   <v type="int" >        4       26       29       30       30 </v>
   <v type="int" >        4       27       27       28       30 </v>
   <v type="int" >        4       27       28       30       30 </v>
   <v type="int" >        4       27       28       28       30 </v>
   <v type="int" >        4       28       28       30       31 </v>
   <v type="int" >        4       28       30       31       31 </v>
   <v type="int" >        4       28       30       30       31 </v>
   <v type="int" >        2       29       29       30       30 </v>
   <v type="int" >        4       29       30       30       30 </v>
   <v type="int" >        4       30       30       30       31 </v>
   <v type="int" >        2       30       30       31       31 </v>
  </varray>
  <i name="volumeweight">      0.00166667 </i>
 </kpoints>
 <parameters>
  <separator name="general" >
   <i type="string" name="SYSTEM">unknown system</i>
   <i type="logical" name="LCOMPAT"> F  </i>
  </separator>
  <separator name="electronic" >
   <i type="string" name="PREC">accura</i>
   <i name="ENMAX">    500.00000000</i>
   <i name="ENAUG">    516.45600000</i>
   <i name="EDIFF">      0.00000100</i>
   <i type="int" name="IALGO">    68</i>
   <i type="int" name="IWAVPR">    11</i>
   <i type="int" name="NBANDS">    28</i>
   <i name="NELECT">     45.00000000</i>
   <i type="int" name="TURBO">     0</i>
   <i type="int" name="IRESTART">     0</i>
   <i type="int" name="NREBOOT">     0</i>
   <i type="int" name="NMIN">     0</i>
   <i name="EREF">      0.00000000</i>
   <separator name="electronic smearing" >
    <i type="int" name="ISMEAR">    -5</i>
    <i name="SIGMA">      0.20000000</i>
    <i name="KSPACING">      0.50000000</i>
    <i type="logical" name="KGAMMA"> T  </i>
   </separator>
   <separator name="electronic projectors" >
    <i type="logical" name="LREAL"> T  </i>
    <v name="ROPT">     -0.00025000     -0.00025000</v>
    <i type="int" name="LMAXPAW">  -100</i>
    <i type="int" name="LMAXMIX">     2</i>
    <i type="logical" name="NLSPLINE"> F  </i>
   </separator>
   <separator name="electronic startup" >
    <i type="int" name="ISTART">     0</i>
    <i type="int" name="ICHARG">     2</i>
    <i type="int" name="INIWAV">     1</i>
   </separator>
   <separator name="electronic spin" >
    <i type="int" name="ISPIN">     1</i>
    <i type="logical" name="LNONCOLLINEAR"> F  </i>
    <v name="MAGMOM">      1.00000000      1.00000000      1.00000000      1.00000000      1.00000000</v>
    <i name="NUPDOWN">     -1.00000000</i>
    <i type="logical" name="LSORBIT"> F  </i>
    <v name="SAXIS">      0.00000000      0.00000000      1.00000000</v>
    <i type="logical" name="LSPIRAL"> F  </i>
    <v name="QSPIRAL">      0.00000000      0.00000000      0.00000000</v>
    <i type="logical" name="LZEROZ"> F  </i>
   </separator>
   <separator name="electronic exchange-correlation" >
    <i type="logical" name="LASPH"> F  </i>
    <i type="logical" name="LMETAGGA"> F  </i>
   </separator>
   <separator name="electronic convergence" >
    <i type="int" name="NELM">    60</i>
    <i type="int" name="NELMDL">    -5</i>
    <i type="int" name="NELMIN">     4</i>
    <i name="ENINI">    500.00000000</i>
    <separator name="electronic convergence detail" >
     <i type="logical" name="LDIAG"> T  </i>
     <i type="logical" name="LSUBROT"> F  </i>
     <i name="WEIMIN">      0.00100000</i>
     <i name="EBREAK">      0.00000001</i>
     <i name="DEPER">      0.30000000</i>
     <i type="int" name="NRMM">     4</i>
     <i name="TIME">      0.40000000</i>
    </separator>
   </separator>
   <separator name="electronic mixer" >
    <i name="AMIX">      0.40000000</i>
    <i name="BMIX">      1.00000000</i>
    <i name="AMIN">      0.10000000</i>
    <i name="AMIX_MAG">      1.60000000</i>
    <i name="BMIX_MAG">      1.00000000</i>
    <separator name="electronic mixer details" >
     <i type="int" name="IMIX">     4</i>
     <i type="logical" name="MIXFIRST"> F  </i>
     <i type="int" name="MAXMIX">   -45</i>
     <i name="WC">    100.00000000</i>
     <i type="int" name="INIMIX">     1</i>
     <i type="int" name="MIXPRE">     1</i>
     <i type="int" name="MREMOVE">     5</i>
    </separator>
   </separator>
   <separator name="electronic dipolcorrection" >
    <i type="logical" name="LDIPOL"> F  </i>
    <i type="logical" name="LMONO"> F  </i>
    <i type="int" name="IDIPOL">     0</i>
    <i name="EPSILON">      1.00000000</i>
    <v name="DIPOL">   -100.00000000   -100.00000000   -100.00000000</v>
    <i name="EFIELD">      0.00000000</i>
   </separator>
  </separator>
  <separator name="grids" >
   <i type="int" name="NGX">    20</i>
   <i type="int" name="NGY">    20</i>
   <i type="int" name="NGZ">   224</i>
   <i type="int" name="NGXF">    40</i>
   <i type="int" name="NGYF">    40</i>
   <i type="int" name="NGZF">   448</i>
   <i type="logical" name="ADDGRID"> F  </i>
  </separator>
  <separator name="ionic" >
   <i type="int" name="NSW">    97</i>
   <i type="int" name="IBRION">     5</i>
   <i type="int" name="MDALGO">     0</i>
   <i type="int" name="ISIF">     2</i>
   <i name="PSTRESS">      0.00000000</i>
   <i name="EDIFFG">      0.00001000</i>
   <i type="int" name="NFREE">     2</i>
   <i name="POTIM">      0.10000000</i>
   <i name="SMASS">     -3.00000000</i>
   <i name="SCALEE">      1.00000000</i>
  </separator>
  <separator name="ionic md" >
   <i name="TEBEG">      0.00010000</i>
   <i name="TEEND">      0.00010000</i>
   <i type="int" name="NBLOCK">     1</i>
   <i type="int" name="KBLOCK">    97</i>
   <i type="int" name="NPACO">   256</i>
   <i name="APACO">     16.00000000</i>
  </separator>
  <separator name="symmetry" >
   <i type="int" name="ISYM">     2</i>
   <i name="SYMPREC">      0.00001000</i>
  </separator>
  <separator name="dos" >
   <i type="int" name="LORBIT">     0</i>
   <v name="RWIGS">     -1.00000000     -1.00000000</v>
   <i type="int" name="NEDOS">   301</i>
   <i name="EMIN">     10.00000000</i>
   <i name="EMAX">    -10.00000000</i>
   <i name="EFERMI">      0.00000000</i>
  </separator>
  <separator name="writing" >
   <i type="int" name="NWRITE">     2</i>
   <i type="logical" name="LWAVE"> F  </i>
   <i type="logical" name="LDOWNSAMPLE"> F  </i>
   <i type="logical" name="LCHARG"> F  </i>
   <i type="logical" name="LPARD"> F  </i>
   <i type="logical" name="LVTOT"> F  </i>
   <i type="logical" name="LVHAR"> F  </i>
   <i type="logical" name="LELF"> F  </i>
   <i type="logical" name="LOPTICS"> F  </i>
   <v name="STM">      0.00000000      0.00000000      0.00000000      0.00000000      0.00000000      0.00000000      0.00000000</v>
  </separator>
  <separator name="performance" >
   <i type="int" name="NPAR">     4</i>
   <i type="int" name="NSIM">     4</i>
   <i type="int" name="NBLK">    -1</i>
   <i type="logical" name="LPLANE"> T  </i>
   <i type="logical" name="LSCALAPACK"> T  </i>
   <i type="logical" name="LSCAAWARE"> F  </i>
   <i type="logical" name="LSCALU"> F  </i>
   <i type="logical" name="LASYNC"> F  </i>
   <i type="logical" name="LORBITALREAL"> F  </i>
  </separator>
  <separator name="miscellaneous" >
   <i type="int" name="IDIOT">     3</i>
   <i type="int" name="ISPECIAL">     0</i>
   <i type="logical" name="LMUSIC"> F  </i>
   <v name="POMASS">     63.54600000      1.00000000</v>
   <v name="DARWINR">      0.00000000      0.00000000</v>
   <v name="DARWINV">      1.00000000      1.00000000</v>
   <i type="logical" name="LCORR"> T  </i>
  </separator>
  <i type="logical" name="GGA_COMPAT"> T  </i>
  <i type="logical" name="LBERRY"> F  </i>
  <i type="int" name="ICORELEVEL">     0</i>
  <i type="logical" name="LDAU"> F  </i>
  <i type="int" name="I_CONSTRAINED_M">     0</i>
  <separator name="electronic exchange-correlation" >
   <i type="string" name="GGA">--</i>
   <i type="int" name="VOSKOWN">     0</i>
   <i type="logical" name="LHFCALC"> F  </i>
   <i type="string" name="PRECFOCK"></i>
   <i type="logical" name="LSYMGRAD"> F  </i>
   <i type="logical" name="LHFONE"> F  </i>
   <i type="logical" name="LRHFCALC"> F  </i>
   <i type="logical" name="LTHOMAS"> F  </i>
   <i type="logical" name="LMODELHF"> F  </i>
   <i name="ENCUT4O">     -1.00000000</i>
   <i type="int" name="EXXOEP">     0</i>
   <i type="int" name="FOURORBIT">     0</i>
   <i name="AEXX">      0.00000000</i>
   <i name="HFALPHA">      0.00000000</i>
   <i name="MCALPHA">      0.00000000</i>
   <i name="ALDAX">      1.00000000</i>
   <i name="AGGAX">      1.00000000</i>
   <i name="ALDAC">      1.00000000</i>
   <i name="AGGAC">      1.00000000</i>
   <i type="int" name="NKREDX">     1</i>
   <i type="int" name="NKREDY">     1</i>
   <i type="int" name="NKREDZ">     1</i>
   <i type="logical" name="SHIFTRED"> F  </i>
   <i type="logical" name="ODDONLY"> F  </i>
   <i type="logical" name="EVENONLY"> F  </i>
   <i type="int" name="LMAXFOCK">     0</i>
   <i type="int" name="NMAXFOCKAE">     0</i>
   <i type="logical" name="LFOCKAEDFT"> F  </i>
   <i name="HFSCREEN">      0.00000000</i>
   <i name="HFSCREENC">      0.00000000</i>
   <i type="int" name="NBANDSGWLOW">     0</i>
  </separator>
  <separator name="vdW DFT" >
   <i type="logical" name="LUSE_VDW"> F  </i>
   <i name="Zab_VDW">     -0.84910000</i>
   <i name="PARAM1">      0.12340000</i>
   <i name="PARAM2">      1.00000000</i>
   <i name="PARAM3">      0.00000000</i>
  </separator>
  <separator name="model GW" >
   <i type="int" name="MODEL_GW">     0</i>
   <i name="MODEL_EPS0">     20.86383483</i>
   <i name="MODEL_ALPHA">      1.00000000</i>
  </separator>
  <separator name="linear response parameters" >
   <i type="logical" name="LEPSILON"> F  </i>
   <i type="logical" name="LRPA"> F  </i>
   <i type="logical" name="LNABLA"> F  </i>
   <i type="logical" name="LVEL"> F  </i>
   <i type="int" name="KINTER">     0</i>
   <i name="CSHIFT">      0.10000000</i>
   <i name="OMEGAMAX">     -1.00000000</i>
   <i name="DEG_THRESHOLD">      0.00200000</i>
   <i name="RTIME">     -0.10000000</i>
   <i name="WPLASMAI">      0.00000000</i>
   <v name="DFIELD">      0.00000000      0.00000000      0.00000000</v>
   <v name="WPLASMA">      0.00000000      0.00000000      0.00000000      0.00000000      0.00000000      0.00000000      0.00000000      0.00000000      0.00000000</v>
  </separator>
  <separator name="orbital magnetization" >
   <i type="logical" name="NUCIND"> F  </i>
   <v name="MAGPOS">      0.00000000      0.00000000      0.00000000</v>
   <i type="logical" name="LNICSALL"> T  </i>
   <i type="logical" name="ORBITALMAG"> F  </i>
   <i type="logical" name="LMAGBLOCH"> F  </i>
   <i type="logical" name="LCHIMAG"> F  </i>
   <i type="logical" name="LGAUGE"> T  </i>
   <i type="int" name="MAGATOM">     0</i>
   <v name="MAGDIPOL">      0.00000000      0.00000000      0.00000000</v>
   <v name="AVECCONST">      0.00000000      0.00000000      0.00000000</v>
  </separator>
  <separator name="response functions" >
   <i type="logical" name="LADDER"> F  </i>
   <i type="logical" name="LRPAFORCE"> F  </i>
   <i type="logical" name="LFXC"> F  </i>
   <i type="logical" name="LHARTREE"> T  </i>
   <i type="int" name="IBSE">     0</i>
   <v type="int" name="KPOINT">    -1     0     0     0</v>
   <i type="logical" name="LTCTE"> F  </i>
   <i type="logical" name="LTETE"> F  </i>
   <i type="logical" name="LTRIPLET"> F  </i>
   <i type="logical" name="LFXCEPS"> F  </i>
   <i type="logical" name="LFXHEG"> F  </i>
   <i type="int" name="NATURALO">     2</i>
   <i type="logical" name="L2ORDER"> F  </i>
   <i type="logical" name="LMP2LT"> F  </i>
   <i type="logical" name="LUSEW"> F  </i>
   <i name="ENCUTGW">     -2.00000000</i>
   <i name="ENCUTGWSOFT">     -2.00000000</i>
   <i name="ENCUTLF">     -1.00000000</i>
   <i type="int" name="LMAXMP2">    -1</i>
   <i name="SCISSOR">      0.00000000</i>
   <i type="int" name="NOMEGA">     0</i>
   <i type="int" name="NOMEGAR">     0</i>
   <i type="int" name="NBANDSGW">    -1</i>
   <i type="int" name="NBANDSO">    -1</i>
   <i type="int" name="NBANDSV">    -1</i>
   <i type="int" name="NELM">     1</i>
   <i type="int" name="NELMHF">     1</i>
   <i type="int" name="DIM">     3</i>
   <i type="int" name="ANTIRES">     0</i>
   <i name="OMEGAMAX">    -30.00000000</i>
   <i name="OMEGAMIN">    -30.00000000</i>
   <i name="OMEGATL">   -200.00000000</i>
   <i type="int" name="OMEGAGRID">   140</i>
   <i name="CSHIFT">     -0.10000000</i>
   <i type="logical" name="SELFENERGY"> F  </i>
   <i type="logical" name="LSPECTRAL"> F  </i>
   <i type="logical" name="LSPECTRALGW"> F  </i>
   <i type="logical" name="LSINGLES"> F  </i>
   <i type="logical" name="LFERMIGW"> F  </i>
   <i type="logical" name="ODDONLYGW"> F  </i>
   <i type="logical" name="EVENONLYGW"> F  </i>
   <i type="int" name="NKREDLFX">     1</i>
   <i type="int" name="NKREDLFY">     1</i>
   <i type="int" name="NKREDLFZ">     1</i>
   <i type="int" name="MAXMEM">  2800</i>
   <i type="int" name="TELESCOPE">     0</i>
   <i type="int" name="TAUPAR">     1</i>
   <i type="int" name="OMEGAPAR">    -1</i>
   <i name="LAMBDA">      1.00000000</i>
  </separator>
  <separator name="External order field" >
   <i name="OFIELD_KAPPA">      0.00000000</i>
   <v name="OFIELD_K">      0.00000000      0.00000000      0.00000000</v>
   <i name="OFIELD_Q6_NEAR">      0.00000000</i>
   <i name="OFIELD_Q6_FAR">      0.00000000</i>
   <i name="OFIELD_A">      0.00000000</i>
  </separator>
 </parameters>
 <atominfo>
  <atoms>       5 </atoms>
  <types>       2 </types>
  <array name="atoms" >
   <dimension dim="1">ion</dimension>
   <field type="string">element</field>
   <field type="int">atomtype</field>
   <set>
    <rc><c>Cu</c><c>   1</c></rc>
    <rc><c>Cu</c><c>   1</c></rc>
    <rc><c>Cu</c><c>   1</c></rc>
    <rc><c>Cu</c><c>   1</c></rc>
    <rc><c>H </c><c>   2</c></rc>
   </set>
  </array>
  <array name="atomtypes" >
   <dimension dim="1">type</dimension>
   <field type="int">atomspertype</field>
   <field type="string">element</field>
   <field>mass</field>
   <field>valence</field>
   <field type="string">pseudopotential</field>
   <set>
    <rc><c>   4</c><c>Cu</c><c>     63.54600000</c><c>     11.00000000</c><c> PAW_PBE Cu 05Jan2001                   </c></rc>
    <rc><c>   1</c><c>H </c><c>      1.00000000</c><c>      1.00000000</c><c> PAW_PBE H 15Jun2001                    </c></rc>
   </set>
  </array>
 </atominfo>
 <structure name="initialpos" >
  <crystal>
   <varray name="basis" >
    <v>       2.57386868       0.00000000       0.00000000 </v>
    <v>       1.28693434       2.22903567       0.00000000 </v>
    <v>       0.00000000       0.00000000      30.30466494 </v>
   </varray>
   <i name="volume">    173.86529028 </i>
   <varray name="rec_basis" >
    <v>       0.38852021      -0.22431225       0.00000000 </v>
    <v>       0.00000000       0.44862450       0.00000000 </v>
    <v>       0.00000000       0.00000000       0.03299822 </v>
   </varray>
  </crystal>
  <varray name="positions" >
   <v>       0.00000000       0.00000000       0.39644015 </v>
   <v>       0.33333333       0.33333333       0.46515176 </v>
   <v>       0.66666667       0.66666667       0.53391621 </v>
   <v>       0.00000000       0.00000000       0.60674401 </v>
   <v>       0.50000000       0.00000000       0.63476745 </v>
  </varray>
  <varray name="selective"  type="logical" >
   <v type="logical" >  F  F  F </v>
   <v type="logical" >  F  F  F </v>
   <v type="logical" >  F  F  F </v>
   <v type="logical" >  F  F  F </v>
   <v type="logical" >  T  T  T </v>
  </varray>
  <nose>
   <v>      -3.00000000       0.00000000       0.00010000       0.00010000 </v>
  </nose>
 </structure>
 <calculation>
  <scstep>
   <time name="dav">    4.05    4.05</time>
   <time name="total">    4.16    4.20</time>
   <energy>
    <i name="alphaZ">    120.87645803 </i>
    <i name="ewald">  37792.41027768 </i>
    <i name="hartreedc"> -42911.68614054 </i>
    <i name="XCdc">    177.50915431 </i>
    <i name="pawpsdc">   4328.99049516 </i>
    <i name="pawaedc">  -4905.09836044 </i>
    <i name="eentropy">      0.00000000 </i>
    <i name="bandstr">    101.82832159 </i>
    <i name="atom">   5576.39375050 </i>
    <i name="e_fr_energy">    281.22395629 </i>
    <i name="e_wo_entrp">    281.22395629 </i>
    <i name="e_0_energy">    281.22395629 </i>
   </energy>
  </scstep>
  <scstep>
   <time name="dav">    4.16    4.16</time>
   <time name="total">    4.16    4.16</time>
   <energy>
    <i name="e_fr_energy">     -2.98769513 </i>
    <i name="e_wo_entrp">     -2.98769513 </i>
    <i name="e_0_energy">     -2.98769513 </i>
   </energy>
  </scstep>
  <scstep>
   <time name="dav">    4.41    4.41</time>
   <time name="total">    4.42    4.42</time>
   <energy>
    <i name="e_fr_energy">    -20.72390119 </i>
    <i name="e_wo_entrp">    -20.72390119 </i>
    <i name="e_0_energy">    -20.72390119 </i>
   </energy>
  </scstep>
  <scstep>
   <time name="dav">    4.41    4.41</time>
   <time name="total">    4.41    4.42</time>
   <energy>
    <i name="e_fr_energy">    -21.00701954 </i>
    <i name="e_wo_entrp">    -21.00701954 </i>
    <i name="e_0_energy">    -21.00701954 </i>
   </energy>
  </scstep>
  <scstep>
   <time name="dav">    4.44    4.44</time>
   <time name="total">    4.76    4.76</time>
   <energy>
    <i name="e_fr_energy">    -21.00949423 </i>
    <i name="e_wo_entrp">    -21.00949423 </i>
    <i name="e_0_energy">    -21.00949423 </i>
   </energy>
  </scstep>
  <scstep>
   <time name="diag">    0.73    0.73</time>
   <time name="diis">    2.62    2.62</time>
   <time name="orth">    0.03    0.04</time>
   <time name="total">    3.82    3.82</time>
   <energy>
    <i name="e_fr_energy">    -19.07497099 </i>
    <i name="e_wo_entrp">    -19.07497099 </i>
    <i name="e_0_energy">    -19.07497099 </i>
   </energy>
  </scstep>
  <scstep>
   <time name="diag">    0.73    0.73</time>
   <time name="diis">    2.62    2.63</time>
   <time name="orth">    0.03    0.04</time>
   <time name="total">    3.81    3.82</time>
   <energy>
    <i name="e_fr_energy">    -17.24781089 </i>
    <i name="e_wo_entrp">    -17.24781089 </i>
    <i name="e_0_energy">    -17.24781089 </i>
   </energy>
  </scstep>
  <scstep>
   <time name="diag">    0.73    0.73</time>
   <time name="diis">    2.62    2.62</time>
   <time name="orth">    0.04    0.04</time>
   <time name="total">    3.81    3.81</time>
   <energy>
    <i name="e_fr_energy">    -17.24140433 </i>
    <i name="e_wo_entrp">    -17.24140433 </i>
    <i name="e_0_energy">    -17.24140433 </i>
   </energy>
  </scstep>
  <scstep>
   <time name="diag">    0.73    0.73</time>
   <time name="diis">    2.62    2.62</time>
   <time name="orth">    0.03    0.04</time>
   <time name="total">    3.81    3.81</time>
   <energy>
    <i name="e_fr_energy">    -17.17116486 </i>
    <i name="e_wo_entrp">    -17.17116486 </i>
    <i name="e_0_energy">    -17.17116486 </i>
   </energy>
  </scstep>
  <scstep>
   <time name="diag">    0.73    0.73</time>
   <time name="diis">    2.61    2.61</time>
   <time name="orth">    0.04    0.04</time>
   <time name="total">    3.80    3.80</time>
   <energy>
    <i name="e_fr_energy">    -17.17648693 </i>
    <i name="e_wo_entrp">    -17.17648693 </i>
    <i name="e_0_energy">    -17.17648693 </i>
   </energy>
  </scstep>
  <scstep>
   <time name="diag">    0.73    0.73</time>
   <time name="diis">    2.63    2.63</time>
   <time name="orth">    0.04    0.04</time>
   <time name="total">    3.83    3.83</time>
   <energy>
    <i name="e_fr_energy">    -17.17526022 </i>
    <i name="e_wo_entrp">    -17.17526022 </i>
    <i name="e_0_energy">    -17.17526022 </i>
   </energy>
  </scstep>
  <scstep>
   <time name="diag">    0.73    0.73</time>
   <time name="diis">    2.61    2.61</time>
   <time name="orth">    0.04    0.04</time>
   <time name="total">    3.81    3.81</time>
   <energy>
    <i name="e_fr_energy">    -17.17379888 </i>
    <i name="e_wo_entrp">    -17.17379888 </i>
    <i name="e_0_energy">    -17.17379888 </i>
   </energy>
  </scstep>
  <scstep>
   <time name="diag">    0.73    0.73</time>
   <time name="diis">    2.66    2.66</time>
   <time name="orth">    0.05    0.05</time>
   <time name="total">    3.93    3.93</time>
   <energy>
    <i name="e_fr_energy">    -17.17366892 </i>
    <i name="e_wo_entrp">    -17.17366892 </i>
    <i name="e_0_energy">    -17.17366892 </i>
   </energy>
  </scstep>
  <scstep>
   <time name="diag">    0.73    0.73</time>
   <time name="diis">    2.62    2.62</time>
   <time name="orth">    0.04    0.04</time>
   <time name="total">    3.84    3.84</time>
   <energy>
    <i name="e_fr_energy">    -17.17347856 </i>
    <i name="e_wo_entrp">    -17.17347856 </i>
    <i name="e_0_energy">    -17.17347856 </i>
   </energy>
  </scstep>
  <scstep>
   <time name="diag">    0.73    0.73</time>
   <time name="diis">    2.60    2.60</time>
   <time name="orth">    0.04    0.04</time>
   <time name="total">    3.80    3.80</time>
   <energy>
    <i name="e_fr_energy">    -17.17344960 </i>
    <i name="e_wo_entrp">    -17.17344960 </i>
    <i name="e_0_energy">    -17.17344960 </i>
   </energy>
  </scstep>
  <scstep>
   <time name="diag">    0.73    0.73</time>
   <time name="diis">    2.59    2.59</time>
   <time name="orth">    0.04    0.04</time>
   <time name="total">    3.79    3.79</time>
   <energy>
    <i name="e_fr_energy">    -17.17357393 </i>
    <i name="e_wo_entrp">    -17.17357393 </i>
    <i name="e_0_energy">    -17.17357393 </i>
   </energy>
  </scstep>
  <scstep>
   <time name="diag">    0.73    0.73</time>
   <time name="diis">    2.59    2.59</time>
   <time name="orth">    0.04    0.04</time>
   <time name="total">    3.79    3.79</time>
   <energy>
    <i name="e_fr_energy">    -17.17362113 </i>
    <i name="e_wo_entrp">    -17.17362113 </i>
    <i name="e_0_energy">    -17.17362113 </i>
   </energy>
  </scstep>
  <scstep>
   <time name="diag">    0.73    0.73</time>
   <time name="diis">    2.40    2.40</time>
   <time name="orth">    0.04    0.04</time>
   <time name="total">    3.61    3.61</time>
   <energy>
    <i name="e_fr_energy">    -17.17372450 </i>
    <i name="e_wo_entrp">    -17.17372450 </i>
    <i name="e_0_energy">    -17.17372450 </i>
   </energy>
  </scstep>
  <scstep>
   <time name="diag">    0.73    0.73</time>
   <time name="diis">    1.83    1.83</time>
   <time name="orth">    0.04    0.04</time>
   <time name="total">    3.04    3.04</time>
   <energy>
    <i name="e_fr_energy">    -17.17378259 </i>
    <i name="e_wo_entrp">    -17.17378259 </i>
    <i name="e_0_energy">    -17.17378259 </i>
   </energy>
  </scstep>
  <scstep>
   <time name="diag">    0.73    0.73</time>
   <time name="diis">    1.81    1.81</time>
   <time name="orth">    0.04    0.04</time>
   <time name="total">    3.01    3.01</time>
   <energy>
    <i name="e_fr_energy">    -17.17381306 </i>
    <i name="e_wo_entrp">    -17.17381306 </i>
    <i name="e_0_energy">    -17.17381306 </i>
   </energy>
  </scstep>
  <scstep>
   <time name="diag">    0.73    0.73</time>
   <time name="diis">    1.78    1.78</time>
   <time name="orth">    0.04    0.04</time>
   <time name="total">    2.99    2.99</time>
   <energy>
    <i name="e_fr_energy">    -17.17384238 </i>
    <i name="e_wo_entrp">    -17.17384238 </i>
    <i name="e_0_energy">    -17.17384238 </i>
   </energy>
  </scstep>
  <scstep>
   <time name="diag">    0.73    0.73</time>
   <time name="diis">    1.73    1.73</time>
   <time name="orth">    0.04    0.04</time>
   <time name="total">    2.94    2.94</time>
   <energy>
    <i name="e_fr_energy">    -17.17385039 </i>
    <i name="e_wo_entrp">    -17.17385039 </i>
    <i name="e_0_energy">    -17.17385039 </i>
   </energy>
  </scstep>
  <scstep>
   <time name="diag">    0.73    0.73</time>
   <time name="diis">    1.55    1.54</time>
   <time name="orth">    0.03    0.04</time>
   <time name="total">    2.75    2.75</time>
   <energy>
    <i name="e_fr_energy">    -17.17385564 </i>
    <i name="e_wo_entrp">    -17.17385564 </i>
    <i name="e_0_energy">    -17.17385564 </i>
   </energy>
  </scstep>
  <scstep>
   <time name="diag">    0.73    0.73</time>
   <time name="diis">    1.39    1.39</time>
   <time name="orth">    0.03    0.04</time>
   <time name="total">    2.26    2.27</time>
   <energy>
    <i name="alphaZ">    120.87645803 </i>
    <i name="ewald">  37792.41027768 </i>
    <i name="hartreedc"> -42857.76190303 </i>
    <i name="XCdc">    173.53336572 </i>
    <i name="pawpsdc">   4392.01777086 </i>
    <i name="pawaedc">  -4971.07443012 </i>
    <i name="eentropy">      0.00000000 </i>
    <i name="bandstr">   -243.56914507 </i>
    <i name="atom">   5576.39375050 </i>
    <i name="e_fr_energy">    -17.17385542 </i>
    <i name="e_wo_entrp">    -17.17385542 </i>
    <i name="e_0_energy">    -17.17385542 </i>
   </energy>
  </scstep>
  <structure>
   <crystal>
    <varray name="basis" >
     <v>       2.57386868       0.00000000       0.00000000 </v>
     <v>       1.28693434       2.22903567       0.00000000 </v>
     <v>       0.00000000       0.00000000      30.30466494 </v>
    </varray>
    <i name="volume">    173.86529028 </i>
    <varray name="rec_basis" >
     <v>       0.38852021      -0.22431225       0.00000000 </v>
     <v>       0.00000000       0.44862450       0.00000000 </v>
     <v>       0.00000000       0.00000000       0.03299822 </v>
    </varray>
   </crystal>
   <varray name="positions" >
    <v>       0.00000000       0.00000000       0.39644015 </v>
    <v>       0.33333333       0.33333333       0.46515176 </v>
    <v>       0.66666667       0.66666667       0.53391621 </v>
    <v>       0.00000000       0.00000000       0.60674401 </v>
    <v>       0.50000000       0.00000000       0.63476745 </v>
   </varray>
  </structure>
  <varray name="forces" >
   <v>      -0.00000000      -0.00000899       0.04393606 </v>
   <v>      -0.00000000       0.00391242      -0.01782207 </v>
   <v>       0.00000000       0.02799020       0.07793585 </v>
   <v>       0.00000000      -0.02888331      -0.98179112 </v>
   <v>      -0.00000000      -0.00301032       0.87774128 </v>
  </varray>
  <varray name="stress" >
   <v>      10.84691555       0.00000000       0.00000000 </v>
   <v>       0.00000000      -2.68724829      -0.74711597 </v>
   <v>       0.00000000      -0.74711626       3.18112790 </v>
  </varray>
  <energy>
   <i name="e_fr_energy">    -17.17385542 </i>
   <i name="e_wo_entrp">    -17.17385542 </i>
   <i name="e_0_energy">      0.00000000 </i>
  </energy>
  <kpoints>
   <generation param="Gamma">
    <v type="int" name="divisions">      10       10        1 </v>
    <v name="usershift">      0.00000000       0.00000000       0.00000000 </v>
    <v name="genvec1">      0.10000000       0.00000000       0.00000000 </v>
    <v name="genvec2">      0.00000000       0.10000000       0.00000000 </v>
    <v name="genvec3">      0.00000000       0.00000000       1.00000000 </v>
    <v name="shift">      0.00000000       0.00000000       0.00000000 </v>
   </generation>
   <varray name="kpointlist" >
    <v>       0.00000000       0.00000000       0.00000000 </v>
    <v>       0.10000000       0.00000000       0.00000000 </v>
    <v>       0.20000000      -0.00000000       0.00000000 </v>
    <v>       0.30000000      -0.00000000       0.00000000 </v>
    <v>       0.40000000      -0.00000000       0.00000000 </v>
    <v>       0.50000000      -0.00000000       0.00000000 </v>
    <v>       0.00000000       0.10000000       0.00000000 </v>
    <v>       0.10000000       0.10000000       0.00000000 </v>
    <v>       0.20000000       0.10000000       0.00000000 </v>
    <v>       0.30000000       0.10000000       0.00000000 </v>
    <v>       0.40000000       0.10000000       0.00000000 </v>
    <v>       0.50000000       0.10000000       0.00000000 </v>
    <v>      -0.40000000       0.10000000       0.00000000 </v>
    <v>      -0.30000000       0.10000000       0.00000000 </v>
    <v>      -0.20000000       0.10000000       0.00000000 </v>
    <v>      -0.10000000       0.10000000       0.00000000 </v>
    <v>       0.00000000       0.20000000       0.00000000 </v>
    <v>       0.10000000       0.20000000       0.00000000 </v>
    <v>       0.20000000       0.20000000       0.00000000 </v>
    <v>       0.30000000       0.20000000       0.00000000 </v>
    <v>       0.40000000       0.20000000       0.00000000 </v>
    <v>       0.50000000       0.20000000       0.00000000 </v>
    <v>      -0.40000000       0.20000000       0.00000000 </v>
    <v>      -0.30000000       0.20000000       0.00000000 </v>
    <v>      -0.20000000       0.20000000       0.00000000 </v>
    <v>      -0.10000000       0.20000000       0.00000000 </v>
    <v>       0.00000000       0.30000000       0.00000000 </v>
    <v>       0.10000000       0.30000000       0.00000000 </v>
    <v>       0.20000000       0.30000000       0.00000000 </v>
    <v>       0.30000000       0.30000000       0.00000000 </v>
    <v>       0.40000000       0.30000000       0.00000000 </v>
    <v>       0.50000000       0.30000000       0.00000000 </v>
    <v>      -0.40000000       0.30000000       0.00000000 </v>
    <v>      -0.30000000       0.30000000       0.00000000 </v>
    <v>      -0.20000000       0.30000000       0.00000000 </v>
    <v>      -0.10000000       0.30000000       0.00000000 </v>
    <v>       0.00000000       0.40000000       0.00000000 </v>
    <v>       0.10000000       0.40000000       0.00000000 </v>
    <v>       0.20000000       0.40000000       0.00000000 </v>
    <v>       0.30000000       0.40000000       0.00000000 </v>
    <v>       0.40000000       0.40000000       0.00000000 </v>
    <v>       0.50000000       0.40000000       0.00000000 </v>
    <v>      -0.40000000       0.40000000       0.00000000 </v>
    <v>      -0.30000000       0.40000000       0.00000000 </v>
    <v>      -0.20000000       0.40000000       0.00000000 </v>
    <v>      -0.10000000       0.40000000       0.00000000 </v>
    <v>       0.00000000       0.50000000       0.00000000 </v>
    <v>       0.10000000       0.50000000       0.00000000 </v>
    <v>       0.20000000       0.50000000       0.00000000 </v>
    <v>       0.30000000       0.50000000       0.00000000 </v>
    <v>       0.40000000       0.50000000       0.00000000 </v>
    <v>       0.50000000       0.50000000       0.00000000 </v>
   </varray>
   <varray name="weights" >
    <v>       0.01000000 </v>
    <v>       0.02000000 </v>
    <v>       0.02000000 </v>
    <v>       0.02000000 </v>
    <v>       0.02000000 </v>
    <v>       0.01000000 </v>
    <v>       0.02000000 </v>
    <v>       0.02000000 </v>
    <v>       0.02000000 </v>
    <v>       0.02000000 </v>
    <v>       0.02000000 </v>
    <v>       0.02000000 </v>
    <v>       0.02000000 </v>
    <v>       0.02000000 </v>
    <v>       0.02000000 </v>
    <v>       0.02000000 </v>
    <v>       0.02000000 </v>
    <v>       0.02000000 </v>
    <v>       0.02000000 </v>
    <v>       0.02000000 </v>
    <v>       0.02000000 </v>
    <v>       0.02000000 </v>
    <v>       0.02000000 </v>
    <v>       0.02000000 </v>
    <v>       0.02000000 </v>
    <v>       0.02000000 </v>
    <v>       0.02000000 </v>
    <v>       0.02000000 </v>
    <v>       0.02000000 </v>
    <v>       0.02000000 </v>
    <v>       0.02000000 </v>
    <v>       0.02000000 </v>
    <v>       0.02000000 </v>
    <v>       0.02000000 </v>
    <v>       0.02000000 </v>
    <v>       0.02000000 </v>
    <v>       0.02000000 </v>
    <v>       0.02000000 </v>
    <v>       0.02000000 </v>
    <v>       0.02000000 </v>
    <v>       0.02000000 </v>
    <v>       0.02000000 </v>
    <v>       0.02000000 </v>
    <v>       0.02000000 </v>
    <v>       0.02000000 </v>
    <v>       0.02000000 </v>
    <v>       0.01000000 </v>
    <v>       0.02000000 </v>
    <v>       0.02000000 </v>
    <v>       0.02000000 </v>
    <v>       0.02000000 </v>
    <v>       0.01000000 </v>
   </varray>
   <varray name="tetrahedronlist"  type="int" >
    <v type="int" >        2        1        1        2        8 </v>
    <v type="int" >        2        1        1        7        8 </v>
    <v type="int" >        2        1        7        7        8 </v>
    <v type="int" >        2        1        2        2        8 </v>
    <v type="int" >        2        1        2        8        8 </v>
    <v type="int" >        2        1        7        8        8 </v>
    <v type="int" >        2        2        2        3        9 </v>
    <v type="int" >        2        2        2        8        9 </v>
    <v type="int" >        2        2        8        8        9 </v>
    <v type="int" >        2        2        3        3        9 </v>
    <v type="int" >        2        2        3        9        9 </v>
    <v type="int" >        2        2        8        9        9 </v>
    <v type="int" >        2        3        3        4       10 </v>
    <v type="int" >        2        3        3        9       10 </v>
    <v type="int" >        2        3        9        9       10 </v>
    <v type="int" >        2        3        4        4       10 </v>
    <v type="int" >        2        3        4       10       10 </v>
    <v type="int" >        2        3        9       10       10 </v>
    <v type="int" >        2        4        4        5       11 </v>
    <v type="int" >        2        4        4       10       11 </v>
    <v type="int" >        2        4       10       10       11 </v>
    <v type="int" >        2        4        5        5       11 </v>
    <v type="int" >        2        4        5       11       11 </v>
    <v type="int" >        2        4       10       11       11 </v>
    <v type="int" >        2        5        5        6       12 </v>
    <v type="int" >        2        5        5       11       12 </v>
    <v type="int" >        2        5       11       11       12 </v>
    <v type="int" >        2        5        6        6       12 </v>
    <v type="int" >        2        5        6       12       12 </v>
    <v type="int" >        2        5       11       12       12 </v>
    <v type="int" >        2        5        6        6       13 </v>
    <v type="int" >        2        6        6       12       13 </v>
    <v type="int" >        2        6       12       12       13 </v>
    <v type="int" >        2        5        5        6       13 </v>
    <v type="int" >        2        5        6       13       13 </v>
    <v type="int" >        2        6       12       13       13 </v>
    <v type="int" >        2        4        5        5       14 </v>
    <v type="int" >        2        5        5       13       14 </v>
    <v type="int" >        2        5       13       13       14 </v>
    <v type="int" >        2        4        4        5       14 </v>
    <v type="int" >        2        4        5       14       14 </v>
    <v type="int" >        2        5       13       14       14 </v>
    <v type="int" >        2        3        4        4       15 </v>
    <v type="int" >        2        4        4       14       15 </v>
    <v type="int" >        2        4       14       14       15 </v>
    <v type="int" >        2        3        3        4       15 </v>
    <v type="int" >        2        3        4       15       15 </v>
    <v type="int" >        2        4       14       15       15 </v>
    <v type="int" >        2        2        3        3       16 </v>
    <v type="int" >        2        3        3       15       16 </v>
    <v type="int" >        2        3       15       15       16 </v>
    <v type="int" >        2        2        2        3       16 </v>
    <v type="int" >        2        2        3       16       16 </v>
    <v type="int" >        2        3       15       16       16 </v>
    <v type="int" >        2        1        2        2        7 </v>
    <v type="int" >        2        2        2        7       16 </v>
    <v type="int" >        2        2        7       16       16 </v>
    <v type="int" >        2        1        1        2        7 </v>
    <v type="int" >        2        1        2        7        7 </v>
    <v type="int" >        2        2        7        7       16 </v>
    <v type="int" >        2        7        7        8       18 </v>
    <v type="int" >        2        7        7       17       18 </v>
    <v type="int" >        2        7       17       17       18 </v>
    <v type="int" >        2        7        8        8       18 </v>
    <v type="int" >        2        7        8       18       18 </v>
    <v type="int" >        2        7       17       18       18 </v>
    <v type="int" >        2        8        8        9       19 </v>
    <v type="int" >        2        8        8       18       19 </v>
    <v type="int" >        2        8       18       18       19 </v>
    <v type="int" >        2        8        9        9       19 </v>
    <v type="int" >        2        8        9       19       19 </v>
    <v type="int" >        2        8       18       19       19 </v>
    <v type="int" >        2        9        9       10       20 </v>
    <v type="int" >        2        9        9       19       20 </v>
    <v type="int" >        2        9       19       19       20 </v>
    <v type="int" >        2        9       10       10       20 </v>
    <v type="int" >        2        9       10       20       20 </v>
    <v type="int" >        2        9       19       20       20 </v>
    <v type="int" >        2       10       10       11       21 </v>
    <v type="int" >        2       10       10       20       21 </v>
    <v type="int" >        2       10       20       20       21 </v>
    <v type="int" >        2       10       11       11       21 </v>
    <v type="int" >        2       10       11       21       21 </v>
    <v type="int" >        2       10       20       21       21 </v>
    <v type="int" >        2       11       11       12       22 </v>
    <v type="int" >        2       11       11       21       22 </v>
    <v type="int" >        2       11       21       21       22 </v>
    <v type="int" >        2       11       12       12       22 </v>
    <v type="int" >        2       11       12       22       22 </v>
    <v type="int" >        2       11       21       22       22 </v>
    <v type="int" >        2       12       12       13       23 </v>
    <v type="int" >        2       12       12       22       23 </v>
    <v type="int" >        2       12       22       22       23 </v>
    <v type="int" >        2       12       13       13       23 </v>
    <v type="int" >        2       12       13       23       23 </v>
    <v type="int" >        2       12       22       23       23 </v>
    <v type="int" >        2       13       13       14       24 </v>
    <v type="int" >        2       13       13       23       24 </v>
    <v type="int" >        2       13       23       23       24 </v>
    <v type="int" >        2       13       14       14       24 </v>
    <v type="int" >        2       13       14       24       24 </v>
    <v type="int" >        2       13       23       24       24 </v>
    <v type="int" >        2       14       14       15       25 </v>
    <v type="int" >        2       14       14       24       25 </v>
    <v type="int" >        2       14       24       24       25 </v>
    <v type="int" >        2       14       15       15       25 </v>
    <v type="int" >        2       14       15       25       25 </v>
    <v type="int" >        2       14       24       25       25 </v>
    <v type="int" >        2       15       15       16       26 </v>
    <v type="int" >        2       15       15       25       26 </v>
    <v type="int" >        2       15       25       25       26 </v>
    <v type="int" >        2       15       16       16       26 </v>
    <v type="int" >        2       15       16       26       26 </v>
    <v type="int" >        2       15       25       26       26 </v>
    <v type="int" >        2        7       16       16       17 </v>
    <v type="int" >        2       16       16       17       26 </v>
    <v type="int" >        2       16       17       26       26 </v>
    <v type="int" >        2        7        7       16       17 </v>
    <v type="int" >        2        7       16       17       17 </v>
    <v type="int" >        2       16       17       17       26 </v>
    <v type="int" >        2       17       17       18       28 </v>
    <v type="int" >        2       17       17       27       28 </v>
    <v type="int" >        2       17       27       27       28 </v>
    <v type="int" >        2       17       18       18       28 </v>
    <v type="int" >        2       17       18       28       28 </v>
    <v type="int" >        2       17       27       28       28 </v>
    <v type="int" >        2       18       18       19       29 </v>
    <v type="int" >        2       18       18       28       29 </v>
    <v type="int" >        2       18       28       28       29 </v>
    <v type="int" >        2       18       19       19       29 </v>
    <v type="int" >        2       18       19       29       29 </v>
    <v type="int" >        2       18       28       29       29 </v>
    <v type="int" >        2       19       19       20       30 </v>
    <v type="int" >        2       19       19       29       30 </v>
    <v type="int" >        2       19       29       29       30 </v>
    <v type="int" >        2       19       20       20       30 </v>
    <v type="int" >        2       19       20       30       30 </v>
    <v type="int" >        2       19       29       30       30 </v>
    <v type="int" >        2       20       20       21       31 </v>
    <v type="int" >        2       20       20       30       31 </v>
    <v type="int" >        2       20       30       30       31 </v>
    <v type="int" >        2       20       21       21       31 </v>
    <v type="int" >        2       20       21       31       31 </v>
    <v type="int" >        2       20       30       31       31 </v>
    <v type="int" >        2       21       21       22       32 </v>
    <v type="int" >        2       21       21       31       32 </v>
    <v type="int" >        2       21       31       31       32 </v>
    <v type="int" >        2       21       22       22       32 </v>
    <v type="int" >        2       21       22       32       32 </v>
    <v type="int" >        2       21       31       32       32 </v>
    <v type="int" >        2       22       22       23       33 </v>
    <v type="int" >        2       22       22       32       33 </v>
    <v type="int" >        2       22       32       32       33 </v>
    <v type="int" >        2       22       23       23       33 </v>
    <v type="int" >        2       22       23       33       33 </v>
    <v type="int" >        2       22       32       33       33 </v>
    <v type="int" >        2       23       23       24       34 </v>
    <v type="int" >        2       23       23       33       34 </v>
    <v type="int" >        2       23       33       33       34 </v>
    <v type="int" >        2       23       24       24       34 </v>
    <v type="int" >        2       23       24       34       34 </v>
    <v type="int" >        2       23       33       34       34 </v>
    <v type="int" >        2       24       24       25       35 </v>
    <v type="int" >        2       24       24       34       35 </v>
    <v type="int" >        2       24       34       34       35 </v>
    <v type="int" >        2       24       25       25       35 </v>
    <v type="int" >        2       24       25       35       35 </v>
    <v type="int" >        2       24       34       35       35 </v>
    <v type="int" >        2       25       25       26       36 </v>
    <v type="int" >        2       25       25       35       36 </v>
    <v type="int" >        2       25       35       35       36 </v>
    <v type="int" >        2       25       26       26       36 </v>
    <v type="int" >        2       25       26       36       36 </v>
    <v type="int" >        2       25       35       36       36 </v>
    <v type="int" >        2       17       26       26       27 </v>
    <v type="int" >        2       26       26       27       36 </v>
    <v type="int" >        2       26       27       36       36 </v>
    <v type="int" >        2       17       17       26       27 </v>
    <v type="int" >        2       17       26       27       27 </v>
    <v type="int" >        2       26       27       27       36 </v>
    <v type="int" >        2       27       27       28       38 </v>
    <v type="int" >        2       27       27       37       38 </v>
    <v type="int" >        2       27       37       37       38 </v>
    <v type="int" >        2       27       28       28       38 </v>
    <v type="int" >        2       27       28       38       38 </v>
    <v type="int" >        2       27       37       38       38 </v>
    <v type="int" >        2       28       28       29       39 </v>
    <v type="int" >        2       28       28       38       39 </v>
    <v type="int" >        2       28       38       38       39 </v>
    <v type="int" >        2       28       29       29       39 </v>
    <v type="int" >        2       28       29       39       39 </v>
    <v type="int" >        2       28       38       39       39 </v>
    <v type="int" >        2       29       29       30       40 </v>
    <v type="int" >        2       29       29       39       40 </v>
    <v type="int" >        2       29       39       39       40 </v>
    <v type="int" >        2       29       30       30       40 </v>
    <v type="int" >        2       29       30       40       40 </v>
    <v type="int" >        2       29       39       40       40 </v>
    <v type="int" >        2       30       30       31       41 </v>
    <v type="int" >        2       30       30       40       41 </v>
    <v type="int" >        2       30       40       40       41 </v>
    <v type="int" >        2       30       31       31       41 </v>
    <v type="int" >        2       30       31       41       41 </v>
    <v type="int" >        2       30       40       41       41 </v>
    <v type="int" >        2       31       31       32       42 </v>
    <v type="int" >        2       31       31       41       42 </v>
    <v type="int" >        2       31       41       41       42 </v>
    <v type="int" >        2       31       32       32       42 </v>
    <v type="int" >        2       31       32       42       42 </v>
    <v type="int" >        2       31       41       42       42 </v>
    <v type="int" >        2       32       32       33       43 </v>
    <v type="int" >        2       32       32       42       43 </v>
    <v type="int" >        2       32       42       42       43 </v>
    <v type="int" >        2       32       33       33       43 </v>
    <v type="int" >        2       32       33       43       43 </v>
    <v type="int" >        2       32       42       43       43 </v>
    <v type="int" >        2       33       33       34       44 </v>
    <v type="int" >        2       33       33       43       44 </v>
    <v type="int" >        2       33       43       43       44 </v>
    <v type="int" >        2       33       34       34       44 </v>
    <v type="int" >        2       33       34       44       44 </v>
    <v type="int" >        2       33       43       44       44 </v>
    <v type="int" >        2       34       34       35       45 </v>
    <v type="int" >        2       34       34       44       45 </v>
    <v type="int" >        2       34       44       44       45 </v>
    <v type="int" >        2       34       35       35       45 </v>
    <v type="int" >        2       34       35       45       45 </v>
    <v type="int" >        2       34       44       45       45 </v>
    <v type="int" >        2       35       35       36       46 </v>
    <v type="int" >        2       35       35       45       46 </v>
    <v type="int" >        2       35       45       45       46 </v>
    <v type="int" >        2       35       36       36       46 </v>
    <v type="int" >        2       35       36       46       46 </v>
    <v type="int" >        2       35       45       46       46 </v>
    <v type="int" >        2       27       36       36       37 </v>
    <v type="int" >        2       36       36       37       46 </v>
    <v type="int" >        2       36       37       46       46 </v>
    <v type="int" >        2       27       27       36       37 </v>
    <v type="int" >        2       27       36       37       37 </v>
    <v type="int" >        2       36       37       37       46 </v>
    <v type="int" >        2       37       37       38       48 </v>
    <v type="int" >        2       37       37       47       48 </v>
    <v type="int" >        2       37       47       47       48 </v>
    <v type="int" >        2       37       38       38       48 </v>
    <v type="int" >        2       37       38       48       48 </v>
    <v type="int" >        2       37       47       48       48 </v>
    <v type="int" >        2       38       38       39       49 </v>
    <v type="int" >        2       38       38       48       49 </v>
    <v type="int" >        2       38       48       48       49 </v>
    <v type="int" >        2       38       39       39       49 </v>
    <v type="int" >        2       38       39       49       49 </v>
    <v type="int" >        2       38       48       49       49 </v>
    <v type="int" >        2       39       39       40       50 </v>
    <v type="int" >        2       39       39       49       50 </v>
    <v type="int" >        2       39       49       49       50 </v>
    <v type="int" >        2       39       40       40       50 </v>
    <v type="int" >        2       39       40       50       50 </v>
    <v type="int" >        2       39       49       50       50 </v>
    <v type="int" >        2       40       40       41       51 </v>
    <v type="int" >        2       40       40       50       51 </v>
    <v type="int" >        2       40       50       50       51 </v>
    <v type="int" >        2       40       41       41       51 </v>
    <v type="int" >        2       40       41       51       51 </v>
    <v type="int" >        2       40       50       51       51 </v>
    <v type="int" >        2       41       41       42       52 </v>
    <v type="int" >        2       41       41       51       52 </v>
    <v type="int" >        2       41       51       51       52 </v>
    <v type="int" >        2       41       42       42       52 </v>
    <v type="int" >        2       41       42       52       52 </v>
    <v type="int" >        2       41       51       52       52 </v>
    <v type="int" >        2       42       42       43       51 </v>
    <v type="int" >        2       42       42       51       52 </v>
    <v type="int" >        2       42       51       52       52 </v>
    <v type="int" >        2       42       43       43       51 </v>
    <v type="int" >        2       42       43       51       51 </v>
    <v type="int" >        2       42       51       51       52 </v>
    <v type="int" >        2       43       43       44       50 </v>
    <v type="int" >        2       43       43       50       51 </v>
    <v type="int" >        2       43       50       51       51 </v>
    <v type="int" >        2       43       44       44       50 </v>
    <v type="int" >        2       43       44       50       50 </v>
    <v type="int" >        2       43       50       50       51 </v>
    <v type="int" >        2       44       44       45       49 </v>
    <v type="int" >        2       44       44       49       50 </v>
    <v type="int" >        2       44       49       50       50 </v>
    <v type="int" >        2       44       45       45       49 </v>
    <v type="int" >        2       44       45       49       49 </v>
    <v type="int" >        2       44       49       49       50 </v>
    <v type="int" >        2       45       45       46       48 </v>
    <v type="int" >        2       45       45       48       49 </v>
    <v type="int" >        2       45       48       49       49 </v>
    <v type="int" >        2       45       46       46       48 </v>
    <v type="int" >        2       45       46       48       48 </v>
    <v type="int" >        2       45       48       48       49 </v>
    <v type="int" >        2       37       46       46       47 </v>
    <v type="int" >        2       46       46       47       48 </v>
    <v type="int" >        2       46       47       48       48 </v>
    <v type="int" >        2       37       37       46       47 </v>
    <v type="int" >        2       37       46       47       47 </v>
    <v type="int" >        2       46       47       47       48 </v>
   </varray>
   <i name="volumeweight">      0.00166667 </i>
  </kpoints>
  <time name="totalsc">   95.83   95.91</time>
 </calculation>
 <calculation>
  <scstep>
   <time name="dav">    7.07    7.07</time>
   <time name="total">    7.71    7.72</time>
   <energy>
    <i name="alphaZ">    120.87645803 </i>
    <i name="ewald">  37792.92699668 </i>
    <i name="hartreedc"> -42857.97776550 </i>
    <i name="XCdc">    173.53857453 </i>
    <i name="pawpsdc">   4392.01820993 </i>
    <i name="pawaedc">  -4971.07419305 </i>
    <i name="eentropy">      0.00000000 </i>
    <i name="bandstr">   -243.81992093 </i>
    <i name="atom">   5576.39375050 </i>
    <i name="e_fr_energy">    -17.11788982 </i>
    <i name="e_wo_entrp">    -17.11788982 </i>
    <i name="e_0_energy">    -17.11788982 </i>
   </energy>
  </scstep>
  <scstep>
   <time name="diag">    1.23    1.23</time>
   <time name="diis">    4.35    4.35</time>
   <time name="orth">    0.06    0.06</time>
   <time name="total">    6.28    6.28</time>
   <energy>
    <i name="e_fr_energy">    -17.11986536 </i>
    <i name="e_wo_entrp">    -17.11986536 </i>
    <i name="e_0_energy">    -17.11986536 </i>
   </energy>
  </scstep>
  <scstep>
   <time name="diag">    1.23    1.23</time>
   <time name="diis">    4.40    4.39</time>
   <time name="orth">    0.06    0.06</time>
   <time name="total">    6.32    6.32</time>
   <energy>
    <i name="e_fr_energy">    -17.12107581 </i>
    <i name="e_wo_entrp">    -17.12107581 </i>
    <i name="e_0_energy">    -17.12107581 </i>
   </energy>
  </scstep>
  <scstep>
   <time name="diag">    1.24    1.24</time>
   <time name="diis">    4.38    4.38</time>
   <time name="orth">    0.06    0.06</time>
   <time name="total">    6.32    6.32</time>
   <energy>
    <i name="e_fr_energy">    -17.11828219 </i>
    <i name="e_wo_entrp">    -17.11828219 </i>
    <i name="e_0_energy">    -17.11828219 </i>
   </energy>
  </scstep>
  <scstep>
   <time name="diag">    1.24    1.24</time>
   <time name="diis">    4.37    4.36</time>
   <time name="orth">    0.06    0.06</time>
   <time name="total">    6.31    6.31</time>
   <energy>
    <i name="e_fr_energy">    -17.11806400 </i>
    <i name="e_wo_entrp">    -17.11806400 </i>
    <i name="e_0_energy">    -17.11806400 </i>
   </energy>
  </scstep>
  <scstep>
   <time name="diag">    1.23    1.23</time>
   <time name="diis">    4.39    4.39</time>
   <time name="orth">    0.06    0.06</time>
   <time name="total">    6.32    6.32</time>
   <energy>
    <i name="e_fr_energy">    -17.11815802 </i>
    <i name="e_wo_entrp">    -17.11815802 </i>
    <i name="e_0_energy">    -17.11815802 </i>
   </energy>
  </scstep>
  <scstep>
   <time name="diag">    1.23    1.23</time>
   <time name="diis">    3.56    3.56</time>
   <time name="orth">    0.06    0.06</time>
   <time name="total">    5.49    5.49</time>
   <energy>
    <i name="e_fr_energy">    -17.11812131 </i>
    <i name="e_wo_entrp">    -17.11812131 </i>
    <i name="e_0_energy">    -17.11812131 </i>
   </energy>
  </scstep>
  <scstep>
   <time name="diag">    1.23    1.24</time>
   <time name="diis">    2.82    2.82</time>
   <time name="orth">    0.06    0.06</time>
   <time name="total">    4.76    4.76</time>
   <energy>
    <i name="e_fr_energy">    -17.11813243 </i>
    <i name="e_wo_entrp">    -17.11813243 </i>
    <i name="e_0_energy">    -17.11813243 </i>
   </energy>
  </scstep>
  <scstep>
   <time name="diag">    1.25    1.25</time>
   <time name="diis">    2.81    2.81</time>
   <time name="orth">    0.06    0.06</time>
   <time name="total">    4.76    4.76</time>
   <energy>
    <i name="e_fr_energy">    -17.11813414 </i>
    <i name="e_wo_entrp">    -17.11813414 </i>
    <i name="e_0_energy">    -17.11813414 </i>
   </energy>
  </scstep>
  <scstep>
   <time name="diag">    1.24    1.24</time>
   <time name="diis">    2.76    2.76</time>
   <time name="orth">    0.06    0.06</time>
   <time name="total">    4.18    4.18</time>
   <energy>
    <i name="alphaZ">    120.87645803 </i>
    <i name="ewald">  37792.92699668 </i>
    <i name="hartreedc"> -42857.95513756 </i>
    <i name="XCdc">    173.54237675 </i>
    <i name="pawpsdc">   4393.43322479 </i>
    <i name="pawaedc">  -4972.53059154 </i>
    <i name="eentropy">      0.00000000 </i>
    <i name="bandstr">   -243.80521167 </i>
    <i name="atom">   5576.39375050 </i>
    <i name="e_fr_energy">    -17.11813403 </i>
    <i name="e_wo_entrp">    -17.11813403 </i>
    <i name="e_0_energy">    -17.11813403 </i>
   </energy>
  </scstep>
  <structure>
   <crystal>
    <varray name="basis" >
     <v>       2.57386868       0.00000000       0.00000000 </v>
     <v>       1.28693434       2.22903567       0.00000000 </v>
     <v>       0.00000000       0.00000000      30.30466494 </v>
    </varray>
    <i name="volume">    173.86529028 </i>
    <varray name="rec_basis" >
     <v>       0.38852021      -0.22431225       0.00000000 </v>
     <v>       0.00000000       0.44862450       0.00000000 </v>
     <v>       0.00000000       0.00000000       0.03299822 </v>
    </varray>
   </crystal>
   <varray name="positions" >
    <v>       0.00000000       0.00000000       0.39644015 </v>
    <v>       0.33333333       0.33333333       0.46515176 </v>
    <v>       0.66666667       0.66666667       0.53391621 </v>
    <v>       0.00000000       0.00000000       0.60674401 </v>
    <v>       0.53885202       0.00000000       0.63476745 </v>
   </varray>
  </structure>
  <varray name="forces" >
   <v>       0.00040006      -0.00015652       0.04405464 </v>
   <v>       0.00052953       0.00385188      -0.01832241 </v>
   <v>       0.00450837       0.02790990       0.07649448 </v>
   <v>       1.12204914      -0.02827290      -1.18852737 </v>
   <v>      -1.12748710      -0.00333236       1.08630065 </v>
  </varray>
  <varray name="stress" >
   <v>      12.56789757      -0.12573467      -8.96387723 </v>
   <v>      -0.12573479      -2.87435636      -0.73702474 </v>
   <v>      -8.96387739      -0.73702473       4.84022197 </v>
  </varray>
  <energy>
   <i name="e_fr_energy">    -17.11813403 </i>
   <i name="e_wo_entrp">    -17.11813403 </i>
   <i name="e_0_energy">      0.00000000 </i>
  </energy>
  <kpoints>
   <generation param="Gamma">
    <v type="int" name="divisions">      10       10        1 </v>
    <v name="usershift">      0.00000000       0.00000000       0.00000000 </v>
    <v name="genvec1">      0.10000000       0.00000000       0.00000000 </v>
    <v name="genvec2">      0.00000000       0.10000000       0.00000000 </v>
    <v name="genvec3">      0.00000000       0.00000000       1.00000000 </v>
    <v name="shift">      0.00000000       0.00000000       0.00000000 </v>
   </generation>
   <varray name="kpointlist" >
    <v>       0.00000000       0.00000000       0.00000000 </v>
    <v>       0.10000000       0.00000000       0.00000000 </v>
    <v>       0.20000000      -0.00000000       0.00000000 </v>
    <v>       0.30000000      -0.00000000       0.00000000 </v>
    <v>       0.40000000      -0.00000000       0.00000000 </v>
    <v>       0.50000000      -0.00000000       0.00000000 </v>
    <v>       0.00000000       0.10000000       0.00000000 </v>
    <v>       0.10000000       0.10000000       0.00000000 </v>
    <v>       0.20000000       0.10000000       0.00000000 </v>
    <v>       0.30000000       0.10000000       0.00000000 </v>
    <v>       0.40000000       0.10000000       0.00000000 </v>
    <v>       0.50000000       0.10000000       0.00000000 </v>
    <v>      -0.40000000       0.10000000       0.00000000 </v>
    <v>      -0.30000000       0.10000000       0.00000000 </v>
    <v>      -0.20000000       0.10000000       0.00000000 </v>
    <v>      -0.10000000       0.10000000       0.00000000 </v>
    <v>       0.00000000       0.20000000       0.00000000 </v>
    <v>       0.10000000       0.20000000       0.00000000 </v>
    <v>       0.20000000       0.20000000       0.00000000 </v>
    <v>       0.30000000       0.20000000       0.00000000 </v>
    <v>       0.40000000       0.20000000       0.00000000 </v>
    <v>       0.50000000       0.20000000       0.00000000 </v>
    <v>      -0.40000000       0.20000000       0.00000000 </v>
    <v>      -0.30000000       0.20000000       0.00000000 </v>
    <v>      -0.20000000       0.20000000       0.00000000 </v>
    <v>      -0.10000000       0.20000000       0.00000000 </v>
    <v>       0.00000000       0.30000000       0.00000000 </v>
    <v>       0.10000000       0.30000000       0.00000000 </v>
    <v>       0.20000000       0.30000000       0.00000000 </v>
    <v>       0.30000000       0.30000000       0.00000000 </v>
    <v>       0.40000000       0.30000000       0.00000000 </v>
    <v>       0.50000000       0.30000000       0.00000000 </v>
    <v>      -0.40000000       0.30000000       0.00000000 </v>
    <v>      -0.30000000       0.30000000       0.00000000 </v>
    <v>      -0.20000000       0.30000000       0.00000000 </v>
    <v>      -0.10000000       0.30000000       0.00000000 </v>
    <v>       0.00000000       0.40000000       0.00000000 </v>
    <v>       0.10000000       0.40000000       0.00000000 </v>
    <v>       0.20000000       0.40000000       0.00000000 </v>
    <v>       0.30000000       0.40000000       0.00000000 </v>
    <v>       0.40000000       0.40000000       0.00000000 </v>
    <v>       0.50000000       0.40000000       0.00000000 </v>
    <v>      -0.40000000       0.40000000       0.00000000 </v>
    <v>      -0.30000000       0.40000000       0.00000000 </v>
    <v>      -0.20000000       0.40000000       0.00000000 </v>
    <v>      -0.10000000       0.40000000       0.00000000 </v>
    <v>       0.00000000       0.50000000       0.00000000 </v>
    <v>       0.10000000       0.50000000       0.00000000 </v>
    <v>       0.20000000       0.50000000       0.00000000 </v>
    <v>       0.30000000       0.50000000       0.00000000 </v>
    <v>       0.40000000       0.50000000       0.00000000 </v>
    <v>       0.50000000       0.50000000       0.00000000 </v>
   </varray>
   <varray name="weights" >
    <v>       0.01000000 </v>
    <v>       0.02000000 </v>
    <v>       0.02000000 </v>
    <v>       0.02000000 </v>
    <v>       0.02000000 </v>
    <v>       0.01000000 </v>
    <v>       0.02000000 </v>
    <v>       0.02000000 </v>
    <v>       0.02000000 </v>
    <v>       0.02000000 </v>
    <v>       0.02000000 </v>
    <v>       0.02000000 </v>
    <v>       0.02000000 </v>
    <v>       0.02000000 </v>
    <v>       0.02000000 </v>
    <v>       0.02000000 </v>
    <v>       0.02000000 </v>
    <v>       0.02000000 </v>
    <v>       0.02000000 </v>
    <v>       0.02000000 </v>
    <v>       0.02000000 </v>
    <v>       0.02000000 </v>
    <v>       0.02000000 </v>
    <v>       0.02000000 </v>
    <v>       0.02000000 </v>
    <v>       0.02000000 </v>
    <v>       0.02000000 </v>
    <v>       0.02000000 </v>
    <v>       0.02000000 </v>
[...]
       <r>   -2.6900    0.7902 </r>
       <r>   -0.7169    0.0000 </r>
       <r>    1.0138    0.0000 </r>
       <r>    2.6251    0.0000 </r>
       <r>    3.5173    0.0000 </r>
       <r>    4.9381    0.0000 </r>
      </set>
      <set comment="kpoint 29">
       <r>   -8.8314    1.0000 </r>
       <r>   -6.5934    1.0000 </r>
       <r>   -6.5532    1.0000 </r>
       <r>   -6.2656    1.0000 </r>
       <r>   -6.2219    1.0000 </r>
       <r>   -6.0185    1.0000 </r>
       <r>   -5.9490    1.0000 </r>
       <r>   -5.8613    1.0000 </r>
       <r>   -5.5263    1.0000 </r>
       <r>   -5.4480    1.0000 </r>
       <r>   -5.3290    1.0000 </r>
       <r>   -5.1153    1.0000 </r>
       <r>   -4.9667    1.0000 </r>
       <r>   -4.6970    1.0000 </r>
       <r>   -4.5608    1.0000 </r>
       <r>   -4.5218    1.0000 </r>
       <r>   -4.2521    1.0000 </r>
       <r>   -4.0852    1.0000 </r>
       <r>   -4.0251    1.0000 </r>
       <r>   -3.9257    1.0000 </r>
       <r>   -1.7456    0.1343 </r>
       <r>   -0.7937   -0.2233 </r>
       <r>   -0.4644    0.0000 </r>
       <r>    0.1130    0.0000 </r>
       <r>    0.7977    0.0000 </r>
       <r>    2.4479    0.0000 </r>
       <r>    3.8154    0.0000 </r>
       <r>    5.0186    0.0000 </r>
      </set>
      <set comment="kpoint 30">
       <r>   -9.2587    1.0000 </r>
       <r>   -6.9666    1.0000 </r>
       <r>   -6.8280    1.0000 </r>
       <r>   -6.4432    1.0000 </r>
       <r>   -6.4090    1.0000 </r>
       <r>   -6.1350    1.0000 </r>
       <r>   -5.8106    1.0000 </r>
       <r>   -5.6333    1.0000 </r>
       <r>   -5.3887    1.0000 </r>
       <r>   -5.2568    1.0000 </r>
       <r>   -5.2036    1.0000 </r>
       <r>   -4.9433    1.0000 </r>
       <r>   -4.8277    1.0000 </r>
       <r>   -4.5540    1.0000 </r>
       <r>   -4.4238    1.0000 </r>
       <r>   -4.2470    1.0000 </r>
       <r>   -4.1076    1.0000 </r>
       <r>   -4.0443    1.0000 </r>
       <r>   -3.9832    1.0000 </r>
       <r>   -3.8441    1.0000 </r>
       <r>   -2.8493    0.9982 </r>
       <r>   -2.3331    0.6225 </r>
       <r>   -1.5119   -0.0158 </r>
       <r>   -0.5090    0.0000 </r>
       <r>    0.2889    0.0000 </r>
       <r>    2.2167    0.0000 </r>
       <r>    3.3576    0.0000 </r>
       <r>    4.9168    0.0000 </r>
      </set>
      <set comment="kpoint 31">
       <r>   -9.3735    1.0000 </r>
       <r>   -7.0356    1.0000 </r>
       <r>   -6.9281    1.0000 </r>
       <r>   -6.5352    1.0000 </r>
       <r>   -6.4970    1.0000 </r>
       <r>   -6.2167    1.0000 </r>
       <r>   -5.7953    1.0000 </r>
       <r>   -5.4425    1.0000 </r>
       <r>   -5.3972    1.0000 </r>
       <r>   -5.2547    1.0000 </r>
       <r>   -5.0451    1.0000 </r>
       <r>   -4.8922    1.0000 </r>
       <r>   -4.4636    1.0000 </r>
       <r>   -4.4080    1.0000 </r>
       <r>   -4.4066    1.0000 </r>
       <r>   -4.0619    1.0000 </r>
       <r>   -4.0134    1.0000 </r>
       <r>   -3.9131    1.0000 </r>
       <r>   -3.8533    1.0000 </r>
       <r>   -3.6883    1.0000 </r>
       <r>   -2.6965    1.0000 </r>
       <r>   -2.0601    0.1611 </r>
       <r>   -1.7883   -0.0073 </r>
       <r>   -1.2388    0.0000 </r>
       <r>   -0.8128    0.0000 </r>
       <r>    1.9131    0.0000 </r>
       <r>    3.0651    0.0000 </r>
       <r>    4.4843    0.0000 </r>
      </set>
     </set>
    </set>
   </array>
  </eigenvalues>
  <separator name="orbital magnetization" >
   <v name="MAGDIPOLOUT">      0.00000000      0.00000000      0.00000000</v>
  </separator>
  <dos>
   <i name="efermi">     -2.30889529 </i>
   <total>
    <array>
     <dimension dim="1">gridpoints</dimension>
     <dimension dim="2">spin</dimension>
     <field>energy</field>
     <field>total</field>
     <field>integrated</field>
     <set>
      <set comment="spin 1">
       <r>   -14.0783     0.0000     0.0000 </r>
       <r>   -14.0050     0.0000     0.0000 </r>
       <r>   -13.9317     0.0000     0.0000 </r>
       <r>   -13.8584     0.0000     0.0000 </r>
       <r>   -13.7851     0.0000     0.0000 </r>
       <r>   -13.7118     0.0000     0.0000 </r>
       <r>   -13.6385     0.0000     0.0000 </r>
       <r>   -13.5652     0.0000     0.0000 </r>
       <r>   -13.4919     0.0000     0.0000 </r>
       <r>   -13.4187     0.0000     0.0000 </r>
       <r>   -13.3454     0.0000     0.0000 </r>
       <r>   -13.2721     0.0000     0.0000 </r>
       <r>   -13.1988     0.0000     0.0000 </r>
       <r>   -13.1255     0.0000     0.0000 </r>
       <r>   -13.0522     0.0000     0.0000 </r>
       <r>   -12.9789     0.0000     0.0000 </r>
       <r>   -12.9056     0.0000     0.0000 </r>
       <r>   -12.8324     0.0000     0.0000 </r>
       <r>   -12.7591     0.0000     0.0000 </r>
       <r>   -12.6858     0.0000     0.0000 </r>
       <r>   -12.6125     0.0000     0.0000 </r>
       <r>   -12.5392     0.0000     0.0000 </r>
       <r>   -12.4659     0.0000     0.0000 </r>
       <r>   -12.3926     0.0000     0.0000 </r>
       <r>   -12.3193     0.0000     0.0000 </r>
       <r>   -12.2461     0.0000     0.0000 </r>
       <r>   -12.1728     0.0000     0.0000 </r>
       <r>   -12.0995     0.0000     0.0000 </r>
       <r>   -12.0262     0.0761     0.0020 </r>
       <r>   -11.9529     0.1833     0.0115 </r>
       <r>   -11.8796     0.2905     0.0289 </r>
       <r>   -11.8063     0.3676     0.0540 </r>
       <r>   -11.7330     0.2282     0.0732 </r>
       <r>   -11.6597     0.2388     0.0903 </r>
       <r>   -11.5865     0.2493     0.1081 </r>
       <r>   -11.5132     0.2598     0.1268 </r>
       <r>   -11.4399     0.2704     0.1462 </r>
       <r>   -11.3666     0.2809     0.1664 </r>
       <r>   -11.2933     0.2915     0.1874 </r>
       <r>   -11.2200     0.2945     0.2090 </r>
       <r>   -11.1467     0.2918     0.2305 </r>
       <r>   -11.0734     0.2874     0.2517 </r>
       <r>   -11.0002     0.2878     0.2728 </r>
       <r>   -10.9269     0.2884     0.2939 </r>
       <r>   -10.8536     0.2949     0.3152 </r>
       <r>   -10.7803     0.3037     0.3371 </r>
       <r>   -10.7070     0.4072     0.3631 </r>
       <r>   -10.6337     0.5108     0.3968 </r>
       <r>   -10.5604     0.6144     0.4380 </r>
       <r>   -10.4871     0.7180     0.4868 </r>
       <r>   -10.4138     0.5494     0.5276 </r>
       <r>   -10.3406     0.5722     0.5687 </r>
       <r>   -10.2673     0.5949     0.6115 </r>
       <r>   -10.1940     0.6166     0.6559 </r>
       <r>   -10.1207     0.6423     0.7019 </r>
       <r>   -10.0474     0.6655     0.7499 </r>
       <r>    -9.9741     0.6886     0.7995 </r>
       <r>    -9.9008     0.7117     0.8508 </r>
       <r>    -9.8275     0.7197     0.9033 </r>
       <r>    -9.7543     0.7275     0.9563 </r>
       <r>    -9.6810     0.7355     1.0099 </r>
       <r>    -9.6077     0.7769     1.0644 </r>
       <r>    -9.5344     0.9058     1.1264 </r>
       <r>    -9.4611     1.0071     1.1965 </r>
       <r>    -9.3878     1.0999     1.2737 </r>
       <r>    -9.3145     1.1434     1.3563 </r>
       <r>    -9.2412     0.9163     1.4368 </r>
       <r>    -9.1680     0.9413     1.5046 </r>
       <r>    -9.0947     0.9877     1.5752 </r>
       <r>    -9.0214     1.1415     1.6528 </r>
       <r>    -8.9481     1.3054     1.7425 </r>
       <r>    -8.8748     1.4577     1.8437 </r>
       <r>    -8.8015     1.3855     1.9524 </r>
       <r>    -8.7282     1.4492     2.0563 </r>
       <r>    -8.6549     1.5634     2.1663 </r>
       <r>    -8.5816     1.8812     2.2867 </r>
       <r>    -8.5084     2.4102     2.4439 </r>
       <r>    -8.4351     3.5047     2.6911 </r>
       <r>    -8.3618     0.6964     2.8520 </r>
       <r>    -8.2885     0.7180     2.9039 </r>
       <r>    -8.2152     0.7364     2.9572 </r>
       <r>    -8.1419     0.7549     3.0118 </r>
       <r>    -8.0686     0.7797     3.0680 </r>
       <r>    -7.9953     0.8069     3.1262 </r>
       <r>    -7.9221     0.8341     3.1863 </r>
       <r>    -7.8488     0.8613     3.2484 </r>
       <r>    -7.7755     0.8921     3.3126 </r>
       <r>    -7.7022     0.9573     3.3800 </r>
       <r>    -7.6289     1.0538     3.4534 </r>
       <r>    -7.5556     1.1833     3.5346 </r>
       <r>    -7.4823     1.4920     3.6320 </r>
       <r>    -7.4090     1.8164     3.7533 </r>
       <r>    -7.3358     2.1812     3.8997 </r>
       <r>    -7.2625     2.2077     4.0554 </r>
       <r>    -7.1892     2.4428     4.2258 </r>
       <r>    -7.1159     2.9498     4.4165 </r>
       <r>    -7.0426     2.8664     4.6487 </r>
       <r>    -6.9693     3.5395     4.8808 </r>
       <r>    -6.8960     4.4483     5.1762 </r>
       <r>    -6.8227     4.8014     5.4895 </r>
       <r>    -6.7494     5.5287     5.8760 </r>
       <r>    -6.6762     5.3993     6.2848 </r>
       <r>    -6.6029     4.3735     6.6437 </r>
       <r>    -6.5296     4.3288     6.9473 </r>
       <r>    -6.4563    10.7907     7.5110 </r>
       <r>    -6.3830    11.1072     8.2215 </r>
       <r>    -6.3097    10.9255     9.0502 </r>
       <r>    -6.2364    10.3073     9.8887 </r>
       <r>    -6.1631     6.9766    10.6217 </r>
       <r>    -6.0899     5.4553    10.9939 </r>
       <r>    -6.0166    10.3390    11.6317 </r>
       <r>    -5.9433    18.1078    12.5199 </r>
       <r>    -5.8700     9.2626    13.2016 </r>
       <r>    -5.7967    12.1929    14.0425 </r>
       <r>    -5.7234     8.8606    14.7086 </r>
       <r>    -5.6501     8.1353    15.3600 </r>
       <r>    -5.5768    18.4129    16.4061 </r>
       <r>    -5.5035    11.2226    17.3706 </r>
       <r>    -5.4303     8.3212    18.1017 </r>
       <r>    -5.3570    11.1908    19.2351 </r>
       <r>    -5.2837    34.7605    20.6773 </r>
       <r>    -5.2104    12.3750    21.8594 </r>
       <r>    -5.1371     6.9510    22.8237 </r>
       <r>    -5.0638    26.2806    23.7671 </r>
       <r>    -4.9905    24.7634    25.0550 </r>
       <r>    -4.9172    18.5172    26.4275 </r>
       <r>    -4.8440    16.4538    27.6495 </r>
       <r>    -4.7707    11.9093    28.5574 </r>
       <r>    -4.6974    12.3520    29.3568 </r>
       <r>    -4.6241    14.6451    30.3979 </r>
       <r>    -4.5508    15.2976    31.3014 </r>
       <r>    -4.4775    13.5463    32.6843 </r>
       <r>    -4.4042    12.4543    33.9055 </r>
       <r>    -4.3309    10.3295    34.7789 </r>
       <r>    -4.2577    19.9644    35.7620 </r>
       <r>    -4.1844    12.5534    36.8135 </r>
       <r>    -4.1111    13.9411    37.9057 </r>
       <r>    -4.0378    24.4971    39.0108 </r>
       <r>    -3.9645    14.3061    40.2482 </r>
       <r>    -3.8912    13.0277    41.3347 </r>
       <r>    -3.8179     4.8485    42.0297 </r>
       <r>    -3.7446     4.1821    42.3583 </r>
       <r>    -3.6713     3.3991    42.6319 </r>
       <r>    -3.5981     2.9528    42.8687 </r>
       <r>    -3.5248     1.9270    43.0404 </r>
       <r>    -3.4515     1.6357    43.1693 </r>
       <r>    -3.3782     1.6398    43.2893 </r>
       <r>    -3.3049     1.6439    43.4097 </r>
       <r>    -3.2316     1.6480    43.5303 </r>
       <r>    -3.1583     1.6498    43.6512 </r>
       <r>    -3.0850     1.6418    43.7718 </r>
       <r>    -3.0118     1.6284    43.8917 </r>
       <r>    -2.9385     1.6184    44.0106 </r>
       <r>    -2.8652     1.5689    44.1276 </r>
       <r>    -2.7919     1.6907    44.2539 </r>
       <r>    -2.7186     1.4787    44.3687 </r>
       <r>    -2.6453     1.4302    44.4739 </r>
       <r>    -2.5720     1.4466    44.5793 </r>
       <r>    -2.4987     1.4659    44.6859 </r>
       <r>    -2.4255     1.4959    44.7945 </r>
       <r>    -2.3522     1.4862    44.9051 </r>
       <r>    -2.2789     1.7642    45.0583 </r>
       <r>    -2.2056     1.4851    45.1711 </r>
       <r>    -2.1323     1.3828    45.2757 </r>
       <r>    -2.0590     1.3150    45.3746 </r>
       <r>    -1.9857     1.3109    45.4708 </r>
       <r>    -1.9124     1.2983    45.5677 </r>
       <r>    -1.8391     1.2124    45.6597 </r>
       <r>    -1.7659     1.1338    45.7455 </r>
       <r>    -1.6926     1.1310    45.8279 </r>
       <r>    -1.6193     1.1531    45.9116 </r>
       <r>    -1.5460     1.1757    45.9969 </r>
       <r>    -1.4727     1.0880    46.0797 </r>
       <r>    -1.3994     1.1008    46.1599 </r>
       <r>    -1.3261     1.0409    46.2768 </r>
       <r>    -1.2528     1.0459    46.3535 </r>
       <r>    -1.1796     1.0515    46.4304 </r>
       <r>    -1.1063     1.0566    46.5077 </r>
       <r>    -1.0330     1.0616    46.5853 </r>
       <r>    -0.9597     1.0667    46.6633 </r>
       <r>    -0.8864     1.0841    46.7418 </r>
       <r>    -0.8131     1.1471    46.8233 </r>
       <r>    -0.7398     1.2450    46.9108 </r>
       <r>    -0.6665     1.2539    47.0035 </r>
       <r>    -0.5932     1.2220    47.0941 </r>
       <r>    -0.5200     1.2050    47.1828 </r>
       <r>    -0.4467     1.2900    47.2740 </r>
       <r>    -0.3734     1.0317    47.3868 </r>
       <r>    -0.3001     1.0806    47.4642 </r>
       <r>    -0.2268     1.1295    47.5452 </r>
       <r>    -0.1535     1.1258    47.6290 </r>
       <r>    -0.0802     1.0439    47.7085 </r>
       <r>    -0.0069     0.9624    47.7820 </r>
       <r>     0.0663     0.8808    47.8496 </r>
       <r>     0.1396     0.9006    47.9134 </r>
       <r>     0.2129     0.8909    47.9791 </r>
       <r>     0.2862     0.8816    48.0440 </r>
       <r>     0.3595     0.9076    48.1110 </r>
       <r>     0.4328     0.8928    48.1770 </r>
       <r>     0.5061     0.8781    48.2418 </r>
       <r>     0.5794     0.8671    48.3057 </r>
       <r>     0.6526     0.8502    48.3689 </r>
       <r>     0.7259     1.0310    48.4395 </r>
       <r>     0.7992     0.6928    48.5018 </r>
       <r>     0.8725     0.6903    48.5525 </r>
       <r>     0.9458     0.6908    48.6030 </r>
       <r>     1.0191     0.7061    48.6544 </r>
       <r>     1.0924     0.6798    48.7052 </r>
       <r>     1.1657     0.6535    48.7540 </r>
       <r>     1.2390     0.6387    48.8010 </r>
       <r>     1.3122     0.7114    48.8505 </r>
       <r>     1.3855     0.7840    48.9053 </r>
       <r>     1.4588     0.8566    48.9654 </r>
       <r>     1.5321     0.9292    49.0308 </r>
       <r>     1.6054     1.1206    49.1178 </r>
       <r>     1.6787     0.9045    49.1887 </r>
       <r>     1.7520     1.1666    49.2616 </r>
       <r>     1.8253     1.3283    49.3530 </r>
       <r>     1.8985     1.4900    49.4563 </r>
       <r>     1.9718     1.4195    49.5669 </r>
       <r>     2.0451     1.5307    49.6750 </r>
       <r>     2.1184     1.4793    49.7886 </r>
       <r>     2.1917     1.4173    49.8922 </r>
       <r>     2.2650     1.6708    50.0044 </r>
       <r>     2.3383     2.0111    50.1393 </r>
       <r>     2.4116     1.4801    50.2615 </r>
       <r>     2.4848     1.7361    50.3743 </r>
       <r>     2.5581     2.0087    50.5214 </r>
       <r>     2.6314     1.8684    50.6603 </r>
       <r>     2.7047     1.6300    50.7889 </r>
       <r>     2.7780     1.6264    50.9078 </r>
       <r>     2.8513     1.4474    51.0272 </r>
       <r>     2.9246     1.4331    51.1325 </r>
       <r>     2.9979     1.4380    51.2377 </r>
       <r>     3.0712     1.4341    51.3428 </r>
       <r>     3.1444     2.0189    51.4596 </r>
       <r>     3.2177     3.6344    51.6516 </r>
       <r>     3.2910     2.3687    51.8506 </r>
       <r>     3.3643     2.2594    52.0181 </r>
       <r>     3.4376     2.2924    52.1838 </r>
       <r>     3.5109     2.5000    52.3595 </r>
       <r>     3.5842     2.5879    52.5481 </r>
       <r>     3.6575     2.5750    52.7373 </r>
       <r>     3.7307     2.4966    52.9244 </r>
       <r>     3.8040     2.1943    53.0962 </r>
       <r>     3.8773     2.1134    53.2518 </r>
       <r>     3.9506     1.8852    53.3941 </r>
       <r>     4.0239     1.8238    53.5300 </r>
       <r>     4.0972     1.7998    53.6624 </r>
       <r>     4.1705     1.7890    53.7939 </r>
       <r>     4.2438     1.9139    53.9297 </r>
       <r>     4.3171     2.0351    54.0742 </r>
       <r>     4.3903     2.7722    54.2407 </r>
       <r>     4.4636     2.3742    54.4465 </r>
       <r>     4.5369     2.2761    54.6187 </r>
       <r>     4.6102     1.8340    54.7712 </r>
       <r>     4.6835     1.4965    54.8896 </r>
       <r>     4.7568     1.4712    54.9983 </r>
       <r>     4.8301     1.4459    55.1052 </r>
       <r>     4.9034     1.4344    55.2106 </r>
       <r>     4.9766     1.7268    55.3319 </r>
       <r>     5.0499     1.5400    55.4506 </r>
       <r>     5.1232     1.4404    55.5593 </r>
       <r>     5.1965     1.3660    55.6627 </r>
       <r>     5.2698     0.9726    55.7484 </r>
       <r>     5.3431     0.7082    55.8079 </r>
       <r>     5.4164     0.6311    55.8567 </r>
       <r>     5.4897     0.5629    55.9005 </r>
       <r>     5.5629     0.4493    55.9378 </r>
       <r>     5.6362     0.3281    55.9663 </r>
       <r>     5.7095     0.2068    55.9859 </r>
       <r>     5.7828     0.0855    55.9966 </r>
       <r>     5.8561     0.0179    55.9995 </r>
       <r>     5.9294     0.0000    56.0000 </r>
       <r>     6.0027     0.0000    56.0000 </r>
       <r>     6.0760     0.0000    56.0000 </r>
       <r>     6.1493     0.0000    56.0000 </r>
       <r>     6.2225     0.0000    56.0000 </r>
       <r>     6.2958     0.0000    56.0000 </r>
       <r>     6.3691     0.0000    56.0000 </r>
       <r>     6.4424     0.0000    56.0000 </r>
       <r>     6.5157     0.0000    56.0000 </r>
       <r>     6.5890     0.0000    56.0000 </r>
       <r>     6.6623     0.0000    56.0000 </r>
       <r>     6.7356     0.0000    56.0000 </r>
       <r>     6.8088     0.0000    56.0000 </r>
       <r>     6.8821     0.0000    56.0000 </r>
       <r>     6.9554     0.0000    56.0000 </r>
       <r>     7.0287     0.0000    56.0000 </r>
       <r>     7.1020     0.0000    56.0000 </r>
       <r>     7.1753     0.0000    56.0000 </r>
       <r>     7.2486     0.0000    56.0000 </r>
       <r>     7.3219     0.0000    56.0000 </r>
       <r>     7.3951     0.0000    56.0000 </r>
       <r>     7.4684     0.0000    56.0000 </r>
       <r>     7.5417     0.0000    56.0000 </r>
       <r>     7.6150     0.0000    56.0000 </r>
       <r>     7.6883     0.0000    56.0000 </r>
       <r>     7.7616     0.0000    56.0000 </r>
       <r>     7.8349     0.0000    56.0000 </r>
       <r>     7.9082     0.0000    56.0000 </r>
      </set>
     </set>
    </array>
   </total>
  </dos>
 </calculation>
 <structure name="finalpos" >
  <crystal>
   <varray name="basis" >
    <v>       2.57386868       0.00000000       0.00000000 </v>
    <v>       1.28693434       2.22903567       0.00000000 </v>
    <v>       0.00000000       0.00000000      30.30466494 </v>
   </varray>
   <i name="volume">    173.86529028 </i>
   <varray name="rec_basis" >
    <v>       0.38852021      -0.22431225       0.00000000 </v>
    <v>       0.00000000       0.44862450       0.00000000 </v>
    <v>       0.00000000       0.00000000       0.03299822 </v>
   </varray>
  </crystal>
  <varray name="positions" >
   <v>       0.00000000       0.00000000       0.39644015 </v>
   <v>       0.33333333       0.33333333       0.46515176 </v>
   <v>       0.66666667       0.66666667       0.53391621 </v>
   <v>       0.00000000       0.00000000       0.60674401 </v>
   <v>       0.50000000       0.00000000       0.63146763 </v>
  </varray>
  <varray name="selective"  type="logical" >
   <v type="logical" >  F  F  F </v>
   <v type="logical" >  F  F  F </v>
   <v type="logical" >  F  F  F </v>
   <v type="logical" >  F  F  F </v>
   <v type="logical" >  T  T  T </v>
  </varray>
  <nose>
   <v>      -3.00000000       0.00000000       0.00010000       0.00010000 </v>
  </nose>
 </structure>
</modeling>
