unknown system                          
   1.00000000000000     
     3.905268    0.000000    0.000000
     0.000000    3.905268    0.000000
     0.000000    0.000000    3.905268
   Sr   Ti   O 
     1     1     3
Direct
  0.000000  0.000000  0.000000
  0.500000  0.500000  0.500000
  0.500000  0.500000  0.000000
  0.500000  0.000000  0.500000
  0.000000  0.500000  0.500000
 
   48   48   48
  193.28      193.32      192.92      190.80      185.39      175.47      160.58      141.23      118.79      95.215    
  72.599      52.718      36.661      24.693      16.383      10.897      7.3853      5.1983      3.8574      3.0415    
  2.5501      2.2612      2.1000      2.0206      1.9969      2.0206      2.1000      2.2612      2.5501      3.0415    
  3.8574      5.1983      7.3853      10.897      16.383      24.693      36.661      52.718      72.599      95.215    
  118.79      141.23      160.58      175.47      185.39      190.80      192.92      193.32      193.32      193.27    
  192.64      190.19      184.44      174.22      159.14      139.72      117.34      93.927      71.541      51.914    
  36.096      24.325      16.160      10.771      7.3201      5.1713      3.8538      3.0525      2.5705      2.2878    
  2.1308      2.0538      2.0309      2.0538      2.1308      2.2878      2.5705      3.0525      3.8538      5.1713    
  7.3201      10.771      16.160      24.325      36.096      51.914      71.541      93.927      117.34      139.72    
  159.14      174.22      184.44      190.19      192.64      193.27      192.92      192.64      191.36      188.02    
  181.33      170.32      154.74      135.19      113.03      90.129      68.439      49.569      34.455      23.262    
  15.518      10.408      7.1371      5.1002      3.8514      3.0925      2.6373      2.3720      2.2259      2.1549    
  2.1339      2.1549      2.2259      2.3720      2.6373      3.0925      3.8514      5.1002      7.1371      10.408    
  15.518      23.262      34.455      49.569      68.439      90.129      113.03      135.19      154.74      170.32    
  181.33      188.02      191.36      192.64      190.80      190.19      188.02      183.44      175.48      163.45    
  147.29      127.69      106.02      84.035      63.517      45.882      31.897      21.616      14.534      9.8604    
  6.8711      5.0105      3.8702      3.1785      2.7655      2.5266      2.3963      2.3336      2.3152      2.3336    
  2.3963      2.5266      2.7655      3.1785      3.8702      5.0105      6.8711      9.8604      14.534      21.616    
  31.897      45.882      63.517      84.035      106.02      127.69      147.29      163.45      175.48      183.44    
  188.02      190.19      185.39      184.44      181.33      175.48      166.25      153.28      136.73      117.40    
  96.623      76.013      57.137      41.167      28.665      19.562      13.320      9.2005      6.5707      4.9359    
  3.9361      3.3327      2.9760      2.7731      2.6648      2.6139      2.5992      2.6139      2.6648      2.7731    
  2.9760      3.3327      3.9361      4.9359      6.5707      9.2005      13.320      19.562      28.665      41.167    
  57.137      76.013      96.623      117.40      136.73      153.28      166.25      175.48      181.33      184.44    
  175.47      174.22      170.32      163.45      153.28      139.76      123.28      104.71      85.333      66.587    
  49.783      35.824      25.058      17.303      12.005      8.5129      6.2911      4.9149      4.0794      3.5828    
  3.2975      3.1427      3.0657      3.0325      3.0235      3.0325      3.0657      3.1427      3.2975      3.5828    
  4.0794      4.9149      6.2911      8.5129      12.005      17.303      25.058      35.824      49.783      66.587    
  85.333      104.71      123.28      139.76      153.28      163.45      170.32      174.22      160.58      159.14    
  154.74      147.29      136.73      123.28      107.49      90.285      72.849      56.414      42.015      30.289    
  21.389      15.043      10.719      7.8823      6.0898      4.9919      4.3400      3.9693      3.7733      3.6821    
  3.6484      3.6404      3.6398      3.6404      3.6484      3.6821      3.7733      3.9693      4.3400      4.9919    
  6.0898      7.8823      10.719      15.043      21.389      30.289      42.015      56.414      72.849      90.285    
  107.49      123.28      136.73      147.29      154.74      159.14      141.23      139.72      135.19      127.69    
  117.40      104.71      90.285      75.037      60.012      46.213      34.404      24.979      17.937      12.958    
  9.5792      7.3877      6.0272      5.2214      4.7746      4.5548      4.4727      4.4668      4.4929      4.5205    
  4.5318      4.5205      4.4929      4.4668      4.4727      4.5548      4.7746      5.2214      6.0272      7.3877    
  9.5792      12.958      17.937      24.979      34.404      46.213      60.012      75.037      90.285      104.71    
  117.40      127.69      135.19      139.72      118.79      117.34      113.03      106.02      96.623      85.333    
  72.849      60.012      47.698      36.670      27.448      20.229      14.911      11.177      8.6799      7.1020    
  6.1698      5.6738      5.4632      5.4313      5.5008      5.6138      5.7262      5.8064      5.8352      5.8064    
  5.7262      5.6138      5.5008      5.4313      5.4632      5.6738      6.1698      7.1020      8.6799      11.177    
  14.911      20.229      27.448      36.670      47.698      60.012      72.849      85.333      96.623      106.02    
  113.03      117.34      95.215      93.927      90.129      84.035      76.013      66.587      56.414      46.213    
  36.670      28.328      21.500      16.252      12.432      9.7950      8.0953      7.0955      6.5955      6.4404    
  6.5135      6.7245      7.0013      7.2835      7.5223      7.6808      7.7363      7.6808      7.5223      7.2835    
  7.0013      6.7245      6.5135      6.4404      6.5955      7.0955      8.0953      9.7950      12.432      16.252    
  21.500      28.328      36.670      46.213      56.414      66.587      76.013      84.035      90.129      93.927    
  72.599      71.541      68.439      63.517      57.137      49.783      42.015      34.404      27.448      21.500    
  16.730      13.124      10.555      8.8665      7.8831      7.4390      7.3933      7.6314      8.0581      8.5905    
  9.1527      9.6755      10.098      10.372      10.467      10.372      10.098      9.6755      9.1527      8.5905    
  8.0581      7.6314      7.3933      7.4390      7.8831      8.8665      10.555      13.124      16.730      21.500    
  27.448      34.404      42.015      49.783      57.137      63.517      68.439      71.541      52.718      51.914    
  49.569      45.882      41.167      35.824      30.289      24.979      20.229      16.252      13.124      10.825    
  9.2892      8.4151      8.0889      8.2025      8.6589      9.3699      10.251      11.219      12.184      13.057    
  13.754      14.204      14.360      14.204      13.754      13.057      12.184      11.219      10.251      9.3699    
  8.6589      8.2025      8.0889      8.4151      9.2892      10.825      13.124      16.252      20.229      24.979    
  30.289      35.824      41.167      45.882      49.569      51.914      36.661      36.096      34.455      31.897    
  28.665      25.058      21.389      17.937      14.911      12.432      10.555      9.2892      8.6033      8.4435    
  8.7478      9.4520      10.491      11.795      13.285      14.869      16.434      17.852      18.989      19.727    
  19.983      19.727      18.989      17.852      16.434      14.869      13.285      11.795      10.491      9.4520    
  8.7478      8.4435      8.6033      9.2892      10.555      12.432      14.911      17.937      21.389      25.058    
  28.665      31.897      34.455      36.096      24.693      24.325      23.262      21.616      19.562      17.303    
  15.043      12.958      11.177      9.7950      8.8665      8.4151      8.4435      8.9405      9.8852      11.250    
  12.999      15.084      17.437      19.948      22.462      24.776      26.657      27.891      28.321      27.891    
  26.657      24.776      22.462      19.948      17.437      15.084      12.999      11.250      9.8852      8.9405    
  8.4435      8.4151      8.8665      9.7950      11.177      12.958      15.043      17.303      19.562      21.616    
  23.262      24.325      16.383      16.160      15.518      14.534      13.320      12.005      10.719      9.5792    
  8.6799      8.0953      7.8831      8.0889      8.7478      9.8852      11.519      13.662      16.323      19.495    
  23.128      27.092      31.151      34.958      38.101      40.183      40.912      40.183      38.101      34.958    
  31.151      27.092      23.128      19.495      16.323      13.662      11.519      9.8852      8.7478      8.0889    
  7.8831      8.0953      8.6799      9.5792      10.719      12.005      13.320      14.534      15.518      16.160    
  10.897      10.771      10.408      9.8604      9.2005      8.5129      7.8823      7.3877      7.1020      7.0955    
  7.4390      8.2025      9.4520      11.250      13.662      16.767      20.652      25.384      30.953      37.192    
  43.719      49.939      55.130      58.588      59.802      58.588      55.130      49.939      43.719      37.192    
  30.953      25.384      20.652      16.767      13.662      11.250      9.4520      8.2025      7.4390      7.0955    
  7.1020      7.3877      7.8823      8.5129      9.2005      9.8604      10.408      10.771      7.3853      7.3201    
  7.1371      6.8711      6.5707      6.2911      6.0898      6.0272      6.1698      6.5955      7.3933      8.6589    
  10.491      12.999      16.323      20.652      26.205      33.175      41.611      51.270      61.524      71.399    
  79.801      85.519      87.553      85.519      79.801      71.399      61.524      51.270      41.611      33.175    
  26.205      20.652      16.323      12.999      10.491      8.6589      7.3933      6.5955      6.1698      6.0272    
  6.0898      6.2911      6.5707      6.8711      7.1371      7.3201      5.1983      5.1713      5.1002      5.0105    
  4.9359      4.9149      4.9919      5.2214      5.6738      6.4404      7.6314      9.3699      11.795      15.084    
  19.495      25.384      33.175      43.241      55.692      70.148      85.941      101.87      115.81      125.42    
  128.85      125.42      115.81      101.87      85.941      70.148      55.692      43.241      33.175      25.384    
  19.495      15.084      11.795      9.3699      7.6314      6.4404      5.6738      5.2214      4.9919      4.9149    
  4.9359      5.0105      5.1002      5.1713      3.8574      3.8538      3.8514      3.8702      3.9361      4.0794    
  4.3400      4.7746      5.4632      6.5135      8.0581      10.251      13.285      17.437      23.128      30.953    
  41.611      55.692      73.372      94.775      119.24      144.27      166.15      181.09      186.40      181.09    
  166.15      144.27      119.24      94.775      73.372      55.692      41.611      30.953      23.128      17.437    
  13.285      10.251      8.0581      6.5135      5.4632      4.7746      4.3400      4.0794      3.9361      3.8702    
  3.8514      3.8538      3.0415      3.0525      3.0925      3.1785      3.3327      3.5828      3.9693      4.5548    
  5.4313      6.7245      8.5905      11.219      14.869      19.948      27.092      37.192      51.270      70.148    
  94.775      125.89      161.70      197.87      228.85      249.63      256.93      249.63      228.85      197.87    
  161.70      125.89      94.775      70.148      51.270      37.192      27.092      19.948      14.869      11.219    
  8.5905      6.7245      5.4313      4.5548      3.9693      3.5828      3.3327      3.1785      3.0925      3.0525    
  2.5501      2.5705      2.6373      2.7655      2.9760      3.2975      3.7733      4.4727      5.5008      7.0013    
  9.1527      12.184      16.434      22.462      31.151      43.719      61.524      85.941      119.24      161.70    
  209.82      257.14      296.47      322.17      331.05      322.17      296.47      257.14      209.82      161.70    
  119.24      85.941      61.524      43.719      31.151      22.462      16.434      12.184      9.1527      7.0013    
  5.5008      4.4727      3.7733      3.2975      2.9760      2.7655      2.6373      2.5705      2.2612      2.2878    
  2.3720      2.5266      2.7731      3.1427      3.6821      4.4668      5.6138      7.2835      9.6755      13.057    
  17.852      24.776      34.958      49.939      71.399      101.87      144.27      197.87      257.14      313.52    
  358.73      387.34      397.04      387.34      358.73      313.52      257.14      197.87      144.27      101.87    
  71.399      49.939      34.958      24.776      17.852      13.057      9.6755      7.2835      5.6138      4.4668    
  3.6821      3.1427      2.7731      2.5266      2.3720      2.2878      2.1000      2.1308      2.2259      2.3963    
  2.6648      3.0657      3.6484      4.4929      5.7262      7.5223      10.098      13.754      18.989      26.657    
  38.101      55.130      79.801      115.81      166.15      228.85      296.47      358.73      406.85      436.24    
  445.99      436.24      406.85      358.73      296.47      228.85      166.15      115.81      79.801      55.130    
  38.101      26.657      18.989      13.754      10.098      7.5223      5.7262      4.4929      3.6484      3.0657    
  2.6648      2.3963      2.2259      2.1308      2.0206      2.0538      2.1549      2.3336      2.6139      3.0325    
  3.6404      4.5205      5.8064      7.6808      10.372      14.204      19.727      27.891      40.183      58.588    
  85.519      125.42      181.09      249.63      322.17      387.34      436.24      465.24      474.67      465.24    
  436.24      387.34      322.17      249.63      181.09      125.42      85.519      58.588      40.183      27.891    
  19.727      14.204      10.372      7.6808      5.8064      4.5205      3.6404      3.0325      2.6139      2.3336    
  2.1549      2.0538      1.9969      2.0309      2.1339      2.3152      2.5992      3.0235      3.6398      4.5318    
  5.8352      7.7363      10.467      14.360      19.983      28.321      40.912      59.802      87.553      128.85    
  186.40      256.93      331.05      397.04      445.99      474.67      483.91      474.67      445.99      397.04    
  331.05      256.93      186.40      128.85      87.553      59.802      40.912      28.321      19.983      14.360    
  10.467      7.7363      5.8352      4.5318      3.6398      3.0235      2.5992      2.3152      2.1339      2.0309    
  2.0206      2.0538      2.1549      2.3336      2.6139      3.0325      3.6404      4.5205      5.8064      7.6808    
  10.372      14.204      19.727      27.891      40.183      58.588      85.519      125.42      181.09      249.63    
  322.17      387.34      436.24      465.24      474.67      465.24      436.24      387.34      322.17      249.63    
  181.09      125.42      85.519      58.588      40.183      27.891      19.727      14.204      10.372      7.6808    
  5.8064      4.5205      3.6404      3.0325      2.6139      2.3336      2.1549      2.0538      2.1000      2.1308    
  2.2259      2.3963      2.6648      3.0657      3.6484      4.4929      5.7262      7.5223      10.098      13.754    
  18.989      26.657      38.101      55.130      79.801      115.81      166.15      228.85      296.47      358.73    
  406.85      436.24      445.99      436.24      406.85      358.73      296.47      228.85      166.15      115.81    
  79.801      55.130      38.101      26.657      18.989      13.754      10.098      7.5223      5.7262      4.4929    
  3.6484      3.0657      2.6648      2.3963      2.2259      2.1308      2.2612      2.2878      2.3720      2.5266    
  2.7731      3.1427      3.6821      4.4668      5.6138      7.2835      9.6755      13.057      17.852      24.776    
  34.958      49.939      71.399      101.87      144.27      197.87      257.14      313.52      358.73      387.34    
  397.04      387.34      358.73      313.52      257.14      197.87      144.27      101.87      71.399      49.939    
  34.958      24.776      17.852      13.057      9.6755      7.2835      5.6138      4.4668      3.6821      3.1427    
  2.7731      2.5266      2.3720      2.2878      2.5501      2.5705      2.6373      2.7655      2.9760      3.2975    
  3.7733      4.4727      5.5008      7.0013      9.1527      12.184      16.434      22.462      31.151      43.719    
  61.524      85.941      119.24      161.70      209.82      257.14      296.47      322.17      331.05      322.17    
  296.47      257.14      209.82      161.70      119.24      85.941      61.524      43.719      31.151      22.462    
  16.434      12.184      9.1527      7.0013      5.5008      4.4727      3.7733      3.2975      2.9760      2.7655    
  2.6373      2.5705      3.0415      3.0525      3.0925      3.1785      3.3327      3.5828      3.9693      4.5548    
  5.4313      6.7245      8.5905      11.219      14.869      19.948      27.092      37.192      51.270      70.148    
  94.775      125.89      161.70      197.87      228.85      249.63      256.93      249.63      228.85      197.87    
  161.70      125.89      94.775      70.148      51.270      37.192      27.092      19.948      14.869      11.219    
  8.5905      6.7245      5.4313      4.5548      3.9693      3.5828      3.3327      3.1785      3.0925      3.0525    
  3.8574      3.8538      3.8514      3.8702      3.9361      4.0794      4.3400      4.7746      5.4632      6.5135    
  8.0581      10.251      13.285      17.437      23.128      30.953      41.611      55.692      73.372      94.775    
  119.24      144.27      166.15      181.09      186.40      181.09      166.15      144.27      119.24      94.775    
  73.372      55.692      41.611      30.953      23.128      17.437      13.285      10.251      8.0581      6.5135    
  5.4632      4.7746      4.3400      4.0794      3.9361      3.8702      3.8514      3.8538      5.1983      5.1713    
  5.1002      5.0105      4.9359      4.9149      4.9919      5.2214      5.6738      6.4404      7.6314      9.3699    
  11.795      15.084      19.495      25.384      33.175      43.241      55.692      70.148      85.941      101.87    
  115.81      125.42      128.85      125.42      115.81      101.87      85.941      70.148      55.692      43.241    
  33.175      25.384      19.495      15.084      11.795      9.3699      7.6314      6.4404      5.6738      5.2214    
  4.9919      4.9149      4.9359      5.0105      5.1002      5.1713      7.3853      7.3201      7.1371      6.8711    
  6.5707      6.2911      6.0898      6.0272      6.1698      6.5955      7.3933      8.6589      10.491      12.999    
  16.323      20.652      26.205      33.175      41.611      51.270      61.524      71.399      79.801      85.519    
  87.553      85.519      79.801      71.399      61.524      51.270      41.611      33.175      26.205      20.652    
  16.323      12.999      10.491      8.6589      7.3933      6.5955      6.1698      6.0272      6.0898      6.2911    
  6.5707      6.8711      7.1371      7.3201      10.897      10.771      10.408      9.8604      9.2005      8.5129    
  7.8823      7.3877      7.1020      7.0955      7.4390      8.2025      9.4520      11.250      13.662      16.767    
  20.652      25.384      30.953      37.192      43.719      49.939      55.130      58.588      59.802      58.588    
  55.130      49.939      43.719      37.192      30.953      25.384      20.652      16.767      13.662      11.250    
  9.4520      8.2025      7.4390      7.0955      7.1020      7.3877      7.8823      8.5129      9.2005      9.8604    
  10.408      10.771      16.383      16.160      15.518      14.534      13.320      12.005      10.719      9.5792    
  8.6799      8.0953      7.8831      8.0889      8.7478      9.8852      11.519      13.662      16.323      19.495    
  23.128      27.092      31.151      34.958      38.101      40.183      40.912      40.183      38.101      34.958    
  31.151      27.092      23.128      19.495      16.323      13.662      11.519      9.8852      8.7478      8.0889    
  7.8831      8.0953      8.6799      9.5792      10.719      12.005      13.320      14.534      15.518      16.160    
  24.693      24.325      23.262      21.616      19.562      17.303      15.043      12.958      11.177      9.7950    
  8.8665      8.4151      8.4435      8.9405      9.8852      11.250      12.999      15.084      17.437      19.948    
  22.462      24.776      26.657      27.891      28.321      27.891      26.657      24.776      22.462      19.948    
  17.437      15.084      12.999      11.250      9.8852      8.9405      8.4435      8.4151      8.8665      9.7950    
  11.177      12.958      15.043      17.303      19.562      21.616      23.262      24.325      36.661      36.096    
  34.455      31.897      28.665      25.058      21.389      17.937      14.911      12.432      10.555      9.2892    
  8.6033      8.4435      8.7478      9.4520      10.491      11.795      13.285      14.869      16.434      17.852    
  18.989      19.727      19.983      19.727      18.989      17.852      16.434      14.869      13.285      11.795    
  10.491      9.4520      8.7478      8.4435      8.6033      9.2892      10.555      12.432      14.911      17.937    
  21.389      25.058      28.665      31.897      34.455      36.096      52.718      51.914      49.569      45.882    
  41.167      35.824      30.289      24.979      20.229      16.252      13.124      10.825      9.2892      8.4151    
  8.0889      8.2025      8.6589      9.3699      10.251      11.219      12.184      13.057      13.754      14.204    
  14.360      14.204      13.754      13.057      12.184      11.219      10.251      9.3699      8.6589      8.2025    
  8.0889      8.4151      9.2892      10.825      13.124      16.252      20.229      24.979      30.289      35.824    
  41.167      45.882      49.569      51.914      72.599      71.541      68.439      63.517      57.137      49.783    
  42.015      34.404      27.448      21.500      16.730      13.124      10.555      8.8665      7.8831      7.4390    
  7.3933      7.6314      8.0581      8.5905      9.1527      9.6755      10.098      10.372      10.467      10.372    
  10.098      9.6755      9.1527      8.5905      8.0581      7.6314      7.3933      7.4390      7.8831      8.8665    
  10.555      13.124      16.730      21.500      27.448      34.404      42.015      49.783      57.137      63.517    
  68.439      71.541      95.215      93.927      90.129      84.035      76.013      66.587      56.414      46.213    
  36.670      28.328      21.500      16.252      12.432      9.7950      8.0953      7.0955      6.5955      6.4404    
  6.5135      6.7245      7.0013      7.2835      7.5223      7.6808      7.7363      7.6808      7.5223      7.2835    
  7.0013      6.7245      6.5135      6.4404      6.5955      7.0955      8.0953      9.7950      12.432      16.252    
  21.500      28.328      36.670      46.213      56.414      66.587      76.013      84.035      90.129      93.927    
  118.79      117.34      113.03      106.02      96.623      85.333      72.849      60.012      47.698      36.670    
  27.448      20.229      14.911      11.177      8.6799      7.1020      6.1698      5.6738      5.4632      5.4313    
  5.5008      5.6138      5.7262      5.8064      5.8352      5.8064      5.7262      5.6138      5.5008      5.4313    
  5.4632      5.6738      6.1698      7.1020      8.6799      11.177      14.911      20.229      27.448      36.670    
  47.698      60.012      72.849      85.333      96.623      106.02      113.03      117.34      141.23      139.72    
  135.19      127.69      117.40      104.71      90.285      75.037      60.012      46.213      34.404      24.979    
  17.937      12.958      9.5792      7.3877      6.0272      5.2214      4.7746      4.5548      4.4727      4.4668    
  4.4929      4.5205      4.5318      4.5205      4.4929      4.4668      4.4727      4.5548      4.7746      5.2214    
  6.0272      7.3877      9.5792      12.958      17.937      24.979      34.404      46.213      60.012      75.037    
  90.285      104.71      117.40      127.69      135.19      139.72      160.58      159.14      154.74      147.29    
  136.73      123.28      107.49      90.285      72.849      56.414      42.015      30.289      21.389      15.043    
  10.719      7.8823      6.0898      4.9919      4.3400      3.9693      3.7733      3.6821      3.6484      3.6404    
  3.6398      3.6404      3.6484      3.6821      3.7733      3.9693      4.3400      4.9919      6.0898      7.8823    
  10.719      15.043      21.389      30.289      42.015      56.414      72.849      90.285      107.49      123.28    
  136.73      147.29      154.74      159.14      175.47      174.22      170.32      163.45      153.28      139.76    
  123.28      104.71      85.333      66.587      49.783      35.824      25.058      17.303      12.005      8.5129    
  6.2911      4.9149      4.0794      3.5828      3.2975      3.1427      3.0657      3.0325      3.0235      3.0325    
  3.0657      3.1427      3.2975      3.5828      4.0794      4.9149      6.2911      8.5129      12.005      17.303    
  25.058      35.824      49.783      66.587      85.333      104.71      123.28      139.76      153.28      163.45    
  170.32      174.22      185.39      184.44      181.33      175.48      166.25      153.28      136.73      117.40    
  96.623      76.013      57.137      41.167      28.665      19.562      13.320      9.2005      6.5707      4.9359    
  3.9361      3.3327      2.9760      2.7731      2.6648      2.6139      2.5992      2.6139      2.6648      2.7731    
  2.9760      3.3327      3.9361      4.9359      6.5707      9.2005      13.320      19.562      28.665      41.167    
  57.137      76.013      96.623      117.40      136.73      153.28      166.25      175.48      181.33      184.44    
  190.80      190.19      188.02      183.44      175.48      163.45      147.29      127.69      106.02      84.035    
  63.517      45.882      31.897      21.616      14.534      9.8604      6.8711      5.0105      3.8702      3.1785    
  2.7655      2.5266      2.3963      2.3336      2.3152      2.3336      2.3963      2.5266      2.7655      3.1785    
  3.8702      5.0105      6.8711      9.8604      14.534      21.616      31.897      45.882      63.517      84.035    
  106.02      127.69      147.29      163.45      175.48      183.44      188.02      190.19      192.92      192.64    
  191.36      188.02      181.33      170.32      154.74      135.19      113.03      90.129      68.439      49.569    
  34.455      23.262      15.518      10.408      7.1371      5.1002      3.8514      3.0925      2.6373      2.3720    
  2.2259      2.1549      2.1339      2.1549      2.2259      2.3720      2.6373      3.0925      3.8514      5.1002    
  7.1371      10.408      15.518      23.262      34.455      49.569      68.439      90.129      113.03      135.19    
  154.74      170.32      181.33      188.02      191.36      192.64      193.32      193.27      192.64      190.19    
  184.44      174.22      159.14      139.72      117.34      93.927      71.541      51.914      36.096      24.325    
  16.160      10.771      7.3201      5.1713      3.8538      3.0525      2.5705      2.2878      2.1308      2.0538    
  2.0309      2.0538      2.1308      2.2878      2.5705      3.0525      3.8538      5.1713      7.3201      10.771    
  16.160      24.325      36.096      51.914      71.541      93.927      117.34      139.72      159.14      174.22    
  184.44      190.19      192.64      193.27      193.32      193.27      192.64      190.19      184.44      174.22    
  159.14      139.72      117.34      93.927      71.541      51.914      36.096      24.325      16.160      10.771    
  7.3201      5.1713      3.8538      3.0525      2.5705      2.2878      2.1308      2.0538      2.0309      2.0538    
  2.1308      2.2878      2.5705      3.0525      3.8538      5.1713      7.3201      10.771      16.160      24.325    
  36.096      51.914      71.541      93.927      117.34      139.72      159.14      174.22      184.44      190.19    
  192.64      193.27      193.27      193.14      192.28      189.52      183.44      172.94      157.68      138.21    
  115.90      92.649      70.494      51.121      35.540      23.964      15.941      10.646      7.2558      5.1446    
  3.8501      3.0631      2.5902      2.3137      2.1607      2.0859      2.0637      2.0859      2.1607      2.3137    
  2.5902      3.0631      3.8501      5.1446      7.2558      10.646      15.941      23.964      35.540      51.121    
  70.494      92.649      115.90      138.21      157.68      172.94      183.44      189.52      192.28      193.14    
  192.64      192.28      190.81      187.20      180.22      168.98      153.26      133.68      111.61      88.886    
  67.430      48.809      33.925      22.918      15.310      10.289      7.0755      5.0743      3.8472      3.1018    
  2.6553      2.3957      2.2533      2.1843      2.1640      2.1843      2.2533      2.3957      2.6553      3.1018    
  3.8472      5.0743      7.0755      10.289      15.310      22.918      33.925      48.809      67.430      88.886    