unknown system                          
   1.00000000000000     
     3.905268    0.000000    0.000000
     0.000000    3.905268    0.000000
     0.000000    0.000000    3.905268
   Sr   Ti   O 
     1     1     3
Direct
  0.000000  0.000000  0.000000
  0.500000  0.500000  0.500000
  0.500000  0.500000  0.000000
  0.500000  0.000000  0.500000
  0.000000  0.500000  0.500000
 
   48   48   48
 0.19328086436E+03 0.19331718325E+03 0.19292332012E+03 0.19080271666E+03 0.18539387348E+03
 0.17547012158E+03 0.16058146956E+03 0.14123115622E+03 0.11879210623E+03 0.95215474393E+02
 0.72599126216E+02 0.52718374338E+02 0.36661083024E+02 0.24692981556E+02 0.16382666599E+02
 0.10897445719E+02 0.73852928427E+01 0.51982695942E+01 0.38573539612E+01 0.30414919015E+01
 0.25500698971E+01 0.22611688119E+01 0.21000408321E+01 0.20205807581E+01 0.19969092402E+01
 0.20205807581E+01 0.21000408321E+01 0.22611688119E+01 0.25500698971E+01 0.30414919015E+01
 0.38573539612E+01 0.51982695942E+01 0.73852928427E+01 0.10897445719E+02 0.16382666599E+02
 0.24692981556E+02 0.36661083024E+02 0.52718374338E+02 0.72599126216E+02 0.95215474393E+02
 0.11879210623E+03 0.14123115622E+03 0.16058146956E+03 0.17547012158E+03 0.18539387348E+03
 0.19080271666E+03 0.19292332012E+03 0.19331718325E+03 0.19331718325E+03 0.19326769828E+03
 0.19263827122E+03 0.19019000613E+03 0.18443554308E+03 0.17421767788E+03 0.15913645731E+03
 0.13971974232E+03 0.11734002105E+03 0.93926678356E+02 0.71540678687E+02 0.51914177550E+02
 0.36095948601E+02 0.24325177416E+02 0.16159852735E+02 0.10770658091E+02 0.73200503116E+01
 0.51713178236E+01 0.38538277115E+01 0.30525053762E+01 0.25704622583E+01 0.22878285111E+01
 0.21308300971E+01 0.20537560165E+01 0.20308679524E+01 0.20537560165E+01 0.21308300971E+01
 0.22878285111E+01 0.25704622583E+01 0.30525053762E+01 0.38538277115E+01 0.51713178236E+01
 0.73200503116E+01 0.10770658091E+02 0.16159852735E+02 0.24325177416E+02 0.36095948601E+02
 0.51914177550E+02 0.71540678687E+02 0.93926678356E+02 0.11734002105E+03 0.13971974232E+03
 0.15913645731E+03 0.17421767788E+03 0.18443554308E+03 0.19019000613E+03 0.19263827122E+03
 0.19326769828E+03 0.19292332012E+03 0.19263827122E+03 0.19136299108E+03 0.18801924635E+03
 0.18132647045E+03 0.17032149651E+03 0.15474422272E+03 0.13519079687E+03 0.11303069516E+03
 0.90129110157E+02 0.68439496015E+02 0.49569215306E+02 0.34455102618E+02 0.23261595765E+02
 0.15518322497E+02 0.10408231698E+02 0.71370835248E+01 0.51002450391E+01 0.38513595510E+01
 0.30924721438E+01 0.26373268849E+01 0.23720346863E+01 0.22259303092E+01 0.21548724911E+01
 0.21339062319E+01 0.21548724911E+01 0.22259303092E+01 0.23720346863E+01 0.26373268849E+01
 0.30924721438E+01 0.38513595510E+01 0.51002450391E+01 0.71370835248E+01 0.10408231698E+02
 0.15518322497E+02 0.23261595765E+02 0.34455102618E+02 0.49569215306E+02 0.68439496015E+02
 0.90129110157E+02 0.11303069516E+03 0.13519079687E+03 0.15474422272E+03 0.17032149651E+03
 0.18132647045E+03 0.18801924635E+03 0.19136299108E+03 0.19263827122E+03 0.19080271666E+03
 0.19019000613E+03 0.18801924635E+03 0.18344353598E+03 0.17548069239E+03 0.16344820917E+03
 0.14728814568E+03 0.12769314615E+03 0.10602181419E+03 0.84035214427E+02 0.63517275804E+02
 0.45882047171E+02 0.31896685048E+02 0.21616415936E+02 0.14534271101E+02 0.98604273033E+01
 0.68710959464E+01 0.50105088462E+01 0.38701999676E+01 0.31785382951E+01 0.27655266342E+01
 0.25266029826E+01 0.23963326671E+01 0.23336154361E+01 0.23152323196E+01 0.23336154361E+01
 0.23963326671E+01 0.25266029826E+01 0.27655266342E+01 0.31785382951E+01 0.38701999676E+01
 0.50105088462E+01 0.68710959464E+01 0.98604273033E+01 0.14534271101E+02 0.21616415936E+02
 0.31896685048E+02 0.45882047171E+02 0.63517275804E+02 0.84035214427E+02 0.10602181419E+03
 0.12769314615E+03 0.14728814568E+03 0.16344820917E+03 0.17548069239E+03 0.18344353598E+03
 0.18801924635E+03 0.19019000613E+03 0.18539387348E+03 0.18443554308E+03 0.18132647045E+03
 0.17548069239E+03 0.16625352908E+03 0.15328058253E+03 0.13673162960E+03 0.11740198317E+03
 0.96622631929E+02 0.76012869831E+02 0.57137101413E+02 0.41166988115E+02 0.28664780143E+02
 0.19562029079E+02 0.13320088325E+02 0.92005101304E+01 0.65707135716E+01 0.49359284924E+01
 0.39360939730E+01 0.33327122666E+01 0.29760445059E+01 0.27730705637E+01 0.26648125251E+01
 0.26139045202E+01 0.25992237956E+01 0.26139045202E+01 0.26648125251E+01 0.27730705637E+01
 0.29760445059E+01 0.33327122666E+01 0.39360939730E+01 0.49359284924E+01 0.65707135716E+01
 0.92005101304E+01 0.13320088325E+02 0.19562029079E+02 0.28664780143E+02 0.41166988115E+02
 0.57137101413E+02 0.76012869831E+02 0.96622631929E+02 0.11740198317E+03 0.13673162960E+03
 0.15328058253E+03 0.16625352908E+03 0.17548069239E+03 0.18132647045E+03 0.18443554308E+03
 0.17547012158E+03 0.17421767788E+03 0.17032149651E+03 0.16344820917E+03 0.15328058253E+03
 0.13976235086E+03 0.12327920631E+03 0.10471092795E+03 0.85332973017E+02 0.66587166038E+02
 0.49782772784E+02 0.35823621219E+02 0.25058406997E+02 0.17302859819E+02 0.12005186257E+02
 0.85128652689E+01 0.62910600647E+01 0.49149334575E+01 0.40793698750E+01 0.35827711989E+01
 0.32974975388E+01 0.31426765321E+01 0.30656857702E+01 0.30324561238E+01 0.30234997952E+01
 0.30324561238E+01 0.30656857702E+01 0.31426765321E+01 0.32974975388E+01 0.35827711989E+01
 0.40793698750E+01 0.49149334575E+01 0.62910600647E+01 0.85128652689E+01 0.12005186257E+02
 0.17302859819E+02 0.25058406997E+02 0.35823621219E+02 0.49782772784E+02 0.66587166038E+02
 0.85332973017E+02 0.10471092795E+03 0.12327920631E+03 0.13976235086E+03 0.15328058253E+03
 0.16344820917E+03 0.17032149651E+03 0.17421767788E+03 0.16058146956E+03 0.15913645731E+03
 0.15474422272E+03 0.14728814568E+03 0.13673162960E+03 0.12327920631E+03 0.10748902565E+03
 0.90284967616E+02 0.72849021410E+02 0.56413790912E+02 0.42015056526E+02 0.30289231272E+02
 0.21389418072E+02 0.15043317413E+02 0.10719335800E+02 0.78822840925E+01 0.60897884480E+01
 0.49918972791E+01 0.43400261052E+01 0.39693322852E+01 0.37733335168E+01 0.36821305624E+01
 0.36483698639E+01 0.36404014454E+01 0.36397707740E+01 0.36404014454E+01 0.36483698639E+01
 0.36821305624E+01 0.37733335168E+01 0.39693322852E+01 0.43400261052E+01 0.49918972791E+01
 0.60897884480E+01 0.78822840925E+01 0.10719335800E+02 0.15043317413E+02 0.21389418072E+02
 0.30289231272E+02 0.42015056526E+02 0.56413790912E+02 0.72849021410E+02 0.90284967616E+02
 0.10748902565E+03 0.12327920631E+03 0.13673162960E+03 0.14728814568E+03 0.15474422272E+03
 0.15913645731E+03 0.14123115622E+03 0.13971974232E+03 0.13519079687E+03 0.12769314615E+03
 0.11740198317E+03 0.10471092795E+03 0.90284967616E+02 0.75036504328E+02 0.60012188087E+02
 0.46213102826E+02 0.34403888067E+02 0.24979378550E+02 0.17937112993E+02 0.12957684585E+02
 0.95792405412E+01 0.73877152934E+01 0.60271630224E+01 0.52213634467E+01 0.47746266023E+01
 0.45547519452E+01 0.44727322556E+01 0.44667814290E+01 0.44928569247E+01 0.45205325407E+01
 0.45317545518E+01 0.45205325407E+01 0.44928569247E+01 0.44667814290E+01 0.44727322556E+01
 0.45547519452E+01 0.47746266023E+01 0.52213634467E+01 0.60271630224E+01 0.73877152934E+01
 0.95792405412E+01 0.12957684585E+02 0.17937112993E+02 0.24979378550E+02 0.34403888067E+02
 0.46213102826E+02 0.60012188087E+02 0.75036504328E+02 0.90284967616E+02 0.10471092795E+03
 0.11740198317E+03 0.12769314615E+03 0.13519079687E+03 0.13971974232E+03 0.11879210623E+03
 0.11734002105E+03 0.11303069516E+03 0.10602181419E+03 0.96622631929E+02 0.85332973017E+02
 0.72849021410E+02 0.60012188087E+02 0.47698073905E+02 0.36670462363E+02 0.27447544002E+02
 0.20229275111E+02 0.14910842476E+02 0.11176900618E+02 0.86799286768E+01 0.71019787500E+01
 0.61698305407E+01 0.56738373221E+01 0.54631964367E+01 0.54312700583E+01 0.55008350166E+01
 0.56138273926E+01 0.57262031085E+01 0.58063792232E+01 0.58352386050E+01 0.58063792232E+01
 0.57262031085E+01 0.56138273926E+01 0.55008350166E+01 0.54312700583E+01 0.54631964367E+01
 0.56738373221E+01 0.61698305407E+01 0.71019787500E+01 0.86799286768E+01 0.11176900618E+02
 0.14910842476E+02 0.20229275111E+02 0.27447544002E+02 0.36670462363E+02 0.47698073905E+02
 0.60012188087E+02 0.72849021410E+02 0.85332973017E+02 0.96622631929E+02 0.10602181419E+03
 0.11303069516E+03 0.11734002105E+03 0.95215474393E+02 0.93926678356E+02 0.90129110157E+02
 0.84035214427E+02 0.76012869831E+02 0.66587166038E+02 0.56413790912E+02 0.46213102826E+02
 0.36670462363E+02 0.28327527927E+02 0.21500092977E+02 0.16251746207E+02 0.12431612731E+02
 0.97949616146E+01 0.80953390346E+01 0.70954603680E+01 0.65954904201E+01 0.64404485792E+01
 0.65134575710E+01 0.67245469338E+01 0.70012561021E+01 0.72834841078E+01 0.75222661732E+01
 0.76808334794E+01 0.77362833153E+01 0.76808334794E+01 0.75222661732E+01 0.72834841078E+01
 0.70012561021E+01 0.67245469338E+01 0.65134575710E+01 0.64404485792E+01 0.65954904201E+01
 0.70954603680E+01 0.80953390346E+01 0.97949616146E+01 0.12431612731E+02 0.16251746207E+02
 0.21500092977E+02 0.28327527927E+02 0.36670462363E+02 0.46213102826E+02 0.56413790912E+02
 0.66587166038E+02 0.76012869831E+02 0.84035214427E+02 0.90129110157E+02 0.93926678356E+02
 0.72599126216E+02 0.71540678687E+02 0.68439496015E+02 0.63517275804E+02 0.57137101413E+02
 0.49782772784E+02 0.42015056526E+02 0.34403888067E+02 0.27447544002E+02 0.21500092977E+02
 0.16730092892E+02 0.13123887809E+02 0.10554827584E+02 0.88664710394E+01 0.78831255065E+01
 0.74389822540E+01 0.73933305186E+01 0.76314243954E+01 0.80581275181E+01 0.85904545155E+01
 0.91527111955E+01 0.96755011318E+01 0.10098040321E+02 0.10372288758E+02 0.10467275878E+02
 0.10372288758E+02 0.10098040321E+02 0.96755011318E+01 0.91527111955E+01 0.85904545155E+01
 0.80581275181E+01 0.76314243954E+01 0.73933305186E+01 0.74389822540E+01 0.78831255065E+01
 0.88664710394E+01 0.10554827584E+02 0.13123887809E+02 0.16730092892E+02 0.21500092977E+02
 0.27447544002E+02 0.34403888067E+02 0.42015056526E+02 0.49782772784E+02 0.57137101413E+02
 0.63517275804E+02 0.68439496015E+02 0.71540678687E+02 0.52718374338E+02 0.51914177550E+02
 0.49569215306E+02 0.45882047171E+02 0.41166988115E+02 0.35823621219E+02 0.30289231272E+02
 0.24979378550E+02 0.20229275111E+02 0.16251746207E+02 0.13123887809E+02 0.10824817360E+02
 0.92892403948E+01 0.84150942698E+01 0.80888910062E+01 0.82025332441E+01 0.86588849961E+01
 0.93698784164E+01 0.10251441018E+02 0.11218660937E+02 0.12183570535E+02 0.13056924202E+02
 0.13754161650E+02 0.14204394484E+02 0.14360066771E+02 0.14204394484E+02 0.13754161650E+02
 0.13056924202E+02 0.12183570535E+02 0.11218660937E+02 0.10251441018E+02 0.93698784164E+01
 0.86588849961E+01 0.82025332441E+01 0.80888910062E+01 0.84150942698E+01 0.92892403948E+01
 0.10824817360E+02 0.13123887809E+02 0.16251746207E+02 0.20229275111E+02 0.24979378550E+02
 0.30289231272E+02 0.35823621219E+02 0.41166988115E+02 0.45882047171E+02 0.49569215306E+02
 0.51914177550E+02 0.36661083024E+02 0.36095948601E+02 0.34455102618E+02 0.31896685048E+02
 0.28664780143E+02 0.25058406997E+02 0.21389418072E+02 0.17937112993E+02 0.14910842476E+02
 0.12431612731E+02 0.10554827584E+02 0.92892403948E+01 0.86032733898E+01 0.84434896683E+01
 0.87478092059E+01 0.94519953579E+01 0.10490678458E+02 0.11794566818E+02 0.13285201027E+02
 0.14869035268E+02 0.16433885891E+02 0.17851525276E+02 0.18988917333E+02 0.19727158413E+02
 0.19983199739E+02 0.19727158413E+02 0.18988917333E+02 0.17851525276E+02 0.16433885891E+02
 0.14869035268E+02 0.13285201027E+02 0.11794566818E+02 0.10490678458E+02 0.94519953579E+01
 0.87478092059E+01 0.84434896683E+01 0.86032733898E+01 0.92892403948E+01 0.10554827584E+02
 0.12431612731E+02 0.14910842476E+02 0.17937112993E+02 0.21389418072E+02 0.25058406997E+02
 0.28664780143E+02 0.31896685048E+02 0.34455102618E+02 0.36095948601E+02 0.24692981556E+02
 0.24325177416E+02 0.23261595765E+02 0.21616415936E+02 0.19562029079E+02 0.17302859819E+02
 0.15043317413E+02 0.12957684585E+02 0.11176900618E+02 0.97949616146E+01 0.88664710394E+01
 0.84150942698E+01 0.84434896683E+01 0.89404544577E+01 0.98852157241E+01 0.11249719903E+02
 0.12998518689E+02 0.15084176929E+02 0.17436576862E+02 0.19948185587E+02 0.22462495521E+02
 0.24775504705E+02 0.26657089969E+02 0.27890785456E+02 0.28320934700E+02 0.27890785456E+02
 0.26657089969E+02 0.24775504705E+02 0.22462495521E+02 0.19948185587E+02 0.17436576862E+02
 0.15084176929E+02 0.12998518689E+02 0.11249719903E+02 0.98852157241E+01 0.89404544577E+01
 0.84434896683E+01 0.84150942698E+01 0.88664710394E+01 0.97949616146E+01 0.11176900618E+02
 0.12957684585E+02 0.15043317413E+02 0.17302859819E+02 0.19562029079E+02 0.21616415936E+02
 0.23261595765E+02 0.24325177416E+02 0.16382666599E+02 0.16159852735E+02 0.15518322497E+02
 0.14534271101E+02 0.13320088325E+02 0.12005186257E+02 0.10719335800E+02 0.95792405412E+01
 0.86799286768E+01 0.80953390346E+01 0.78831255065E+01 0.80888910062E+01 0.87478092059E+01
 0.98852157241E+01 0.11518757209E+02 0.13661804334E+02 0.16323117673E+02 0.19495319517E+02
 0.23128191298E+02 0.27092462688E+02 0.31150858779E+02 0.34957756810E+02 0.38101160979E+02
 0.40182673973E+02 0.40911982627E+02 0.40182673973E+02 0.38101160979E+02 0.34957756810E+02
 0.31150858779E+02 0.27092462688E+02 0.23128191298E+02 0.19495319517E+02 0.16323117673E+02
 0.13661804334E+02 0.11518757209E+02 0.98852157241E+01 0.87478092059E+01 0.80888910062E+01
 0.78831255065E+01 0.80953390346E+01 0.86799286768E+01 0.95792405412E+01 0.10719335800E+02
 0.12005186257E+02 0.13320088325E+02 0.14534271101E+02 0.15518322497E+02 0.16159852735E+02
 0.10897445719E+02 0.10770658091E+02 0.10408231698E+02 0.98604273033E+01 0.92005101304E+01
 0.85128652689E+01 0.78822840925E+01 0.73877152934E+01 0.71019787500E+01 0.70954603680E+01
 0.74389822540E+01 0.82025332441E+01 0.94519953579E+01 0.11249719903E+02 0.13661804334E+02
 0.16766611775E+02 0.20651576392E+02 0.25384375173E+02 0.30953489504E+02 0.37191917387E+02
 0.43718600149E+02 0.49939265759E+02 0.55129828260E+02 0.58587690721E+02 0.59802473009E+02
 0.58587690721E+02 0.55129828260E+02 0.49939265759E+02 0.43718600149E+02 0.37191917387E+02
 0.30953489504E+02 0.25384375173E+02 0.20651576392E+02 0.16766611775E+02 0.13661804334E+02
 0.11249719903E+02 0.94519953579E+01 0.82025332441E+01 0.74389822540E+01 0.70954603680E+01
 0.71019787500E+01 0.73877152934E+01 0.78822840925E+01 0.85128652689E+01 0.92005101304E+01
 0.98604273033E+01 0.10408231698E+02 0.10770658091E+02 0.73852928427E+01 0.73200503116E+01
 0.71370835248E+01 0.68710959464E+01 0.65707135716E+01 0.62910600647E+01 0.60897884480E+01
 0.60271630224E+01 0.61698305407E+01 0.65954904201E+01 0.73933305186E+01 0.86588849961E+01
 0.10490678458E+02 0.12998518689E+02 0.16323117673E+02 0.20651576392E+02 0.26204771305E+02
 0.33175259030E+02 0.41610522810E+02 0.51270042051E+02 0.61524141732E+02 0.71398569882E+02
 0.79801450765E+02 0.85519002783E+02 0.87552959992E+02 0.85519002783E+02 0.79801450765E+02
 0.71398569882E+02 0.61524141732E+02 0.51270042051E+02 0.41610522810E+02 0.33175259030E+02
 0.26204771305E+02 0.20651576392E+02 0.16323117673E+02 0.12998518689E+02 0.10490678458E+02
 0.86588849961E+01 0.73933305186E+01 0.65954904201E+01 0.61698305407E+01 0.60271630224E+01
 0.60897884480E+01 0.62910600647E+01 0.65707135716E+01 0.68710959464E+01 0.71370835248E+01
 0.73200503116E+01 0.51982695942E+01 0.51713178236E+01 0.51002450391E+01 0.50105088462E+01
 0.49359284924E+01 0.49149334575E+01 0.49918972791E+01 0.52213634467E+01 0.56738373221E+01
 0.64404485792E+01 0.76314243954E+01 0.93698784164E+01 0.11794566818E+02 0.15084176929E+02
 0.19495319517E+02 0.25384375173E+02 0.33175259030E+02 0.43240809760E+02 0.55692064225E+02
 0.70147996263E+02 0.85940828419E+02 0.10186554980E+03 0.11581467490E+03 0.12541765120E+03
 0.12884602088E+03 0.12541765120E+03 0.11581467490E+03 0.10186554980E+03 0.85940828419E+02
 0.70147996263E+02 0.55692064225E+02 0.43240809760E+02 0.33175259030E+02 0.25384375173E+02
 0.19495319517E+02 0.15084176929E+02 0.11794566818E+02 0.93698784164E+01 0.76314243954E+01
 0.64404485792E+01 0.56738373221E+01 0.52213634467E+01 0.49918972791E+01 0.49149334575E+01
 0.49359284924E+01 0.50105088462E+01 0.51002450391E+01 0.51713178236E+01 0.38573539612E+01
 0.38538277115E+01 0.38513595510E+01 0.38701999676E+01 0.39360939730E+01 0.40793698750E+01
 0.43400261052E+01 0.47746266023E+01 0.54631964367E+01 0.65134575710E+01 0.80581275181E+01
 0.10251441018E+02 0.13285201027E+02 0.17436576862E+02 0.23128191298E+02 0.30953489504E+02
 0.41610522810E+02 0.55692064225E+02 0.73371675497E+02 0.94775065453E+02 0.11924086445E+03
 0.14427202628E+03 0.16614632623E+03 0.18109221594E+03 0.18639872796E+03 0.18109221594E+03
 0.16614632623E+03 0.14427202628E+03 0.11924086445E+03 0.94775065453E+02 0.73371675497E+02
 0.55692064225E+02 0.41610522810E+02 0.30953489504E+02 0.23128191298E+02 0.17436576862E+02
 0.13285201027E+02 0.10251441018E+02 0.80581275181E+01 0.65134575710E+01 0.54631964367E+01
 0.47746266023E+01 0.43400261052E+01 0.40793698750E+01 0.39360939730E+01 0.38701999676E+01
 0.38513595510E+01 0.38538277115E+01 0.30414919015E+01 0.30525053762E+01 0.30924721438E+01
 0.31785382951E+01 0.33327122666E+01 0.35827711989E+01 0.39693322852E+01 0.45547519452E+01
 0.54312700583E+01 0.67245469338E+01 0.85904545155E+01 0.11218660937E+02 0.14869035268E+02
 0.19948185587E+02 0.27092462688E+02 0.37191917387E+02 0.51270042051E+02 0.70147996263E+02
 0.94775065453E+02 0.12588783796E+03 0.16169773491E+03 0.19786580266E+03 0.22884776214E+03
 0.24962857698E+03 0.25692624964E+03 0.24962857698E+03 0.22884776214E+03 0.19786580266E+03
 0.16169773491E+03 0.12588783796E+03 0.94775065453E+02 0.70147996263E+02 0.51270042051E+02
 0.37191917387E+02 0.27092462688E+02 0.19948185587E+02 0.14869035268E+02 0.11218660937E+02
 0.85904545155E+01 0.67245469338E+01 0.54312700583E+01 0.45547519452E+01 0.39693322852E+01
 0.35827711989E+01 0.33327122666E+01 0.31785382951E+01 0.30924721438E+01 0.30525053762E+01
 0.25500698971E+01 0.25704622583E+01 0.26373268849E+01 0.27655266342E+01 0.29760445059E+01
 0.32974975388E+01 0.37733335168E+01 0.44727322556E+01 0.55008350166E+01 0.70012561021E+01
 0.91527111955E+01 0.12183570535E+02 0.16433885891E+02 0.22462495521E+02 0.31150858779E+02
 0.43718600149E+02 0.61524141732E+02 0.85940828419E+02 0.11924086445E+03 0.16169773491E+03
 0.20981988099E+03 0.25713513678E+03 0.29646609671E+03 0.32216612643E+03 0.33105328143E+03
 0.32216612643E+03 0.29646609671E+03 0.25713513678E+03 0.20981988099E+03 0.16169773491E+03
 0.11924086445E+03 0.85940828419E+02 0.61524141732E+02 0.43718600149E+02 0.31150858779E+02
 0.22462495521E+02 0.16433885891E+02 0.12183570535E+02 0.91527111955E+01 0.70012561021E+01
 0.55008350166E+01 0.44727322556E+01 0.37733335168E+01 0.32974975388E+01 0.29760445059E+01
 0.27655266342E+01 0.26373268849E+01 0.25704622583E+01 0.22611688119E+01 0.22878285111E+01
 0.23720346863E+01 0.25266029826E+01 0.27730705637E+01 0.31426765321E+01 0.36821305624E+01
 0.44667814290E+01 0.56138273926E+01 0.72834841078E+01 0.96755011318E+01 0.13056924202E+02
 0.17851525276E+02 0.24775504705E+02 0.34957756810E+02 0.49939265759E+02 0.71398569882E+02
 0.10186554980E+03 0.14427202628E+03 0.19786580266E+03 0.25713513678E+03 0.31352051604E+03
 0.35873261880E+03 0.38733741076E+03 0.39703640820E+03 0.38733741076E+03 0.35873261880E+03
 0.31352051604E+03 0.25713513678E+03 0.19786580266E+03 0.14427202628E+03 0.10186554980E+03
 0.71398569882E+02 0.49939265759E+02 0.34957756810E+02 0.24775504705E+02 0.17851525276E+02
 0.13056924202E+02 0.96755011318E+01 0.72834841078E+01 0.56138273926E+01 0.44667814290E+01
 0.36821305624E+01 0.31426765321E+01 0.27730705637E+01 0.25266029826E+01 0.23720346863E+01
 0.22878285111E+01 0.21000408321E+01 0.21308300971E+01 0.22259303092E+01 0.23963326671E+01
 0.26648125251E+01 0.30656857702E+01 0.36483698639E+01 0.44928569247E+01 0.57262031085E+01
 0.75222661732E+01 0.10098040321E+02 0.13754161650E+02 0.18988917333E+02 0.26657089969E+02
 0.38101160979E+02 0.55129828260E+02 0.79801450765E+02 0.11581467490E+03 0.16614632623E+03
 0.22884776214E+03 0.29646609671E+03 0.35873261880E+03 0.40684859121E+03 0.43624118399E+03
 0.44598586944E+03 0.43624118399E+03 0.40684859121E+03 0.35873261880E+03 0.29646609671E+03
 0.22884776214E+03 0.16614632623E+03 0.11581467490E+03 0.79801450765E+02 0.55129828260E+02
 0.38101160979E+02 0.26657089969E+02 0.18988917333E+02 0.13754161650E+02 0.10098040321E+02
 0.75222661732E+01 0.57262031085E+01 0.44928569247E+01 0.36483698639E+01 0.30656857702E+01
 0.26648125251E+01 0.23963326671E+01 0.22259303092E+01 0.21308300971E+01 0.20205807581E+01
 0.20537560165E+01 0.21548724911E+01 0.23336154361E+01 0.26139045202E+01 0.30324561238E+01
 0.36404014454E+01 0.45205325407E+01 0.58063792232E+01 0.76808334794E+01 0.10372288758E+02
 0.14204394484E+02 0.19727158413E+02 0.27890785456E+02 0.40182673973E+02 0.58587690721E+02
 0.85519002783E+02 0.12541765120E+03 0.18109221594E+03 0.24962857698E+03 0.32216612643E+03
 0.38733741076E+03 0.43624118399E+03 0.46524386727E+03 0.47466928756E+03 0.46524386727E+03
 0.43624118399E+03 0.38733741076E+03 0.32216612643E+03 0.24962857698E+03 0.18109221594E+03
 0.12541765120E+03 0.85519002783E+02 0.58587690721E+02 0.40182673973E+02 0.27890785456E+02
 0.19727158413E+02 0.14204394484E+02 0.10372288758E+02 0.76808334794E+01 0.58063792232E+01
 0.45205325407E+01 0.36404014454E+01 0.30324561238E+01 0.26139045202E+01 0.23336154361E+01
 0.21548724911E+01 0.20537560165E+01 0.19969092402E+01 0.20308679524E+01 0.21339062319E+01
 0.23152323196E+01 0.25992237956E+01 0.30234997952E+01 0.36397707740E+01 0.45317545518E+01
 0.58352386050E+01 0.77362833153E+01 0.10467275878E+02 0.14360066771E+02 0.19983199739E+02
 0.28320934700E+02 0.40911982627E+02 0.59802473009E+02 0.87552959992E+02 0.12884602088E+03
 0.18639872796E+03 0.25692624964E+03 0.33105328143E+03 0.39703640820E+03 0.44598586944E+03
 0.47466928756E+03 0.48391319843E+03 0.47466928756E+03 0.44598586944E+03 0.39703640820E+03
 0.33105328143E+03 0.25692624964E+03 0.18639872796E+03 0.12884602088E+03 0.87552959992E+02
 0.59802473009E+02 0.40911982627E+02 0.28320934700E+02 0.19983199739E+02 0.14360066771E+02
 0.10467275878E+02 0.77362833153E+01 0.58352386050E+01 0.45317545518E+01 0.36397707740E+01
 0.30234997952E+01 0.25992237956E+01 0.23152323196E+01 0.21339062319E+01 0.20308679524E+01
 0.20205807581E+01 0.20537560165E+01 0.21548724911E+01 0.23336154361E+01 0.26139045202E+01
 0.30324561238E+01 0.36404014454E+01 0.45205325407E+01 0.58063792232E+01 0.76808334794E+01
 0.10372288758E+02 0.14204394484E+02 0.19727158413E+02 0.27890785456E+02 0.40182673973E+02
 0.58587690721E+02 0.85519002783E+02 0.12541765120E+03 0.18109221594E+03 0.24962857698E+03
 0.32216612643E+03 0.38733741076E+03 0.43624118399E+03 0.46524386727E+03 0.47466928756E+03
 0.46524386727E+03 0.43624118399E+03 0.38733741076E+03 0.32216612643E+03 0.24962857698E+03
 0.18109221594E+03 0.12541765120E+03 0.85519002783E+02 0.58587690721E+02 0.40182673973E+02
 0.27890785456E+02 0.19727158413E+02 0.14204394484E+02 0.10372288758E+02 0.76808334794E+01
 0.58063792232E+01 0.45205325407E+01 0.36404014454E+01 0.30324561238E+01 0.26139045202E+01
 0.23336154361E+01 0.21548724911E+01 0.20537560165E+01 0.21000408321E+01 0.21308300971E+01
 0.22259303092E+01 0.23963326671E+01 0.26648125251E+01 0.30656857702E+01 0.36483698639E+01
 0.44928569247E+01 0.57262031085E+01 0.75222661732E+01 0.10098040321E+02 0.13754161650E+02
 0.18988917333E+02 0.26657089969E+02 0.38101160979E+02 0.55129828260E+02 0.79801450765E+02
 0.11581467490E+03 0.16614632623E+03 0.22884776214E+03 0.29646609671E+03 0.35873261880E+03
 0.40684859121E+03 0.43624118399E+03 0.44598586944E+03 0.43624118399E+03 0.40684859121E+03
 0.35873261880E+03 0.29646609671E+03 0.22884776214E+03 0.16614632623E+03 0.11581467490E+03
 0.79801450765E+02 0.55129828260E+02 0.38101160979E+02 0.26657089969E+02 0.18988917333E+02
 0.13754161650E+02 0.10098040321E+02 0.75222661732E+01 0.57262031085E+01 0.44928569247E+01
 0.36483698639E+01 0.30656857702E+01 0.26648125251E+01 0.23963326671E+01 0.22259303092E+01
 0.21308300971E+01 0.22611688119E+01 0.22878285111E+01 0.23720346863E+01 0.25266029826E+01
 0.27730705637E+01 0.31426765321E+01 0.36821305624E+01 0.44667814290E+01 0.56138273926E+01
 0.72834841078E+01 0.96755011318E+01 0.13056924202E+02 0.17851525276E+02 0.24775504705E+02
 0.34957756810E+02 0.49939265759E+02 0.71398569882E+02 0.10186554980E+03 0.14427202628E+03
 0.19786580266E+03 0.25713513678E+03 0.31352051604E+03 0.35873261880E+03 0.38733741076E+03
 0.39703640820E+03 0.38733741076E+03 0.35873261880E+03 0.31352051604E+03 0.25713513678E+03
 0.19786580266E+03 0.14427202628E+03 0.10186554980E+03 0.71398569882E+02 0.49939265759E+02
 0.34957756810E+02 0.24775504705E+02 0.17851525276E+02 0.13056924202E+02 0.96755011318E+01
 0.72834841078E+01 0.56138273926E+01 0.44667814290E+01 0.36821305624E+01 0.31426765321E+01
 0.27730705637E+01 0.25266029826E+01 0.23720346863E+01 0.22878285111E+01 0.25500698971E+01
 0.25704622583E+01 0.26373268849E+01 0.27655266342E+01 0.29760445059E+01 0.32974975388E+01
 0.37733335168E+01 0.44727322556E+01 0.55008350166E+01 0.70012561021E+01 0.91527111955E+01
 0.12183570535E+02 0.16433885891E+02 0.22462495521E+02 0.31150858779E+02 0.43718600149E+02
 0.61524141732E+02 0.85940828419E+02 0.11924086445E+03 0.16169773491E+03 0.20981988099E+03
 0.25713513678E+03 0.29646609671E+03 0.32216612643E+03 0.33105328143E+03 0.32216612643E+03
 0.29646609671E+03 0.25713513678E+03 0.20981988099E+03 0.16169773491E+03 0.11924086445E+03
 0.85940828419E+02 0.61524141732E+02 0.43718600149E+02 0.31150858779E+02 0.22462495521E+02
 0.16433885891E+02 0.12183570535E+02 0.91527111955E+01 0.70012561021E+01 0.55008350166E+01
 0.44727322556E+01 0.37733335168E+01 0.32974975388E+01 0.29760445059E+01 0.27655266342E+01
 0.26373268849E+01 0.25704622583E+01 0.30414919015E+01 0.30525053762E+01 0.30924721438E+01
 0.31785382951E+01 0.33327122666E+01 0.35827711989E+01 0.39693322852E+01 0.45547519452E+01
 0.54312700583E+01 0.67245469338E+01 0.85904545155E+01 0.11218660937E+02 0.14869035268E+02
 0.19948185587E+02 0.27092462688E+02 0.37191917387E+02 0.51270042051E+02 0.70147996263E+02
 0.94775065453E+02 0.12588783796E+03 0.16169773491E+03 0.19786580266E+03 0.22884776214E+03
 0.24962857698E+03 0.25692624964E+03 0.24962857698E+03 0.22884776214E+03 0.19786580266E+03
 0.16169773491E+03 0.12588783796E+03 0.94775065453E+02 0.70147996263E+02 0.51270042051E+02
 0.37191917387E+02 0.27092462688E+02 0.19948185587E+02 0.14869035268E+02 0.11218660937E+02
 0.85904545155E+01 0.67245469338E+01 0.54312700583E+01 0.45547519452E+01 0.39693322852E+01
 0.35827711989E+01 0.33327122666E+01 0.31785382951E+01 0.30924721438E+01 0.30525053762E+01
 0.38573539612E+01 0.38538277115E+01 0.38513595510E+01 0.38701999676E+01 0.39360939730E+01
 0.40793698750E+01 0.43400261052E+01 0.47746266023E+01 0.54631964367E+01 0.65134575710E+01
 0.80581275181E+01 0.10251441018E+02 0.13285201027E+02 0.17436576862E+02 0.23128191298E+02
 0.30953489504E+02 0.41610522810E+02 0.55692064225E+02 0.73371675497E+02 0.94775065453E+02
 0.11924086445E+03 0.14427202628E+03 0.16614632623E+03 0.18109221594E+03 0.18639872796E+03
 0.18109221594E+03 0.16614632623E+03 0.14427202628E+03 0.11924086445E+03 0.94775065453E+02
 0.73371675497E+02 0.55692064225E+02 0.41610522810E+02 0.30953489504E+02 0.23128191298E+02
 0.17436576862E+02 0.13285201027E+02 0.10251441018E+02 0.80581275181E+01 0.65134575710E+01
 0.54631964367E+01 0.47746266023E+01 0.43400261052E+01 0.40793698750E+01 0.39360939730E+01
 0.38701999676E+01 0.38513595510E+01 0.38538277115E+01 0.51982695942E+01 0.51713178236E+01
 0.51002450391E+01 0.50105088462E+01 0.49359284924E+01 0.49149334575E+01 0.49918972791E+01
 0.52213634467E+01 0.56738373221E+01 0.64404485792E+01 0.76314243954E+01 0.93698784164E+01
 0.11794566818E+02 0.15084176929E+02 0.19495319517E+02 0.25384375173E+02 0.33175259030E+02
 0.43240809760E+02 0.55692064225E+02 0.70147996263E+02 0.85940828419E+02 0.10186554980E+03
 0.11581467490E+03 0.12541765120E+03 0.12884602088E+03 0.12541765120E+03 0.11581467490E+03
 0.10186554980E+03 0.85940828419E+02 0.70147996263E+02 0.55692064225E+02 0.43240809760E+02
 0.33175259030E+02 0.25384375173E+02 0.19495319517E+02 0.15084176929E+02 0.11794566818E+02
 0.93698784164E+01 0.76314243954E+01 0.64404485792E+01 0.56738373221E+01 0.52213634467E+01
 0.49918972791E+01 0.49149334575E+01 0.49359284924E+01 0.50105088462E+01 0.51002450391E+01
 0.51713178236E+01 0.73852928427E+01 0.73200503116E+01 0.71370835248E+01 0.68710959464E+01
 0.65707135716E+01 0.62910600647E+01 0.60897884480E+01 0.60271630224E+01 0.61698305407E+01
 0.65954904201E+01 0.73933305186E+01 0.86588849961E+01 0.10490678458E+02 0.12998518689E+02
 0.16323117673E+02 0.20651576392E+02 0.26204771305E+02 0.33175259030E+02 0.41610522810E+02
 0.51270042051E+02 0.61524141732E+02 0.71398569882E+02 0.79801450765E+02 0.85519002783E+02
 0.87552959992E+02 0.85519002783E+02 0.79801450765E+02 0.71398569882E+02 0.61524141732E+02
 0.51270042051E+02 0.41610522810E+02 0.33175259030E+02 0.26204771305E+02 0.20651576392E+02
 0.16323117673E+02 0.12998518689E+02 0.10490678458E+02 0.86588849961E+01 0.73933305186E+01
 0.65954904201E+01 0.61698305407E+01 0.60271630224E+01 0.60897884480E+01 0.62910600647E+01
 0.65707135716E+01 0.68710959464E+01 0.71370835248E+01 0.73200503116E+01 0.10897445719E+02
 0.10770658091E+02 0.10408231698E+02 0.98604273033E+01 0.92005101304E+01 0.85128652689E+01
 0.78822840925E+01 0.73877152934E+01 0.71019787500E+01 0.70954603680E+01 0.74389822540E+01
 0.82025332441E+01 0.94519953579E+01 0.11249719903E+02 0.13661804334E+02 0.16766611775E+02
 0.20651576392E+02 0.25384375173E+02 0.30953489504E+02 0.37191917387E+02 0.43718600149E+02
 0.49939265759E+02 0.55129828260E+02 0.58587690721E+02 0.59802473009E+02 0.58587690721E+02
 0.55129828260E+02 0.49939265759E+02 0.43718600149E+02 0.37191917387E+02 0.30953489504E+02
 0.25384375173E+02 0.20651576392E+02 0.16766611775E+02 0.13661804334E+02 0.11249719903E+02
 0.94519953579E+01 0.82025332441E+01 0.74389822540E+01 0.70954603680E+01 0.71019787500E+01