   5   5   0   0
  0.1191194E+02  0.3905268E-09  0.3905268E-09  0.3905268E-09  0.5000000E-15
  1.000000000000000E-004
  CAR 
 unknown system                          
     12.75784216    -32.12055460  301      2.62280422      1.00000000
    -32.121  0.0000E+00  0.0000E+00
    -31.971  0.0000E+00  0.0000E+00
    -31.821  0.0000E+00  0.0000E+00
    -31.672  0.0000E+00  0.0000E+00
    -31.522  0.0000E+00  0.0000E+00
    -31.373  0.0000E+00  0.0000E+00
    -31.223  0.0000E+00  0.0000E+00
    -31.073  0.0000E+00  0.0000E+00
    -30.924  0.0000E+00  0.0000E+00
    -30.774  0.0000E+00  0.0000E+00
    -30.625  0.0000E+00  0.0000E+00
    -30.475  0.0000E+00  0.0000E+00
    -30.325  0.0000E+00  0.0000E+00
    -30.176  0.0000E+00  0.0000E+00
    -30.026  0.1561E+02  0.1946E+01
    -29.877  0.0000E+00  0.2000E+01
    -29.727  0.0000E+00  0.2000E+01
    -29.577  0.0000E+00  0.2000E+01
    -29.428  0.0000E+00  0.2000E+01
    -29.278  0.0000E+00  0.2000E+01
    -29.129  0.0000E+00  0.2000E+01
    -28.979  0.0000E+00  0.2000E+01
    -28.829  0.0000E+00  0.2000E+01
    -28.680  0.0000E+00  0.2000E+01
    -28.530  0.0000E+00  0.2000E+01
    -28.381  0.0000E+00  0.2000E+01
    -28.231  0.0000E+00  0.2000E+01
    -28.081  0.0000E+00  0.2000E+01
    -27.932  0.0000E+00  0.2000E+01
    -27.782  0.0000E+00  0.2000E+01
    -27.633  0.0000E+00  0.2000E+01
    -27.483  0.0000E+00  0.2000E+01
    -27.334  0.0000E+00  0.2000E+01
    -27.184  0.0000E+00  0.2000E+01
    -27.034  0.0000E+00  0.2000E+01
    -26.885  0.0000E+00  0.2000E+01
    -26.735  0.0000E+00  0.2000E+01
    -26.586  0.0000E+00  0.2000E+01
    -26.436  0.0000E+00  0.2000E+01
    -26.286  0.0000E+00  0.2000E+01
    -26.137  0.0000E+00  0.2000E+01
    -25.987  0.0000E+00  0.2000E+01
    -25.838  0.0000E+00  0.2000E+01
    -25.688  0.0000E+00  0.2000E+01
    -25.538  0.0000E+00  0.2000E+01
    -25.389  0.0000E+00  0.2000E+01
    -25.239  0.0000E+00  0.2000E+01
    -25.090  0.0000E+00  0.2000E+01
    -24.940  0.0000E+00  0.2000E+01
    -24.790  0.0000E+00  0.2000E+01
    -24.641  0.0000E+00  0.2000E+01
    -24.491  0.0000E+00  0.2000E+01
    -24.342  0.0000E+00  0.2000E+01
    -24.192  0.0000E+00  0.2000E+01
    -24.042  0.0000E+00  0.2000E+01
    -23.893  0.0000E+00  0.2000E+01
    -23.743  0.0000E+00  0.2000E+01
    -23.594  0.0000E+00  0.2000E+01
    -23.444  0.0000E+00  0.2000E+01
    -23.294  0.0000E+00  0.2000E+01
    -23.145  0.0000E+00  0.2000E+01
    -22.995  0.0000E+00  0.2000E+01
    -22.846  0.0000E+00  0.2000E+01
    -22.696  0.0000E+00  0.2000E+01
    -22.546  0.0000E+00  0.2000E+01
    -22.397  0.0000E+00  0.2000E+01
    -22.247  0.0000E+00  0.2000E+01
    -22.098  0.0000E+00  0.2000E+01
    -21.948  0.0000E+00  0.2000E+01
    -21.799  0.0000E+00  0.2000E+01
    -21.649  0.0000E+00  0.2000E+01
    -21.499  0.0000E+00  0.2000E+01
    -21.350  0.0000E+00  0.2000E+01
    -21.200  0.0000E+00  0.2000E+01
    -21.051  0.0000E+00  0.2000E+01
    -20.901  0.0000E+00  0.2000E+01
    -20.751  0.0000E+00  0.2000E+01
    -20.602  0.0000E+00  0.2000E+01
    -20.452  0.0000E+00  0.2000E+01
    -20.303  0.0000E+00  0.2000E+01
    -20.153  0.0000E+00  0.2000E+01
    -20.003  0.0000E+00  0.2000E+01
    -19.854  0.0000E+00  0.2000E+01
    -19.704  0.0000E+00  0.2000E+01
    -19.555  0.0000E+00  0.2000E+01
    -19.405  0.0000E+00  0.2000E+01
    -19.255  0.0000E+00  0.2000E+01
    -19.106  0.0000E+00  0.2000E+01
    -18.956  0.0000E+00  0.2000E+01
    -18.807  0.0000E+00  0.2000E+01
    -18.657  0.0000E+00  0.2000E+01
    -18.507  0.0000E+00  0.2000E+01
    -18.358  0.0000E+00  0.2000E+01
    -18.208  0.0000E+00  0.2000E+01
    -18.059  0.0000E+00  0.2000E+01
    -17.909  0.0000E+00  0.2000E+01
    -17.759  0.0000E+00  0.2000E+01
    -17.610  0.0000E+00  0.2000E+01
    -17.460  0.0000E+00  0.2000E+01
    -17.311  0.0000E+00  0.2000E+01
    -17.161  0.0000E+00  0.2000E+01
    -17.011  0.0000E+00  0.2000E+01
    -16.862  0.0000E+00  0.2000E+01
    -16.712  0.0000E+00  0.2000E+01
    -16.563  0.0000E+00  0.2000E+01
    -16.413  0.0000E+00  0.2000E+01
    -16.264  0.0000E+00  0.2000E+01
    -16.114  0.0000E+00  0.2000E+01
    -15.964  0.0000E+00  0.2000E+01
    -15.815  0.0000E+00  0.2000E+01
    -15.665  0.0000E+00  0.2000E+01
    -15.516  0.0000E+00  0.2000E+01
    -15.366  0.0000E+00  0.2000E+01
    -15.216  0.0000E+00  0.2000E+01
    -15.067  0.0000E+00  0.2000E+01
    -14.917  0.1569E+01  0.2066E+01
    -14.768  0.3376E+01  0.2649E+01
    -14.618  0.2552E+01  0.3095E+01
    -14.468  0.1831E+01  0.3408E+01
    -14.319  0.1610E+01  0.3661E+01
    -14.169  0.7933E+00  0.3827E+01
    -14.020  0.1917E+01  0.3953E+01
    -13.870  0.1280E+02  0.4920E+01
    -13.720  0.8421E+01  0.7601E+01
    -13.571  0.0000E+00  0.8000E+01
    -13.421  0.0000E+00  0.8000E+01
    -13.272  0.0000E+00  0.8000E+01
    -13.122  0.0000E+00  0.8000E+01
    -12.972  0.0000E+00  0.8000E+01
    -12.823  0.0000E+00  0.8000E+01
    -12.673  0.0000E+00  0.8000E+01
    -12.524  0.0000E+00  0.8000E+01
    -12.374  0.0000E+00  0.8000E+01
    -12.224  0.3388E+01  0.8301E+01
    -12.075  0.1057E+02  0.1023E+02
    -11.925  0.9593E+01  0.1161E+02
    -11.776  0.1127E+02  0.1289E+02
    -11.626  0.1904E+01  0.1396E+02
    -11.476  0.0000E+00  0.1400E+02
    -11.327  0.0000E+00  0.1400E+02
    -11.177  0.0000E+00  0.1400E+02
    -11.028  0.0000E+00  0.1400E+02
    -10.878  0.0000E+00  0.1400E+02
    -10.729  0.0000E+00  0.1400E+02
    -10.579  0.0000E+00  0.1400E+02
    -10.429  0.0000E+00  0.1400E+02
    -10.280  0.0000E+00  0.1400E+02
    -10.130  0.0000E+00  0.1400E+02
     -9.981  0.0000E+00  0.1400E+02
     -9.831  0.0000E+00  0.1400E+02
     -9.681  0.0000E+00  0.1400E+02
     -9.532  0.0000E+00  0.1400E+02
     -9.382  0.0000E+00  0.1400E+02
     -9.233  0.0000E+00  0.1400E+02
     -9.083  0.0000E+00  0.1400E+02
     -8.933  0.0000E+00  0.1400E+02
     -8.784  0.0000E+00  0.1400E+02
     -8.634  0.0000E+00  0.1400E+02
     -8.485  0.0000E+00  0.1400E+02
     -8.335  0.0000E+00  0.1400E+02
     -8.185  0.0000E+00  0.1400E+02
     -8.036  0.0000E+00  0.1400E+02
     -7.886  0.0000E+00  0.1400E+02
     -7.737  0.0000E+00  0.1400E+02
     -7.587  0.0000E+00  0.1400E+02
     -7.437  0.0000E+00  0.1400E+02
     -7.288  0.0000E+00  0.1400E+02
     -7.138  0.0000E+00  0.1400E+02
     -6.989  0.0000E+00  0.1400E+02
     -6.839  0.0000E+00  0.1400E+02
     -6.689  0.0000E+00  0.1400E+02
     -6.540  0.0000E+00  0.1400E+02
     -6.390  0.0000E+00  0.1400E+02
     -6.241  0.0000E+00  0.1400E+02
     -6.091  0.0000E+00  0.1400E+02
     -5.941  0.0000E+00  0.1400E+02
     -5.792  0.0000E+00  0.1400E+02
     -5.642  0.0000E+00  0.1400E+02
     -5.493  0.0000E+00  0.1400E+02
     -5.343  0.0000E+00  0.1400E+02
     -5.194  0.0000E+00  0.1400E+02
     -5.044  0.0000E+00  0.1400E+02
     -4.894  0.0000E+00  0.1400E+02
     -4.745  0.0000E+00  0.1400E+02
     -4.595  0.0000E+00  0.1400E+02
     -4.446  0.0000E+00  0.1400E+02
     -4.296  0.0000E+00  0.1400E+02
     -4.146  0.0000E+00  0.1400E+02
     -3.997  0.0000E+00  0.1400E+02
     -3.847  0.0000E+00  0.1400E+02
     -3.698  0.0000E+00  0.1400E+02
     -3.548  0.0000E+00  0.1400E+02
     -3.398  0.0000E+00  0.1400E+02
     -3.249  0.0000E+00  0.1400E+02
     -3.099  0.0000E+00  0.1400E+02
     -2.950  0.0000E+00  0.1400E+02
     -2.800  0.0000E+00  0.1400E+02
     -2.650  0.0000E+00  0.1400E+02
     -2.501  0.0000E+00  0.1400E+02
     -2.351  0.0000E+00  0.1400E+02
     -2.202  0.0000E+00  0.1400E+02
     -2.052  0.0000E+00  0.1400E+02
     -1.902  0.5152E+00  0.1401E+02
     -1.753  0.4736E+01  0.1442E+02
     -1.603  0.3398E+01  0.1527E+02
     -1.454  0.5457E+01  0.1592E+02
     -1.304  0.3526E+01  0.1661E+02
     -1.154  0.3363E+01  0.1713E+02
     -1.005  0.4019E+01  0.1768E+02
     -0.855  0.4891E+01  0.1840E+02
     -0.706  0.5197E+01  0.1917E+02
     -0.556  0.5503E+01  0.1996E+02
     -0.406  0.7092E+01  0.2092E+02
     -0.257  0.9904E+01  0.2224E+02
     -0.107  0.3414E+01  0.2293E+02
      0.042  0.2637E+01  0.2339E+02
      0.192  0.2191E+01  0.2375E+02
      0.341  0.1803E+01  0.2406E+02
      0.491  0.2330E+01  0.2435E+02
      0.641  0.3039E+01  0.2477E+02
      0.790  0.3323E+01  0.2524E+02
      0.940  0.1581E+01  0.2569E+02
      1.089  0.1525E+01  0.2588E+02
      1.239  0.3545E+01  0.2623E+02
      1.389  0.8150E+01  0.2704E+02
      1.538  0.8403E+01  0.2807E+02
      1.688  0.5659E+01  0.2899E+02
      1.837  0.5449E+01  0.2986E+02
      1.987  0.3932E+01  0.3056E+02
      2.137  0.3073E+01  0.3108E+02
      2.286  0.2220E+01  0.3148E+02
      2.436  0.1703E+01  0.3178E+02
      2.585  0.0000E+00  0.3200E+02
      2.735  0.0000E+00  0.3200E+02
      2.885  0.0000E+00  0.3200E+02
      3.034  0.0000E+00  0.3200E+02
      3.184  0.0000E+00  0.3200E+02
      3.333  0.0000E+00  0.3200E+02
      3.483  0.0000E+00  0.3200E+02
      3.633  0.0000E+00  0.3200E+02
      3.782  0.0000E+00  0.3200E+02
      3.932  0.0000E+00  0.3200E+02
      4.081  0.0000E+00  0.3200E+02
      4.231  0.0000E+00  0.3200E+02
      4.381  0.9195E-01  0.3200E+02
      4.530  0.3425E+00  0.3203E+02
      4.680  0.7556E+00  0.3211E+02
      4.829  0.1502E+01  0.3226E+02
      4.979  0.1539E+01  0.3250E+02
      5.129  0.1396E+01  0.3272E+02
      5.278  0.1568E+01  0.3294E+02
      5.428  0.1774E+01  0.3319E+02
      5.577  0.1993E+01  0.3347E+02
      5.727  0.3113E+01  0.3386E+02
      5.876  0.3328E+01  0.3433E+02
      6.026  0.3761E+01  0.3486E+02
      6.176  0.1198E+02  0.3553E+02
      6.325  0.4542E+01  0.3665E+02
      6.475  0.3409E+01  0.3724E+02
      6.624  0.2395E+01  0.3762E+02
      6.774  0.2725E+00  0.3778E+02
      6.924  0.1128E+00  0.3781E+02
      7.073  0.1065E+00  0.3783E+02
      7.223  0.1003E+00  0.3784E+02
      7.372  0.9439E-01  0.3786E+02
      7.522  0.8860E-01  0.3787E+02
      7.672  0.8299E-01  0.3788E+02
      7.821  0.7756E-01  0.3789E+02
      7.971  0.7230E-01  0.3791E+02
      8.120  0.7063E-01  0.3792E+02
      8.270  0.9406E-01  0.3793E+02
      8.420  0.1470E+00  0.3795E+02
      8.569  0.1990E+00  0.3797E+02
      8.719  0.2259E+00  0.3800E+02
      8.868  0.2472E+00  0.3804E+02
      9.018  0.2875E+00  0.3808E+02
      9.168  0.3351E+00  0.3813E+02
      9.317  0.3914E+00  0.3818E+02
      9.467  0.4714E+00  0.3824E+02
      9.616  0.5839E+00  0.3832E+02
      9.766  0.6992E+00  0.3842E+02
      9.916  0.1159E+01  0.3856E+02
     10.065  0.1707E+01  0.3878E+02
     10.215  0.1840E+01  0.3903E+02
     10.364  0.2190E+01  0.3934E+02
     10.514  0.3361E+01  0.3974E+02
     10.664  0.4668E+00  0.3998E+02
     10.813  0.0000E+00  0.4000E+02
     10.963  0.0000E+00  0.4000E+02
     11.112  0.0000E+00  0.4000E+02
     11.262  0.0000E+00  0.4000E+02
     11.411  0.0000E+00  0.4000E+02
     11.561  0.0000E+00  0.4000E+02
     11.711  0.0000E+00  0.4000E+02
     11.860  0.0000E+00  0.4000E+02
     12.010  0.0000E+00  0.4000E+02
     12.159  0.0000E+00  0.4000E+02
     12.309  0.0000E+00  0.4000E+02
     12.459  0.0000E+00  0.4000E+02
     12.608  0.0000E+00  0.4000E+02
     12.758  0.0000E+00  0.4000E+02
