       N       E                     dE             d eps       ncg     rms          rms(c)
DAV:   1     0.333493679036E+03    0.33349E+03   -0.17239E+04   800   0.181E+03
DAV:   2    -0.153487300089E+02   -0.34884E+03   -0.33683E+03  1108   0.387E+02
DAV:   3    -0.489802336264E+02   -0.33632E+02   -0.33377E+02   992   0.135E+02
DAV:   4    -0.502028640664E+02   -0.12226E+01   -0.12211E+01  1336   0.243E+01
DAV:   5    -0.502315112192E+02   -0.28647E-01   -0.28635E-01  1044   0.279E+00    0.183E+01
RMM:   6    -0.404047808611E+02    0.98267E+01   -0.58296E+01   862   0.444E+01    0.625E+00
RMM:   7    -0.397999202170E+02    0.60486E+00   -0.15281E+00   951   0.102E+01    0.322E+00
RMM:   8    -0.397174478681E+02    0.82472E-01   -0.94626E-01   958   0.766E+00    0.830E-01
RMM:   9    -0.397033960065E+02    0.14052E-01   -0.57147E-02  1100   0.192E+00    0.589E-01
RMM:  10    -0.396989818917E+02    0.44141E-02   -0.12157E-01   966   0.201E+00    0.292E-01
RMM:  11    -0.396976556743E+02    0.13262E-02   -0.11546E-02  1067   0.629E-01    0.725E-02
RMM:  12    -0.396984049335E+02   -0.74926E-03   -0.78274E-03  1076   0.459E-01    0.148E-01
RMM:  13    -0.396981092466E+02    0.29569E-03   -0.50887E-03  1055   0.385E-01    0.497E-02
RMM:  14    -0.396981235214E+02   -0.14275E-04   -0.11889E-03   994   0.180E-01    0.213E-02
RMM:  15    -0.396981462249E+02   -0.22703E-04   -0.39417E-04   902   0.759E-02    0.180E-02
RMM:  16    -0.396981478429E+02   -0.16180E-05   -0.10561E-04   762   0.462E-02    0.811E-03
RMM:  17    -0.396981524402E+02   -0.45973E-05   -0.51516E-05   723   0.341E-02
   1 F= -.39698152E+02 E0= -.39698152E+02  d E =0.000000E+00
