 vasp.5.4.4.18Apr17-6-g9f103f2a35 (build Jun 30 2017 11:15:00) complex          
  
 executed on    STALLO_VASP_5.4.4 date 2019.11.06  13:08:21
 running on    4 total cores
 distrk:  each k-point on    4 cores,    1 groups
 distr:  one band on NCORES_PER_BAND=   2 cores,    2 groups


--------------------------------------------------------------------------------------------------------


 INCAR:
 POTCAR:   PAW_PBE Sr_sv 07Sep2000                
 POTCAR:   PAW_PBE Ti 08Apr2002                   
 POTCAR:   PAW_PBE O 08Apr2002                    
 POTCAR:   PAW_PBE Sr_sv 07Sep2000                
   VRHFIN =Sr: 4s4p5s                                                           
   LEXCH  = PE                                                                  
   EATOM  =   842.4562 eV,   61.9188 Ry                                         
                                                                                
   TITEL  = PAW_PBE Sr_sv 07Sep2000                                             
   LULTRA =        F    use ultrasoft PP ?                                      
   IUNSCR =        1    unscreen: 0-lin 1-nonlin 2-no                           
   RPACOR =    2.200    partial core radius                                     
   POMASS =   87.620; ZVAL   =   10.000    mass and valenz                      
   RCORE  =    2.500    outmost cutoff radius                                   
   RWIGS  =    4.040; RWIGS  =    2.138    wigner-seitz radius (au A)           
   ENMAX  =  229.282; ENMIN  =  171.961 eV                                      
   RCLOC  =    2.201    cutoff for local pot                                    
   LCOR   =        T    correct aug charges                                     
   LPAW   =        T    paw PP                                                  
   EAUG   =  366.804                                                            
   DEXC   =     .000                                                            
   RMAX   =    3.045    core radius for proj-oper                               
   RAUG   =    1.300    factor for augmentation sphere                          
   RDEP   =    2.562    radius for radial grids                                 
   QCUT   =   -4.105; QGAM   =    8.210    optimization parameters              
                                                                                
   Description                                                                  
     l     E      TYP  RCUT    TYP  RCUT                                        
     0   .000     23  2.480                                                     
     0   .000     23  2.480                                                     
     1   .000     23  2.500                                                     
     1   .000     23  2.500                                                     
     2   .000     23  2.500                                                     
     2   .000     23  2.500                                                     
  local pseudopotential read in
  partial core-charges read in
  atomic valenz-charges read in
  non local Contribution for L=           0  read in
    real space projection operators read in
  non local Contribution for L=           0  read in
    real space projection operators read in
  non local Contribution for L=           1  read in
    real space projection operators read in
  non local Contribution for L=           1  read in
    real space projection operators read in
  non local Contribution for L=           2  read in
    real space projection operators read in
  non local Contribution for L=           2  read in
    real space projection operators read in
    PAW grid and wavefunctions read in
 
   number of l-projection  operators is LMAX  =           6
   number of lm-projection operators is LMMAX =          18
 
 POTCAR:   PAW_PBE Ti 08Apr2002                   
   VRHFIN =Ti: d3 s1                                                            
   LEXCH  = PE                                                                  
   EATOM  =    94.7929 eV,    6.9671 Ry                                         
                                                                                
   TITEL  = PAW_PBE Ti 08Apr2002                                                
   LULTRA =        F    use ultrasoft PP ?                                      
   IUNSCR =        1    unscreen: 0-lin 1-nonlin 2-no                           
   RPACOR =    2.200    partial core radius                                     
   POMASS =   47.880; ZVAL   =    4.000    mass and valenz                      
   RCORE  =    2.800    outmost cutoff radius                                   
   RWIGS  =    2.500; RWIGS  =    1.323    wigner-seitz radius (au A)           
   ENMAX  =  178.330; ENMIN  =  133.747 eV                                      
   RCLOC  =    2.215    cutoff for local pot                                    
   LCOR   =        T    correct aug charges                                     
   LPAW   =        T    paw PP                                                  
   EAUG   =  328.883                                                            
   DEXC   =    -.043                                                            
   RMAX   =    3.453    core radius for proj-oper                               
   RAUG   =    1.300    factor for augmentation sphere                          
   RDEP   =    2.885    radius for radial grids                                 
   QCUT   =   -3.620; QGAM   =    7.241    optimization parameters              
                                                                                
   Description                                                                  
     l     E      TYP  RCUT    TYP  RCUT                                        
     2   .000     23  2.800                                                     
     2   .000     23  2.800                                                     
     0   .000     23  2.800                                                     
     0  1.500     23  2.800                                                     
     1  -.400     23  2.800                                                     
     3   .000      7   .000                                                     
  local pseudopotential read in
  partial core-charges read in
  atomic valenz-charges read in
  non local Contribution for L=           2  read in
    real space projection operators read in
  non local Contribution for L=           2  read in
    real space projection operators read in
  non local Contribution for L=           0  read in
    real space projection operators read in
  non local Contribution for L=           0  read in
    real space projection operators read in
  non local Contribution for L=           1  read in
    real space projection operators read in
    PAW grid and wavefunctions read in
 
   number of l-projection  operators is LMAX  =           5
   number of lm-projection operators is LMMAX =          15
 
 POTCAR:   PAW_PBE O 08Apr2002                    
   VRHFIN =O: s2p4                                                              
   LEXCH  = PE                                                                  
   EATOM  =   432.3788 eV,   31.7789 Ry                                         
                                                                                
   TITEL  = PAW_PBE O 08Apr2002                                                 
   LULTRA =        F    use ultrasoft PP ?                                      
   IUNSCR =        0    unscreen: 0-lin 1-nonlin 2-no                           
   RPACOR =     .000    partial core radius                                     
   POMASS =   16.000; ZVAL   =    6.000    mass and valenz                      
   RCORE  =    1.520    outmost cutoff radius                                   
   RWIGS  =    1.550; RWIGS  =     .820    wigner-seitz radius (au A)           
   ENMAX  =  400.000; ENMIN  =  300.000 eV                                      
   ICORE  =        2    local potential                                         
   LCOR   =        T    correct aug charges                                     
   LPAW   =        T    paw PP                                                  
   EAUG   =  605.392                                                            
   DEXC   =     .000                                                            
   RMAX   =    2.264    core radius for proj-oper                               
   RAUG   =    1.300    factor for augmentation sphere                          
   RDEP   =    1.550    radius for radial grids                                 
   QCUT   =   -5.520; QGAM   =   11.041    optimization parameters              
                                                                                
   Description                                                                  
     l     E      TYP  RCUT    TYP  RCUT                                        
     0   .000     23  1.200                                                     
     0  -.700     23  1.200                                                     
     1   .000     23  1.520                                                     
     1   .600     23  1.520                                                     
     2   .000      7  1.500                                                     
  local pseudopotential read in
  atomic valenz-charges read in
  non local Contribution for L=           0  read in
    real space projection operators read in
  non local Contribution for L=           0  read in
    real space projection operators read in
  non local Contribution for L=           1  read in
    real space projection operators read in
  non local Contribution for L=           1  read in
    real space projection operators read in
    PAW grid and wavefunctions read in
 
   number of l-projection  operators is LMAX  =           4
   number of lm-projection operators is LMMAX =           8
 
 PAW_PBE Sr_sv 07Sep2000                :
 energy of atom  1       EATOM= -842.4562
 kinetic energy error for atom=    0.0007 (will be added to EATOM!!)
 PAW_PBE Ti 08Apr2002                   :
 energy of atom  2       EATOM=  -94.7929
 kinetic energy error for atom=    0.0001 (will be added to EATOM!!)
 PAW_PBE O 08Apr2002                    :
 energy of atom  3       EATOM= -432.3788
 kinetic energy error for atom=    0.0168 (will be added to EATOM!!)
 
 
 POSCAR: ICSD_CollCode262269                     
  positions in direct lattice
  No initial velocities read in
 exchange correlation table for  LEXCH =        8
   RHO(1)=    0.500       N(1)  =     2000
   RHO(2)=  100.500       N(2)  =     4000
 


--------------------------------------------------------------------------------------------------------


 ion  position               nearest neighbor table
   1  0.000  0.000  0.000-   3 2.76   4 2.76   5 2.76   4 2.76   5 2.76   3 2.76   5 2.76   5 2.76
                             3 2.76   4 2.76   4 2.76   3 2.76   2 3.38   2 3.38   2 3.38   2 3.38
   2  0.500  0.500  0.500-   3 1.95   4 1.95   5 1.95   3 1.95   4 1.95   5 1.95   1 3.38   1 3.38
                             1 3.38   1 3.38   1 3.38   1 3.38   1 3.38   1 3.38
   3  0.500  0.500  0.000-   2 1.95   2 1.95   1 2.76   1 2.76   1 2.76   1 2.76
   4  0.500  0.000  0.500-   2 1.95   2 1.95   1 2.76   1 2.76   1 2.76   1 2.76
   5  0.000  0.500  0.500-   2 1.95   2 1.95   1 2.76   1 2.76   1 2.76   1 2.76
 
  LATTYP: Found a simple cubic cell.
 ALAT       =     3.9052680000
  
  Lattice vectors:
  
 A1 = (   3.9052680000,   0.0000000000,   0.0000000000)
 A2 = (   0.0000000000,   3.9052680000,   0.0000000000)
 A3 = (   0.0000000000,   0.0000000000,   3.9052680000)


Analysis of symmetry for initial positions (statically):
=====================================================================
 Subroutine PRICEL returns:
 Original cell was already a primitive cell.
 

 Routine SETGRP: Setting up the symmetry group for a 
 simple cubic supercell.


 Subroutine GETGRP returns: Found 48 space group operations
 (whereof 48 operations were pure point group operations)
 out of a pool of 48 trial point group operations.


The static configuration has the point symmetry O_h .


Analysis of symmetry for dynamics (positions and initial velocities):
=====================================================================
 Subroutine PRICEL returns:
 Original cell was already a primitive cell.
 

 Routine SETGRP: Setting up the symmetry group for a 
 simple cubic supercell.


 Subroutine GETGRP returns: Found 48 space group operations
 (whereof 48 operations were pure point group operations)
 out of a pool of 48 trial point group operations.


The dynamic configuration has the point symmetry O_h .


 Subroutine INISYM returns: Found 48 space group operations
 (whereof 48 operations are pure point group operations),
 and found     1 'primitive' translations

 
 
 KPOINTS: k-density: 4.0                          

Automatic generation of k-mesh.
Space group operators:
 irot       det(A)        alpha          n_x          n_y          n_z        tau_x        tau_y        tau_z
    1     1.000000     0.000000     1.000000     0.000000     0.000000     0.000000     0.000000     0.000000
    2    -1.000000     0.000000     1.000000     0.000000     0.000000     0.000000     0.000000     0.000000
    3     1.000000   120.000000    -0.577350    -0.577350    -0.577350     0.000000     0.000000     0.000000
    4    -1.000000   120.000000    -0.577350    -0.577350    -0.577350     0.000000     0.000000     0.000000
    5     1.000000   120.000000     0.577350     0.577350     0.577350     0.000000     0.000000     0.000000
    6    -1.000000   120.000000     0.577350     0.577350     0.577350     0.000000     0.000000     0.000000
    7     1.000000    90.000000     0.000000     0.000000    -1.000000     0.000000     0.000000     0.000000
    8    -1.000000    90.000000     0.000000     0.000000    -1.000000     0.000000     0.000000     0.000000
    9     1.000000   180.000000     0.000000     0.707107     0.707107     0.000000     0.000000     0.000000
   10    -1.000000   180.000000     0.000000     0.707107     0.707107     0.000000     0.000000     0.000000
   11     1.000000    90.000000     0.000000     1.000000     0.000000     0.000000     0.000000     0.000000
   12    -1.000000    90.000000     0.000000     1.000000     0.000000     0.000000     0.000000     0.000000
   13     1.000000   180.000000     0.000000     0.000000     1.000000     0.000000     0.000000     0.000000
   14    -1.000000   180.000000     0.000000     0.000000     1.000000     0.000000     0.000000     0.000000
   15     1.000000   120.000000    -0.577350     0.577350     0.577350     0.000000     0.000000     0.000000
   16    -1.000000   120.000000    -0.577350     0.577350     0.577350     0.000000     0.000000     0.000000
   17     1.000000   120.000000    -0.577350     0.577350    -0.577350     0.000000     0.000000     0.000000
   18    -1.000000   120.000000    -0.577350     0.577350    -0.577350     0.000000     0.000000     0.000000
   19     1.000000    90.000000     0.000000     0.000000     1.000000     0.000000     0.000000     0.000000
   20    -1.000000    90.000000     0.000000     0.000000     1.000000     0.000000     0.000000     0.000000
   21     1.000000    90.000000    -1.000000     0.000000     0.000000     0.000000     0.000000     0.000000
   22    -1.000000    90.000000    -1.000000     0.000000     0.000000     0.000000     0.000000     0.000000
   23     1.000000   180.000000     0.707107     0.000000     0.707107     0.000000     0.000000     0.000000
   24    -1.000000   180.000000     0.707107     0.000000     0.707107     0.000000     0.000000     0.000000
   25     1.000000   120.000000     0.577350    -0.577350     0.577350     0.000000     0.000000     0.000000
   26    -1.000000   120.000000     0.577350    -0.577350     0.577350     0.000000     0.000000     0.000000
   27     1.000000   120.000000    -0.577350    -0.577350     0.577350     0.000000     0.000000     0.000000
   28    -1.000000   120.000000    -0.577350    -0.577350     0.577350     0.000000     0.000000     0.000000
   29     1.000000   180.000000     1.000000     0.000000     0.000000     0.000000     0.000000     0.000000
   30    -1.000000   180.000000     1.000000     0.000000     0.000000     0.000000     0.000000     0.000000
   31     1.000000    90.000000     0.000000    -1.000000     0.000000     0.000000     0.000000     0.000000
   32    -1.000000    90.000000     0.000000    -1.000000     0.000000     0.000000     0.000000     0.000000
   33     1.000000   180.000000     0.707107     0.707107     0.000000     0.000000     0.000000     0.000000
   34    -1.000000   180.000000     0.707107     0.707107     0.000000     0.000000     0.000000     0.000000
   35     1.000000    90.000000     1.000000     0.000000     0.000000     0.000000     0.000000     0.000000
   36    -1.000000    90.000000     1.000000     0.000000     0.000000     0.000000     0.000000     0.000000
   37     1.000000   120.000000     0.577350    -0.577350    -0.577350     0.000000     0.000000     0.000000
   38    -1.000000   120.000000     0.577350    -0.577350    -0.577350     0.000000     0.000000     0.000000
   39     1.000000   180.000000     0.000000     1.000000     0.000000     0.000000     0.000000     0.000000
   40    -1.000000   180.000000     0.000000     1.000000     0.000000     0.000000     0.000000     0.000000
   41     1.000000   120.000000     0.577350     0.577350    -0.577350     0.000000     0.000000     0.000000
   42    -1.000000   120.000000     0.577350     0.577350    -0.577350     0.000000     0.000000     0.000000
   43     1.000000   180.000000     0.000000    -0.707107     0.707107     0.000000     0.000000     0.000000
   44    -1.000000   180.000000     0.000000    -0.707107     0.707107     0.000000     0.000000     0.000000
   45     1.000000   180.000000     0.707107    -0.707107     0.000000     0.000000     0.000000     0.000000
   46    -1.000000   180.000000     0.707107    -0.707107     0.000000     0.000000     0.000000     0.000000
   47     1.000000   180.000000     0.707107     0.000000    -0.707107     0.000000     0.000000     0.000000
   48    -1.000000   180.000000     0.707107     0.000000    -0.707107     0.000000     0.000000     0.000000
 
 Subroutine IBZKPT returns following result:
 ===========================================
 
 Found     20 irreducible k-points:
 
 Following reciprocal coordinates:
            Coordinates               Weight
  0.000000  0.000000  0.000000      1.000000
  0.142857  0.000000  0.000000      6.000000
  0.285714  0.000000  0.000000      6.000000
  0.428571  0.000000  0.000000      6.000000
  0.142857  0.142857  0.000000     12.000000
  0.285714  0.142857  0.000000     24.000000
  0.428571  0.142857  0.000000     24.000000
  0.285714  0.285714  0.000000     12.000000
  0.428571  0.285714  0.000000     24.000000
  0.428571  0.428571  0.000000     12.000000
  0.142857  0.142857  0.142857      8.000000
  0.285714  0.142857  0.142857     24.000000
  0.428571  0.142857  0.142857     24.000000
  0.285714  0.285714  0.142857     24.000000
  0.428571  0.285714  0.142857     48.000000
  0.428571  0.428571  0.142857     24.000000
  0.285714  0.285714  0.285714      8.000000
  0.428571  0.285714  0.285714     24.000000
  0.428571  0.428571  0.285714     24.000000
  0.428571  0.428571  0.428571      8.000000
 
 Following cartesian coordinates:
            Coordinates               Weight
  0.000000  0.000000  0.000000      1.000000
  0.036581  0.000000  0.000000      6.000000
  0.073161  0.000000  0.000000      6.000000
  0.109742  0.000000  0.000000      6.000000
  0.036581  0.036581  0.000000     12.000000
  0.073161  0.036581  0.000000     24.000000
  0.109742  0.036581  0.000000     24.000000
  0.073161  0.073161  0.000000     12.000000
  0.109742  0.073161  0.000000     24.000000
  0.109742  0.109742  0.000000     12.000000
  0.036581  0.036581  0.036581      8.000000
  0.073161  0.036581  0.036581     24.000000
  0.109742  0.036581  0.036581     24.000000
  0.073161  0.073161  0.036581     24.000000
  0.109742  0.073161  0.036581     48.000000
  0.109742  0.109742  0.036581     24.000000
  0.073161  0.073161  0.073161      8.000000
  0.109742  0.073161  0.073161     24.000000
  0.109742  0.109742  0.073161     24.000000
  0.109742  0.109742  0.109742      8.000000
 
 TETIRR: Found    163 inequivalent tetrahedra from     2058


--------------------------------------------------------------------------------------------------------




 Dimension of arrays:
   k-points           NKPTS =     20   k-points in BZ     NKDIM =     20   number of bands    NBANDS=     20
   number of dos      NEDOS =    301   number of ions     NIONS =      5
   non local maximal  LDIM  =      6   non local SUM 2l+1 LMDIM =     18
   total plane-waves  NPLWV =  13824
   max r-space proj   IRMAX =      1   max aug-charges    IRDMAX=  16228
   dimension x,y,z NGX =    24 NGY =   24 NGZ =   24
   dimension x,y,z NGXF=    48 NGYF=   48 NGZF=   48
   support grid    NGXF=    48 NGYF=   48 NGZF=   48
   ions per type =               1   1   3
   NGX,Y,Z   is equivalent  to a cutoff of  10.22, 10.22, 10.22 a.u.
   NGXF,Y,Z  is equivalent  to a cutoff of  20.43, 20.43, 20.43 a.u.

 SYSTEM =  unknown system                          
 POSCAR =  ICSD_CollCode262269                     

 Startparameter for this run:
   NWRITE =      2    write-flag & timer
   PREC   = normal    normal or accurate (medium, high low for compatibility)
   ISTART =      0    job   : 0-new  1-cont  2-samecut
   ICHARG =      2    charge: 1-file 2-atom 10-const
   ISPIN  =      1    spin polarized calculation?
   LNONCOLLINEAR =      F non collinear calculations
   LSORBIT =      F    spin-orbit coupling
   INIWAV =      1    electr: 0-lowe 1-rand  2-diag
   LASPH  =      F    aspherical Exc in radial PAW
   METAGGA=      F    non-selfconsistent MetaGGA calc.

 Electronic Relaxation 1
   ENCUT  =  600.0 eV  44.10 Ry    6.64 a.u.   7.80  7.80  7.80*2*pi/ulx,y,z
   ENINI  =  600.0     initial cutoff
   ENAUG  =  605.4 eV  augmentation charge cutoff
   NELM   =     60;   NELMIN=  4; NELMDL= -5     # of ELM steps 
   EDIFF  = 0.1E-04   stopping-criterion for ELM
   LREAL  =      F    real-space projection
   NLSPLINE    = F    spline interpolate recip. space projectors
   LCOMPAT=      F    compatible to vasp.4.4
   GGA_COMPAT  = T    GGA compatible to vasp.4.4-vasp.4.6
   LMAXPAW     = -100 max onsite density
   LMAXMIX     =    2 max onsite mixed and CHGCAR
   VOSKOWN=      0    Vosko Wilk Nusair interpolation
   ROPT   =    0.00000   0.00000   0.00000
 Ionic relaxation
   EDIFFG = 0.1E-03   stopping-criterion for IOM
   NSW    =      0    number of steps for IOM
   NBLOCK =      1;   KBLOCK =      1    inner block; outer block 
   IBRION =     -1    ionic relax: 0-MD 1-quasi-New 2-CG
   NFREE  =      0    steps in history (QN), initial steepest desc. (CG)
   ISIF   =      2    stress and relaxation
   IWAVPR =     10    prediction:  0-non 1-charg 2-wave 3-comb
   ISYM   =      2    0-nonsym 1-usesym 2-fastsym
   LCORR  =      T    Harris-Foulkes like correction to forces

   POTIM  = 0.5000    time-step for ionic-motion
   TEIN   =    0.0    initial temperature
   TEBEG  =    0.0;   TEEND  =   0.0 temperature during run
   SMASS  =  -3.00    Nose mass-parameter (am)
   estimated Nose-frequenzy (Omega)   =  0.10E-29 period in steps =****** mass=  -0.349E-27a.u.
   SCALEE = 1.0000    scale energy and forces
   NPACO  =    256;   APACO  = 16.0  distance and # of slots for P.C.
   PSTRESS=    0.0 pullay stress

  Mass of Ions in am
   POMASS =  87.62 47.88 16.00
  Ionic Valenz
   ZVAL   =  10.00  4.00  6.00
  Atomic Wigner-Seitz radii
   RWIGS  =  -1.00 -1.00 -1.00
  virtual crystal weights 
   VCA    =   1.00  1.00  1.00
   NELECT =      32.0000    total number of electrons
   NUPDOWN=      -1.0000    fix difference up-down

 DOS related values:
   EMIN   =  10.00;   EMAX   =-10.00  energy-range for DOS
   EFERMI =   0.00
   ISMEAR =    -5;   SIGMA  =   0.20  broadening in eV -4-tet -1-fermi 0-gaus

 Electronic relaxation 2 (details)
   IALGO  =     68    algorithm
   LDIAG  =      T    sub-space diagonalisation (order eigenvalues)
   LSUBROT=      F    optimize rotation matrix (better conditioning)
   TURBO    =      0    0=normal 1=particle mesh
   IRESTART =      0    0=no restart 2=restart with 2 vectors
   NREBOOT  =      0    no. of reboots
   NMIN     =      0    reboot dimension
   EREF     =   0.00    reference energy to select bands
   IMIX   =      4    mixing-type and parameters
     AMIX     =   0.40;   BMIX     =  1.00
     AMIX_MAG =   1.60;   BMIX_MAG =  1.00
     AMIN     =   0.10
     WC   =   100.;   INIMIX=   1;  MIXPRE=   1;  MAXMIX= -45

 Intra band minimization:
   WEIMIN = 0.0000     energy-eigenvalue tresh-hold
   EBREAK =  0.13E-06  absolut break condition
   DEPER  =   0.30     relativ break condition  

   TIME   =   0.40     timestep for ELM

  volume/ion in A,a.u.               =      11.91        80.39
  Fermi-wavevector in a.u.,A,eV,Ry     =   1.330885  2.515009 24.099399  1.771256
  Thomas-Fermi vector in A             =   2.459938
 
 Write flags
   LWAVE        =      F    write WAVECAR
   LDOWNSAMPLE  =      F    k-point downsampling of WAVECAR
   LCHARG       =      T    write CHGCAR
   LVTOT        =      F    write LOCPOT, total local potential
   LVHAR        =      F    write LOCPOT, Hartree potential only
   LELF         =      F    write electronic localiz. function (ELF)
   LORBIT       =      0    0 simple, 1 ext, 2 COOP (PROOUT), +10 PAW based schemes


 Dipole corrections
   LMONO  =      F    monopole corrections only (constant potential shift)
   LDIPOL =      F    correct potential (dipole corrections)
   IDIPOL =      0    1-x, 2-y, 3-z, 4-all directions 
   EPSILON=  1.0000000 bulk dielectric constant

 Exchange correlation treatment:
   GGA     =    --    GGA type
   LEXCH   =     8    internal setting for exchange type
   VOSKOWN=      0    Vosko Wilk Nusair interpolation
   LHFCALC =     F    Hartree Fock is set to
   LHFONE  =     F    Hartree Fock one center treatment
   AEXX    =    0.0000 exact exchange contribution

 Linear response parameters
   LEPSILON=     F    determine dielectric tensor
   LRPA    =     F    only Hartree local field effects (RPA)
   LNABLA  =     F    use nabla operator in PAW spheres
   LVEL    =     F    velocity operator in full k-point grid
   LINTERFAST=   F  fast interpolation
   KINTER  =     0    interpolate to denser k-point grid
   CSHIFT  =0.1000    complex shift for real part using Kramers Kronig
   OMEGAMAX=  -1.0    maximum frequency
   DEG_THRESHOLD= 0.2000000E-02 threshold for treating states as degnerate
   RTIME   =   -0.100 relaxation time in fs
  (WPLASMAI=    0.000 imaginary part of plasma frequency in eV, 0.658/RTIME)
   DFIELD  = 0.0000000 0.0000000 0.0000000 field for delta impulse in time
 
 Orbital magnetization related:
   ORBITALMAG=     F  switch on orbital magnetization
   LCHIMAG   =     F  perturbation theory with respect to B field
   DQ        =  0.001000  dq finite difference perturbation B field
   LLRAUG    =     F  two centre corrections for induced B field



--------------------------------------------------------------------------------------------------------


 Static calculation
 charge density and potential will be updated during run
 non-spin polarized calculation
 RMM-DIIS sequential band-by-band and
  variant of blocked Davidson during initial phase
 perform sub-space diagonalisation
    before iterative eigenvector-optimisation
 modified Broyden-mixing scheme, WC =      100.0
 initial mixing is a Kerker type mixing with AMIX =  0.4000 and BMIX =      1.0000
 Hartree-type preconditioning will be used
 using additional bands            4
 reciprocal scheme for non local part
 use partial core corrections
 calculate Harris-corrections to forces 
   (improved forces if not selfconsistent)
 use gradient corrections 
 use of overlap-Matrix (Vanderbilt PP)
 Fermi weights with tetrahedron method with Bloechl corrections


--------------------------------------------------------------------------------------------------------


  energy-cutoff  :      600.00
  volume of cell :       59.56
      direct lattice vectors                 reciprocal lattice vectors
     3.905268000  0.000000000  0.000000000     0.256064373  0.000000000  0.000000000
     0.000000000  3.905268000  0.000000000     0.000000000  0.256064373  0.000000000
     0.000000000  0.000000000  3.905268000     0.000000000  0.000000000  0.256064373

  length of vectors
     3.905268000  3.905268000  3.905268000     0.256064373  0.256064373  0.256064373


 
 k-points in units of 2pi/SCALE and weight: k-density: 4.0                          
   0.00000000  0.00000000  0.00000000       0.003
   0.03658062  0.00000000  0.00000000       0.017
   0.07316125  0.00000000  0.00000000       0.017
   0.10974187  0.00000000  0.00000000       0.017
   0.03658062  0.03658062  0.00000000       0.035
   0.07316125  0.03658062  0.00000000       0.070
   0.10974187  0.03658062  0.00000000       0.070
   0.07316125  0.07316125  0.00000000       0.035
   0.10974187  0.07316125  0.00000000       0.070
   0.10974187  0.10974187  0.00000000       0.035
   0.03658062  0.03658062  0.03658062       0.023
   0.07316125  0.03658062  0.03658062       0.070
   0.10974187  0.03658062  0.03658062       0.070
   0.07316125  0.07316125  0.03658062       0.070
   0.10974187  0.07316125  0.03658062       0.140
   0.10974187  0.10974187  0.03658062       0.070
   0.07316125  0.07316125  0.07316125       0.023
   0.10974187  0.07316125  0.07316125       0.070
   0.10974187  0.10974187  0.07316125       0.070
   0.10974187  0.10974187  0.10974187       0.023
 
 k-points in reciprocal lattice and weights: k-density: 4.0                          
   0.00000000  0.00000000  0.00000000       0.003
   0.14285714  0.00000000  0.00000000       0.017
   0.28571429  0.00000000  0.00000000       0.017
   0.42857143  0.00000000  0.00000000       0.017
   0.14285714  0.14285714  0.00000000       0.035
   0.28571429  0.14285714  0.00000000       0.070
   0.42857143  0.14285714  0.00000000       0.070
   0.28571429  0.28571429  0.00000000       0.035
   0.42857143  0.28571429  0.00000000       0.070
   0.42857143  0.42857143  0.00000000       0.035
   0.14285714  0.14285714  0.14285714       0.023
   0.28571429  0.14285714  0.14285714       0.070
   0.42857143  0.14285714  0.14285714       0.070
   0.28571429  0.28571429  0.14285714       0.070
   0.42857143  0.28571429  0.14285714       0.140
   0.42857143  0.42857143  0.14285714       0.070
   0.28571429  0.28571429  0.28571429       0.023
   0.42857143  0.28571429  0.28571429       0.070
   0.42857143  0.42857143  0.28571429       0.070
   0.42857143  0.42857143  0.42857143       0.023
 
 position of ions in fractional coordinates (direct lattice) 
   0.00000000  0.00000000  0.00000000
   0.50000000  0.50000000  0.50000000
   0.50000000  0.50000000  0.00000000
   0.50000000  0.00000000  0.50000000
   0.00000000  0.50000000  0.50000000
 
 position of ions in cartesian coordinates  (Angst):
   0.00000000  0.00000000  0.00000000
   1.95263400  1.95263400  1.95263400
   1.95263400  1.95263400  0.00000000
   1.95263400  0.00000000  1.95263400
   0.00000000  1.95263400  1.95263400
 


--------------------------------------------------------------------------------------------------------


 k-point  1 :   0.0000 0.0000 0.0000  plane waves:    1935
 k-point  2 :   0.1429 0.0000 0.0000  plane waves:    1983
 k-point  3 :   0.2857 0.0000 0.0000  plane waves:    1980
 k-point  4 :   0.4286 0.0000 0.0000  plane waves:    1988
 k-point  5 :   0.1429 0.1429 0.0000  plane waves:    1987
 k-point  6 :   0.2857 0.1429 0.0000  plane waves:    1983
 k-point  7 :   0.4286 0.1429 0.0000  plane waves:    1997
 k-point  8 :   0.2857 0.2857 0.0000  plane waves:    1989
 k-point  9 :   0.4286 0.2857 0.0000  plane waves:    2002
 k-point 10 :   0.4286 0.4286 0.0000  plane waves:    1985
 k-point 11 :   0.1429 0.1429 0.1429  plane waves:    1977
 k-point 12 :   0.2857 0.1429 0.1429  plane waves:    1989
 k-point 13 :   0.4286 0.1429 0.1429  plane waves:    1982
 k-point 14 :   0.2857 0.2857 0.1429  plane waves:    1986
 k-point 15 :   0.4286 0.2857 0.1429  plane waves:    1989
 k-point 16 :   0.4286 0.4286 0.1429  plane waves:    2001
 k-point 17 :   0.2857 0.2857 0.2857  plane waves:    1986
 k-point 18 :   0.4286 0.2857 0.2857  plane waves:    1996
 k-point 19 :   0.4286 0.4286 0.2857  plane waves:    1989
 k-point 20 :   0.4286 0.4286 0.4286  plane waves:    1974

 maximum and minimum number of plane-waves per node :      1010      960

 maximum number of plane-waves:      2002
 maximum index in each direction: 
   IXMAX=    7   IYMAX=    7   IZMAX=    7
   IXMIN=   -8   IYMIN=   -8   IZMIN=   -8


 parallel 3D FFT for wavefunctions:
    minimum data exchange during FFTs selected (reduces bandwidth)
 parallel 3D FFT for charge:
    minimum data exchange during FFTs selected (reduces bandwidth)


 total amount of memory used by VASP MPI-rank0    45382. kBytes
=======================================================================

   base      :      30000. kBytes
   nonl-proj :       8737. kBytes
   fftplans  :       1179. kBytes
   grid      :       2105. kBytes
   one-center:         46. kBytes
   wavefun   :       3315. kBytes
 
     INWAV:  cpu time    0.0000: real time    0.0002
 Broyden mixing: mesh for mixing (old mesh)
   NGX = 15   NGY = 15   NGZ = 15
  (NGX  = 48   NGY  = 48   NGZ  = 48)
  gives a total of   3375 points

 initial charge density was supplied:
 charge density of overlapping atoms calculated
 number of electron      32.0000000 magnetization 
 keeping initial charge density in first step


--------------------------------------------------------------------------------------------------------


 Maximum index for augmentation-charges         3835 (set IRDMAX)


--------------------------------------------------------------------------------------------------------


 First call to EWALD:  gamma=   0.454
 Maximum number of real-space cells 3x 3x 3
 Maximum number of reciprocal cells 3x 3x 3

    FEWALD:  cpu time    0.0010: real time    0.0015


--------------------------------------- Iteration      1(   1)  ---------------------------------------


    POTLOK:  cpu time    0.0190: real time    0.5155
    SETDIJ:  cpu time    0.0050: real time    0.0047
     EDDAV:  cpu time    0.2710: real time    0.2717
 BZINTS: Fermi energy: 20.095407; 32.000000 electrons
         Band energy: 119.831189;  BLOECHL correction: -0.277156
       DOS:  cpu time    0.0060: real time    0.0055
    --------------------------------------------
      LOOP:  cpu time    0.3010: real time    0.7974

 eigenvalue-minimisations  :   800
 total energy-change (2. order) : 0.3334937E+03  (-0.1723870E+04)
 number of electron      32.0000000 magnetization 
 augmentation part       32.0000000 magnetization 

 Free energy of the ion-electron system (eV)
  ---------------------------------------------------
  alpha Z        PSCENC =       185.39985751
  Ewald energy   TEWEN  =     -1934.07799583
  -Hartree energ DENC   =      -403.14003404
  -exchange      EXHF   =         0.00000000
  -V(xc)+E(xc)   XCENC  =        82.31788258
  PAW double counting   =      1333.61297253    -1284.78446064
  entropy T*S    EENTRO =         0.00000000
  eigenvalues    EBANDS =       119.83118858
  atomic energy  EATOM  =      2234.33426835
  Solvation  Ediel_sol  =         0.00000000
  ---------------------------------------------------
  free energy    TOTEN  =       333.49367904 eV

  energy without entropy =      333.49367904  energy(sigma->0) =      333.49367904


--------------------------------------------------------------------------------------------------------




--------------------------------------- Iteration      1(   2)  ---------------------------------------


     EDDAV:  cpu time    0.3549: real time    0.3547
 BZINTS: Fermi energy:  8.916567; 32.000000 electrons
         Band energy:-229.011220;  BLOECHL correction: -0.015860
       DOS:  cpu time    0.0050: real time    0.0050
    --------------------------------------------
      LOOP:  cpu time    0.3599: real time    0.3597

 eigenvalue-minimisations  :  1108
 total energy-change (2. order) :-0.3488424E+03  (-0.3368333E+03)
 number of electron      32.0000000 magnetization 
 augmentation part       32.0000000 magnetization 

 Free energy of the ion-electron system (eV)
  ---------------------------------------------------
  alpha Z        PSCENC =       185.39985751
  Ewald energy   TEWEN  =     -1934.07799583
  -Hartree energ DENC   =      -403.14003404
  -exchange      EXHF   =         0.00000000
  -V(xc)+E(xc)   XCENC  =        82.31788258
  PAW double counting   =      1333.61297253    -1284.78446064
  entropy T*S    EENTRO =         0.00000000
  eigenvalues    EBANDS =      -229.01122047
  atomic energy  EATOM  =      2234.33426835
  Solvation  Ediel_sol  =         0.00000000
  ---------------------------------------------------
  free energy    TOTEN  =       -15.34873001 eV

  energy without entropy =      -15.34873001  energy(sigma->0) =      -15.34873001


--------------------------------------------------------------------------------------------------------




--------------------------------------- Iteration      1(   3)  ---------------------------------------


     EDDAV:  cpu time    0.3180: real time    0.3193
 BZINTS: Fermi energy:  0.293537; 32.000000 electrons
         Band energy:-262.642724;  BLOECHL correction:  0.000000
       DOS:  cpu time    0.0010: real time    0.0015
    --------------------------------------------
      LOOP:  cpu time    0.3190: real time    0.3208

 eigenvalue-minimisations  :   992
 total energy-change (2. order) :-0.3363150E+02  (-0.3337658E+02)
 number of electron      32.0000000 magnetization 
 augmentation part       32.0000000 magnetization 

 Free energy of the ion-electron system (eV)
  ---------------------------------------------------
  alpha Z        PSCENC =       185.39985751
  Ewald energy   TEWEN  =     -1934.07799583
  -Hartree energ DENC   =      -403.14003404
  -exchange      EXHF   =         0.00000000
  -V(xc)+E(xc)   XCENC  =        82.31788258
  PAW double counting   =      1333.61297253    -1284.78446064
  entropy T*S    EENTRO =         0.00000000
  eigenvalues    EBANDS =      -262.64272409
  atomic energy  EATOM  =      2234.33426835
  Solvation  Ediel_sol  =         0.00000000
  ---------------------------------------------------
  free energy    TOTEN  =       -48.98023363 eV

  energy without entropy =      -48.98023363  energy(sigma->0) =      -48.98023363


--------------------------------------------------------------------------------------------------------




--------------------------------------- Iteration      1(   4)  ---------------------------------------


     EDDAV:  cpu time    0.4129: real time    0.4138
 BZINTS: Fermi energy: -0.495203; 32.000000 electrons
         Band energy:-263.865355;  BLOECHL correction:  0.000000
       DOS:  cpu time    0.0000: real time    0.0011
    --------------------------------------------
      LOOP:  cpu time    0.4129: real time    0.4149

 eigenvalue-minimisations  :  1336
 total energy-change (2. order) :-0.1222630E+01  (-0.1221085E+01)
 number of electron      32.0000000 magnetization 
 augmentation part       32.0000000 magnetization 

 Free energy of the ion-electron system (eV)
  ---------------------------------------------------
  alpha Z        PSCENC =       185.39985751
  Ewald energy   TEWEN  =     -1934.07799583
  -Hartree energ DENC   =      -403.14003404
  -exchange      EXHF   =         0.00000000
  -V(xc)+E(xc)   XCENC  =        82.31788258
  PAW double counting   =      1333.61297253    -1284.78446064
  entropy T*S    EENTRO =         0.00000000
  eigenvalues    EBANDS =      -263.86535453
  atomic energy  EATOM  =      2234.33426835
  Solvation  Ediel_sol  =         0.00000000
  ---------------------------------------------------
  free energy    TOTEN  =       -50.20286407 eV

  energy without entropy =      -50.20286407  energy(sigma->0) =      -50.20286407


--------------------------------------------------------------------------------------------------------




--------------------------------------- Iteration      1(   5)  ---------------------------------------


     EDDAV:  cpu time    0.3310: real time    0.3307
 BZINTS: Fermi energy: -0.506101; 32.000000 electrons
         Band energy:-263.894002;  BLOECHL correction:  0.000000
       DOS:  cpu time    0.0010: real time    0.0009
    CHARGE:  cpu time    0.0200: real time    0.0197
    MIXING:  cpu time    0.0010: real time    0.0005
    --------------------------------------------
      LOOP:  cpu time    0.3529: real time    0.3519

 eigenvalue-minimisations  :  1044
 total energy-change (2. order) :-0.2864715E-01  (-0.2863504E-01)
 number of electron      31.9999897 magnetization 
 augmentation part        3.4008518 magnetization 

 Broyden mixing:
  rms(total) = 0.18261E+01    rms(broyden)= 0.18259E+01
  rms(prec ) = 0.47646E+01
  weight for this iteration     100.00

 Free energy of the ion-electron system (eV)
  ---------------------------------------------------
  alpha Z        PSCENC =       185.39985751
  Ewald energy   TEWEN  =     -1934.07799583
  -Hartree energ DENC   =      -403.14003404
  -exchange      EXHF   =         0.00000000
  -V(xc)+E(xc)   XCENC  =        82.31788258
  PAW double counting   =      1333.61297253    -1284.78446064
  entropy T*S    EENTRO =         0.00000000
  eigenvalues    EBANDS =      -263.89400168
  atomic energy  EATOM  =      2234.33426835
  Solvation  Ediel_sol  =         0.00000000
  ---------------------------------------------------
  free energy    TOTEN  =       -50.23151122 eV

  energy without entropy =      -50.23151122  energy(sigma->0) =      -50.23151122


--------------------------------------------------------------------------------------------------------




--------------------------------------- Iteration      1(   6)  ---------------------------------------


    POTLOK:  cpu time    0.0150: real time    0.0170
    SETDIJ:  cpu time    0.0050: real time    0.0043
    EDDIAG:  cpu time    0.0560: real time    0.0569
  RMM-DIIS:  cpu time    0.2000: real time    0.1992
    ORTHCH:  cpu time    0.0060: real time    0.0068
 BZINTS: Fermi energy:  3.311711; 32.000000 electrons
         Band energy:-200.906893;  BLOECHL correction:  0.000000
       DOS:  cpu time    0.0010: real time    0.0011
    CHARGE:  cpu time    0.0200: real time    0.0193
    MIXING:  cpu time    0.0000: real time    0.0006
    --------------------------------------------
      LOOP:  cpu time    0.3030: real time    0.3051

 eigenvalue-minimisations  :   862
 total energy-change (2. order) : 0.9826730E+01  (-0.5829622E+01)
 number of electron      31.9999925 magnetization 
 augmentation part        3.4776155 magnetization 

 Broyden mixing:
  rms(total) = 0.62534E+00    rms(broyden)= 0.62481E+00
  rms(prec ) = 0.11400E+01
  weight for this iteration     100.00

 eigenvalues of (default mixing * dielectric matrix)
  average eigenvalue GAMMA=   0.7953
  0.7953

 Free energy of the ion-electron system (eV)
  ---------------------------------------------------
  alpha Z        PSCENC =       185.39985751
  Ewald energy   TEWEN  =     -1934.07799583
  -Hartree energ DENC   =      -457.86869951
  -exchange      EXHF   =         0.00000000
  -V(xc)+E(xc)   XCENC  =        87.11068736
  PAW double counting   =      1487.19017382    -1441.58617951
  entropy T*S    EENTRO =         0.00000000
  eigenvalues    EBANDS =      -200.90689306
  atomic energy  EATOM  =      2234.33426835
  Solvation  Ediel_sol  =         0.00000000
  ---------------------------------------------------
  free energy    TOTEN  =       -40.40478086 eV

  energy without entropy =      -40.40478086  energy(sigma->0) =      -40.40478086


--------------------------------------------------------------------------------------------------------




--------------------------------------- Iteration      1(   7)  ---------------------------------------


    POTLOK:  cpu time    0.0160: real time    0.0161
    SETDIJ:  cpu time    0.0040: real time    0.0042
    EDDIAG:  cpu time    0.0570: real time    0.0567
  RMM-DIIS:  cpu time    0.2230: real time    0.2228
    ORTHCH:  cpu time    0.0060: real time    0.0069
 BZINTS: Fermi energy:  2.726644; 32.000000 electrons
         Band energy:-210.455968;  BLOECHL correction:  0.000000
       DOS:  cpu time    0.0010: real time    0.0011
    CHARGE:  cpu time    0.0190: real time    0.0193
    MIXING:  cpu time    0.0020: real time    0.0006
    --------------------------------------------
      LOOP:  cpu time    0.3280: real time    0.3276

 eigenvalue-minimisations  :   951
 total energy-change (2. order) : 0.6048606E+00  (-0.1528081E+00)
 number of electron      31.9999922 magnetization 
 augmentation part        3.3941212 magnetization 

 Broyden mixing:
  rms(total) = 0.32208E+00    rms(broyden)= 0.32206E+00
  rms(prec ) = 0.56762E+00
  weight for this iteration     100.00

 eigenvalues of (default mixing * dielectric matrix)
  average eigenvalue GAMMA=   1.7029
  0.8828  2.5230

 Free energy of the ion-electron system (eV)
  ---------------------------------------------------
  alpha Z        PSCENC =       185.39985751
  Ewald energy   TEWEN  =     -1934.07799583
  -Hartree energ DENC   =      -445.57854102
  -exchange      EXHF   =         0.00000000
  -V(xc)+E(xc)   XCENC  =        86.24253209
  PAW double counting   =      1497.61170436    -1453.27577752
  entropy T*S    EENTRO =         0.00000000
  eigenvalues    EBANDS =      -210.45596816
  atomic energy  EATOM  =      2234.33426835
  Solvation  Ediel_sol  =         0.00000000
  ---------------------------------------------------
  free energy    TOTEN  =       -39.79992022 eV

  energy without entropy =      -39.79992022  energy(sigma->0) =      -39.79992022


--------------------------------------------------------------------------------------------------------




--------------------------------------- Iteration      1(   8)  ---------------------------------------


    POTLOK:  cpu time    0.0150: real time    0.0160
    SETDIJ:  cpu time    0.0040: real time    0.0043
    EDDIAG:  cpu time    0.0570: real time    0.0564
  RMM-DIIS:  cpu time    0.2230: real time    0.2237
    ORTHCH:  cpu time    0.0070: real time    0.0069
 BZINTS: Fermi energy:  2.416865; 32.000000 electrons
         Band energy:-216.636202;  BLOECHL correction:  0.000000
       DOS:  cpu time    0.0010: real time    0.0010
    CHARGE:  cpu time    0.0200: real time    0.0196
    MIXING:  cpu time    0.0010: real time    0.0006
    --------------------------------------------
      LOOP:  cpu time    0.3279: real time    0.3286

 eigenvalue-minimisations  :   958
 total energy-change (2. order) : 0.8247235E-01  (-0.9462553E-01)
 number of electron      31.9999920 magnetization 
 augmentation part        3.4548592 magnetization 

 Broyden mixing:
  rms(total) = 0.83020E-01    rms(broyden)= 0.82955E-01
  rms(prec ) = 0.18798E+00
  weight for this iteration     100.00

 eigenvalues of (default mixing * dielectric matrix)
  average eigenvalue GAMMA=   1.3282
  2.2946  0.8450  0.8450

 Free energy of the ion-electron system (eV)
  ---------------------------------------------------
  alpha Z        PSCENC =       185.39985751
  Ewald energy   TEWEN  =     -1934.07799583
  -Hartree energ DENC   =      -436.97241351
  -exchange      EXHF   =         0.00000000
  -V(xc)+E(xc)   XCENC  =        85.90036408
  PAW double counting   =      1545.94525185    -1503.61057858
  entropy T*S    EENTRO =         0.00000000
  eigenvalues    EBANDS =      -216.63620173
  atomic energy  EATOM  =      2234.33426835
  Solvation  Ediel_sol  =         0.00000000
  ---------------------------------------------------
  free energy    TOTEN  =       -39.71744787 eV

  energy without entropy =      -39.71744787  energy(sigma->0) =      -39.71744787


--------------------------------------------------------------------------------------------------------




--------------------------------------- Iteration      1(   9)  ---------------------------------------


    POTLOK:  cpu time    0.0270: real time    0.0294
    SETDIJ:  cpu time    0.0040: real time    0.0043
    EDDIAG:  cpu time    0.0560: real time    0.0572
  RMM-DIIS:  cpu time    0.2590: real time    0.2587
    ORTHCH:  cpu time    0.0070: real time    0.0069
 BZINTS: Fermi energy:  2.480268; 32.000000 electrons
         Band energy:-214.802749;  BLOECHL correction:  0.000000
       DOS:  cpu time    0.0010: real time    0.0009
    CHARGE:  cpu time    0.0190: real time    0.0193
    MIXING:  cpu time    0.0010: real time    0.0006
    --------------------------------------------
      LOOP:  cpu time    0.3739: real time    0.3773

 eigenvalue-minimisations  :  1100
 total energy-change (2. order) : 0.1405186E-01  (-0.5714721E-02)
 number of electron      31.9999920 magnetization 
 augmentation part        3.4460689 magnetization 

 Broyden mixing:
  rms(total) = 0.58911E-01    rms(broyden)= 0.58909E-01
  rms(prec ) = 0.13012E+00
  weight for this iteration     100.00

 eigenvalues of (default mixing * dielectric matrix)
  average eigenvalue GAMMA=   1.5059
  0.9098  0.9098  2.1020  2.1020

 Free energy of the ion-electron system (eV)
  ---------------------------------------------------
  alpha Z        PSCENC =       185.39985751
  Ewald energy   TEWEN  =     -1934.07799583
  -Hartree energ DENC   =      -438.76745297
  -exchange      EXHF   =         0.00000000
  -V(xc)+E(xc)   XCENC  =        86.02953348
  PAW double counting   =      1553.58714358    -1511.40600105
  entropy T*S    EENTRO =         0.00000000
  eigenvalues    EBANDS =      -214.80274907
  atomic energy  EATOM  =      2234.33426835
  Solvation  Ediel_sol  =         0.00000000
  ---------------------------------------------------
  free energy    TOTEN  =       -39.70339601 eV

  energy without entropy =      -39.70339601  energy(sigma->0) =      -39.70339601


--------------------------------------------------------------------------------------------------------




--------------------------------------- Iteration      1(  10)  ---------------------------------------


    POTLOK:  cpu time    0.0150: real time    0.0162
    SETDIJ:  cpu time    0.0050: real time    0.0043
    EDDIAG:  cpu time    0.0560: real time    0.0564
  RMM-DIIS:  cpu time    0.2200: real time    0.2201
    ORTHCH:  cpu time    0.0070: real time    0.0068
 BZINTS: Fermi energy:  2.636578; 32.000000 electrons
         Band energy:-211.646768;  BLOECHL correction:  0.000000
       DOS:  cpu time    0.0000: real time    0.0009
    CHARGE:  cpu time    0.0200: real time    0.0194
    MIXING:  cpu time    0.0010: real time    0.0007
    --------------------------------------------
      LOOP:  cpu time    0.3240: real time    0.3248

 eigenvalue-minimisations  :   966
 total energy-change (2. order) : 0.4414115E-02  (-0.1215742E-01)
 number of electron      31.9999921 magnetization 
 augmentation part        3.4156793 magnetization 

 Broyden mixing:
  rms(total) = 0.29167E-01    rms(broyden)= 0.29146E-01
  rms(prec ) = 0.57207E-01
  weight for this iteration     100.00

 eigenvalues of (default mixing * dielectric matrix)
  average eigenvalue GAMMA=   1.4061
  2.4867  0.8890  1.0690  1.2929  1.2929

 Free energy of the ion-electron system (eV)
  ---------------------------------------------------
  alpha Z        PSCENC =       185.39985751
  Ewald energy   TEWEN  =     -1934.07799583
  -Hartree energ DENC   =      -442.18209706
  -exchange      EXHF   =         0.00000000
  -V(xc)+E(xc)   XCENC  =        86.23637693
  PAW double counting   =      1559.79750965    -1517.56013313
  entropy T*S    EENTRO =         0.00000000
  eigenvalues    EBANDS =      -211.64676831
  atomic energy  EATOM  =      2234.33426835
  Solvation  Ediel_sol  =         0.00000000
  ---------------------------------------------------
  free energy    TOTEN  =       -39.69898189 eV

  energy without entropy =      -39.69898189  energy(sigma->0) =      -39.69898189


--------------------------------------------------------------------------------------------------------




--------------------------------------- Iteration      1(  11)  ---------------------------------------


    POTLOK:  cpu time    0.0150: real time    0.0160
    SETDIJ:  cpu time    0.0050: real time    0.0043
    EDDIAG:  cpu time    0.0550: real time    0.0556
  RMM-DIIS:  cpu time    0.2450: real time    0.2442
    ORTHCH:  cpu time    0.0060: real time    0.0068
 BZINTS: Fermi energy:  2.609880; 32.000000 electrons
         Band energy:-212.485897;  BLOECHL correction:  0.000000
       DOS:  cpu time    0.0010: real time    0.0010
    CHARGE:  cpu time    0.0200: real time    0.0194
    MIXING:  cpu time    0.0010: real time    0.0007
    --------------------------------------------
      LOOP:  cpu time    0.3479: real time    0.3479

 eigenvalue-minimisations  :  1067
 total energy-change (2. order) : 0.1326217E-02  (-0.1154634E-02)
 number of electron      31.9999921 magnetization 
 augmentation part        3.4176719 magnetization 

 Broyden mixing:
  rms(total) = 0.72547E-02    rms(broyden)= 0.72543E-02
  rms(prec ) = 0.15566E-01
  weight for this iteration     100.00

 eigenvalues of (default mixing * dielectric matrix)
  average eigenvalue GAMMA=   1.5285
  2.2752  2.0301  2.0301  0.8668  0.9845  0.9845

 Free energy of the ion-electron system (eV)
  ---------------------------------------------------
  alpha Z        PSCENC =       185.39985751
  Ewald energy   TEWEN  =     -1934.07799583
  -Hartree energ DENC   =      -441.26737909
  -exchange      EXHF   =         0.00000000
  -V(xc)+E(xc)   XCENC  =        86.18925413
  PAW double counting   =      1560.78901684    -1518.57878069
  entropy T*S    EENTRO =         0.00000000
  eigenvalues    EBANDS =      -212.48589689
  atomic energy  EATOM  =      2234.33426835
  Solvation  Ediel_sol  =         0.00000000
  ---------------------------------------------------
  free energy    TOTEN  =       -39.69765567 eV

  energy without entropy =      -39.69765567  energy(sigma->0) =      -39.69765567


--------------------------------------------------------------------------------------------------------




--------------------------------------- Iteration      1(  12)  ---------------------------------------


    POTLOK:  cpu time    0.0150: real time    0.0160
    SETDIJ:  cpu time    0.0050: real time    0.0042
    EDDIAG:  cpu time    0.0550: real time    0.0561
  RMM-DIIS:  cpu time    0.2450: real time    0.2448
    ORTHCH:  cpu time    0.0070: real time    0.0068
 BZINTS: Fermi energy:  2.624916; 32.000000 electrons
         Band energy:-213.073051;  BLOECHL correction:  0.000000
       DOS:  cpu time    0.0000: real time    0.0011
    CHARGE:  cpu time    0.0200: real time    0.0193
    MIXING:  cpu time    0.0010: real time    0.0007
    --------------------------------------------
      LOOP:  cpu time    0.3479: real time    0.3490

 eigenvalue-minimisations  :  1076
 total energy-change (2. order) :-0.7492593E-03  (-0.7827443E-03)
 number of electron      31.9999921 magnetization 
 augmentation part        3.4184386 magnetization 

 Broyden mixing:
  rms(total) = 0.14757E-01    rms(broyden)= 0.14755E-01
  rms(prec ) = 0.32589E-01
  weight for this iteration     100.00

 eigenvalues of (default mixing * dielectric matrix)
  average eigenvalue GAMMA=   1.5380
  2.8105  2.1219  1.5296  1.2423  1.2423  0.9097  0.9097

 Free energy of the ion-electron system (eV)
  ---------------------------------------------------
  alpha Z        PSCENC =       185.39985751
  Ewald energy   TEWEN  =     -1934.07799583
  -Hartree energ DENC   =      -440.75905255
  -exchange      EXHF   =         0.00000000
  -V(xc)+E(xc)   XCENC  =        86.15502121
  PAW double counting   =      1559.39548724    -1517.07293985
  entropy T*S    EENTRO =         0.00000000
  eigenvalues    EBANDS =      -213.07305101
  atomic energy  EATOM  =      2234.33426835
  Solvation  Ediel_sol  =         0.00000000
  ---------------------------------------------------
  free energy    TOTEN  =       -39.69840493 eV

  energy without entropy =      -39.69840493  energy(sigma->0) =      -39.69840493


--------------------------------------------------------------------------------------------------------




--------------------------------------- Iteration      1(  13)  ---------------------------------------


    POTLOK:  cpu time    0.0160: real time    0.0166
    SETDIJ:  cpu time    0.0040: real time    0.0043
    EDDIAG:  cpu time    0.0560: real time    0.0560
  RMM-DIIS:  cpu time    0.2400: real time    0.2393
    ORTHCH:  cpu time    0.0060: real time    0.0068
 BZINTS: Fermi energy:  2.625885; 32.000000 electrons
         Band energy:-212.458221;  BLOECHL correction:  0.000000
       DOS:  cpu time    0.0010: real time    0.0011
    CHARGE:  cpu time    0.0200: real time    0.0194
    MIXING:  cpu time    0.0000: real time    0.0008
    --------------------------------------------
      LOOP:  cpu time    0.3429: real time    0.3441

 eigenvalue-minimisations  :  1055
 total energy-change (2. order) : 0.2956869E-03  (-0.5088684E-03)
 number of electron      31.9999921 magnetization 
 augmentation part        3.4168250 magnetization 

 Broyden mixing:
  rms(total) = 0.49739E-02    rms(broyden)= 0.49693E-02
  rms(prec ) = 0.13039E-01
  weight for this iteration     100.00

 eigenvalues of (default mixing * dielectric matrix)
  average eigenvalue GAMMA=   1.5705
  2.5205  2.3172  2.3172  1.2764  1.2764  1.2044  0.8259  0.8259

 Free energy of the ion-electron system (eV)
  ---------------------------------------------------
  alpha Z        PSCENC =       185.39985751
  Ewald energy   TEWEN  =     -1934.07799583
  -Hartree energ DENC   =      -441.40564649
  -exchange      EXHF   =         0.00000000
  -V(xc)+E(xc)   XCENC  =        86.20165407
  PAW double counting   =      1561.21656418    -1518.90859039
  entropy T*S    EENTRO =         0.00000000
  eigenvalues    EBANDS =      -212.45822065
  atomic energy  EATOM  =      2234.33426835
  Solvation  Ediel_sol  =         0.00000000
  ---------------------------------------------------
  free energy    TOTEN  =       -39.69810925 eV

  energy without entropy =      -39.69810925  energy(sigma->0) =      -39.69810925


--------------------------------------------------------------------------------------------------------




--------------------------------------- Iteration      1(  14)  ---------------------------------------


    POTLOK:  cpu time    0.0160: real time    0.0161
    SETDIJ:  cpu time    0.0040: real time    0.0042
    EDDIAG:  cpu time    0.0560: real time    0.0558
  RMM-DIIS:  cpu time    0.2320: real time    0.2317
    ORTHCH:  cpu time    0.0060: real time    0.0071
 BZINTS: Fermi energy:  2.623847; 32.000000 electrons
         Band energy:-212.548581;  BLOECHL correction:  0.000000
       DOS:  cpu time    0.0020: real time    0.0011
    CHARGE:  cpu time    0.0190: real time    0.0194
    MIXING:  cpu time    0.0010: real time    0.0008
    --------------------------------------------
      LOOP:  cpu time    0.3359: real time    0.3362

 eigenvalue-minimisations  :   994
 total energy-change (2. order) :-0.1427477E-04  (-0.1188883E-03)
 number of electron      31.9999921 magnetization 
 augmentation part        3.4132334 magnetization 

 Broyden mixing:
  rms(total) = 0.21301E-02    rms(broyden)= 0.21298E-02
  rms(prec ) = 0.58216E-02
  weight for this iteration     100.00

 eigenvalues of (default mixing * dielectric matrix)
  average eigenvalue GAMMA=   1.6245
  3.2972  2.7114  2.7114  1.2156  1.2156  1.0179  0.9112  0.7700  0.7700

 Free energy of the ion-electron system (eV)
  ---------------------------------------------------
  alpha Z        PSCENC =       185.39985751
  Ewald energy   TEWEN  =     -1934.07799583
  -Hartree energ DENC   =      -441.32092222
  -exchange      EXHF   =         0.00000000
  -V(xc)+E(xc)   XCENC  =        86.19199140
  PAW double counting   =      1560.97881931    -1518.65556055
  entropy T*S    EENTRO =         0.00000000
  eigenvalues    EBANDS =      -212.54858148
  atomic energy  EATOM  =      2234.33426835
  Solvation  Ediel_sol  =         0.00000000
  ---------------------------------------------------
  free energy    TOTEN  =       -39.69812352 eV

  energy without entropy =      -39.69812352  energy(sigma->0) =      -39.69812352


--------------------------------------------------------------------------------------------------------




--------------------------------------- Iteration      1(  15)  ---------------------------------------


    POTLOK:  cpu time    0.0150: real time    0.0157
    SETDIJ:  cpu time    0.0050: real time    0.0043
    EDDIAG:  cpu time    0.0560: real time    0.0562
  RMM-DIIS:  cpu time    0.2130: real time    0.2125
    ORTHCH:  cpu time    0.0060: real time    0.0069
 BZINTS: Fermi energy:  2.624304; 32.000000 electrons
         Band energy:-212.524957;  BLOECHL correction:  0.000000
       DOS:  cpu time    0.0010: real time    0.0010
    CHARGE:  cpu time    0.0200: real time    0.0193
    MIXING:  cpu time    0.0010: real time    0.0008
    --------------------------------------------
      LOOP:  cpu time    0.3170: real time    0.3168

 eigenvalue-minimisations  :   902
 total energy-change (2. order) :-0.2270345E-04  (-0.3941669E-04)
 number of electron      31.9999921 magnetization 
 augmentation part        3.4135968 magnetization 

 Broyden mixing:
  rms(total) = 0.17987E-02    rms(broyden)= 0.17985E-02
  rms(prec ) = 0.41031E-02
  weight for this iteration     100.00

 eigenvalues of (default mixing * dielectric matrix)
  average eigenvalue GAMMA=   1.5285
  2.9959  2.9959  2.4595  1.2126  1.2126  0.9405  0.9405  0.9797  0.8880  0.6598

 Free energy of the ion-electron system (eV)
  ---------------------------------------------------
  alpha Z        PSCENC =       185.39985751
  Ewald energy   TEWEN  =     -1934.07799583
  -Hartree energ DENC   =      -441.36415611
  -exchange      EXHF   =         0.00000000
  -V(xc)+E(xc)   XCENC  =        86.19600402
  PAW double counting   =      1561.05407789    -1518.71524534
  entropy T*S    EENTRO =         0.00000000
  eigenvalues    EBANDS =      -212.52495671
  atomic energy  EATOM  =      2234.33426835
  Solvation  Ediel_sol  =         0.00000000
  ---------------------------------------------------
  free energy    TOTEN  =       -39.69814622 eV

  energy without entropy =      -39.69814622  energy(sigma->0) =      -39.69814622


--------------------------------------------------------------------------------------------------------




--------------------------------------- Iteration      1(  16)  ---------------------------------------


    POTLOK:  cpu time    0.0150: real time    0.0159
    SETDIJ:  cpu time    0.0050: real time    0.0043
    EDDIAG:  cpu time    0.0560: real time    0.0559
  RMM-DIIS:  cpu time    0.1800: real time    0.1802
    ORTHCH:  cpu time    0.0070: real time    0.0068
 BZINTS: Fermi energy:  2.623832; 32.000000 electrons
         Band energy:-212.565560;  BLOECHL correction:  0.000000
       DOS:  cpu time    0.0010: real time    0.0010
    CHARGE:  cpu time    0.0190: real time    0.0193
    MIXING:  cpu time    0.0010: real time    0.0009
    --------------------------------------------
      LOOP:  cpu time    0.2840: real time    0.2843

 eigenvalue-minimisations  :   762
 total energy-change (2. order) :-0.1618038E-05  (-0.1056138E-04)
 number of electron      31.9999921 magnetization 
 augmentation part        3.4135085 magnetization 

 Broyden mixing:
  rms(total) = 0.81057E-03    rms(broyden)= 0.81052E-03
  rms(prec ) = 0.17599E-02
  weight for this iteration     100.00

 eigenvalues of (default mixing * dielectric matrix)
  average eigenvalue GAMMA=   1.6756
  3.8469  2.8390  2.8390  1.9119  1.2360  1.2360  1.1667  0.9211  0.9211  0.7569
  0.7569

 Free energy of the ion-electron system (eV)
  ---------------------------------------------------
  alpha Z        PSCENC =       185.39985751
  Ewald energy   TEWEN  =     -1934.07799583
  -Hartree energ DENC   =      -441.33280535
  -exchange      EXHF   =         0.00000000
  -V(xc)+E(xc)   XCENC  =        86.19370973
  PAW double counting   =      1560.93482381    -1518.58444605
  entropy T*S    EENTRO =         0.00000000
  eigenvalues    EBANDS =      -212.56556001
  atomic energy  EATOM  =      2234.33426835
  Solvation  Ediel_sol  =         0.00000000
  ---------------------------------------------------
  free energy    TOTEN  =       -39.69814784 eV

  energy without entropy =      -39.69814784  energy(sigma->0) =      -39.69814784


--------------------------------------------------------------------------------------------------------




--------------------------------------- Iteration      1(  17)  ---------------------------------------


    POTLOK:  cpu time    0.0150: real time    0.0162
    SETDIJ:  cpu time    0.0050: real time    0.0042
    EDDIAG:  cpu time    0.0550: real time    0.0562
WARNING in EDDRMM: call to ZHEGV failed, returncode =   6  3      6
  RMM-DIIS:  cpu time    0.1710: real time    0.1697
    ORTHCH:  cpu time    0.0060: real time    0.0068
 BZINTS: Fermi energy:  2.622804; 32.000000 electrons
         Band energy:-212.569002;  BLOECHL correction:  0.000000
       DOS:  cpu time    0.0010: real time    0.0010
    --------------------------------------------
      LOOP:  cpu time    0.2530: real time    0.2541

 eigenvalue-minimisations  :   723
 total energy-change (2. order) :-0.4597312E-05  (-0.5151556E-05)
 number of electron      31.9999921 magnetization 
 augmentation part        3.4135085 magnetization 

 Free energy of the ion-electron system (eV)
  ---------------------------------------------------
  alpha Z        PSCENC =       185.39985751
  Ewald energy   TEWEN  =     -1934.07799583
  -Hartree energ DENC   =      -441.33905516
  -exchange      EXHF   =         0.00000000
  -V(xc)+E(xc)   XCENC  =        86.19405357
  PAW double counting   =      1560.97794157    -1518.61822050
  entropy T*S    EENTRO =         0.00000000
  eigenvalues    EBANDS =      -212.56900195
  atomic energy  EATOM  =      2234.33426835
  Solvation  Ediel_sol  =         0.00000000
  ---------------------------------------------------
  free energy    TOTEN  =       -39.69815244 eV

  energy without entropy =      -39.69815244  energy(sigma->0) =      -39.69815244


--------------------------------------------------------------------------------------------------------




 average (electrostatic) potential at core
  the test charge radii are     1.1929  1.2598  0.7215
  (the norm of the test charge is              1.0000)
       1 -36.1340       2 -26.7963       3 -71.0594       4 -71.0594       5 -71.0594
 
 
 
 E-fermi :   2.6228     XC(G=0): -11.1505     alpha+bet :-12.6354


 k-point     1 :       0.0000    0.0000    0.0000
  band No.  band energies     occupation 
      1     -30.0806      2.00000
      2     -14.8210      2.00000
      3     -13.8141      2.00000
      4     -13.8141      2.00000
      5     -12.1449      2.00000
      6     -12.1449      2.00000
      7     -12.1449      2.00000
      8      -0.2123      2.00000
      9      -0.2123      2.00000
     10      -0.2123      2.00000
     11       1.4757      2.00000
     12       1.4757      2.00000
     13       1.4757      2.00000
     14       2.3151      2.00000
     15       2.3151      2.00000
     16       2.3151      2.00000
     17       4.3432      0.00000
     18       4.3432      0.00000
     19       4.3432      0.00000
     20       8.0473      0.00000

 k-point     2 :       0.1429    0.0000    0.0000
  band No.  band energies     occupation 
      1     -30.0762      2.00000
      2     -14.8334      2.00000
      3     -13.8364      2.00000
      4     -13.8067      2.00000
      5     -12.1358      2.00000
      6     -12.1358      2.00000
      7     -12.0103      2.00000
      8      -0.4771      2.00000
      9      -0.2258      2.00000
     10      -0.2258      2.00000
     11       1.2065      2.00000
     12       1.2065      2.00000
     13       1.2987      2.00000
     14       1.7129      2.00000
     15       2.1888      2.00000
     16       2.1888      2.00000
     17       4.3721      0.00000
     18       4.7928      0.00000
     19       4.7928      0.00000
     20       8.3866      0.00000

 k-point     3 :       0.2857    0.0000    0.0000
  band No.  band energies     occupation 
      1     -30.0663      2.00000
      2     -14.9183      2.00000
      3     -13.7896      2.00000
      4     -13.7705      2.00000
      5     -12.1152      2.00000
      6     -12.1152      2.00000
      7     -11.7560      2.00000
      8      -1.1012      2.00000
      9      -0.2453      2.00000
     10      -0.2453      2.00000
     11       0.6881      2.00000
     12       0.6881      2.00000
     13       0.7707      2.00000
     14       0.9454      2.00000
     15       2.0301      2.00000
     16       2.0301      2.00000
     17       4.4389      0.00000
     18       5.6029      0.00000
     19       5.6029      0.00000
     20       9.1890      0.00000

 k-point     4 :       0.4286    0.0000    0.0000
  band No.  band energies     occupation 
      1     -30.0583      2.00000
      2     -15.0192      2.00000
      3     -13.7758      2.00000
      4     -13.6409      2.00000
      5     -12.0986      2.00000
      6     -12.0986      2.00000
      7     -11.5848      2.00000
      8      -1.6324      2.00000
      9      -0.2341      2.00000
     10      -0.2341      2.00000
     11       0.2358      2.00000
     12       0.3150      2.00000
     13       0.3150      2.00000
     14       0.6944      2.00000
     15       1.9406      2.00000
     16       1.9406      2.00000
     17       4.4943      0.00000
     18       6.1685      0.00000
     19       6.1685      0.00000
     20       9.8297      0.00000

 k-point     5 :       0.1429    0.1429    0.0000
  band No.  band energies     occupation 
      1     -30.0719      2.00000
      2     -14.8196      2.00000
      3     -13.8705      2.00000
      4     -13.8006      2.00000
      5     -12.1264      2.00000
      6     -12.0625      2.00000
      7     -11.9651      2.00000
      8      -0.6389      2.00000
      9      -0.3444      2.00000
     10      -0.2377      2.00000
     11       0.6703      2.00000
     12       1.0030      2.00000
     13       1.4793      2.00000
     14       1.5339      2.00000
     15       1.8739      2.00000
     16       2.0080      2.00000
     17       4.7590      0.00000
     18       4.8631      0.00000
     19       5.0434      0.00000
     20       8.6979      0.00000

 k-point     6 :       0.2857    0.1429    0.0000
  band No.  band energies     occupation 
      1     -30.0623      2.00000
      2     -14.8488      2.00000
      3     -13.8616      2.00000
      4     -13.7617      2.00000
      5     -12.1052      2.00000
      6     -12.0297      2.00000
      7     -11.7718      2.00000
      8      -1.1554      2.00000
      9      -0.5114      2.00000
     10      -0.2539      2.00000
     11      -0.0004      2.00000
     12       0.5614      2.00000
     13       0.8982      2.00000
     14       1.4576      2.00000
     15       1.6930      2.00000
     16       1.7843      2.00000
     17       4.8516      0.00000
     18       5.6133      0.00000
     19       5.6687      0.00000
     20       9.4217      0.00000

 k-point     7 :       0.4286    0.1429    0.0000
  band No.  band energies     occupation 
      1     -30.0545      2.00000
      2     -14.9192      2.00000
      3     -13.7768      2.00000
      4     -13.7235      2.00000
      5     -12.0881      2.00000
      6     -12.0186      2.00000
      7     -11.6284      2.00000
      8      -1.6468      2.00000
      9      -0.6975      2.00000
     10      -0.3577      2.00000
     11      -0.2373      2.00000
     12       0.2143      2.00000
     13       0.5960      2.00000
     14       1.3944      2.00000
     15       1.5418      2.00000
     16       1.6707      2.00000
     17       4.8939      0.00000
     18       6.1694      0.00000
     19       6.1900      0.00000
     20      10.0486      0.00000

 k-point     8 :       0.2857    0.2857    0.0000
  band No.  band energies     occupation 
      1     -30.0533      2.00000
      2     -14.7128      2.00000
      3     -13.9792      2.00000
      4     -13.7304      2.00000
      5     -12.0826      2.00000
      6     -11.8907      2.00000
      7     -11.7786      2.00000
      8      -1.3894      2.00000
      9      -0.9239      2.00000
     10      -0.7788      2.00000
     11      -0.2667      2.00000
     12       0.2645      2.00000
     13       0.8652      2.00000
     14       1.2140      2.00000
     15       1.4254      2.00000
     16       2.0055      2.00000
     17       5.5642      0.00000
     18       5.6884      0.00000
     19       5.9808      0.00000
     20       9.9397      0.00000

 k-point     9 :       0.4286    0.2857    0.0000
  band No.  band energies     occupation 
      1     -30.0461      2.00000
      2     -14.6565      2.00000
      3     -13.9396      2.00000
      4     -13.7634      2.00000
      5     -12.0643      2.00000
      6     -11.8642      2.00000
      7     -11.7096      2.00000
      8      -1.7016      2.00000
      9      -1.4443      2.00000
     10      -0.9953      2.00000
     11      -0.2465      2.00000
     12      -0.0047      2.00000
     13       0.8289      2.00000
     14       1.1403      2.00000
     15       1.2340      2.00000
     16       2.1271      2.00000
     17       5.6410      0.00000
     18       6.1731      0.00000
     19       6.3547      0.00000
     20      10.4353      0.00000

 k-point    10 :       0.4286    0.4286    0.0000
  band No.  band energies     occupation 
      1     -30.0392      2.00000
      2     -14.3566      2.00000
      3     -14.0536      2.00000
      4     -13.8933      2.00000
      5     -12.0450      2.00000
      6     -11.7609      2.00000
      7     -11.7461      2.00000
      8      -1.9200      2.00000
      9      -1.7918      2.00000
     10      -1.4973      2.00000
     11      -0.2488      2.00000
     12      -0.1824      2.00000
     13       0.9732      2.00000
     14       1.0068      2.00000
     15       1.0858      2.00000
     16       2.4514      2.00000
     17       6.1647      0.00000
     18       6.1863      0.00000
     19       6.6030      0.00000
     20      10.7179      0.00000

 k-point    11 :       0.1429    0.1429    0.1429
  band No.  band energies     occupation 
      1     -30.0678      2.00000
      2     -14.7896      2.00000
      3     -13.8475      2.00000
      4     -13.8475      2.00000
      5     -12.0785      2.00000
      6     -12.0785      2.00000
      7     -11.9024      2.00000
      8      -0.8058      2.00000
      9      -0.3500      2.00000
     10      -0.3500      2.00000
     11       0.5654      2.00000
     12       0.5654      2.00000
     13       1.1620      2.00000
     14       1.6723      2.00000
     15       1.8185      2.00000
     16       1.8185      2.00000
     17       5.0089      0.00000
     18       5.1011      0.00000
     19       5.1011      0.00000
     20       8.9620      0.00000

 k-point    12 :       0.2857    0.1429    0.1429
  band No.  band energies     occupation 
      1     -30.0584      2.00000
      2     -14.7772      2.00000
      3     -13.8588      2.00000
      4     -13.7935      2.00000
      5     -12.1171      2.00000
      6     -11.9930      2.00000
      7     -11.7689      2.00000
      8      -1.2227      2.00000
      9      -0.6262      2.00000
     10      -0.3646      2.00000
     11      -0.0151      2.00000
     12       0.0411      2.00000
     13       0.8853      2.00000
     14       1.5613      2.00000
     15       1.6521      2.00000
     16       1.6883      2.00000
     17       5.1237      0.00000
     18       5.6922      0.00000
     19       5.6995      0.00000
     20       9.6534      0.00000

 k-point    13 :       0.4286    0.1429    0.1429
  band No.  band energies     occupation 
      1     -30.0508      2.00000
      2     -14.8198      2.00000
      3     -13.7836      2.00000
      4     -13.7478      2.00000
      5     -12.1507      2.00000
      6     -11.9297      2.00000
      7     -11.6775      2.00000
      8      -1.6585      2.00000
      9      -0.8518      2.00000
     10      -0.4511      2.00000
     11      -0.3924      2.00000
     12      -0.2341      2.00000
     13       0.9724      2.00000
     14       1.3057      2.00000
     15       1.5141      2.00000
     16       1.6012      2.00000
     17       5.1727      0.00000
     18       6.1998      0.00000
     19       6.2159      0.00000
     20      10.2186      0.00000

 k-point    14 :       0.2857    0.2857    0.1429
  band No.  band energies     occupation 
      1     -30.0496      2.00000
      2     -14.6322      2.00000
      3     -13.9292      2.00000
      4     -13.7506      2.00000
      5     -12.1219      2.00000
      6     -11.9557      2.00000
      7     -11.7508      2.00000
      8      -1.4316      2.00000
      9      -0.9191      2.00000
     10      -0.7188      2.00000
     11      -0.4868      2.00000
     12      -0.1038      2.00000
     13       0.4443      2.00000
     14       1.4962      2.00000
     15       1.5566      2.00000
     16       2.0149      2.00000
     17       5.6980      0.00000
     18       5.7937      0.00000
     19       6.0189      0.00000
     20      10.0979      0.00000

 k-point    15 :       0.4286    0.2857    0.1429
  band No.  band energies     occupation 
      1     -30.0425      2.00000
      2     -14.5596      2.00000
      3     -13.9043      2.00000
      4     -13.7343      2.00000
      5     -12.1587      2.00000
      6     -11.8727      2.00000
      7     -11.7645      2.00000
      8      -1.6990      2.00000
      9      -1.3768      2.00000
     10      -0.9854      2.00000
     11      -0.5076      2.00000
     12      -0.3619      2.00000
     13       0.4675      2.00000
     14       1.3907      2.00000
     15       1.4890      2.00000
     16       2.1366      2.00000
     17       5.7845      0.00000
     18       6.2452      0.00000
     19       6.3900      0.00000
     20      10.5939      0.00000

 k-point    16 :       0.4286    0.4286    0.1429
  band No.  band energies     occupation 
      1     -30.0358      2.00000
      2     -14.2625      2.00000
      3     -13.9871      2.00000
      4     -13.8319      2.00000
      5     -12.1281      2.00000
      6     -11.8600      2.00000
      7     -11.8176      2.00000
      8      -1.8245      2.00000
      9      -1.7280      2.00000
     10      -1.4936      2.00000
     11      -0.5228      2.00000
     12      -0.4648      2.00000
     13       0.3315      2.00000
     14       1.4301      2.00000
     15       1.4740      2.00000
     16       2.4658      2.00000
     17       6.2620      0.00000
     18       6.2821      0.00000
     19       6.6418      0.00000
     20      10.4726      0.00000

 k-point    17 :       0.2857    0.2857    0.2857
  band No.  band energies     occupation 
      1     -30.0411      2.00000
      2     -14.4494      2.00000
      3     -13.8030      2.00000
      4     -13.8030      2.00000
      5     -12.1156      2.00000
      6     -12.1156      2.00000
      7     -11.7674      2.00000
      8      -1.5218      2.00000
      9      -0.9076      2.00000
     10      -0.9076      2.00000
     11      -0.5682      2.00000
     12      -0.5682      2.00000
     13      -0.5447      2.00000
     14       1.8034      2.00000
     15       1.8034      2.00000
     16       2.1440      2.00000
     17       6.0698      0.00000
     18       6.1183      0.00000
     19       6.1183      0.00000
     20      10.3991      0.00000

 k-point    18 :       0.4286    0.2857    0.2857
  band No.  band energies     occupation 
      1     -30.0344      2.00000
      2     -14.3094      2.00000
      3     -13.8390      2.00000
      4     -13.6816      2.00000
      5     -12.2641      2.00000
      6     -12.0101      2.00000
      7     -11.8681      2.00000
      8      -1.7002      2.00000
      9      -1.3099      2.00000
     10      -1.0012      2.00000
     11      -0.8962      2.00000
     12      -0.8244      2.00000
     13      -0.4357      2.00000
     14       1.8339      2.00000
     15       1.9676      2.00000
     16       2.2467      2.00000
     17       6.1668      0.00000
     18       6.4568      0.00000
     19       6.4812      0.00000
     20      10.5079      0.00000

 k-point    19 :       0.4286    0.4286    0.2857
  band No.  band energies     occupation 
      1     -30.0279      2.00000
      2     -14.0270      2.00000
      3     -13.8116      2.00000
      4     -13.6940      2.00000
      5     -12.2850      2.00000
      6     -12.1076      2.00000
      7     -12.0136      2.00000
      8      -1.7921      2.00000
      9      -1.4847      2.00000
     10      -1.4139      2.00000
     11      -0.9410      2.00000
     12      -0.8507      2.00000
     13      -0.7459      2.00000
     14       2.0571      2.00000
     15       2.0933      2.00000
     16       2.5025      2.00000
     17       6.5260      0.00000
     18       6.5381      0.00000
     19       6.7309      0.00000
     20      10.0753      0.00000

 k-point    20 :       0.4286    0.4286    0.4286
  band No.  band energies     occupation 
      1     -30.0215      2.00000
      2     -13.7699      2.00000
      3     -13.6258      2.00000
      4     -13.6258      2.00000
      5     -12.3505      2.00000
      6     -12.3505      2.00000
      7     -12.2373      2.00000
      8      -1.8803      2.00000
      9      -1.4768      2.00000
     10      -1.4768      2.00000
     11      -1.1752      2.00000
     12      -1.0675      2.00000
     13      -1.0675      2.00000
     14       2.4698      2.00000
     15       2.4698      2.00000
     16       2.5574      2.00000
     17       6.8080      0.00000
     18       9.7834      0.00000
     19       9.8148      0.00000
     20       9.8545      0.00000


--------------------------------------------------------------------------------------------------------


 soft charge-density along one line, spin component           1
         0         1         2         3         4         5         6         7         8         9
 total charge-density along one line
 
 pseudopotential strength for first ion, spin component:           1
-11.346  -7.402   0.000   0.000  -0.000  -0.000  -0.000   0.000
 -7.402  -5.734   0.000   0.000  -0.000  -0.000  -0.000   0.000
  0.000   0.000 -14.872   0.000   0.000   0.103  -0.000  -0.000
  0.000   0.000   0.000 -14.872   0.000  -0.000   0.103  -0.000
 -0.000  -0.000   0.000   0.000 -14.872  -0.000  -0.000   0.103
 -0.000  -0.000   0.103  -0.000  -0.000   0.037  -0.000  -0.000
 -0.000  -0.000  -0.000   0.103  -0.000  -0.000   0.037  -0.000
  0.000   0.000  -0.000  -0.000   0.103  -0.000  -0.000   0.037
  0.000   0.000  -0.000   0.000   0.000   0.000  -0.000  -0.000
  0.000   0.000   0.000   0.000   0.000  -0.000  -0.000  -0.000
 -0.000  -0.000  -0.000   0.000   0.000   0.000  -0.000  -0.000
  0.000   0.000   0.000  -0.000   0.000  -0.000   0.000  -0.000
 -0.000  -0.000  -0.000   0.000  -0.000   0.000  -0.000   0.000
  0.000   0.000  -0.000   0.000   0.000   0.000   0.000   0.000
  0.000   0.000   0.000   0.000   0.000   0.000   0.000   0.000
 -0.000  -0.000  -0.000   0.000   0.000  -0.000  -0.000   0.000
  0.000   0.000   0.000  -0.000   0.000   0.000   0.000   0.000
 -0.000  -0.000  -0.000   0.000  -0.000   0.000   0.000  -0.000
 total augmentation occupancy for first ion, spin component:           1
  2.105  -0.226   0.000   0.000   0.000   0.000   0.000   0.000   0.000  -0.000   0.000   0.000  -0.000  -0.000   0.000   0.000
 -0.226   0.472   0.000   0.000   0.000   0.000   0.000   0.000   0.000   0.000   0.000  -0.000  -0.000  -0.000  -0.000  -0.000
  0.000   0.000   2.025   0.000   0.000   0.071   0.000  -0.000   0.000   0.000   0.000   0.000   0.000   0.000   0.000   0.000
  0.000   0.000   0.000   2.025  -0.000  -0.000   0.071  -0.000   0.000   0.000   0.000   0.000   0.000   0.000   0.000   0.000
  0.000   0.000   0.000  -0.000   2.025  -0.000   0.000   0.071   0.000   0.000   0.000   0.000   0.000   0.000   0.000   0.000
  0.000   0.000   0.071   0.000   0.000   0.297  -0.000  -0.000   0.000   0.000   0.000   0.000   0.000   0.000   0.000   0.000
  0.000   0.000   0.000   0.071  -0.000  -0.000   0.297   0.000   0.000   0.000   0.000   0.000   0.000   0.000   0.000   0.000
  0.000   0.000  -0.000   0.000   0.071  -0.000   0.000   0.297   0.000   0.000   0.000   0.000   0.000   0.000   0.000   0.000
  0.000  -0.000   0.000   0.000   0.000   0.000   0.000   0.000   0.094  -0.000   0.000   0.000   0.000  -0.425   0.000   0.000
 -0.000   0.000   0.000   0.000   0.000   0.000   0.000   0.000  -0.000   0.094  -0.000   0.000  -0.000  -0.000  -0.425   0.000
  0.000   0.000   0.000   0.000   0.000   0.000   0.000   0.000   0.000   0.000   0.063  -0.000   0.000   0.000  -0.000  -0.275
  0.000   0.000   0.000   0.000   0.000   0.000   0.000   0.000  -0.000   0.000  -0.000   0.094   0.000  -0.000   0.000   0.000
  0.000  -0.000   0.000   0.000   0.000   0.000   0.000   0.000   0.000  -0.000   0.000  -0.000   0.063   0.000   0.000   0.000
 -0.000   0.000   0.000   0.000   0.000   0.000   0.000   0.000  -0.425  -0.000  -0.000  -0.000   0.000   2.033  -0.000   0.000
 -0.000   0.000   0.000   0.000   0.000   0.000   0.000   0.000   0.000  -0.425  -0.000   0.000   0.000  -0.000   2.033   0.000
  0.000  -0.000   0.000   0.000   0.000   0.000   0.000   0.000   0.000   0.000  -0.275   0.000   0.000   0.000   0.000   1.270
 -0.000  -0.000   0.000   0.000   0.000   0.000   0.000   0.000   0.000   0.000  -0.000  -0.425  -0.000  -0.000   0.000  -0.000
  0.000   0.000   0.000   0.000   0.000   0.000   0.000   0.000  -0.000   0.000   0.000   0.000  -0.275   0.000  -0.000   0.000


------------------------ aborting loop because EDIFF is reached ----------------------------------------


    CHARGE:  cpu time    0.0190: real time    0.0195
    FORLOC:  cpu time    0.0020: real time    0.0021
    FORNL :  cpu time    0.0640: real time    0.0636
    STRESS:  cpu time    0.2560: real time    0.2553
    FORCOR:  cpu time    0.0160: real time    0.0164
    FORHAR:  cpu time    0.0040: real time    0.0041
    MIXING:  cpu time    0.0010: real time    0.0009
    OFIELD:  cpu time    0.0000: real time    0.0000

  FORCE on cell =-STRESS in cart. coord.  units (eV):
  Direction    XX          YY          ZZ          XY          YZ          ZX
  --------------------------------------------------------------------------------------
  Alpha Z   185.39986   185.39986   185.39986
  Ewald    -644.69310  -644.69310  -644.69310     0.00000    -0.00000    -0.00000
  Hartree   147.10287   147.10287   147.10287    -0.00000    -0.00000    -0.00000
  E(xc)    -145.39036  -145.39036  -145.39036     0.00000     0.00000    -0.00000
  Local      -9.79573    -9.79573    -9.79573    -0.00000     0.00000     0.00000
  n-local  -123.34163  -119.15966  -114.72579    -0.47379    -0.40995    -0.30061
  augment    28.90213    28.90213    28.90213    -0.00000     0.00000     0.00000
  Kinetic   550.27278   562.43691   566.84685    -2.56479    -2.75914    -1.78191
  Fock        0.00000     0.00000     0.00000     0.00000     0.00000     0.00000
  -------------------------------------------------------------------------------------
  Total       2.30216     2.30216     2.30216    -0.00000    -0.00000     0.00000
  in kB      61.92889    61.92889    61.92889    -0.00000    -0.00000     0.00000
  external pressure =       61.93 kB  Pullay stress =        0.00 kB


 VOLUME and BASIS-vectors are now :
 -----------------------------------------------------------------------------
  energy-cutoff  :      600.00
  volume of cell :       59.56
      direct lattice vectors                 reciprocal lattice vectors
     3.905268000  0.000000000  0.000000000     0.256064373  0.000000000  0.000000000
     0.000000000  3.905268000  0.000000000     0.000000000  0.256064373  0.000000000
     0.000000000  0.000000000  3.905268000     0.000000000  0.000000000  0.256064373

  length of vectors
     3.905268000  3.905268000  3.905268000     0.256064373  0.256064373  0.256064373


 FORCES acting on ions
    electron-ion (+dipol)            ewald-force                    non-local-force                 convergence-correction
 -----------------------------------------------------------------------------------------------
   -.434E-14 -.416E-14 -.430E-14   -.987E-14 0.226E-14 -.502E-14   0.000E+00 0.000E+00 0.000E+00   -.795E-14 0.400E-14 0.933E-15
   0.504E-14 -.460E-12 -.467E-13   0.387E-14 0.424E-14 -.122E-14   0.000E+00 0.000E+00 0.000E+00   0.371E-14 0.592E-15 0.204E-14
   0.155E-12 -.142E-11 -.152E-11   0.648E-14 0.208E-14 -.144E-14   0.000E+00 0.000E+00 0.000E+00   -.378E-14 0.115E-13 -.555E-14
   0.152E-12 -.518E-14 -.193E-11   0.284E-14 -.378E-14 0.434E-14   0.000E+00 0.000E+00 0.000E+00   -.728E-14 0.594E-14 -.636E-14
   -.762E-14 0.153E-12 0.152E-12   -.327E-14 -.425E-14 0.433E-14   0.000E+00 0.000E+00 0.000E+00   -.867E-14 0.341E-14 0.236E-14
 -----------------------------------------------------------------------------------------------
   0.299E-12 -.173E-11 -.336E-11   0.432E-16 0.547E-15 0.100E-14   0.000E+00 0.000E+00 0.000E+00   -.240E-13 0.254E-13 -.659E-14
 
 
 POSITION                                       TOTAL-FORCE (eV/Angst)
 -----------------------------------------------------------------------------------
      0.00000      0.00000      0.00000         0.000000      0.000000      0.000000
      1.95263      1.95263      1.95263         0.000000      0.000000      0.000000
      1.95263      1.95263      0.00000         0.000000      0.000000      0.000000
      1.95263      0.00000      1.95263         0.000000      0.000000      0.000000
      0.00000      1.95263      1.95263         0.000000      0.000000      0.000000
 -----------------------------------------------------------------------------------
    total drift:                                0.000000     -0.000000     -0.000000


--------------------------------------------------------------------------------------------------------



  FREE ENERGIE OF THE ION-ELECTRON SYSTEM (eV)
  ---------------------------------------------------
  free  energy   TOTEN  =       -39.69815244 eV

  energy  without entropy=      -39.69815244  energy(sigma->0) =      -39.69815244
 


--------------------------------------------------------------------------------------------------------


    POTLOK:  cpu time    0.0190: real time    0.0195


--------------------------------------------------------------------------------------------------------


     LOOP+:  cpu time    6.1341: real time    7.6791
    4ORBIT:  cpu time    0.0000: real time    0.0000
 BZINTS: Fermi energy:  2.622804; 32.000000 electrons
         Band energy:-212.569002;  BLOECHL correction:  0.000000

 total amount of memory used by VASP MPI-rank0    45382. kBytes
=======================================================================

   base      :      30000. kBytes
   nonl-proj :       8737. kBytes
   fftplans  :       1179. kBytes
   grid      :       2105. kBytes
   one-center:         46. kBytes
   wavefun   :       3315. kBytes
 
  
  
 General timing and accounting informations for this job:
 ========================================================
  
                  Total CPU time used (sec):        6.931
                            User time (sec):        6.779
                          System time (sec):        0.152
                         Elapsed time (sec):        9.700
  
                   Maximum memory used (kb):       43460.
                   Average memory used (kb):           0.
  
                          Minor page faults:        15078
                          Major page faults:          116
                 Voluntary context switches:         2701
