<?xml version="1.0" encoding="ISO-8859-1"?>
<modeling>
 <generator>
  <i name="program" type="string">vasp </i>
  <i name="version" type="string">5.4.4.18Apr17-6-g9f103f2a35  </i>
  <i name="subversion" type="string">(build Jun 30 2017 11:15:00) complex            parallel </i>
  <i name="platform" type="string">STALLO_VASP_5.4.4 </i>
  <i name="date" type="string">2019 11 06 </i>
  <i name="time" type="string">13:08:21 </i>
 </generator>
 <incar>
  <i type="string" name="PREC">normal    ! low/normal/accurate</i>
  <i type="string" name="ALGO"> Fast      ! Algorithm for electronic re</i>
  <i type="int" name="ISPIN">     1</i>
  <i type="int" name="NELMIN">     4</i>
  <i name="EDIFF">      0.00001000</i>
  <i type="int" name="NSW">     0</i>
  <i name="ENCUT">    600.00000000</i>
  <i type="logical" name="LREAL"> F  </i>
  <i type="int" name="ISMEAR">    -5</i>
  <i name="SIGMA">      0.20000000</i>
  <i type="logical" name="LWAVE"> F  </i>
  <v type="int" name="KPOINT_BSE">    -1     0     0     0</v>
 </incar>
 <structure name="primitive_cell" >
  <crystal>
   <varray name="basis" >
    <v>       3.90526800       0.00000000       0.00000000 </v>
    <v>       0.00000000       3.90526800       0.00000000 </v>
    <v>       0.00000000       0.00000000       3.90526800 </v>
   </varray>
   <i name="volume">     59.55970368 </i>
   <varray name="rec_basis" >
    <v>       0.25606437       0.00000000       0.00000000 </v>
    <v>       0.00000000       0.25606437       0.00000000 </v>
    <v>       0.00000000       0.00000000       0.25606437 </v>
   </varray>
  </crystal>
  <varray name="positions" >
   <v>       0.00000000       0.00000000       0.00000000 </v>
   <v>      -0.50000000      -0.50000000       0.00000000 </v>
   <v>      -0.50000000       0.00000000      -0.50000000 </v>
   <v>       0.00000000      -0.50000000      -0.50000000 </v>
   <v>      -0.50000000      -0.50000000      -0.50000000 </v>
  </varray>
 </structure>
 <varray name="primitive_index" >
  <v type="int" >        1 </v>
  <v type="int" >        3 </v>
  <v type="int" >        4 </v>
  <v type="int" >        5 </v>
  <v type="int" >        2 </v>
 </varray>
 <kpoints>
  <generation param="Gamma">
   <v type="int" name="divisions">       7        7        7 </v>
   <v name="usershift">      0.00000000       0.00000000       0.00000000 </v>
   <v name="genvec1">      0.14285714       0.00000000       0.00000000 </v>
   <v name="genvec2">      0.00000000       0.14285714       0.00000000 </v>
   <v name="genvec3">      0.00000000       0.00000000       0.14285714 </v>
   <v name="shift">      0.00000000       0.00000000       0.00000000 </v>
  </generation>
  <varray name="kpointlist" >
   <v>       0.00000000       0.00000000       0.00000000 </v>
   <v>       0.14285714       0.00000000       0.00000000 </v>
   <v>       0.28571429       0.00000000       0.00000000 </v>
   <v>       0.42857143       0.00000000       0.00000000 </v>
   <v>       0.14285714       0.14285714       0.00000000 </v>
   <v>       0.28571429       0.14285714       0.00000000 </v>
   <v>       0.42857143       0.14285714       0.00000000 </v>
   <v>       0.28571429       0.28571429       0.00000000 </v>
   <v>       0.42857143       0.28571429       0.00000000 </v>
   <v>       0.42857143       0.42857143       0.00000000 </v>
   <v>       0.14285714       0.14285714       0.14285714 </v>
   <v>       0.28571429       0.14285714       0.14285714 </v>
   <v>       0.42857143       0.14285714       0.14285714 </v>
   <v>       0.28571429       0.28571429       0.14285714 </v>
   <v>       0.42857143       0.28571429       0.14285714 </v>
   <v>       0.42857143       0.42857143       0.14285714 </v>
   <v>       0.28571429       0.28571429       0.28571429 </v>
   <v>       0.42857143       0.28571429       0.28571429 </v>
   <v>       0.42857143       0.42857143       0.28571429 </v>
   <v>       0.42857143       0.42857143       0.42857143 </v>
  </varray>
  <varray name="weights" >
   <v>       0.00291545 </v>
   <v>       0.01749271 </v>
   <v>       0.01749271 </v>
   <v>       0.01749271 </v>
   <v>       0.03498542 </v>
   <v>       0.06997085 </v>
   <v>       0.06997085 </v>
   <v>       0.03498542 </v>
   <v>       0.06997085 </v>
   <v>       0.03498542 </v>
   <v>       0.02332362 </v>
   <v>       0.06997085 </v>
   <v>       0.06997085 </v>
   <v>       0.06997085 </v>
   <v>       0.13994169 </v>
   <v>       0.06997085 </v>
   <v>       0.02332362 </v>
   <v>       0.06997085 </v>
   <v>       0.06997085 </v>
   <v>       0.02332362 </v>
  </varray>
  <varray name="tetrahedronlist"  type="int" >
   <v type="int" >       12        1        2        2        5 </v>
   <v type="int" >       12        2        2        5        5 </v>
   <v type="int" >       12        2        5        5       11 </v>
   <v type="int" >       12        2        3        5        6 </v>
   <v type="int" >       12        2        5        5        6 </v>
   <v type="int" >       12        5        5        6       11 </v>
   <v type="int" >       12        3        5        6        6 </v>
   <v type="int" >       24        5        6        6       12 </v>
   <v type="int" >       24        5        6       11       12 </v>
   <v type="int" >       12        3        4        6        7 </v>
   <v type="int" >       12        3        6        6        7 </v>
   <v type="int" >       12        6        6        7       12 </v>
   <v type="int" >       12        4        6        7        7 </v>
   <v type="int" >       12        6        7        7       13 </v>
   <v type="int" >       12        6        7       12       13 </v>
   <v type="int" >        6        4        4        7        7 </v>
   <v type="int" >       12        4        7        7        7 </v>
   <v type="int" >       12        7        7        7       13 </v>
   <v type="int" >        6        7        7       13       13 </v>
   <v type="int" >       12        5        6        8       11 </v>
   <v type="int" >       12        6        8       11       12 </v>
   <v type="int" >       12        8       11       12       14 </v>
   <v type="int" >       12        6        7        9       12 </v>
   <v type="int" >       12        6        8        9       12 </v>
   <v type="int" >       12        8        9       12       14 </v>
   <v type="int" >       12        7        9       12       13 </v>
   <v type="int" >       12        9       12       13       15 </v>
   <v type="int" >       12        9       12       14       15 </v>
   <v type="int" >       12        7        7        9       13 </v>
   <v type="int" >       12        7        9        9       13 </v>
   <v type="int" >       12        9        9       13       15 </v>
   <v type="int" >       12        7        9       13       13 </v>
   <v type="int" >       12        9       13       13       15 </v>
   <v type="int" >       12        9       13       15       15 </v>
   <v type="int" >       12        6        7        8       13 </v>
   <v type="int" >       12        7        8        9       13 </v>
   <v type="int" >       12        8        9       13       15 </v>
   <v type="int" >       12        6        8       12       13 </v>
   <v type="int" >       12        8       12       13       14 </v>
   <v type="int" >       12        8       13       14       15 </v>
   <v type="int" >       12        6        6        8       12 </v>
   <v type="int" >       12        6        8       12       14 </v>
   <v type="int" >       12        6       11       12       12 </v>
   <v type="int" >       12        6       12       12       14 </v>
   <v type="int" >       12        2        3        5       11 </v>
   <v type="int" >       12        3        5        6       11 </v>
   <v type="int" >       12        3        6       11       12 </v>
   <v type="int" >       12        8        9       10       14 </v>
   <v type="int" >       12        9       10       14       15 </v>
   <v type="int" >       12       10       14       15       16 </v>
   <v type="int" >       24        9        9       10       15 </v>
   <v type="int" >       12        9       10       10       15 </v>
   <v type="int" >       12       10       10       15       16 </v>
   <v type="int" >       12        9       10       15       15 </v>
   <v type="int" >       12       10       15       15       16 </v>
   <v type="int" >       12       10       15       16       16 </v>
   <v type="int" >       12        8        9        9       15 </v>
   <v type="int" >       12        9       10       15       16 </v>
   <v type="int" >       12        8        9       14       15 </v>
   <v type="int" >       12        9       14       15       15 </v>
   <v type="int" >       24        9       15       15       16 </v>
   <v type="int" >       12        6        7        8       14 </v>
   <v type="int" >       12        7        8        9       14 </v>
   <v type="int" >       12        7        9       14       15 </v>
   <v type="int" >       12        6        7       12       14 </v>
   <v type="int" >       12        7       12       13       14 </v>
   <v type="int" >       12        7       13       14       15 </v>
   <v type="int" >       12        3        4        6       12 </v>
   <v type="int" >       12        4        6        7       12 </v>
   <v type="int" >       12        4        7       12       13 </v>
   <v type="int" >       12       10       10       10       16 </v>
   <v type="int" >       12       10       10       16       16 </v>
   <v type="int" >       12       10       16       16       16 </v>
   <v type="int" >       12        9        9       10       16 </v>
   <v type="int" >       12        9       10       10       16 </v>
   <v type="int" >       12        9       10       16       16 </v>
   <v type="int" >       12        9        9       15       16 </v>
   <v type="int" >       12        9       15       16       16 </v>
   <v type="int" >       12        7        7        9       15 </v>
   <v type="int" >       12        7        9        9       15 </v>
   <v type="int" >       12        7        9       15       15 </v>
   <v type="int" >       12        7        7       13       15 </v>
   <v type="int" >       12        7       13       13       15 </v>
   <v type="int" >       12        7       13       15       15 </v>
   <v type="int" >       12        4        4        7       13 </v>
   <v type="int" >       12        4        7        7       13 </v>
   <v type="int" >       12        4        7       13       13 </v>
   <v type="int" >       12        8        9       10       16 </v>
   <v type="int" >       12        8        9       15       16 </v>
   <v type="int" >       12        8       14       15       16 </v>
   <v type="int" >       12        6        7        9       15 </v>
   <v type="int" >       12        6        8        9       15 </v>
   <v type="int" >       12        6        8       14       15 </v>
   <v type="int" >       12        6        7       13       15 </v>
   <v type="int" >       12        6       12       13       15 </v>
   <v type="int" >       12        6       12       14       15 </v>
   <v type="int" >       12        3        4        7       13 </v>
   <v type="int" >       12        3        6        7       13 </v>
   <v type="int" >       12        3        6       12       13 </v>
   <v type="int" >       12        5        6        8       14 </v>
   <v type="int" >       12        5        6       12       14 </v>
   <v type="int" >       12        5       11       12       14 </v>
   <v type="int" >       12        2        3        6       12 </v>
   <v type="int" >       12        2        5        6       12 </v>
   <v type="int" >       12        2        5       11       12 </v>
   <v type="int" >       12        1        2        5       11 </v>
   <v type="int" >       12       11       12       12       14 </v>
   <v type="int" >       12       12       12       14       14 </v>
   <v type="int" >       12       12       14       14       17 </v>
   <v type="int" >       12       12       13       14       15 </v>
   <v type="int" >       12       12       14       14       15 </v>
   <v type="int" >       12       14       14       15       17 </v>
   <v type="int" >       12       13       14       15       15 </v>
   <v type="int" >       24       14       15       15       18 </v>
   <v type="int" >       24       14       15       17       18 </v>
   <v type="int" >        6       13       13       15       15 </v>
   <v type="int" >       12       13       15       15       15 </v>
   <v type="int" >       12       15       15       15       18 </v>
   <v type="int" >        6       15       15       18       18 </v>
   <v type="int" >       12       14       15       16       17 </v>
   <v type="int" >       12       15       16       17       18 </v>
   <v type="int" >       12       16       17       18       19 </v>
   <v type="int" >       24       15       15       16       18 </v>
   <v type="int" >       12       15       16       16       18 </v>
   <v type="int" >       12       16       16       18       19 </v>
   <v type="int" >       12       15       16       18       18 </v>
   <v type="int" >       12       16       18       18       19 </v>
   <v type="int" >       12       16       18       19       19 </v>
   <v type="int" >       12       15       16       18       19 </v>
   <v type="int" >       12       15       17       18       18 </v>
   <v type="int" >       24       15       18       18       19 </v>
   <v type="int" >       12       12       13       14       17 </v>
   <v type="int" >       12       13       14       15       17 </v>
   <v type="int" >       12       13       15       17       18 </v>
   <v type="int" >       12       16       16       16       19 </v>
   <v type="int" >       12       16       16       19       19 </v>
   <v type="int" >       12       16       19       19       19 </v>
   <v type="int" >       12       15       15       16       19 </v>
   <v type="int" >       12       15       16       16       19 </v>
   <v type="int" >       12       15       16       19       19 </v>
   <v type="int" >       12       15       15       18       19 </v>
   <v type="int" >       12       15       18       19       19 </v>
   <v type="int" >       12       13       13       15       18 </v>
   <v type="int" >       12       13       15       15       18 </v>
   <v type="int" >       12       13       15       18       18 </v>
   <v type="int" >       12       14       15       16       19 </v>
   <v type="int" >       12       14       15       18       19 </v>
   <v type="int" >       12       14       17       18       19 </v>
   <v type="int" >       12       12       13       15       18 </v>
   <v type="int" >       12       12       14       15       18 </v>
   <v type="int" >       12       12       14       17       18 </v>
   <v type="int" >       12       11       12       14       17 </v>
   <v type="int" >       12       17       18       18       19 </v>
   <v type="int" >       18       18       18       19       19 </v>
   <v type="int" >       24       18       19       19       20 </v>
   <v type="int" >       12       18       19       19       19 </v>
   <v type="int" >       24       19       19       19       20 </v>
   <v type="int" >       18       19       19       20       20 </v>
   <v type="int" >       12       19       20       20       20 </v>
   <v type="int" >       12       18       18       19       20 </v>
   <v type="int" >       12       18       19       20       20 </v>
   <v type="int" >       12       17       18       19       20 </v>
   <v type="int" >        6       20       20       20       20 </v>
  </varray>
  <i name="volumeweight">      0.00048591 </i>
 </kpoints>
 <parameters>
  <separator name="general" >
   <i type="string" name="SYSTEM">unknown system</i>
   <i type="logical" name="LCOMPAT"> F  </i>
  </separator>
  <separator name="electronic" >
   <i type="string" name="PREC">normal</i>
   <i name="ENMAX">    600.00000000</i>
   <i name="ENAUG">    605.39200000</i>
   <i name="EDIFF">      0.00001000</i>
   <i type="int" name="IALGO">    68</i>
   <i type="int" name="IWAVPR">    10</i>
   <i type="int" name="NBANDS">    20</i>
   <i name="NELECT">     32.00000000</i>
   <i type="int" name="TURBO">     0</i>
   <i type="int" name="IRESTART">     0</i>
   <i type="int" name="NREBOOT">     0</i>
   <i type="int" name="NMIN">     0</i>
   <i name="EREF">      0.00000000</i>
   <separator name="electronic smearing" >
    <i type="int" name="ISMEAR">    -5</i>
    <i name="SIGMA">      0.20000000</i>
    <i name="KSPACING">      0.50000000</i>
    <i type="logical" name="KGAMMA"> T  </i>
   </separator>
   <separator name="electronic projectors" >
    <i type="logical" name="LREAL"> F  </i>
    <v name="ROPT">      0.00000000      0.00000000      0.00000000</v>
    <i type="int" name="LMAXPAW">  -100</i>
    <i type="int" name="LMAXMIX">     2</i>
    <i type="logical" name="NLSPLINE"> F  </i>
   </separator>
   <separator name="electronic startup" >
    <i type="int" name="ISTART">     0</i>
    <i type="int" name="ICHARG">     2</i>
    <i type="int" name="INIWAV">     1</i>
   </separator>
   <separator name="electronic spin" >
    <i type="int" name="ISPIN">     1</i>
    <i type="logical" name="LNONCOLLINEAR"> F  </i>
    <v name="MAGMOM">      1.00000000      1.00000000      1.00000000      1.00000000      1.00000000</v>
    <i name="NUPDOWN">     -1.00000000</i>
    <i type="logical" name="LSORBIT"> F  </i>
    <v name="SAXIS">      0.00000000      0.00000000      1.00000000</v>
    <i type="logical" name="LSPIRAL"> F  </i>
    <v name="QSPIRAL">      0.00000000      0.00000000      0.00000000</v>
    <i type="logical" name="LZEROZ"> F  </i>
   </separator>
   <separator name="electronic exchange-correlation" >
    <i type="logical" name="LASPH"> F  </i>
    <i type="logical" name="LMETAGGA"> F  </i>
   </separator>
   <separator name="electronic convergence" >
    <i type="int" name="NELM">    60</i>
    <i type="int" name="NELMDL">    -5</i>
    <i type="int" name="NELMIN">     4</i>
    <i name="ENINI">    600.00000000</i>
    <separator name="electronic convergence detail" >
     <i type="logical" name="LDIAG"> T  </i>
     <i type="logical" name="LSUBROT"> F  </i>
     <i name="WEIMIN">      0.00000000</i>
     <i name="EBREAK">      0.00000013</i>
     <i name="DEPER">      0.30000000</i>
     <i type="int" name="NRMM">     4</i>
     <i name="TIME">      0.40000000</i>
    </separator>
   </separator>
   <separator name="electronic mixer" >
    <i name="AMIX">      0.40000000</i>
    <i name="BMIX">      1.00000000</i>
    <i name="AMIN">      0.10000000</i>
    <i name="AMIX_MAG">      1.60000000</i>
    <i name="BMIX_MAG">      1.00000000</i>
    <separator name="electronic mixer details" >
     <i type="int" name="IMIX">     4</i>
     <i type="logical" name="MIXFIRST"> F  </i>
     <i type="int" name="MAXMIX">   -45</i>
     <i name="WC">    100.00000000</i>
     <i type="int" name="INIMIX">     1</i>
     <i type="int" name="MIXPRE">     1</i>
     <i type="int" name="MREMOVE">     5</i>
    </separator>
   </separator>
   <separator name="electronic dipolcorrection" >
    <i type="logical" name="LDIPOL"> F  </i>
    <i type="logical" name="LMONO"> F  </i>
    <i type="int" name="IDIPOL">     0</i>
    <i name="EPSILON">      1.00000000</i>
    <v name="DIPOL">   -100.00000000   -100.00000000   -100.00000000</v>
    <i name="EFIELD">      0.00000000</i>
   </separator>
  </separator>
  <separator name="grids" >
   <i type="int" name="NGX">    24</i>
   <i type="int" name="NGY">    24</i>
   <i type="int" name="NGZ">    24</i>
   <i type="int" name="NGXF">    48</i>
   <i type="int" name="NGYF">    48</i>
   <i type="int" name="NGZF">    48</i>
   <i type="logical" name="ADDGRID"> F  </i>
  </separator>
  <separator name="ionic" >
   <i type="int" name="NSW">     0</i>
   <i type="int" name="IBRION">    -1</i>
   <i type="int" name="MDALGO">     0</i>
   <i type="int" name="ISIF">     2</i>
   <i name="PSTRESS">      0.00000000</i>
   <i name="EDIFFG">      0.00010000</i>
   <i type="int" name="NFREE">     0</i>
   <i name="POTIM">      0.50000000</i>
   <i name="SMASS">     -3.00000000</i>
   <i name="SCALEE">      1.00000000</i>
  </separator>
  <separator name="ionic md" >
   <i name="TEBEG">      0.00010000</i>
   <i name="TEEND">      0.00010000</i>
   <i type="int" name="NBLOCK">     1</i>
   <i type="int" name="KBLOCK">     1</i>
   <i type="int" name="NPACO">   256</i>
   <i name="APACO">     16.00000000</i>
  </separator>
  <separator name="symmetry" >
   <i type="int" name="ISYM">     2</i>
   <i name="SYMPREC">      0.00001000</i>
  </separator>
  <separator name="dos" >
   <i type="int" name="LORBIT">     0</i>
   <v name="RWIGS">     -1.00000000     -1.00000000     -1.00000000</v>
   <i type="int" name="NEDOS">   301</i>
   <i name="EMIN">     10.00000000</i>
   <i name="EMAX">    -10.00000000</i>
   <i name="EFERMI">      0.00000000</i>
  </separator>
  <separator name="writing" >
   <i type="int" name="NWRITE">     2</i>
   <i type="logical" name="LWAVE"> F  </i>
   <i type="logical" name="LDOWNSAMPLE"> F  </i>
   <i type="logical" name="LCHARG"> T  </i>
   <i type="logical" name="LPARD"> F  </i>
   <i type="logical" name="LVTOT"> F  </i>
   <i type="logical" name="LVHAR"> F  </i>
   <i type="logical" name="LELF"> F  </i>
   <i type="logical" name="LOPTICS"> F  </i>
   <v name="STM">      0.00000000      0.00000000      0.00000000      0.00000000      0.00000000      0.00000000      0.00000000</v>
  </separator>
  <separator name="performance" >
   <i type="int" name="NPAR">     2</i>
   <i type="int" name="NSIM">     4</i>
   <i type="int" name="NBLK">    -1</i>
   <i type="logical" name="LPLANE"> T  </i>
   <i type="logical" name="LSCALAPACK"> T  </i>
   <i type="logical" name="LSCAAWARE"> F  </i>
   <i type="logical" name="LSCALU"> F  </i>
   <i type="logical" name="LASYNC"> F  </i>
   <i type="logical" name="LORBITALREAL"> F  </i>
  </separator>
  <separator name="miscellaneous" >
   <i type="int" name="IDIOT">     3</i>
   <i type="int" name="ISPECIAL">     0</i>
   <i type="logical" name="LMUSIC"> F  </i>
   <v name="POMASS">     87.62000000     47.88000000     16.00000000</v>
   <v name="DARWINR">      0.00000000      0.00000000      0.00000000</v>
   <v name="DARWINV">      1.00000000      1.00000000      1.00000000</v>
   <i type="logical" name="LCORR"> T  </i>
  </separator>
  <i type="logical" name="GGA_COMPAT"> T  </i>
  <i type="logical" name="LBERRY"> F  </i>
  <i type="int" name="ICORELEVEL">     0</i>
  <i type="logical" name="LDAU"> F  </i>
  <i type="int" name="I_CONSTRAINED_M">     0</i>
  <separator name="electronic exchange-correlation" >
   <i type="string" name="GGA">--</i>
   <i type="int" name="VOSKOWN">     0</i>
   <i type="logical" name="LHFCALC"> F  </i>
   <i type="string" name="PRECFOCK"></i>
   <i type="logical" name="LSYMGRAD"> F  </i>
   <i type="logical" name="LHFONE"> F  </i>
   <i type="logical" name="LRHFCALC"> F  </i>
   <i type="logical" name="LTHOMAS"> F  </i>
   <i type="logical" name="LMODELHF"> F  </i>
   <i name="ENCUT4O">     -1.00000000</i>
   <i type="int" name="EXXOEP">     0</i>
   <i type="int" name="FOURORBIT">     0</i>
   <i name="AEXX">      0.00000000</i>
   <i name="HFALPHA">      0.00000000</i>
   <i name="MCALPHA">      0.00000000</i>
   <i name="ALDAX">      1.00000000</i>
   <i name="AGGAX">      1.00000000</i>
   <i name="ALDAC">      1.00000000</i>
   <i name="AGGAC">      1.00000000</i>
   <i type="int" name="NKREDX">     1</i>
   <i type="int" name="NKREDY">     1</i>
   <i type="int" name="NKREDZ">     1</i>
   <i type="logical" name="SHIFTRED"> F  </i>
   <i type="logical" name="ODDONLY"> F  </i>
   <i type="logical" name="EVENONLY"> F  </i>
   <i type="int" name="LMAXFOCK">     0</i>
   <i type="int" name="NMAXFOCKAE">     0</i>
   <i type="logical" name="LFOCKAEDFT"> F  </i>
   <i name="HFSCREEN">      0.00000000</i>
   <i name="HFSCREENC">      0.00000000</i>
   <i type="int" name="NBANDSGWLOW">     0</i>
  </separator>
  <separator name="vdW DFT" >
   <i type="logical" name="LUSE_VDW"> F  </i>
   <i name="Zab_VDW">     -0.84910000</i>
   <i name="PARAM1">      0.12340000</i>
   <i name="PARAM2">      1.00000000</i>
   <i name="PARAM3">      0.00000000</i>
  </separator>
  <separator name="model GW" >
   <i type="int" name="MODEL_GW">     0</i>
   <i name="MODEL_EPS0">      7.14716444</i>
   <i name="MODEL_ALPHA">      1.00000000</i>
  </separator>
  <separator name="linear response parameters" >
   <i type="logical" name="LEPSILON"> F  </i>
   <i type="logical" name="LRPA"> F  </i>
   <i type="logical" name="LNABLA"> F  </i>
   <i type="logical" name="LVEL"> F  </i>
   <i type="int" name="KINTER">     0</i>
   <i name="CSHIFT">      0.10000000</i>
   <i name="OMEGAMAX">     -1.00000000</i>
   <i name="DEG_THRESHOLD">      0.00200000</i>
   <i name="RTIME">     -0.10000000</i>
   <i name="WPLASMAI">      0.00000000</i>
   <v name="DFIELD">      0.00000000      0.00000000      0.00000000</v>
   <v name="WPLASMA">      0.00000000      0.00000000      0.00000000      0.00000000      0.00000000      0.00000000      0.00000000      0.00000000      0.00000000</v>
  </separator>
  <separator name="orbital magnetization" >
   <i type="logical" name="NUCIND"> F  </i>
   <v name="MAGPOS">      0.00000000      0.00000000      0.00000000</v>
   <i type="logical" name="LNICSALL"> T  </i>
   <i type="logical" name="ORBITALMAG"> F  </i>
   <i type="logical" name="LMAGBLOCH"> F  </i>
   <i type="logical" name="LCHIMAG"> F  </i>
   <i type="logical" name="LGAUGE"> T  </i>
   <i type="int" name="MAGATOM">     0</i>
   <v name="MAGDIPOL">      0.00000000      0.00000000      0.00000000</v>
   <v name="AVECCONST">      0.00000000      0.00000000      0.00000000</v>
  </separator>
  <separator name="response functions" >
   <i type="logical" name="LADDER"> F  </i>
   <i type="logical" name="LRPAFORCE"> F  </i>
   <i type="logical" name="LFXC"> F  </i>
   <i type="logical" name="LHARTREE"> T  </i>
   <i type="int" name="IBSE">     0</i>
   <v type="int" name="KPOINT">    -1     0     0     0</v>
   <i type="logical" name="LTCTE"> F  </i>
   <i type="logical" name="LTETE"> F  </i>
   <i type="logical" name="LTRIPLET"> F  </i>
   <i type="logical" name="LFXCEPS"> F  </i>
   <i type="logical" name="LFXHEG"> F  </i>
   <i type="int" name="NATURALO">     2</i>
   <i type="logical" name="L2ORDER"> F  </i>
   <i type="logical" name="LMP2LT"> F  </i>
   <i type="logical" name="LUSEW"> F  </i>
   <i name="ENCUTGW">     -2.00000000</i>
   <i name="ENCUTGWSOFT">     -2.00000000</i>
   <i name="ENCUTLF">     -1.00000000</i>
   <i type="int" name="LMAXMP2">    -1</i>
   <i name="SCISSOR">      0.00000000</i>
   <i type="int" name="NOMEGA">     0</i>
   <i type="int" name="NOMEGAR">     0</i>
   <i type="int" name="NBANDSGW">    -1</i>
   <i type="int" name="NBANDSO">    -1</i>
   <i type="int" name="NBANDSV">    -1</i>
   <i type="int" name="NELM">     1</i>
   <i type="int" name="NELMHF">     1</i>
   <i type="int" name="DIM">     3</i>
   <i type="int" name="ANTIRES">     0</i>
   <i name="OMEGAMAX">    -30.00000000</i>
   <i name="OMEGAMIN">    -30.00000000</i>
   <i name="OMEGATL">   -200.00000000</i>
   <i type="int" name="OMEGAGRID">   140</i>
   <i name="CSHIFT">     -0.10000000</i>
   <i type="logical" name="SELFENERGY"> F  </i>
   <i type="logical" name="LSPECTRAL"> F  </i>
   <i type="logical" name="LSPECTRALGW"> F  </i>
   <i type="logical" name="LSINGLES"> F  </i>
   <i type="logical" name="LFERMIGW"> F  </i>
   <i type="logical" name="ODDONLYGW"> F  </i>
   <i type="logical" name="EVENONLYGW"> F  </i>
   <i type="int" name="NKREDLFX">     1</i>
   <i type="int" name="NKREDLFY">     1</i>
   <i type="int" name="NKREDLFZ">     1</i>
   <i type="int" name="MAXMEM">  2800</i>
   <i type="int" name="TELESCOPE">     0</i>
   <i type="int" name="TAUPAR">     1</i>
   <i type="int" name="OMEGAPAR">    -1</i>
   <i name="LAMBDA">      1.00000000</i>
  </separator>
  <separator name="External order field" >
   <i name="OFIELD_KAPPA">      0.00000000</i>
   <v name="OFIELD_K">      0.00000000      0.00000000      0.00000000</v>
   <i name="OFIELD_Q6_NEAR">      0.00000000</i>
   <i name="OFIELD_Q6_FAR">      0.00000000</i>
   <i name="OFIELD_A">      0.00000000</i>
  </separator>
 </parameters>
 <atominfo>
  <atoms>       5 </atoms>
  <types>       3 </types>
  <array name="atoms" >
   <dimension dim="1">ion</dimension>
   <field type="string">element</field>
   <field type="int">atomtype</field>
   <set>
    <rc><c>Sr</c><c>   1</c></rc>
    <rc><c>Ti</c><c>   2</c></rc>
    <rc><c>O </c><c>   3</c></rc>
    <rc><c>O </c><c>   3</c></rc>
    <rc><c>O </c><c>   3</c></rc>
   </set>
  </array>
  <array name="atomtypes" >
   <dimension dim="1">type</dimension>
   <field type="int">atomspertype</field>
   <field type="string">element</field>
   <field>mass</field>
   <field>valence</field>
   <field type="string">pseudopotential</field>
   <set>
    <rc><c>   1</c><c>Sr</c><c>     87.62000000</c><c>     10.00000000</c><c> PAW_PBE Sr_sv 07Sep2000                </c></rc>
    <rc><c>   1</c><c>Ti</c><c>     47.88000000</c><c>      4.00000000</c><c> PAW_PBE Ti 08Apr2002                   </c></rc>
    <rc><c>   3</c><c>O </c><c>     16.00000000</c><c>      6.00000000</c><c> PAW_PBE O 08Apr2002                    </c></rc>
   </set>
  </array>
 </atominfo>
 <structure name="initialpos" >
  <crystal>
   <varray name="basis" >
    <v>       3.90526800       0.00000000       0.00000000 </v>
    <v>       0.00000000       3.90526800       0.00000000 </v>
    <v>       0.00000000       0.00000000       3.90526800 </v>
   </varray>
   <i name="volume">     59.55970368 </i>
   <varray name="rec_basis" >
    <v>       0.25606437       0.00000000       0.00000000 </v>
    <v>       0.00000000       0.25606437       0.00000000 </v>
    <v>       0.00000000       0.00000000       0.25606437 </v>
   </varray>
  </crystal>
  <varray name="positions" >
   <v>       0.00000000       0.00000000       0.00000000 </v>
   <v>       0.50000000       0.50000000       0.50000000 </v>
   <v>       0.50000000       0.50000000       0.00000000 </v>
   <v>       0.50000000       0.00000000       0.50000000 </v>
   <v>       0.00000000       0.50000000       0.50000000 </v>
  </varray>
 </structure>
 <calculation>
  <scstep>
   <time name="dav">    0.27    0.27</time>
   <time name="total">    0.30    0.80</time>
   <energy>
    <i name="alphaZ">    185.39985751 </i>
    <i name="ewald">  -1934.07799583 </i>
    <i name="hartreedc">   -403.14003404 </i>
    <i name="XCdc">     82.31788258 </i>
    <i name="pawpsdc">   1333.61297253 </i>
    <i name="pawaedc">  -1284.78446064 </i>
    <i name="eentropy">      0.00000000 </i>
    <i name="bandstr">    119.83118858 </i>
    <i name="atom">   2234.33426835 </i>
    <i name="e_fr_energy">    333.49367904 </i>
    <i name="e_wo_entrp">    333.49367904 </i>
    <i name="e_0_energy">    333.49367904 </i>
   </energy>
  </scstep>
  <scstep>
   <time name="dav">    0.35    0.35</time>
   <time name="total">    0.36    0.36</time>
   <energy>
    <i name="e_fr_energy">    -15.34873001 </i>
    <i name="e_wo_entrp">    -15.34873001 </i>
    <i name="e_0_energy">    -15.34873001 </i>
   </energy>
  </scstep>
  <scstep>
   <time name="dav">    0.32    0.32</time>
   <time name="total">    0.32    0.32</time>
   <energy>
    <i name="e_fr_energy">    -48.98023363 </i>
    <i name="e_wo_entrp">    -48.98023363 </i>
    <i name="e_0_energy">    -48.98023363 </i>
   </energy>
  </scstep>
  <scstep>
   <time name="dav">    0.41    0.41</time>
   <time name="total">    0.41    0.41</time>
   <energy>
    <i name="e_fr_energy">    -50.20286407 </i>
    <i name="e_wo_entrp">    -50.20286407 </i>
    <i name="e_0_energy">    -50.20286407 </i>
   </energy>
  </scstep>
  <scstep>
   <time name="dav">    0.33    0.33</time>
   <time name="total">    0.35    0.35</time>
   <energy>
    <i name="e_fr_energy">    -50.23151122 </i>
    <i name="e_wo_entrp">    -50.23151122 </i>
    <i name="e_0_energy">    -50.23151122 </i>
   </energy>
  </scstep>
  <scstep>
   <time name="diag">    0.06    0.06</time>
   <time name="diis">    0.20    0.20</time>
   <time name="orth">    0.01    0.01</time>
   <time name="total">    0.30    0.31</time>
   <energy>
    <i name="e_fr_energy">    -40.40478086 </i>
    <i name="e_wo_entrp">    -40.40478086 </i>
    <i name="e_0_energy">    -40.40478086 </i>
   </energy>
  </scstep>
  <scstep>
   <time name="diag">    0.06    0.06</time>
   <time name="diis">    0.22    0.22</time>
   <time name="orth">    0.01    0.01</time>
   <time name="total">    0.33    0.33</time>
   <energy>
    <i name="e_fr_energy">    -39.79992022 </i>
    <i name="e_wo_entrp">    -39.79992022 </i>
    <i name="e_0_energy">    -39.79992022 </i>
   </energy>
  </scstep>
  <scstep>
   <time name="diag">    0.06    0.06</time>
   <time name="diis">    0.22    0.22</time>
   <time name="orth">    0.01    0.01</time>
   <time name="total">    0.33    0.33</time>
   <energy>
    <i name="e_fr_energy">    -39.71744787 </i>
    <i name="e_wo_entrp">    -39.71744787 </i>
    <i name="e_0_energy">    -39.71744787 </i>
   </energy>
  </scstep>
  <scstep>
   <time name="diag">    0.06    0.06</time>
   <time name="diis">    0.26    0.26</time>
   <time name="orth">    0.01    0.01</time>
   <time name="total">    0.37    0.38</time>
   <energy>
    <i name="e_fr_energy">    -39.70339601 </i>
    <i name="e_wo_entrp">    -39.70339601 </i>
    <i name="e_0_energy">    -39.70339601 </i>
   </energy>
  </scstep>
  <scstep>
   <time name="diag">    0.06    0.06</time>
   <time name="diis">    0.22    0.22</time>
   <time name="orth">    0.01    0.01</time>
   <time name="total">    0.32    0.32</time>
   <energy>
    <i name="e_fr_energy">    -39.69898189 </i>
    <i name="e_wo_entrp">    -39.69898189 </i>
    <i name="e_0_energy">    -39.69898189 </i>
   </energy>
  </scstep>
  <scstep>
   <time name="diag">    0.05    0.06</time>
   <time name="diis">    0.24    0.24</time>
   <time name="orth">    0.01    0.01</time>
   <time name="total">    0.35    0.35</time>
   <energy>
    <i name="e_fr_energy">    -39.69765567 </i>
    <i name="e_wo_entrp">    -39.69765567 </i>
    <i name="e_0_energy">    -39.69765567 </i>
   </energy>
  </scstep>
  <scstep>
   <time name="diag">    0.05    0.06</time>
   <time name="diis">    0.24    0.24</time>
   <time name="orth">    0.01    0.01</time>
   <time name="total">    0.35    0.35</time>
   <energy>
    <i name="e_fr_energy">    -39.69840493 </i>
    <i name="e_wo_entrp">    -39.69840493 </i>
    <i name="e_0_energy">    -39.69840493 </i>
   </energy>
  </scstep>
  <scstep>
   <time name="diag">    0.06    0.06</time>
   <time name="diis">    0.24    0.24</time>
   <time name="orth">    0.01    0.01</time>
   <time name="total">    0.34    0.34</time>
   <energy>
    <i name="e_fr_energy">    -39.69810925 </i>
    <i name="e_wo_entrp">    -39.69810925 </i>
    <i name="e_0_energy">    -39.69810925 </i>
   </energy>
  </scstep>
  <scstep>
   <time name="diag">    0.06    0.06</time>
   <time name="diis">    0.23    0.23</time>
   <time name="orth">    0.01    0.01</time>
   <time name="total">    0.34    0.34</time>
   <energy>
    <i name="e_fr_energy">    -39.69812352 </i>
    <i name="e_wo_entrp">    -39.69812352 </i>
    <i name="e_0_energy">    -39.69812352 </i>
   </energy>
  </scstep>
  <scstep>
   <time name="diag">    0.06    0.06</time>
   <time name="diis">    0.21    0.21</time>
   <time name="orth">    0.01    0.01</time>
   <time name="total">    0.32    0.32</time>
   <energy>
    <i name="e_fr_energy">    -39.69814622 </i>
    <i name="e_wo_entrp">    -39.69814622 </i>
    <i name="e_0_energy">    -39.69814622 </i>
   </energy>
  </scstep>
  <scstep>
   <time name="diag">    0.06    0.06</time>
   <time name="diis">    0.18    0.18</time>
   <time name="orth">    0.01    0.01</time>
   <time name="total">    0.28    0.28</time>
   <energy>
    <i name="e_fr_energy">    -39.69814784 </i>
    <i name="e_wo_entrp">    -39.69814784 </i>
    <i name="e_0_energy">    -39.69814784 </i>
   </energy>
  </scstep>
  <scstep>
   <time name="diag">    0.05    0.06</time>
   <time name="diis">    0.17    0.17</time>
   <time name="orth">    0.01    0.01</time>
   <time name="total">    0.25    0.25</time>
   <energy>
    <i name="alphaZ">    185.39985751 </i>
    <i name="ewald">  -1934.07799583 </i>
    <i name="hartreedc">   -441.33905516 </i>
    <i name="XCdc">     86.19405357 </i>
    <i name="pawpsdc">   1560.97794157 </i>
    <i name="pawaedc">  -1518.61822050 </i>
    <i name="eentropy">      0.00000000 </i>
    <i name="bandstr">   -212.56900195 </i>
    <i name="atom">   2234.33426835 </i>
    <i name="e_fr_energy">    -39.69815244 </i>
    <i name="e_wo_entrp">    -39.69815244 </i>
    <i name="e_0_energy">    -39.69815244 </i>
   </energy>
  </scstep>
  <structure>
   <crystal>
    <varray name="basis" >
     <v>       3.90526800       0.00000000       0.00000000 </v>
     <v>       0.00000000       3.90526800       0.00000000 </v>
     <v>       0.00000000       0.00000000       3.90526800 </v>
    </varray>
    <i name="volume">     59.55970368 </i>
    <varray name="rec_basis" >
     <v>       0.25606437       0.00000000       0.00000000 </v>
     <v>       0.00000000       0.25606437       0.00000000 </v>
     <v>       0.00000000       0.00000000       0.25606437 </v>
    </varray>
   </crystal>
   <varray name="positions" >
    <v>       0.00000000       0.00000000       0.00000000 </v>
    <v>       0.50000000       0.50000000       0.50000000 </v>
    <v>       0.50000000       0.50000000       0.00000000 </v>
    <v>       0.50000000       0.00000000       0.50000000 </v>
    <v>       0.00000000       0.50000000       0.50000000 </v>
   </varray>
  </structure>
  <varray name="forces" >
   <v>       0.00000000       0.00000000       0.00000000 </v>
   <v>       0.00000000       0.00000000       0.00000000 </v>
   <v>       0.00000000       0.00000000       0.00000000 </v>
   <v>       0.00000000       0.00000000       0.00000000 </v>
   <v>       0.00000000       0.00000000       0.00000000 </v>
  </varray>
  <varray name="stress" >
   <v>      61.92888709       0.00000000       0.00000000 </v>
   <v>      -0.00000000      61.92888709      -0.00000000 </v>
   <v>       0.00000000      -0.00000000      61.92888709 </v>
  </varray>
  <energy>
   <i name="e_fr_energy">    -39.69815244 </i>
   <i name="e_wo_entrp">    -39.69815244 </i>
   <i name="e_0_energy">      0.00000000 </i>
  </energy>
  <time name="totalsc">    6.13    7.68</time>
  <eigenvalues>
   <array>
    <dimension dim="1">band</dimension>
    <dimension dim="2">kpoint</dimension>
    <dimension dim="3">spin</dimension>
    <field>eigene</field>
    <field>occ</field>
    <set>
     <set comment="spin 1">
      <set comment="kpoint 1">
       <r>  -30.0806    1.0000 </r>
       <r>  -14.8210    1.0000 </r>
       <r>  -13.8141    1.0000 </r>
       <r>  -13.8141    1.0000 </r>
       <r>  -12.1449    1.0000 </r>
       <r>  -12.1449    1.0000 </r>
       <r>  -12.1449    1.0000 </r>
       <r>   -0.2123    1.0000 </r>
       <r>   -0.2123    1.0000 </r>
       <r>   -0.2123    1.0000 </r>
       <r>    1.4757    1.0000 </r>
       <r>    1.4757    1.0000 </r>
       <r>    1.4757    1.0000 </r>
       <r>    2.3151    1.0000 </r>
       <r>    2.3151    1.0000 </r>
       <r>    2.3151    1.0000 </r>
       <r>    4.3432    0.0000 </r>
       <r>    4.3432    0.0000 </r>
       <r>    4.3432    0.0000 </r>
       <r>    8.0473    0.0000 </r>
      </set>
      <set comment="kpoint 2">
       <r>  -30.0762    1.0000 </r>
       <r>  -14.8334    1.0000 </r>
       <r>  -13.8364    1.0000 </r>
       <r>  -13.8067    1.0000 </r>
       <r>  -12.1358    1.0000 </r>
       <r>  -12.1358    1.0000 </r>
       <r>  -12.0103    1.0000 </r>
       <r>   -0.4771    1.0000 </r>
       <r>   -0.2258    1.0000 </r>
       <r>   -0.2258    1.0000 </r>
       <r>    1.2065    1.0000 </r>
       <r>    1.2065    1.0000 </r>
       <r>    1.2987    1.0000 </r>
       <r>    1.7129    1.0000 </r>
       <r>    2.1888    1.0000 </r>
       <r>    2.1888    1.0000 </r>
       <r>    4.3721    0.0000 </r>
       <r>    4.7928    0.0000 </r>
       <r>    4.7928    0.0000 </r>
       <r>    8.3866    0.0000 </r>
      </set>
      <set comment="kpoint 3">
       <r>  -30.0663    1.0000 </r>
       <r>  -14.9183    1.0000 </r>
       <r>  -13.7896    1.0000 </r>
       <r>  -13.7705    1.0000 </r>
       <r>  -12.1152    1.0000 </r>
       <r>  -12.1152    1.0000 </r>
       <r>  -11.7560    1.0000 </r>
       <r>   -1.1012    1.0000 </r>
       <r>   -0.2453    1.0000 </r>
       <r>   -0.2453    1.0000 </r>
       <r>    0.6881    1.0000 </r>
       <r>    0.6881    1.0000 </r>
       <r>    0.7707    1.0000 </r>
       <r>    0.9454    1.0000 </r>
       <r>    2.0301    1.0000 </r>
       <r>    2.0301    1.0000 </r>
       <r>    4.4389    0.0000 </r>
       <r>    5.6029    0.0000 </r>
       <r>    5.6029    0.0000 </r>
       <r>    9.1890    0.0000 </r>
      </set>
      <set comment="kpoint 4">
       <r>  -30.0583    1.0000 </r>
       <r>  -15.0192    1.0000 </r>
       <r>  -13.7758    1.0000 </r>
       <r>  -13.6409    1.0000 </r>
       <r>  -12.0986    1.0000 </r>
       <r>  -12.0986    1.0000 </r>
       <r>  -11.5848    1.0000 </r>
       <r>   -1.6324    1.0000 </r>
       <r>   -0.2341    1.0000 </r>
       <r>   -0.2341    1.0000 </r>
       <r>    0.2358    1.0000 </r>
       <r>    0.3150    1.0000 </r>
       <r>    0.3150    1.0000 </r>
       <r>    0.6944    1.0000 </r>
       <r>    1.9406    1.0000 </r>
       <r>    1.9406    1.0000 </r>
       <r>    4.4943    0.0000 </r>
       <r>    6.1685    0.0000 </r>
       <r>    6.1685    0.0000 </r>
       <r>    9.8297    0.0000 </r>
      </set>
      <set comment="kpoint 5">
       <r>  -30.0719    1.0000 </r>
       <r>  -14.8196    1.0000 </r>
       <r>  -13.8705    1.0000 </r>
       <r>  -13.8006    1.0000 </r>
       <r>  -12.1264    1.0000 </r>
       <r>  -12.0625    1.0000 </r>
       <r>  -11.9651    1.0000 </r>
       <r>   -0.6389    1.0000 </r>
       <r>   -0.3444    1.0000 </r>
       <r>   -0.2377    1.0000 </r>
       <r>    0.6703    1.0000 </r>
       <r>    1.0030    1.0000 </r>
       <r>    1.4793    1.0000 </r>
       <r>    1.5339    1.0000 </r>
       <r>    1.8739    1.0000 </r>
       <r>    2.0080    1.0000 </r>
       <r>    4.7590    0.0000 </r>
       <r>    4.8631    0.0000 </r>
       <r>    5.0434    0.0000 </r>
       <r>    8.6979    0.0000 </r>
      </set>
      <set comment="kpoint 6">
       <r>  -30.0623    1.0000 </r>
       <r>  -14.8488    1.0000 </r>
       <r>  -13.8616    1.0000 </r>
       <r>  -13.7617    1.0000 </r>
       <r>  -12.1052    1.0000 </r>
       <r>  -12.0297    1.0000 </r>
       <r>  -11.7718    1.0000 </r>
       <r>   -1.1554    1.0000 </r>
       <r>   -0.5114    1.0000 </r>
       <r>   -0.2539    1.0000 </r>
       <r>   -0.0004    1.0000 </r>
       <r>    0.5614    1.0000 </r>
       <r>    0.8982    1.0000 </r>
       <r>    1.4576    1.0000 </r>
       <r>    1.6930    1.0000 </r>
       <r>    1.7843    1.0000 </r>
       <r>    4.8516    0.0000 </r>
       <r>    5.6133    0.0000 </r>
       <r>    5.6687    0.0000 </r>
       <r>    9.4217    0.0000 </r>
      </set>
      <set comment="kpoint 7">
       <r>  -30.0545    1.0000 </r>
       <r>  -14.9192    1.0000 </r>
       <r>  -13.7768    1.0000 </r>
       <r>  -13.7235    1.0000 </r>
       <r>  -12.0881    1.0000 </r>
       <r>  -12.0186    1.0000 </r>
       <r>  -11.6284    1.0000 </r>
       <r>   -1.6468    1.0000 </r>
       <r>   -0.6975    1.0000 </r>
       <r>   -0.3577    1.0000 </r>
       <r>   -0.2373    1.0000 </r>
       <r>    0.2143    1.0000 </r>
       <r>    0.5960    1.0000 </r>
       <r>    1.3944    1.0000 </r>
       <r>    1.5418    1.0000 </r>
       <r>    1.6707    1.0000 </r>
       <r>    4.8939    0.0000 </r>
       <r>    6.1694    0.0000 </r>
       <r>    6.1900    0.0000 </r>
       <r>   10.0486    0.0000 </r>
      </set>
      <set comment="kpoint 8">
       <r>  -30.0533    1.0000 </r>
       <r>  -14.7128    1.0000 </r>
       <r>  -13.9792    1.0000 </r>
       <r>  -13.7304    1.0000 </r>
       <r>  -12.0826    1.0000 </r>
       <r>  -11.8907    1.0000 </r>
       <r>  -11.7786    1.0000 </r>
       <r>   -1.3894    1.0000 </r>
       <r>   -0.9239    1.0000 </r>
       <r>   -0.7788    1.0000 </r>
       <r>   -0.2667    1.0000 </r>
       <r>    0.2645    1.0000 </r>
       <r>    0.8652    1.0000 </r>
       <r>    1.2140    1.0000 </r>
       <r>    1.4254    1.0000 </r>
       <r>    2.0055    1.0000 </r>
       <r>    5.5642    0.0000 </r>
       <r>    5.6884    0.0000 </r>
       <r>    5.9808    0.0000 </r>
       <r>    9.9397    0.0000 </r>
      </set>
      <set comment="kpoint 9">
       <r>  -30.0461    1.0000 </r>
       <r>  -14.6565    1.0000 </r>
       <r>  -13.9396    1.0000 </r>
       <r>  -13.7634    1.0000 </r>
       <r>  -12.0643    1.0000 </r>
       <r>  -11.8642    1.0000 </r>
       <r>  -11.7096    1.0000 </r>
       <r>   -1.7016    1.0000 </r>
       <r>   -1.4443    1.0000 </r>
       <r>   -0.9953    1.0000 </r>
       <r>   -0.2465    1.0000 </r>
       <r>   -0.0047    1.0000 </r>
       <r>    0.8289    1.0000 </r>
       <r>    1.1403    1.0000 </r>
       <r>    1.2340    1.0000 </r>
       <r>    2.1271    1.0000 </r>
       <r>    5.6410    0.0000 </r>
       <r>    6.1731    0.0000 </r>
       <r>    6.3547    0.0000 </r>
       <r>   10.4353    0.0000 </r>
      </set>
      <set comment="kpoint 10">
       <r>  -30.0392    1.0000 </r>
       <r>  -14.3566    1.0000 </r>
       <r>  -14.0536    1.0000 </r>
       <r>  -13.8933    1.0000 </r>
       <r>  -12.0450    1.0000 </r>
       <r>  -11.7609    1.0000 </r>
       <r>  -11.7461    1.0000 </r>
       <r>   -1.9200    1.0000 </r>
       <r>   -1.7918    1.0000 </r>
       <r>   -1.4973    1.0000 </r>
       <r>   -0.2488    1.0000 </r>
       <r>   -0.1824    1.0000 </r>
       <r>    0.9732    1.0000 </r>
       <r>    1.0068    1.0000 </r>
       <r>    1.0858    1.0000 </r>
       <r>    2.4514    1.0000 </r>
       <r>    6.1647    0.0000 </r>
       <r>    6.1863    0.0000 </r>
       <r>    6.6030    0.0000 </r>
       <r>   10.7179    0.0000 </r>
      </set>
      <set comment="kpoint 11">
       <r>  -30.0678    1.0000 </r>
       <r>  -14.7896    1.0000 </r>
       <r>  -13.8475    1.0000 </r>
       <r>  -13.8475    1.0000 </r>
       <r>  -12.0785    1.0000 </r>
       <r>  -12.0785    1.0000 </r>
       <r>  -11.9024    1.0000 </r>
       <r>   -0.8058    1.0000 </r>
       <r>   -0.3500    1.0000 </r>
       <r>   -0.3500    1.0000 </r>
       <r>    0.5654    1.0000 </r>
       <r>    0.5654    1.0000 </r>
       <r>    1.1620    1.0000 </r>
       <r>    1.6723    1.0000 </r>
       <r>    1.8185    1.0000 </r>
       <r>    1.8185    1.0000 </r>
       <r>    5.0089    0.0000 </r>
       <r>    5.1011    0.0000 </r>
       <r>    5.1011    0.0000 </r>
       <r>    8.9620    0.0000 </r>
      </set>
      <set comment="kpoint 12">
       <r>  -30.0584    1.0000 </r>
       <r>  -14.7772    1.0000 </r>
       <r>  -13.8588    1.0000 </r>
       <r>  -13.7935    1.0000 </r>
       <r>  -12.1171    1.0000 </r>
       <r>  -11.9930    1.0000 </r>
       <r>  -11.7689    1.0000 </r>
       <r>   -1.2227    1.0000 </r>
       <r>   -0.6262    1.0000 </r>
       <r>   -0.3646    1.0000 </r>
       <r>   -0.0151    1.0000 </r>
       <r>    0.0411    1.0000 </r>
       <r>    0.8853    1.0000 </r>
       <r>    1.5613    1.0000 </r>
       <r>    1.6521    1.0000 </r>
       <r>    1.6883    1.0000 </r>
       <r>    5.1237    0.0000 </r>
       <r>    5.6922    0.0000 </r>
       <r>    5.6995    0.0000 </r>
       <r>    9.6534    0.0000 </r>
      </set>
      <set comment="kpoint 13">
       <r>  -30.0508    1.0000 </r>
       <r>  -14.8198    1.0000 </r>
       <r>  -13.7836    1.0000 </r>
       <r>  -13.7478    1.0000 </r>
       <r>  -12.1507    1.0000 </r>
       <r>  -11.9297    1.0000 </r>
       <r>  -11.6775    1.0000 </r>
       <r>   -1.6585    1.0000 </r>
       <r>   -0.8518    1.0000 </r>
       <r>   -0.4511    1.0000 </r>
       <r>   -0.3924    1.0000 </r>
       <r>   -0.2341    1.0000 </r>
       <r>    0.9724    1.0000 </r>
       <r>    1.3057    1.0000 </r>
       <r>    1.5141    1.0000 </r>
       <r>    1.6012    1.0000 </r>
       <r>    5.1727    0.0000 </r>
       <r>    6.1998    0.0000 </r>
       <r>    6.2159    0.0000 </r>
       <r>   10.2186    0.0000 </r>
      </set>
      <set comment="kpoint 14">
       <r>  -30.0496    1.0000 </r>
       <r>  -14.6322    1.0000 </r>
       <r>  -13.9292    1.0000 </r>
       <r>  -13.7506    1.0000 </r>
       <r>  -12.1219    1.0000 </r>
       <r>  -11.9557    1.0000 </r>
       <r>  -11.7508    1.0000 </r>
       <r>   -1.4316    1.0000 </r>
       <r>   -0.9191    1.0000 </r>
       <r>   -0.7188    1.0000 </r>
       <r>   -0.4868    1.0000 </r>
       <r>   -0.1038    1.0000 </r>
       <r>    0.4443    1.0000 </r>
       <r>    1.4962    1.0000 </r>
       <r>    1.5566    1.0000 </r>
       <r>    2.0149    1.0000 </r>
       <r>    5.6980    0.0000 </r>
       <r>    5.7937    0.0000 </r>
       <r>    6.0189    0.0000 </r>
       <r>   10.0979    0.0000 </r>
      </set>
      <set comment="kpoint 15">
       <r>  -30.0425    1.0000 </r>
       <r>  -14.5596    1.0000 </r>
       <r>  -13.9043    1.0000 </r>
       <r>  -13.7343    1.0000 </r>
       <r>  -12.1587    1.0000 </r>
       <r>  -11.8727    1.0000 </r>
       <r>  -11.7645    1.0000 </r>
       <r>   -1.6990    1.0000 </r>
       <r>   -1.3768    1.0000 </r>
       <r>   -0.9854    1.0000 </r>
       <r>   -0.5076    1.0000 </r>
       <r>   -0.3619    1.0000 </r>
       <r>    0.4675    1.0000 </r>
       <r>    1.3907    1.0000 </r>
       <r>    1.4890    1.0000 </r>
       <r>    2.1366    1.0000 </r>
       <r>    5.7845    0.0000 </r>
       <r>    6.2452    0.0000 </r>
       <r>    6.3900    0.0000 </r>
       <r>   10.5939    0.0000 </r>
      </set>
      <set comment="kpoint 16">
       <r>  -30.0358    1.0000 </r>
       <r>  -14.2625    1.0000 </r>
       <r>  -13.9871    1.0000 </r>
       <r>  -13.8319    1.0000 </r>
       <r>  -12.1281    1.0000 </r>
       <r>  -11.8600    1.0000 </r>
       <r>  -11.8176    1.0000 </r>
       <r>   -1.8245    1.0000 </r>
       <r>   -1.7280    1.0000 </r>
       <r>   -1.4936    1.0000 </r>
       <r>   -0.5228    1.0000 </r>
       <r>   -0.4648    1.0000 </r>
       <r>    0.3315    1.0000 </r>
       <r>    1.4301    1.0000 </r>
       <r>    1.4740    1.0000 </r>
       <r>    2.4658    1.0000 </r>
       <r>    6.2620    0.0000 </r>
       <r>    6.2821    0.0000 </r>
       <r>    6.6418    0.0000 </r>
       <r>   10.4726    0.0000 </r>
      </set>
      <set comment="kpoint 17">
       <r>  -30.0411    1.0000 </r>
       <r>  -14.4494    1.0000 </r>
       <r>  -13.8030    1.0000 </r>
       <r>  -13.8030    1.0000 </r>
       <r>  -12.1156    1.0000 </r>
       <r>  -12.1156    1.0000 </r>
       <r>  -11.7674    1.0000 </r>
       <r>   -1.5218    1.0000 </r>
       <r>   -0.9076    1.0000 </r>
       <r>   -0.9076    1.0000 </r>
       <r>   -0.5682    1.0000 </r>
       <r>   -0.5682    1.0000 </r>
       <r>   -0.5447    1.0000 </r>
       <r>    1.8034    1.0000 </r>
       <r>    1.8034    1.0000 </r>
       <r>    2.1440    1.0000 </r>
       <r>    6.0698    0.0000 </r>
       <r>    6.1183    0.0000 </r>
       <r>    6.1183    0.0000 </r>
       <r>   10.3991    0.0000 </r>
      </set>
      <set comment="kpoint 18">
       <r>  -30.0344    1.0000 </r>
       <r>  -14.3094    1.0000 </r>
       <r>  -13.8390    1.0000 </r>
       <r>  -13.6816    1.0000 </r>
       <r>  -12.2641    1.0000 </r>
       <r>  -12.0101    1.0000 </r>
       <r>  -11.8681    1.0000 </r>
       <r>   -1.7002    1.0000 </r>
       <r>   -1.3099    1.0000 </r>
       <r>   -1.0012    1.0000 </r>
       <r>   -0.8962    1.0000 </r>
       <r>   -0.8244    1.0000 </r>
       <r>   -0.4357    1.0000 </r>
       <r>    1.8339    1.0000 </r>
       <r>    1.9676    1.0000 </r>
       <r>    2.2467    1.0000 </r>
       <r>    6.1668    0.0000 </r>
       <r>    6.4568    0.0000 </r>
       <r>    6.4812    0.0000 </r>
       <r>   10.5079    0.0000 </r>
      </set>
      <set comment="kpoint 19">
       <r>  -30.0279    1.0000 </r>
       <r>  -14.0270    1.0000 </r>
       <r>  -13.8116    1.0000 </r>
       <r>  -13.6940    1.0000 </r>
       <r>  -12.2850    1.0000 </r>
       <r>  -12.1076    1.0000 </r>
       <r>  -12.0136    1.0000 </r>
       <r>   -1.7921    1.0000 </r>
       <r>   -1.4847    1.0000 </r>
       <r>   -1.4139    1.0000 </r>
       <r>   -0.9410    1.0000 </r>
       <r>   -0.8507    1.0000 </r>
       <r>   -0.7459    1.0000 </r>
       <r>    2.0571    1.0000 </r>
       <r>    2.0933    1.0000 </r>
       <r>    2.5025    1.0000 </r>
       <r>    6.5260    0.0000 </r>
       <r>    6.5381    0.0000 </r>
       <r>    6.7309    0.0000 </r>
       <r>   10.0753    0.0000 </r>
      </set>
      <set comment="kpoint 20">
       <r>  -30.0215    1.0000 </r>
       <r>  -13.7699    1.0000 </r>
       <r>  -13.6258    1.0000 </r>
       <r>  -13.6258    1.0000 </r>
       <r>  -12.3505    1.0000 </r>
       <r>  -12.3505    1.0000 </r>
       <r>  -12.2373    1.0000 </r>
       <r>   -1.8803    1.0000 </r>
       <r>   -1.4768    1.0000 </r>
       <r>   -1.4768    1.0000 </r>
       <r>   -1.1752    1.0000 </r>
       <r>   -1.0675    1.0000 </r>
       <r>   -1.0675    1.0000 </r>
       <r>    2.4698    1.0000 </r>
       <r>    2.4698    1.0000 </r>
       <r>    2.5574    1.0000 </r>
       <r>    6.8080    0.0000 </r>
       <r>    9.7834    0.0000 </r>
       <r>    9.8148    0.0000 </r>
       <r>    9.8545    0.0000 </r>
      </set>
     </set>
    </set>
   </array>
  </eigenvalues>
  <separator name="orbital magnetization" >
   <v name="MAGDIPOLOUT">      0.00000000      0.00000000      0.00000000</v>
  </separator>
  <dos>
   <i name="efermi">      2.62280422 </i>
   <total>
    <array>
     <dimension dim="1">gridpoints</dimension>
     <dimension dim="2">spin</dimension>
     <field>energy</field>
     <field>total</field>
     <field>integrated</field>
     <set>
      <set comment="spin 1">
       <r>   -32.1206     0.0000     0.0000 </r>
       <r>   -31.9710     0.0000     0.0000 </r>
       <r>   -31.8214     0.0000     0.0000 </r>
       <r>   -31.6718     0.0000     0.0000 </r>
       <r>   -31.5222     0.0000     0.0000 </r>
       <r>   -31.3726     0.0000     0.0000 </r>
       <r>   -31.2230     0.0000     0.0000 </r>
       <r>   -31.0734     0.0000     0.0000 </r>
       <r>   -30.9238     0.0000     0.0000 </r>
       <r>   -30.7742     0.0000     0.0000 </r>
       <r>   -30.6246     0.0000     0.0000 </r>
       <r>   -30.4750     0.0000     0.0000 </r>
       <r>   -30.3254     0.0000     0.0000 </r>
       <r>   -30.1758     0.0000     0.0000 </r>
       <r>   -30.0262    15.6121     1.9462 </r>
       <r>   -29.8766     0.0000     2.0000 </r>
       <r>   -29.7270     0.0000     2.0000 </r>
       <r>   -29.5774     0.0000     2.0000 </r>
       <r>   -29.4279     0.0000     2.0000 </r>
       <r>   -29.2783     0.0000     2.0000 </r>
       <r>   -29.1287     0.0000     2.0000 </r>
       <r>   -28.9791     0.0000     2.0000 </r>
       <r>   -28.8295     0.0000     2.0000 </r>
       <r>   -28.6799     0.0000     2.0000 </r>
       <r>   -28.5303     0.0000     2.0000 </r>
       <r>   -28.3807     0.0000     2.0000 </r>
       <r>   -28.2311     0.0000     2.0000 </r>
       <r>   -28.0815     0.0000     2.0000 </r>
       <r>   -27.9319     0.0000     2.0000 </r>
       <r>   -27.7823     0.0000     2.0000 </r>
       <r>   -27.6327     0.0000     2.0000 </r>
       <r>   -27.4831     0.0000     2.0000 </r>
       <r>   -27.3335     0.0000     2.0000 </r>
       <r>   -27.1839     0.0000     2.0000 </r>
       <r>   -27.0343     0.0000     2.0000 </r>
       <r>   -26.8847     0.0000     2.0000 </r>
       <r>   -26.7351     0.0000     2.0000 </r>
       <r>   -26.5856     0.0000     2.0000 </r>
       <r>   -26.4360     0.0000     2.0000 </r>
       <r>   -26.2864     0.0000     2.0000 </r>
       <r>   -26.1368     0.0000     2.0000 </r>
       <r>   -25.9872     0.0000     2.0000 </r>
       <r>   -25.8376     0.0000     2.0000 </r>
       <r>   -25.6880     0.0000     2.0000 </r>
       <r>   -25.5384     0.0000     2.0000 </r>
       <r>   -25.3888     0.0000     2.0000 </r>
       <r>   -25.2392     0.0000     2.0000 </r>
       <r>   -25.0896     0.0000     2.0000 </r>
       <r>   -24.9400     0.0000     2.0000 </r>
       <r>   -24.7904     0.0000     2.0000 </r>
       <r>   -24.6408     0.0000     2.0000 </r>
       <r>   -24.4912     0.0000     2.0000 </r>
       <r>   -24.3416     0.0000     2.0000 </r>
       <r>   -24.1920     0.0000     2.0000 </r>
       <r>   -24.0424     0.0000     2.0000 </r>
       <r>   -23.8928     0.0000     2.0000 </r>
       <r>   -23.7433     0.0000     2.0000 </r>
       <r>   -23.5937     0.0000     2.0000 </r>
       <r>   -23.4441     0.0000     2.0000 </r>
       <r>   -23.2945     0.0000     2.0000 </r>
       <r>   -23.1449     0.0000     2.0000 </r>
       <r>   -22.9953     0.0000     2.0000 </r>
       <r>   -22.8457     0.0000     2.0000 </r>
       <r>   -22.6961     0.0000     2.0000 </r>
       <r>   -22.5465     0.0000     2.0000 </r>
       <r>   -22.3969     0.0000     2.0000 </r>
       <r>   -22.2473     0.0000     2.0000 </r>
       <r>   -22.0977     0.0000     2.0000 </r>
       <r>   -21.9481     0.0000     2.0000 </r>
       <r>   -21.7985     0.0000     2.0000 </r>
       <r>   -21.6489     0.0000     2.0000 </r>
       <r>   -21.4993     0.0000     2.0000 </r>
       <r>   -21.3497     0.0000     2.0000 </r>
       <r>   -21.2001     0.0000     2.0000 </r>
       <r>   -21.0506     0.0000     2.0000 </r>
       <r>   -20.9010     0.0000     2.0000 </r>
       <r>   -20.7514     0.0000     2.0000 </r>
       <r>   -20.6018     0.0000     2.0000 </r>
       <r>   -20.4522     0.0000     2.0000 </r>
       <r>   -20.3026     0.0000     2.0000 </r>
       <r>   -20.1530     0.0000     2.0000 </r>
       <r>   -20.0034     0.0000     2.0000 </r>
       <r>   -19.8538     0.0000     2.0000 </r>
       <r>   -19.7042     0.0000     2.0000 </r>
       <r>   -19.5546     0.0000     2.0000 </r>
       <r>   -19.4050     0.0000     2.0000 </r>
       <r>   -19.2554     0.0000     2.0000 </r>
       <r>   -19.1058     0.0000     2.0000 </r>
       <r>   -18.9562     0.0000     2.0000 </r>
       <r>   -18.8066     0.0000     2.0000 </r>
       <r>   -18.6570     0.0000     2.0000 </r>
       <r>   -18.5074     0.0000     2.0000 </r>
       <r>   -18.3578     0.0000     2.0000 </r>
       <r>   -18.2083     0.0000     2.0000 </r>
       <r>   -18.0587     0.0000     2.0000 </r>
       <r>   -17.9091     0.0000     2.0000 </r>
       <r>   -17.7595     0.0000     2.0000 </r>
       <r>   -17.6099     0.0000     2.0000 </r>
       <r>   -17.4603     0.0000     2.0000 </r>
       <r>   -17.3107     0.0000     2.0000 </r>
       <r>   -17.1611     0.0000     2.0000 </r>
       <r>   -17.0115     0.0000     2.0000 </r>
       <r>   -16.8619     0.0000     2.0000 </r>
       <r>   -16.7123     0.0000     2.0000 </r>
       <r>   -16.5627     0.0000     2.0000 </r>
       <r>   -16.4131     0.0000     2.0000 </r>
       <r>   -16.2635     0.0000     2.0000 </r>
       <r>   -16.1139     0.0000     2.0000 </r>
       <r>   -15.9643     0.0000     2.0000 </r>
       <r>   -15.8147     0.0000     2.0000 </r>
       <r>   -15.6651     0.0000     2.0000 </r>
       <r>   -15.5155     0.0000     2.0000 </r>
       <r>   -15.3660     0.0000     2.0000 </r>
       <r>   -15.2164     0.0000     2.0000 </r>
       <r>   -15.0668     0.0000     2.0000 </r>
       <r>   -14.9172     1.5687     2.0656 </r>
       <r>   -14.7676     3.3761     2.6495 </r>
       <r>   -14.6180     2.5521     3.0946 </r>
       <r>   -14.4684     1.8314     3.4079 </r>
       <r>   -14.3188     1.6097     3.6612 </r>
       <r>   -14.1692     0.7933     3.8271 </r>
       <r>   -14.0196     1.9165     3.9531 </r>
       <r>   -13.8700    12.8042     4.9203 </r>
       <r>   -13.7204     8.4211     7.6011 </r>
       <r>   -13.5708     0.0000     8.0000 </r>
       <r>   -13.4212     0.0000     8.0000 </r>
       <r>   -13.2716     0.0000     8.0000 </r>
       <r>   -13.1220     0.0000     8.0000 </r>
       <r>   -12.9724     0.0000     8.0000 </r>
       <r>   -12.8228     0.0000     8.0000 </r>
       <r>   -12.6732     0.0000     8.0000 </r>
       <r>   -12.5237     0.0000     8.0000 </r>
       <r>   -12.3741     0.0000     8.0000 </r>
       <r>   -12.2245     3.3879     8.3007 </r>
       <r>   -12.0749    10.5695    10.2299 </r>
       <r>   -11.9253     9.5931    11.6144 </r>
       <r>   -11.7757    11.2700    12.8854 </r>
       <r>   -11.6261     1.9040    13.9636 </r>
       <r>   -11.4765     0.0000    14.0000 </r>
       <r>   -11.3269     0.0000    14.0000 </r>
       <r>   -11.1773     0.0000    14.0000 </r>
       <r>   -11.0277     0.0000    14.0000 </r>
       <r>   -10.8781     0.0000    14.0000 </r>
       <r>   -10.7285     0.0000    14.0000 </r>
       <r>   -10.5789     0.0000    14.0000 </r>
       <r>   -10.4293     0.0000    14.0000 </r>
       <r>   -10.2797     0.0000    14.0000 </r>
       <r>   -10.1301     0.0000    14.0000 </r>
       <r>    -9.9805     0.0000    14.0000 </r>
       <r>    -9.8310     0.0000    14.0000 </r>
       <r>    -9.6814     0.0000    14.0000 </r>
       <r>    -9.5318     0.0000    14.0000 </r>
       <r>    -9.3822     0.0000    14.0000 </r>
       <r>    -9.2326     0.0000    14.0000 </r>
       <r>    -9.0830     0.0000    14.0000 </r>
       <r>    -8.9334     0.0000    14.0000 </r>
       <r>    -8.7838     0.0000    14.0000 </r>
       <r>    -8.6342     0.0000    14.0000 </r>
       <r>    -8.4846     0.0000    14.0000 </r>
       <r>    -8.3350     0.0000    14.0000 </r>
       <r>    -8.1854     0.0000    14.0000 </r>
       <r>    -8.0358     0.0000    14.0000 </r>
       <r>    -7.8862     0.0000    14.0000 </r>
       <r>    -7.7366     0.0000    14.0000 </r>
       <r>    -7.5870     0.0000    14.0000 </r>
       <r>    -7.4374     0.0000    14.0000 </r>
       <r>    -7.2878     0.0000    14.0000 </r>
       <r>    -7.1382     0.0000    14.0000 </r>
       <r>    -6.9887     0.0000    14.0000 </r>
       <r>    -6.8391     0.0000    14.0000 </r>
       <r>    -6.6895     0.0000    14.0000 </r>
       <r>    -6.5399     0.0000    14.0000 </r>
       <r>    -6.3903     0.0000    14.0000 </r>
       <r>    -6.2407     0.0000    14.0000 </r>
       <r>    -6.0911     0.0000    14.0000 </r>
       <r>    -5.9415     0.0000    14.0000 </r>
       <r>    -5.7919     0.0000    14.0000 </r>
       <r>    -5.6423     0.0000    14.0000 </r>
       <r>    -5.4927     0.0000    14.0000 </r>
       <r>    -5.3431     0.0000    14.0000 </r>
       <r>    -5.1935     0.0000    14.0000 </r>
       <r>    -5.0439     0.0000    14.0000 </r>
       <r>    -4.8943     0.0000    14.0000 </r>
       <r>    -4.7447     0.0000    14.0000 </r>
       <r>    -4.5951     0.0000    14.0000 </r>
       <r>    -4.4455     0.0000    14.0000 </r>
       <r>    -4.2959     0.0000    14.0000 </r>
       <r>    -4.1464     0.0000    14.0000 </r>
       <r>    -3.9968     0.0000    14.0000 </r>
       <r>    -3.8472     0.0000    14.0000 </r>
       <r>    -3.6976     0.0000    14.0000 </r>
       <r>    -3.5480     0.0000    14.0000 </r>
       <r>    -3.3984     0.0000    14.0000 </r>
       <r>    -3.2488     0.0000    14.0000 </r>
       <r>    -3.0992     0.0000    14.0000 </r>
       <r>    -2.9496     0.0000    14.0000 </r>
       <r>    -2.8000     0.0000    14.0000 </r>
       <r>    -2.6504     0.0000    14.0000 </r>
       <r>    -2.5008     0.0000    14.0000 </r>
       <r>    -2.3512     0.0000    14.0000 </r>
       <r>    -2.2016     0.0000    14.0000 </r>
       <r>    -2.0520     0.0000    14.0000 </r>
       <r>    -1.9024     0.5152    14.0077 </r>
       <r>    -1.7528     4.7361    14.4242 </r>
       <r>    -1.6032     3.3977    15.2676 </r>
       <r>    -1.4537     5.4568    15.9155 </r>
       <r>    -1.3041     3.5265    16.6112 </r>
       <r>    -1.1545     3.3626    17.1266 </r>
       <r>    -1.0049     4.0193    17.6771 </r>
       <r>    -0.8553     4.8907    18.4042 </r>
       <r>    -0.7057     5.1969    19.1736 </r>
       <r>    -0.5561     5.5027    19.9612 </r>
       <r>    -0.4065     7.0916    20.9241 </r>
       <r>    -0.2569     9.9043    22.2420 </r>
       <r>    -0.1073     3.4138    22.9326 </r>
       <r>     0.0423     2.6367    23.3931 </r>
       <r>     0.1919     2.1913    23.7548 </r>
       <r>     0.3415     1.8033    24.0630 </r>
       <r>     0.4911     2.3302    24.3536 </r>
       <r>     0.6407     3.0385    24.7655 </r>
       <r>     0.7903     3.3233    25.2416 </r>
       <r>     0.9399     1.5811    25.6918 </r>
       <r>     1.0895     1.5254    25.8774 </r>
       <r>     1.2391     3.5454    26.2349 </r>
       <r>     1.3886     8.1499    27.0409 </r>
       <r>     1.5382     8.4027    28.0736 </r>
       <r>     1.6878     5.6591    28.9905 </r>
       <r>     1.8374     5.4492    29.8586 </r>
       <r>     1.9870     3.9325    30.5564 </r>
       <r>     2.1366     3.0725    31.0768 </r>
       <r>     2.2862     2.2199    31.4837 </r>
       <r>     2.4358     1.7031    31.7775 </r>
       <r>     2.5854     0.0000    32.0000 </r>
       <r>     2.7350     0.0000    32.0000 </r>
       <r>     2.8846     0.0000    32.0000 </r>
       <r>     3.0342     0.0000    32.0000 </r>
       <r>     3.1838     0.0000    32.0000 </r>
       <r>     3.3334     0.0000    32.0000 </r>
       <r>     3.4830     0.0000    32.0000 </r>
       <r>     3.6326     0.0000    32.0000 </r>
       <r>     3.7822     0.0000    32.0000 </r>
       <r>     3.9318     0.0000    32.0000 </r>
       <r>     4.0814     0.0000    32.0000 </r>
       <r>     4.2309     0.0000    32.0000 </r>
       <r>     4.3805     0.0919    32.0016 </r>
       <r>     4.5301     0.3425    32.0293 </r>
       <r>     4.6797     0.7556    32.1114 </r>
       <r>     4.8293     1.5018    32.2639 </r>
       <r>     4.9789     1.5390    32.4960 </r>
       <r>     5.1285     1.3964    32.7159 </r>
       <r>     5.2781     1.5684    32.9361 </r>
       <r>     5.4277     1.7744    33.1860 </r>
       <r>     5.5773     1.9932    33.4673 </r>
       <r>     5.7269     3.1133    33.8560 </r>
       <r>     5.8765     3.3277    34.3311 </r>
       <r>     6.0261     3.7615    34.8598 </r>
       <r>     6.1757    11.9815    35.5254 </r>
       <r>     6.3253     4.5421    36.6452 </r>
       <r>     6.4749     3.4095    37.2386 </r>
       <r>     6.6245     2.3950    37.6245 </r>
       <r>     6.7741     0.2725    37.7819 </r>
       <r>     6.9237     0.1128    37.8098 </r>
       <r>     7.0732     0.1065    37.8262 </r>
       <r>     7.2228     0.1003    37.8417 </r>
       <r>     7.3724     0.0944    37.8563 </r>
       <r>     7.5220     0.0886    37.8699 </r>
       <r>     7.6716     0.0830    37.8828 </r>
       <r>     7.8212     0.0776    37.8948 </r>
       <r>     7.9708     0.0723    37.9060 </r>
       <r>     8.1204     0.0706    37.9165 </r>
       <r>     8.2700     0.0941    37.9285 </r>
       <r>     8.4196     0.1470    37.9461 </r>
       <r>     8.5692     0.1990    37.9723 </r>
       <r>     8.7188     0.2259    38.0044 </r>
       <r>     8.8684     0.2472    38.0396 </r>
       <r>     9.0180     0.2875    38.0794 </r>
       <r>     9.1676     0.3351    38.1259 </r>
       <r>     9.3172     0.3914    38.1800 </r>
       <r>     9.4668     0.4714    38.2440 </r>
       <r>     9.6164     0.5839    38.3227 </r>
       <r>     9.7659     0.6992    38.4187 </r>
       <r>     9.9155     1.1592    38.5650 </r>
       <r>    10.0651     1.7074    38.7779 </r>
       <r>    10.2147     1.8403    39.0339 </r>
       <r>    10.3643     2.1903    39.3362 </r>
       <r>    10.5139     3.3613    39.7357 </r>
       <r>    10.6635     0.4668    39.9837 </r>
       <r>    10.8131     0.0000    40.0000 </r>
       <r>    10.9627     0.0000    40.0000 </r>
       <r>    11.1123     0.0000    40.0000 </r>
       <r>    11.2619     0.0000    40.0000 </r>
       <r>    11.4115     0.0000    40.0000 </r>
       <r>    11.5611     0.0000    40.0000 </r>
       <r>    11.7107     0.0000    40.0000 </r>
       <r>    11.8603     0.0000    40.0000 </r>
       <r>    12.0099     0.0000    40.0000 </r>
       <r>    12.1595     0.0000    40.0000 </r>
       <r>    12.3091     0.0000    40.0000 </r>
       <r>    12.4587     0.0000    40.0000 </r>
       <r>    12.6082     0.0000    40.0000 </r>
       <r>    12.7578     0.0000    40.0000 </r>
      </set>
     </set>
    </array>
   </total>
  </dos>
 </calculation>
 <structure name="finalpos" >
  <crystal>
   <varray name="basis" >
    <v>       3.90526800       0.00000000       0.00000000 </v>
    <v>       0.00000000       3.90526800       0.00000000 </v>
    <v>       0.00000000       0.00000000       3.90526800 </v>
   </varray>
   <i name="volume">     59.55970368 </i>
   <varray name="rec_basis" >
    <v>       0.25606437       0.00000000       0.00000000 </v>
    <v>       0.00000000       0.25606437       0.00000000 </v>
    <v>       0.00000000       0.00000000       0.25606437 </v>
   </varray>
  </crystal>
  <varray name="positions" >
   <v>       0.00000000       0.00000000       0.00000000 </v>
   <v>       0.50000000       0.50000000       0.50000000 </v>
   <v>       0.50000000       0.50000000       0.00000000 </v>
   <v>       0.50000000       0.00000000       0.50000000 </v>
   <v>       0.00000000       0.50000000       0.50000000 </v>
  </varray>
 </structure>
</modeling>
