unknown system                          
   2.60000000000000     
     1.000000    0.000000    0.000000
     0.000000    1.000000    0.000000
     0.000000    0.000000    1.000000
   Pt
     1
Direct
  0.000000  0.000000  0.000000
 
   28   28   28
  66.920      65.361      61.062      54.966      48.152      41.408      35.072      29.167      23.692      18.795    
  14.737      11.724      9.7779      8.7369      8.4004      8.7369      9.7779      11.724      14.737      18.795    
  23.692      29.167      35.072      41.408      48.152      54.966      61.062      65.361      65.361      63.899    
  59.856      54.097      47.605      41.097      34.887      29.021      23.540      18.633      14.579      11.585    
  9.6614      8.6340      8.3010      8.6340      9.6614      11.585      14.579      18.633      23.540      29.021    
  34.887      41.097      47.605      54.097      59.856      63.899      61.062      59.856      56.499      51.636    
  45.999      40.119      34.249      28.497      23.020      18.109      14.093      11.171      9.3201      8.3334    
  8.0116      8.3334      9.3201      11.171      14.093      18.109      23.020      28.497      34.249      40.119    
  45.999      51.636      56.499      59.856      54.966      54.097      51.636      47.943      43.418      38.357    
  32.948      27.387      21.983      17.151      13.264      10.499      8.7799      7.8597      7.5577      7.8597    
  8.7799      10.499      13.264      17.151      21.983      27.387      32.948      38.357      43.418      47.943    
  51.636      54.097      48.152      47.605      45.999      43.418      39.952      35.687      30.771      25.495    
  20.310      15.722      12.114      9.6134      8.0843      7.2514      6.9783      7.2514      8.0843      9.6134    
  12.114      15.722      20.310      25.495      30.771      35.687      39.952      43.418      45.999      47.605    
  41.408      41.097      40.119      38.357      35.687      32.067      27.641      22.782      18.023      13.891    
  10.729      8.5918      7.2878      6.5580      6.3209      6.5580      7.2878      8.5918      10.729      13.891    
  18.023      22.782      27.641      32.067      35.687      38.357      40.119      41.097      35.072      34.887    
  34.249      32.948      30.771      27.641      23.729      19.445      15.326      11.845      9.2532      7.5281    
  6.4458      5.8323      5.6351      5.8323      6.4458      7.5281      9.2532      11.845      15.326      19.445    
  23.729      27.641      30.771      32.948      34.249      34.887      29.167      29.021      28.497      27.387    
  25.495      22.782      19.445      15.882      12.557      9.8306      7.8420      6.5003      5.6189      5.1236    
  4.9654      5.1236      5.6189      6.5003      7.8420      9.8306      12.557      15.882      19.445      22.782    
  25.495      27.387      28.497      29.021      23.692      23.540      23.020      21.983      20.310      18.023    
  15.326      12.557      10.062      8.0643      6.5999      5.5549      4.8594      4.4710      4.3471      4.4710    
  4.8594      5.5549      6.5999      8.0643      10.062      12.557      15.326      18.023      20.310      21.983    
  23.020      23.540      18.795      18.633      18.109      17.151      15.722      13.891      11.845      9.8306    
  8.0643      6.6472      5.5500      4.7405      4.2025      3.9008      3.8042      3.9008      4.2025      4.7405    
  5.5500      6.6472      8.0643      9.8306      11.845      13.891      15.722      17.151      18.109      18.633    
  14.737      14.579      14.093      13.264      12.114      10.729      9.2532      7.8420      6.5999      5.5500    
  4.7080      4.0848      3.6659      3.4276      3.3506      3.4276      3.6659      4.0848      4.7080      5.5500    
  6.5999      7.8420      9.2532      10.729      12.114      13.264      14.093      14.579      11.724      11.585    
  11.171      10.499      9.6134      8.5918      7.5281      6.5003      5.5549      4.7405      4.0848      3.5923    
  3.2541      3.0578      2.9936      3.0578      3.2541      3.5923      4.0848      4.7405      5.5549      6.5003    
  7.5281      8.5918      9.6134      10.499      11.171      11.585      9.7779      9.6614      9.3201      8.7799    
  8.0843      7.2878      6.4458      5.6189      4.8594      4.2025      3.6659      3.2541      2.9647      2.7934    
  2.7367      2.7934      2.9647      3.2541      3.6659      4.2025      4.8594      5.6189      6.4458      7.2878    
  8.0843      8.7799      9.3201      9.6614      8.7369      8.6340      8.3334      7.8597      7.2514      6.5580    
  5.8323      5.1236      4.4710      3.9008      3.4276      3.0578      2.7934      2.6347      2.5819      2.6347    
  2.7934      3.0578      3.4276      3.9008      4.4710      5.1236      5.8323      6.5580      7.2514      7.8597    
  8.3334      8.6340      8.4004      8.3010      8.0116      7.5577      6.9783      6.3209      5.6351      4.9654    
  4.3471      3.8042      3.3506      2.9936      2.7367      2.5819      2.5301      2.5819      2.7367      2.9936    
  3.3506      3.8042      4.3471      4.9654      5.6351      6.3209      6.9783      7.5577      8.0116      8.3010    
  8.7369      8.6340      8.3334      7.8597      7.2514      6.5580      5.8323      5.1236      4.4710      3.9008    
  3.4276      3.0578      2.7934      2.6347      2.5819      2.6347      2.7934      3.0578      3.4276      3.9008    
  4.4710      5.1236      5.8323      6.5580      7.2514      7.8597      8.3334      8.6340      9.7779      9.6614    
  9.3201      8.7799      8.0843      7.2878      6.4458      5.6189      4.8594      4.2025      3.6659      3.2541    
  2.9647      2.7934      2.7367      2.7934      2.9647      3.2541      3.6659      4.2025      4.8594      5.6189    
  6.4458      7.2878      8.0843      8.7799      9.3201      9.6614      11.724      11.585      11.171      10.499    
  9.6134      8.5918      7.5281      6.5003      5.5549      4.7405      4.0848      3.5923      3.2541      3.0578    
  2.9936      3.0578      3.2541      3.5923      4.0848      4.7405      5.5549      6.5003      7.5281      8.5918    
  9.6134      10.499      11.171      11.585      14.737      14.579      14.093      13.264      12.114      10.729    
  9.2532      7.8420      6.5999      5.5500      4.7080      4.0848      3.6659      3.4276      3.3506      3.4276    
  3.6659      4.0848      4.7080      5.5500      6.5999      7.8420      9.2532      10.729      12.114      13.264    
  14.093      14.579      18.795      18.633      18.109      17.151      15.722      13.891      11.845      9.8306    
  8.0643      6.6472      5.5500      4.7405      4.2025      3.9008      3.8042      3.9008      4.2025      4.7405    
  5.5500      6.6472      8.0643      9.8306      11.845      13.891      15.722      17.151      18.109      18.633    
  23.692      23.540      23.020      21.983      20.310      18.023      15.326      12.557      10.062      8.0643    
  6.5999      5.5549      4.8594      4.4710      4.3471      4.4710      4.8594      5.5549      6.5999      8.0643    
  10.062      12.557      15.326      18.023      20.310      21.983      23.020      23.540      29.167      29.021    
  28.497      27.387      25.495      22.782      19.445      15.882      12.557      9.8306      7.8420      6.5003    
  5.6189      5.1236      4.9654      5.1236      5.6189      6.5003      7.8420      9.8306      12.557      15.882    
  19.445      22.782      25.495      27.387      28.497      29.021      35.072      34.887      34.249      32.948    
  30.771      27.641      23.729      19.445      15.326      11.845      9.2532      7.5281      6.4458      5.8323    
  5.6351      5.8323      6.4458      7.5281      9.2532      11.845      15.326      19.445      23.729      27.641    
  30.771      32.948      34.249      34.887      41.408      41.097      40.119      38.357      35.687      32.067    
  27.641      22.782      18.023      13.891      10.729      8.5918      7.2878      6.5580      6.3209      6.5580    
  7.2878      8.5918      10.729      13.891      18.023      22.782      27.641      32.067      35.687      38.357    
  40.119      41.097      48.152      47.605      45.999      43.418      39.952      35.687      30.771      25.495    
  20.310      15.722      12.114      9.6134      8.0843      7.2514      6.9783      7.2514      8.0843      9.6134    
  12.114      15.722      20.310      25.495      30.771      35.687      39.952      43.418      45.999      47.605    
  54.966      54.097      51.636      47.943      43.418      38.357      32.948      27.387      21.983      17.151    
  13.264      10.499      8.7799      7.8597      7.5577      7.8597      8.7799      10.499      13.264      17.151    
  21.983      27.387      32.948      38.357      43.418      47.943      51.636      54.097      61.062      59.856    
  56.499      51.636      45.999      40.119      34.249      28.497      23.020      18.109      14.093      11.171    
  9.3201      8.3334      8.0116      8.3334      9.3201      11.171      14.093      18.109      23.020      28.497    
  34.249      40.119      45.999      51.636      56.499      59.856      65.361      63.899      59.856      54.097    
  47.605      41.097      34.887      29.021      23.540      18.633      14.579      11.585      9.6614      8.6340    
  8.3010      8.6340      9.6614      11.585      14.579      18.633      23.540      29.021      34.887      41.097    
  47.605      54.097      59.856      63.899      65.361      63.899      59.856      54.097      47.605      41.097    
  34.887      29.021      23.540      18.633      14.579      11.585      9.6614      8.6340      8.3010      8.6340    
  9.6614      11.585      14.579      18.633      23.540      29.021      34.887      41.097      47.605      54.097    
  59.856      63.899      63.899      62.526      58.723      53.277      47.082      40.792      34.697      28.866    
  23.380      18.465      14.419      11.447      9.5463      8.5324      8.2030      8.5324      9.5463      11.447    
  14.419      18.465      23.380      28.866      34.697      40.792      47.082      53.277      58.723      62.526    
  59.856      58.723      55.557      50.943      45.540      39.826      34.043      28.316      22.838      17.930    
  13.931      11.035      9.2092      8.2358      7.9178      8.2358      9.2092      11.035      13.931      17.930    
  22.838      28.316      34.043      39.826      45.540      50.943      55.557      58.723      54.097      53.277    
  50.943      47.414      43.037      38.078      32.718      27.172      21.776      16.960      13.102      10.369    
  8.6761      7.7684      7.4704      7.7684      8.6761      10.369      13.102      16.960      21.776      27.172    
  32.718      38.078      43.037      47.414      50.943      53.277      47.605      47.082      45.540      43.037    
  39.637      35.413      30.516      25.251      20.084      15.527      11.958      9.4938      7.9900      7.1686    
  6.8994      7.1686      7.9900      9.4938      11.958      15.527      20.084      25.251      30.516      35.413    
  39.637      43.037      45.540      47.082      41.097      40.792      39.826      38.078      35.413      31.793    
  27.370      22.524      17.794      13.705      10.587      8.4865      7.2040      6.4848      6.2515      6.4848    
  7.2040      8.4865      10.587      13.705      17.794      22.524      27.370      31.793      35.413      38.078    
  39.826      40.792      34.887      34.697      34.043      32.718      30.516      27.370      23.457      19.194    
  15.114      11.680      9.1326      7.4391      6.3732      5.7692      5.5753      5.7692      6.3732      7.4391    
  9.1326      11.680      15.114      19.194      23.457      27.370      30.516      32.718      34.043      34.697    
  29.021      28.866      28.316      27.172      25.251      22.524      19.194      15.660      12.378      9.6964    
  7.7449      6.4259      5.5577      5.0703      4.9148      5.0703      5.5577      6.4259      7.7449      9.6964    
  12.378      15.660      19.194      22.524      25.251      27.172      28.316      28.866      23.540      23.380    
  22.838      21.776      20.084      17.794      15.114      12.378      9.9224      7.9615      6.5232      5.4936    
  4.8088      4.4265      4.3046      4.4265      4.8088      5.4936      6.5232      7.9615      9.9224      12.378    
  15.114      17.794      20.084      21.776      22.838      23.380      18.633      18.465      17.930      16.960    
  15.527      13.705      11.680      9.6964      7.9615      6.5693      5.4883      4.6909      4.1610      3.8637    
  3.7685      3.8637      4.1610      4.6909      5.4883      6.5693      7.9615      9.6964      11.680      13.705    
  15.527      16.960      17.930      18.465      14.579      14.419      13.931      13.102      11.958      10.587    
  9.1326      7.7449      6.5232      5.4883      4.6586      4.0446      3.6315      3.3964      3.3204      3.3964    
  3.6315      4.0446      4.6586      5.4883      6.5232      7.7449      9.1326      10.587      11.958      13.102    
  13.931      14.419      11.585      11.447      11.035      10.369      9.4938      8.4865      7.4391      6.4259    
  5.4936      4.6909      4.0446      3.5587      3.2249      3.0310      2.9675      3.0310      3.2249      3.5587    
  4.0446      4.6909      5.4936      6.4259      7.4391      8.4865      9.4938      10.369      11.035      11.447    
  9.6614      9.5463      9.2092      8.6761      7.9900      7.2040      6.3732      5.5577      4.8088      4.1610    
  3.6315      3.2249      2.9390      2.7696      2.7135      2.7696      2.9390      3.2249      3.6315      4.1610    
  4.8088      5.5577      6.3732      7.2040      7.9900      8.6761      9.2092      9.5463      8.6340      8.5324    
  8.2358      7.7684      7.1686      6.4848      5.7692      5.0703      4.4265      3.8637      3.3964      3.0310    
  2.7696      2.6127      2.5604      2.6127      2.7696      3.0310      3.3964      3.8637      4.4265      5.0703    
  5.7692      6.4848      7.1686      7.7684      8.2358      8.5324      8.3010      8.2030      7.9178      7.4704    
  6.8994      6.2515      5.5753      4.9148      4.3046      3.7685      3.3204      2.9675      2.7135      2.5604    
  2.5092      2.5604      2.7135      2.9675      3.3204      3.7685      4.3046      4.9148      5.5753      6.2515    
  6.8994      7.4704      7.9178      8.2030      8.6340      8.5324      8.2358      7.7684      7.1686      6.4848    
  5.7692      5.0703      4.4265      3.8637      3.3964      3.0310      2.7696      2.6127      2.5604      2.6127    
  2.7696      3.0310      3.3964      3.8637      4.4265      5.0703      5.7692      6.4848      7.1686      7.7684    
  8.2358      8.5324      9.6614      9.5463      9.2092      8.6761      7.9900      7.2040      6.3732      5.5577    
  4.8088      4.1610      3.6315      3.2249      2.9390      2.7696      2.7135      2.7696      2.9390      3.2249    
  3.6315      4.1610      4.8088      5.5577      6.3732      7.2040      7.9900      8.6761      9.2092      9.5463    
  11.585      11.447      11.035      10.369      9.4938      8.4865      7.4391      6.4259      5.4936      4.6909    
  4.0446      3.5587      3.2249      3.0310      2.9675      3.0310      3.2249      3.5587      4.0446      4.6909    
  5.4936      6.4259      7.4391      8.4865      9.4938      10.369      11.035      11.447      14.579      14.419    
  13.931      13.102      11.958      10.587      9.1326      7.7449      6.5232      5.4883      4.6586      4.0446    
  3.6315      3.3964      3.3204      3.3964      3.6315      4.0446      4.6586      5.4883      6.5232      7.7449    
  9.1326      10.587      11.958      13.102      13.931      14.419      18.633      18.465      17.930      16.960    
  15.527      13.705      11.680      9.6964      7.9615      6.5693      5.4883      4.6909      4.1610      3.8637    
  3.7685      3.8637      4.1610      4.6909      5.4883      6.5693      7.9615      9.6964      11.680      13.705    
  15.527      16.960      17.930      18.465      23.540      23.380      22.838      21.776      20.084      17.794    
  15.114      12.378      9.9224      7.9615      6.5232      5.4936      4.8088      4.4265      4.3046      4.4265    
  4.8088      5.4936      6.5232      7.9615      9.9224      12.378      15.114      17.794      20.084      21.776    
  22.838      23.380      29.021      28.866      28.316      27.172      25.251      22.524      19.194      15.660    
  12.378      9.6964      7.7449      6.4259      5.5577      5.0703      4.9148      5.0703      5.5577      6.4259    
  7.7449      9.6964      12.378      15.660      19.194      22.524      25.251      27.172      28.316      28.866    
  34.887      34.697      34.043      32.718      30.516      27.370      23.457      19.194      15.114      11.680    
  9.1326      7.4391      6.3732      5.7692      5.5753      5.7692      6.3732      7.4391      9.1326      11.680    
  15.114      19.194      23.457      27.370      30.516      32.718      34.043      34.697      41.097      40.792    
  39.826      38.078      35.413      31.793      27.370      22.524      17.794      13.705      10.587      8.4865    
  7.2040      6.4848      6.2515      6.4848      7.2040      8.4865      10.587      13.705      17.794      22.524    
  27.370      31.793      35.413      38.078      39.826      40.792      47.605      47.082      45.540      43.037    
  39.637      35.413      30.516      25.251      20.084      15.527      11.958      9.4938      7.9900      7.1686    
  6.8994      7.1686      7.9900      9.4938      11.958      15.527      20.084      25.251      30.516      35.413    
  39.637      43.037      45.540      47.082      54.097      53.277      50.943      47.414      43.037      38.078    
  32.718      27.172      21.776      16.960      13.102      10.369      8.6761      7.7684      7.4704      7.7684    
  8.6761      10.369      13.102      16.960      21.776      27.172      32.718      38.078      43.037      47.414    
  50.943      53.277      59.856      58.723      55.557      50.943      45.540      39.826      34.043      28.316    
  22.838      17.930      13.931      11.035      9.2092      8.2358      7.9178      8.2358      9.2092      11.035    
  13.931      17.930      22.838      28.316      34.043      39.826      45.540      50.943      55.557      58.723    
  63.899      62.526      58.723      53.277      47.082      40.792      34.697      28.866      23.380      18.465    
  14.419      11.447      9.5463      8.5324      8.2030      8.5324      9.5463      11.447      14.419      18.465    
  23.380      28.866      34.697      40.792      47.082      53.277      58.723      62.526      61.062      59.856    
  56.499      51.636      45.999      40.119      34.249      28.497      23.020      18.109      14.093      11.171    
  9.3201      8.3334      8.0116      8.3334      9.3201      11.171      14.093      18.109      23.020      28.497    
  34.249      40.119      45.999      51.636      56.499      59.856      59.856      58.723      55.557      50.943    
  45.540      39.826      34.043      28.316      22.838      17.930      13.931      11.035      9.2092      8.2358    
  7.9178      8.2358      9.2092      11.035      13.931      17.930      22.838      28.316      34.043      39.826    
  45.540      50.943      55.557      58.723      56.499      55.557      52.901      48.947      44.162      38.892    
  33.343      27.698      22.242      17.367      13.438      10.633      8.8850      7.9509      7.6447      7.9509    
  8.8850      10.633      13.438      17.367      22.242      27.698      33.343      38.892      44.162      48.947    
  52.901      55.557      51.636      50.943      48.947      45.847      41.862      37.174      31.955      26.469    
  21.117      16.372      12.614      9.9865      8.3730      7.5023      7.2165      7.5023      8.3730      9.9865    
  12.614      16.372      21.117      26.469      31.955      37.174      41.862      45.847      48.947      50.943    
  45.999      45.540      44.162      41.862      38.636      34.525      29.691      24.477      19.385      14.937    
  11.494      9.1436      7.7145      6.9270      6.6698      6.9270      7.7145      9.1436      11.494      14.937    
  19.385      24.477      29.691      34.525      38.636      41.862      44.162      45.540      40.119      39.826    
  38.892      37.174      34.525      30.913      26.511      21.725      17.101      13.149      10.171      8.1796    
  6.9591      6.2715      6.0492      6.2715      6.9591      8.1796      10.171      13.149      17.101      21.725    
  26.511      30.913      34.525      37.174      38.892      39.826      34.249      34.043      33.343      31.955    
  29.691      26.511      22.617      18.433      14.482      11.196      8.7812      7.1794      6.1613      5.5855    
  5.4010      5.5855      6.1613      7.1794      8.7812      11.196      14.482      18.433      22.617      26.511    
  29.691      31.955      33.343      34.043      28.497      28.316      27.698      26.469      24.477      21.725    
  18.433      14.997      11.850      9.3053      7.4628      6.2085      5.3793      4.9151      4.7671      4.9151    
  5.3793      6.2085      7.4628      9.3053      11.850      14.997      18.433      21.725      24.477      26.469    
  27.698      28.316      23.020      22.838      22.242      21.117      19.385      17.101      14.482      11.850    
  9.5152      7.6630      6.2994      5.3149      4.6614      4.2968      4.1806      4.2968      4.6614      5.3149    
  6.2994      7.6630      9.5152      11.850      14.482      17.101      19.385      21.117      22.242      22.838    
  18.109      17.930      17.367      16.372      14.937      13.149      11.196      9.3053      7.6630      6.3424    
  5.3082      4.5464      4.0399      3.7554      3.6642      3.7554      4.0399      4.5464      5.3082      6.3424    
  7.6630      9.3053      11.196      13.149      14.937      16.372      17.367      17.930      14.093      13.931    
  13.438      12.614      11.494      10.171      8.7812      7.4628      6.2994      5.3082      4.5147      3.9271    
  3.5311      3.3051      3.2320      3.3051      3.5311      3.9271      4.5147      5.3082      6.2994      7.4628    
  8.7812      10.171      11.494      12.614      13.438      13.931      11.171      11.035      10.633      9.9865    
  9.1436      8.1796      7.1794      6.2085      5.3149      4.5464      3.9271      3.4608      3.1396      2.9525    
  2.8912      2.9525      3.1396      3.4608      3.9271      4.5464      5.3149      6.2085      7.1794      8.1796    
  9.1436      9.9865      10.633      11.035      9.3201      9.2092      8.8850      8.3730      7.7145      6.9591    
  6.1613      5.3793      4.6614      4.0399      3.5311      3.1396      2.8637      2.6999      2.6457      2.6999    
  2.8637      3.1396      3.5311      4.0399      4.6614      5.3793      6.1613      6.9591      7.7145      8.3730    
  8.8850      9.2092      8.3334      8.2358      7.9509      7.5023      6.9270      6.2715      5.5855      4.9151    
  4.2968      3.7554      3.3051      2.9525      2.6999      2.5482      2.4976      2.5482      2.6999      2.9525    
  3.3051      3.7554      4.2968      4.9151      5.5855      6.2715      6.9270      7.5023      7.9509      8.2358    
  8.0116      7.9178      7.6447      7.2165      6.6698      6.0492      5.4010      4.7671      4.1806      3.6642    
  3.2320      2.8912      2.6457      2.4976      2.4482      2.4976      2.6457      2.8912      3.2320      3.6642    
  4.1806      4.7671      5.4010      6.0492      6.6698      7.2165      7.6447      7.9178      8.3334      8.2358    
  7.9509      7.5023      6.9270      6.2715      5.5855      4.9151      4.2968      3.7554      3.3051      2.9525    
  2.6999      2.5482      2.4976      2.5482      2.6999      2.9525      3.3051      3.7554      4.2968      4.9151    
  5.5855      6.2715      6.9270      7.5023      7.9509      8.2358      9.3201      9.2092      8.8850      8.3730    
  7.7145      6.9591      6.1613      5.3793      4.6614      4.0399      3.5311      3.1396      2.8637      2.6999    
  2.6457      2.6999      2.8637      3.1396      3.5311      4.0399      4.6614      5.3793      6.1613      6.9591    
  7.7145      8.3730      8.8850      9.2092      11.171      11.035      10.633      9.9865      9.1436      8.1796    
  7.1794      6.2085      5.3149      4.5464      3.9271      3.4608      3.1396      2.9525      2.8912      2.9525    
  3.1396      3.4608      3.9271      4.5464      5.3149      6.2085      7.1794      8.1796      9.1436      9.9865    
  10.633      11.035      14.093      13.931      13.438      12.614      11.494      10.171      8.7812      7.4628    
  6.2994      5.3082      4.5147      3.9271      3.5311      3.3051      3.2320      3.3051      3.5311      3.9271    
  4.5147      5.3082      6.2994      7.4628      8.7812      10.171      11.494      12.614      13.438      13.931    
  18.109      17.930      17.367      16.372      14.937      13.149      11.196      9.3053      7.6630      6.3424    
  5.3082      4.5464      4.0399      3.7554      3.6642      3.7554      4.0399      4.5464      5.3082      6.3424    
  7.6630      9.3053      11.196      13.149      14.937      16.372      17.367      17.930      23.020      22.838    
  22.242      21.117      19.385      17.101      14.482      11.850      9.5152      7.6630      6.2994      5.3149    
  4.6614      4.2968      4.1806      4.2968      4.6614      5.3149      6.2994      7.6630      9.5152      11.850    
  14.482      17.101      19.385      21.117      22.242      22.838      28.497      28.316      27.698      26.469    
  24.477      21.725      18.433      14.997      11.850      9.3053      7.4628      6.2085      5.3793      4.9151    
  4.7671      4.9151      5.3793      6.2085      7.4628      9.3053      11.850      14.997      18.433      21.725    
  24.477      26.469      27.698      28.316      34.249      34.043      33.343      31.955      29.691      26.511    
  22.617      18.433      14.482      11.196      8.7812      7.1794      6.1613      5.5855      5.4010      5.5855    
  6.1613      7.1794      8.7812      11.196      14.482      18.433      22.617      26.511      29.691      31.955    
  33.343      34.043      40.119      39.826      38.892      37.174      34.525      30.913      26.511      21.725    
  17.101      13.149      10.171      8.1796      6.9591      6.2715      6.0492      6.2715      6.9591      8.1796    
  10.171      13.149      17.101      21.725      26.511      30.913      34.525      37.174      38.892      39.826    
  45.999      45.540      44.162      41.862      38.636      34.525      29.691      24.477      19.385      14.937    
  11.494      9.1436      7.7145      6.9270      6.6698      6.9270      7.7145      9.1436      11.494      14.937    
  19.385      24.477      29.691      34.525      38.636      41.862      44.162      45.540      51.636      50.943    
  48.947      45.847      41.862      37.174      31.955      26.469      21.117      16.372      12.614      9.9865    
  8.3730      7.5023      7.2165      7.5023      8.3730      9.9865      12.614      16.372      21.117      26.469    
  31.955      37.174      41.862      45.847      48.947      50.943      56.499      55.557      52.901      48.947    
  44.162      38.892      33.343      27.698      22.242      17.367      13.438      10.633      8.8850      7.9509    
  7.6447      7.9509      8.8850      10.633      13.438      17.367      22.242      27.698      33.343      38.892    
  44.162      48.947      52.901      55.557      59.856      58.723      55.557      50.943      45.540      39.826    
  34.043      28.316      22.838      17.930      13.931      11.035      9.2092      8.2358      7.9178      8.2358    
  9.2092      11.035      13.931      17.930      22.838      28.316      34.043      39.826      45.540      50.943    
  55.557      58.723      54.966      54.097      51.636      47.943      43.418      38.357      32.948      27.387    
  21.983      17.151      13.264      10.499      8.7799      7.8597      7.5577      7.8597      8.7799      10.499    
  13.264      17.151      21.983      27.387      32.948      38.357      43.418      47.943      51.636      54.097    
  54.097      53.277      50.943      47.414      43.037      38.078      32.718      27.172      21.776      16.960    
  13.102      10.369      8.6761      7.7684      7.4704      7.7684      8.6761      10.369      13.102      16.960    
  21.776      27.172      32.718      38.078      43.037      47.414      50.943      53.277      51.636      50.943    
  48.947      45.847      41.862      37.174      31.955      26.469      21.117      16.372      12.614      9.9865    
  8.3730      7.5023      7.2165      7.5023      8.3730      9.9865      12.614      16.372      21.117      26.469    
  31.955      37.174      41.862      45.847      48.947      50.943      47.943      47.414      45.847      43.293    
  39.812      35.486      30.485      25.139      19.927      15.363      11.813      9.3772      7.8949      7.0836    