unknown system                          
   2.60000000000000     
     1.000000    0.000000    0.000000
     0.000000    1.000000    0.000000
     0.000000    0.000000    1.000000
   Pt
     1
Direct
  0.000000  0.000000  0.000000
 
   28   28   28
 0.66919600033E+02 0.65361249955E+02 0.61061918871E+02 0.54966128291E+02 0.48151825100E+02
 0.41408382583E+02 0.35071567699E+02 0.29167000734E+02 0.23692250702E+02 0.18795413038E+02
 0.14737476862E+02 0.11724327568E+02 0.97778876083E+01 0.87368934261E+01 0.84003561501E+01
 0.87368934261E+01 0.97778876083E+01 0.11724327568E+02 0.14737476862E+02 0.18795413038E+02
 0.23692250702E+02 0.29167000734E+02 0.35071567699E+02 0.41408382583E+02 0.48151825100E+02
 0.54966128291E+02 0.61061918871E+02 0.65361249955E+02 0.65361249955E+02 0.63898965258E+02
 0.59856290304E+02 0.54097102938E+02 0.47604517480E+02 0.41097201095E+02 0.34887184529E+02
 0.29021123604E+02 0.23540285496E+02 0.18632628723E+02 0.14579149730E+02 0.11585277483E+02
 0.96613908900E+01 0.86339630617E+01 0.83009666327E+01 0.86339630617E+01 0.96613908900E+01
 0.11585277483E+02 0.14579149730E+02 0.18632628723E+02 0.23540285496E+02 0.29021123604E+02
 0.34887184529E+02 0.41097201095E+02 0.47604517480E+02 0.54097102938E+02 0.59856290304E+02
 0.63898965258E+02 0.61061918871E+02 0.59856290304E+02 0.56498618914E+02 0.51636100168E+02
 0.45998616591E+02 0.40118625297E+02 0.34249191438E+02 0.28496812074E+02 0.23019796446E+02
 0.18109004675E+02 0.14093144678E+02 0.11171272527E+02 0.93201427955E+01 0.83334242759E+01
 0.80116039470E+01 0.83334242759E+01 0.93201427955E+01 0.11171272527E+02 0.14093144678E+02
 0.18109004675E+02 0.23019796446E+02 0.28496812074E+02 0.34249191438E+02 0.40118625297E+02
 0.45998616591E+02 0.51636100168E+02 0.56498618914E+02 0.59856290304E+02 0.54966128291E+02
 0.54097102938E+02 0.51636100168E+02 0.47943414562E+02 0.43418176753E+02 0.38357039647E+02
 0.32948421995E+02 0.27386732579E+02 0.21982990372E+02 0.17150987216E+02 0.13264463725E+02
 0.10499076708E+02 0.87799390780E+01 0.78596506074E+01 0.75577054407E+01 0.78596506074E+01
 0.87799390780E+01 0.10499076708E+02 0.13264463725E+02 0.17150987216E+02 0.21982990372E+02
 0.27386732579E+02 0.32948421995E+02 0.38357039647E+02 0.43418176753E+02 0.47943414562E+02
 0.51636100168E+02 0.54097102938E+02 0.48151825100E+02 0.47604517480E+02 0.45998616591E+02
 0.43418176753E+02 0.39951611153E+02 0.35686510563E+02 0.30770627309E+02 0.25495107749E+02
 0.20310381375E+02 0.15722167106E+02 0.12114158524E+02 0.96134121887E+01 0.80842973148E+01
 0.72514390669E+01 0.69783082705E+01 0.72514390669E+01 0.80842973148E+01 0.96134121887E+01
 0.12114158524E+02 0.15722167106E+02 0.20310381375E+02 0.25495107749E+02 0.30770627309E+02
 0.35686510563E+02 0.39951611153E+02 0.43418176753E+02 0.45998616591E+02 0.47604517480E+02
 0.41408382583E+02 0.41097201095E+02 0.40118625297E+02 0.38357039647E+02 0.35686510563E+02
 0.32066589140E+02 0.27641443899E+02 0.22782464804E+02 0.18022721711E+02 0.13891203628E+02
 0.10728928294E+02 0.85917522598E+01 0.72878032049E+01 0.65579773541E+01 0.63209483111E+01
 0.65579773541E+01 0.72878032049E+01 0.85917522598E+01 0.10728928294E+02 0.13891203628E+02
 0.18022721711E+02 0.22782464804E+02 0.27641443899E+02 0.32066589140E+02 0.35686510563E+02
 0.38357039647E+02 0.40118625297E+02 0.41097201095E+02 0.35071567699E+02 0.34887184529E+02
 0.34249191438E+02 0.32948421995E+02 0.30770627309E+02 0.27641443899E+02 0.23729207981E+02
 0.19445260222E+02 0.15325722619E+02 0.11844569477E+02 0.92532011340E+01 0.75281496205E+01
 0.64458382308E+01 0.58322869040E+01 0.56350729877E+01 0.58322869040E+01 0.64458382308E+01
 0.75281496205E+01 0.92532011340E+01 0.11844569477E+02 0.15325722619E+02 0.19445260222E+02
 0.23729207981E+02 0.27641443899E+02 0.30770627309E+02 0.32948421995E+02 0.34249191438E+02
 0.34887184529E+02 0.29167000734E+02 0.29021123604E+02 0.28496812074E+02 0.27386732579E+02
 0.25495107749E+02 0.22782464804E+02 0.19445260222E+02 0.15882027245E+02 0.12557094192E+02
 0.98305619353E+01 0.78419558548E+01 0.65003160657E+01 0.56189000349E+01 0.51235684134E+01
 0.49654073997E+01 0.51235684134E+01 0.56189000349E+01 0.65003160657E+01 0.78419558548E+01
 0.98305619353E+01 0.12557094192E+02 0.15882027245E+02 0.19445260222E+02 0.22782464804E+02
 0.25495107749E+02 0.27386732579E+02 0.28496812074E+02 0.29021123604E+02 0.23692250702E+02
 0.23540285496E+02 0.23019796446E+02 0.21982990372E+02 0.20310381375E+02 0.18022721711E+02
 0.15325722619E+02 0.12557094192E+02 0.10062015789E+02 0.80643200515E+01 0.65998899507E+01
 0.55548866908E+01 0.48593984791E+01 0.44709582706E+01 0.43471324944E+01 0.44709582706E+01
 0.48593984791E+01 0.55548866908E+01 0.65998899507E+01 0.80643200515E+01 0.10062015789E+02
 0.12557094192E+02 0.15325722619E+02 0.18022721711E+02 0.20310381375E+02 0.21982990372E+02
 0.23019796446E+02 0.23540285496E+02 0.18795413038E+02 0.18632628723E+02 0.18109004675E+02
 0.17150987216E+02 0.15722167106E+02 0.13891203628E+02 0.11844569477E+02 0.98305619353E+01
 0.80643200515E+01 0.66471639593E+01 0.55499958765E+01 0.47405202752E+01 0.42025253170E+01
 0.39007728560E+01 0.38041773723E+01 0.39007728560E+01 0.42025253170E+01 0.47405202752E+01
 0.55499958765E+01 0.66471639593E+01 0.80643200515E+01 0.98305619353E+01 0.11844569477E+02
 0.13891203628E+02 0.15722167106E+02 0.17150987216E+02 0.18109004675E+02 0.18632628723E+02
 0.14737476862E+02 0.14579149730E+02 0.14093144678E+02 0.13264463725E+02 0.12114158524E+02
 0.10728928294E+02 0.92532011340E+01 0.78419558548E+01 0.65998899507E+01 0.55499958765E+01
 0.47079639196E+01 0.40848108223E+01 0.36659059952E+01 0.34275974521E+01 0.33505773508E+01
 0.34275974521E+01 0.36659059952E+01 0.40848108223E+01 0.47079639196E+01 0.55499958765E+01
 0.65998899507E+01 0.78419558548E+01 0.92532011340E+01 0.10728928294E+02 0.12114158524E+02
 0.13264463725E+02 0.14093144678E+02 0.14579149730E+02 0.11724327568E+02 0.11585277483E+02
 0.11171272527E+02 0.10499076708E+02 0.96134121887E+01 0.85917522598E+01 0.75281496205E+01
 0.65003160657E+01 0.55548866908E+01 0.47405202752E+01 0.40848108223E+01 0.35922600928E+01
 0.32541044532E+01 0.30578009783E+01 0.29935666543E+01 0.30578009783E+01 0.32541044532E+01
 0.35922600928E+01 0.40848108223E+01 0.47405202752E+01 0.55548866908E+01 0.65003160657E+01
 0.75281496205E+01 0.85917522598E+01 0.96134121887E+01 0.10499076708E+02 0.11171272527E+02
 0.11585277483E+02 0.97778876083E+01 0.96613908900E+01 0.93201427955E+01 0.87799390780E+01
 0.80842973148E+01 0.72878032049E+01 0.64458382308E+01 0.56189000349E+01 0.48593984791E+01
 0.42025253170E+01 0.36659059952E+01 0.32541044532E+01 0.29647214978E+01 0.27933902198E+01
 0.27366926552E+01 0.27933902198E+01 0.29647214978E+01 0.32541044532E+01 0.36659059952E+01
 0.42025253170E+01 0.48593984791E+01 0.56189000349E+01 0.64458382308E+01 0.72878032049E+01
 0.80842973148E+01 0.87799390780E+01 0.93201427955E+01 0.96613908900E+01 0.87368934261E+01
 0.86339630617E+01 0.83334242759E+01 0.78596506074E+01 0.72514390669E+01 0.65579773541E+01
 0.58322869040E+01 0.51235684134E+01 0.44709582706E+01 0.39007728560E+01 0.34275974521E+01
 0.30578009783E+01 0.27933902198E+01 0.26347352356E+01 0.25818512084E+01 0.26347352356E+01
 0.27933902198E+01 0.30578009783E+01 0.34275974521E+01 0.39007728560E+01 0.44709582706E+01
 0.51235684134E+01 0.58322869040E+01 0.65579773541E+01 0.72514390669E+01 0.78596506074E+01
 0.83334242759E+01 0.86339630617E+01 0.84003561501E+01 0.83009666327E+01 0.80116039470E+01
 0.75577054407E+01 0.69783082705E+01 0.63209483111E+01 0.56350729877E+01 0.49654073997E+01
 0.43471324944E+01 0.38041773723E+01 0.33505773508E+01 0.29935666543E+01 0.27366926552E+01
 0.25818512084E+01 0.25301144771E+01 0.25818512084E+01 0.27366926552E+01 0.29935666543E+01
 0.33505773508E+01 0.38041773723E+01 0.43471324944E+01 0.49654073997E+01 0.56350729877E+01
 0.63209483111E+01 0.69783082705E+01 0.75577054407E+01 0.80116039470E+01 0.83009666327E+01
 0.87368934261E+01 0.86339630617E+01 0.83334242759E+01 0.78596506074E+01 0.72514390669E+01
 0.65579773541E+01 0.58322869040E+01 0.51235684134E+01 0.44709582706E+01 0.39007728560E+01
 0.34275974521E+01 0.30578009783E+01 0.27933902198E+01 0.26347352356E+01 0.25818512084E+01
 0.26347352356E+01 0.27933902198E+01 0.30578009783E+01 0.34275974521E+01 0.39007728560E+01
 0.44709582706E+01 0.51235684134E+01 0.58322869040E+01 0.65579773541E+01 0.72514390669E+01
 0.78596506074E+01 0.83334242759E+01 0.86339630617E+01 0.97778876083E+01 0.96613908900E+01
 0.93201427955E+01 0.87799390780E+01 0.80842973148E+01 0.72878032049E+01 0.64458382308E+01
 0.56189000349E+01 0.48593984791E+01 0.42025253170E+01 0.36659059952E+01 0.32541044532E+01
 0.29647214978E+01 0.27933902198E+01 0.27366926552E+01 0.27933902198E+01 0.29647214978E+01
 0.32541044532E+01 0.36659059952E+01 0.42025253170E+01 0.48593984791E+01 0.56189000349E+01
 0.64458382308E+01 0.72878032049E+01 0.80842973148E+01 0.87799390780E+01 0.93201427955E+01
 0.96613908900E+01 0.11724327568E+02 0.11585277483E+02 0.11171272527E+02 0.10499076708E+02
 0.96134121887E+01 0.85917522598E+01 0.75281496205E+01 0.65003160657E+01 0.55548866908E+01
 0.47405202752E+01 0.40848108223E+01 0.35922600928E+01 0.32541044532E+01 0.30578009783E+01
 0.29935666543E+01 0.30578009783E+01 0.32541044532E+01 0.35922600928E+01 0.40848108223E+01
 0.47405202752E+01 0.55548866908E+01 0.65003160657E+01 0.75281496205E+01 0.85917522598E+01
 0.96134121887E+01 0.10499076708E+02 0.11171272527E+02 0.11585277483E+02 0.14737476862E+02
 0.14579149730E+02 0.14093144678E+02 0.13264463725E+02 0.12114158524E+02 0.10728928294E+02
 0.92532011340E+01 0.78419558548E+01 0.65998899507E+01 0.55499958765E+01 0.47079639196E+01
 0.40848108223E+01 0.36659059952E+01 0.34275974521E+01 0.33505773508E+01 0.34275974521E+01
 0.36659059952E+01 0.40848108223E+01 0.47079639196E+01 0.55499958765E+01 0.65998899507E+01
 0.78419558548E+01 0.92532011340E+01 0.10728928294E+02 0.12114158524E+02 0.13264463725E+02
 0.14093144678E+02 0.14579149730E+02 0.18795413038E+02 0.18632628723E+02 0.18109004675E+02
 0.17150987216E+02 0.15722167106E+02 0.13891203628E+02 0.11844569477E+02 0.98305619353E+01
 0.80643200515E+01 0.66471639593E+01 0.55499958765E+01 0.47405202752E+01 0.42025253170E+01
 0.39007728560E+01 0.38041773723E+01 0.39007728560E+01 0.42025253170E+01 0.47405202752E+01
 0.55499958765E+01 0.66471639593E+01 0.80643200515E+01 0.98305619353E+01 0.11844569477E+02
 0.13891203628E+02 0.15722167106E+02 0.17150987216E+02 0.18109004675E+02 0.18632628723E+02
 0.23692250702E+02 0.23540285496E+02 0.23019796446E+02 0.21982990372E+02 0.20310381375E+02
 0.18022721711E+02 0.15325722619E+02 0.12557094192E+02 0.10062015789E+02 0.80643200515E+01
 0.65998899507E+01 0.55548866908E+01 0.48593984791E+01 0.44709582706E+01 0.43471324944E+01
 0.44709582706E+01 0.48593984791E+01 0.55548866908E+01 0.65998899507E+01 0.80643200515E+01
 0.10062015789E+02 0.12557094192E+02 0.15325722619E+02 0.18022721711E+02 0.20310381375E+02
 0.21982990372E+02 0.23019796446E+02 0.23540285496E+02 0.29167000734E+02 0.29021123604E+02
 0.28496812074E+02 0.27386732579E+02 0.25495107749E+02 0.22782464804E+02 0.19445260222E+02
 0.15882027245E+02 0.12557094192E+02 0.98305619353E+01 0.78419558548E+01 0.65003160657E+01
 0.56189000349E+01 0.51235684134E+01 0.49654073997E+01 0.51235684134E+01 0.56189000349E+01
 0.65003160657E+01 0.78419558548E+01 0.98305619353E+01 0.12557094192E+02 0.15882027245E+02
 0.19445260222E+02 0.22782464804E+02 0.25495107749E+02 0.27386732579E+02 0.28496812074E+02
 0.29021123604E+02 0.35071567699E+02 0.34887184529E+02 0.34249191438E+02 0.32948421995E+02
 0.30770627309E+02 0.27641443899E+02 0.23729207981E+02 0.19445260222E+02 0.15325722619E+02
 0.11844569477E+02 0.92532011340E+01 0.75281496205E+01 0.64458382308E+01 0.58322869040E+01
 0.56350729877E+01 0.58322869040E+01 0.64458382308E+01 0.75281496205E+01 0.92532011340E+01
 0.11844569477E+02 0.15325722619E+02 0.19445260222E+02 0.23729207981E+02 0.27641443899E+02
 0.30770627309E+02 0.32948421995E+02 0.34249191438E+02 0.34887184529E+02 0.41408382583E+02
 0.41097201095E+02 0.40118625297E+02 0.38357039647E+02 0.35686510563E+02 0.32066589140E+02
 0.27641443899E+02 0.22782464804E+02 0.18022721711E+02 0.13891203628E+02 0.10728928294E+02
 0.85917522598E+01 0.72878032049E+01 0.65579773541E+01 0.63209483111E+01 0.65579773541E+01
 0.72878032049E+01 0.85917522598E+01 0.10728928294E+02 0.13891203628E+02 0.18022721711E+02
 0.22782464804E+02 0.27641443899E+02 0.32066589140E+02 0.35686510563E+02 0.38357039647E+02
 0.40118625297E+02 0.41097201095E+02 0.48151825100E+02 0.47604517480E+02 0.45998616591E+02
 0.43418176753E+02 0.39951611153E+02 0.35686510563E+02 0.30770627309E+02 0.25495107749E+02
 0.20310381375E+02 0.15722167106E+02 0.12114158524E+02 0.96134121887E+01 0.80842973148E+01
 0.72514390669E+01 0.69783082705E+01 0.72514390669E+01 0.80842973148E+01 0.96134121887E+01
 0.12114158524E+02 0.15722167106E+02 0.20310381375E+02 0.25495107749E+02 0.30770627309E+02
 0.35686510563E+02 0.39951611153E+02 0.43418176753E+02 0.45998616591E+02 0.47604517480E+02
 0.54966128291E+02 0.54097102938E+02 0.51636100168E+02 0.47943414562E+02 0.43418176753E+02
 0.38357039647E+02 0.32948421995E+02 0.27386732579E+02 0.21982990372E+02 0.17150987216E+02
 0.13264463725E+02 0.10499076708E+02 0.87799390780E+01 0.78596506074E+01 0.75577054407E+01
 0.78596506074E+01 0.87799390780E+01 0.10499076708E+02 0.13264463725E+02 0.17150987216E+02
 0.21982990372E+02 0.27386732579E+02 0.32948421995E+02 0.38357039647E+02 0.43418176753E+02
 0.47943414562E+02 0.51636100168E+02 0.54097102938E+02 0.61061918871E+02 0.59856290304E+02
 0.56498618914E+02 0.51636100168E+02 0.45998616591E+02 0.40118625297E+02 0.34249191438E+02
 0.28496812074E+02 0.23019796446E+02 0.18109004675E+02 0.14093144678E+02 0.11171272527E+02
 0.93201427955E+01 0.83334242759E+01 0.80116039470E+01 0.83334242759E+01 0.93201427955E+01
 0.11171272527E+02 0.14093144678E+02 0.18109004675E+02 0.23019796446E+02 0.28496812074E+02
 0.34249191438E+02 0.40118625297E+02 0.45998616591E+02 0.51636100168E+02 0.56498618914E+02
 0.59856290304E+02 0.65361249955E+02 0.63898965258E+02 0.59856290304E+02 0.54097102938E+02
 0.47604517480E+02 0.41097201095E+02 0.34887184529E+02 0.29021123604E+02 0.23540285496E+02
 0.18632628723E+02 0.14579149730E+02 0.11585277483E+02 0.96613908900E+01 0.86339630617E+01
 0.83009666327E+01 0.86339630617E+01 0.96613908900E+01 0.11585277483E+02 0.14579149730E+02
 0.18632628723E+02 0.23540285496E+02 0.29021123604E+02 0.34887184529E+02 0.41097201095E+02
 0.47604517480E+02 0.54097102938E+02 0.59856290304E+02 0.63898965258E+02 0.65361249955E+02
 0.63898965258E+02 0.59856290304E+02 0.54097102938E+02 0.47604517480E+02 0.41097201095E+02
 0.34887184529E+02 0.29021123604E+02 0.23540285496E+02 0.18632628723E+02 0.14579149730E+02
 0.11585277483E+02 0.96613908900E+01 0.86339630617E+01 0.83009666327E+01 0.86339630617E+01
 0.96613908900E+01 0.11585277483E+02 0.14579149730E+02 0.18632628723E+02 0.23540285496E+02
 0.29021123604E+02 0.34887184529E+02 0.41097201095E+02 0.47604517480E+02 0.54097102938E+02
 0.59856290304E+02 0.63898965258E+02 0.63898965258E+02 0.62526316279E+02 0.58722836449E+02
 0.53276563832E+02 0.47081805279E+02 0.40791666703E+02 0.34697132410E+02 0.28865708327E+02
 0.23380066516E+02 0.18465070804E+02 0.14419382076E+02 0.11446853997E+02 0.95462729781E+01
 0.85323723048E+01 0.82030006780E+01 0.85323723048E+01 0.95462729781E+01 0.11446853997E+02
 0.14419382076E+02 0.18465070804E+02 0.23380066516E+02 0.28865708327E+02 0.34697132410E+02
 0.40791666703E+02 0.47081805279E+02 0.53276563832E+02 0.58722836449E+02 0.62526316279E+02
 0.59856290304E+02 0.58722836449E+02 0.55557015865E+02 0.50943401405E+02 0.45539571740E+02
 0.39826377754E+02 0.34042941575E+02 0.28315799651E+02 0.22838200029E+02 0.17929774408E+02
 0.13930629828E+02 0.11035382466E+02 0.92092414813E+01 0.82357956728E+01 0.79177962147E+01
 0.82357956728E+01 0.92092414813E+01 0.11035382466E+02 0.13930629828E+02 0.17929774408E+02
 0.22838200029E+02 0.28315799651E+02 0.34042941575E+02 0.39826377754E+02 0.45539571740E+02
 0.50943401405E+02 0.55557015865E+02 0.58722836449E+02 0.54097102938E+02 0.53276563832E+02
 0.50943401405E+02 0.47413721579E+02 0.43037136244E+02 0.38077558838E+02 0.32718496924E+02
 0.27172420709E+02 0.21775797979E+02 0.16959935628E+02 0.13101742100E+02 0.10369086499E+02
 0.86761216433E+01 0.77684002171E+01 0.74704469038E+01 0.77684002171E+01 0.86761216433E+01
 0.10369086499E+02 0.13101742100E+02 0.16959935628E+02 0.21775797979E+02 0.27172420709E+02
 0.32718496924E+02 0.38077558838E+02 0.43037136244E+02 0.47413721579E+02 0.50943401405E+02
 0.53276563832E+02 0.47604517480E+02 0.47081805279E+02 0.45539571740E+02 0.43037136244E+02
 0.39637033544E+02 0.35412985400E+02 0.30515849811E+02 0.25251310869E+02 0.20084484419E+02
 0.15526925045E+02 0.11957731650E+02 0.94937683269E+01 0.79899513740E+01 0.71685554107E+01
 0.68994161542E+01 0.71685554107E+01 0.79899513740E+01 0.94937683269E+01 0.11957731650E+02
 0.15526925045E+02 0.20084484419E+02 0.25251310869E+02 0.30515849811E+02 0.35412985400E+02
 0.39637033544E+02 0.43037136244E+02 0.45539571740E+02 0.47081805279E+02 0.41097201095E+02
 0.40791666703E+02 0.39826377754E+02 0.38077558838E+02 0.35412985400E+02 0.31793006779E+02
 0.27369711954E+02 0.22524167369E+02 0.17794062252E+02 0.13704658808E+02 0.10587082959E+02
 0.84864867055E+01 0.72040205001E+01 0.64847765257E+01 0.62514845778E+01 0.64847765257E+01
 0.72040205001E+01 0.84864867055E+01 0.10587082959E+02 0.13704658808E+02 0.17794062252E+02
 0.22524167369E+02 0.27369711954E+02 0.31793006779E+02 0.35412985400E+02 0.38077558838E+02
 0.39826377754E+02 0.40791666703E+02 0.34887184529E+02 0.34697132410E+02 0.34042941575E+02
 0.32718496924E+02 0.30515849811E+02 0.27369711954E+02 0.23457292655E+02 0.19194264465E+02
 0.15113684903E+02 0.11679951457E+02 0.91326369612E+01 0.74390619518E+01 0.63732251635E+01
 0.57692476743E+01 0.55752768242E+01 0.57692476743E+01 0.63732251635E+01 0.74390619518E+01
 0.91326369612E+01 0.11679951457E+02 0.15113684903E+02 0.19194264465E+02 0.23457292655E+02
 0.27369711954E+02 0.30515849811E+02 0.32718496924E+02 0.34042941575E+02 0.34697132410E+02
 0.29021123604E+02 0.28865708327E+02 0.28315799651E+02 0.27172420709E+02 0.25251310869E+02
 0.22524167369E+02 0.19194264465E+02 0.15659795709E+02 0.12377622010E+02 0.96964019526E+01
 0.77449220509E+01 0.64259040157E+01 0.55577199114E+01 0.50703339245E+01 0.49147781722E+01
 0.50703339245E+01 0.55577199114E+01 0.64259040157E+01 0.77449220509E+01 0.96964019526E+01
 0.12377622010E+02 0.15659795709E+02 0.19194264465E+02 0.22524167369E+02 0.25251310869E+02
 0.27172420709E+02 0.28315799651E+02 0.28865708327E+02 0.23540285496E+02 0.23380066516E+02
 0.22838200029E+02 0.21775797979E+02 0.20084484419E+02 0.17794062252E+02 0.15113684903E+02
 0.12377622010E+02 0.99223627393E+01 0.79615317853E+01 0.65232086886E+01 0.54936099800E+01
 0.48088451543E+01 0.44265116567E+01 0.43046378582E+01 0.44265116567E+01 0.48088451543E+01
 0.54936099800E+01 0.65232086886E+01 0.79615317853E+01 0.99223627393E+01 0.12377622010E+02
 0.15113684903E+02 0.17794062252E+02 0.20084484419E+02 0.21775797979E+02 0.22838200029E+02
 0.23380066516E+02 0.18632628723E+02 0.18465070804E+02 0.17929774408E+02 0.16959935628E+02
 0.15526925045E+02 0.13704658808E+02 0.11679951457E+02 0.96964019526E+01 0.79615317853E+01
 0.65693264869E+01 0.54882877781E+01 0.46909397409E+01 0.41610256897E+01 0.38637107441E+01
 0.37685081118E+01 0.38637107441E+01 0.41610256897E+01 0.46909397409E+01 0.54882877781E+01
 0.65693264869E+01 0.79615317853E+01 0.96964019526E+01 0.11679951457E+02 0.13704658808E+02
 0.15526925045E+02 0.16959935628E+02 0.17929774408E+02 0.18465070804E+02 0.14579149730E+02
 0.14419382076E+02 0.13930629828E+02 0.13101742100E+02 0.11957731650E+02 0.10587082959E+02
 0.91326369612E+01 0.77449220509E+01 0.65232086886E+01 0.54882877781E+01 0.46586223206E+01
 0.40445632316E+01 0.36315303581E+01 0.33963927798E+01 0.33203606900E+01 0.33963927798E+01
 0.36315303581E+01 0.40445632316E+01 0.46586223206E+01 0.54882877781E+01 0.65232086886E+01
 0.77449220509E+01 0.91326369612E+01 0.10587082959E+02 0.11957731650E+02 0.13101742100E+02
 0.13930629828E+02 0.14419382076E+02 0.11585277483E+02 0.11446853997E+02 0.11035382466E+02
 0.10369086499E+02 0.94937683269E+01 0.84864867055E+01 0.74390619518E+01 0.64259040157E+01
 0.54936099800E+01 0.46909397409E+01 0.40445632316E+01 0.35587345124E+01 0.32249157850E+01
 0.30309766813E+01 0.29674856406E+01 0.30309766813E+01 0.32249157850E+01 0.35587345124E+01
 0.40445632316E+01 0.46909397409E+01 0.54936099800E+01 0.64259040157E+01 0.74390619518E+01
 0.84864867055E+01 0.94937683269E+01 0.10369086499E+02 0.11035382466E+02 0.11446853997E+02
 0.96613908900E+01 0.95462729781E+01 0.92092414813E+01 0.86761216433E+01 0.79899513740E+01
 0.72040205001E+01 0.63732251635E+01 0.55577199114E+01 0.48088451543E+01 0.41610256897E+01
 0.36315303581E+01 0.32249157850E+01 0.29389758164E+01 0.27695861652E+01 0.27135133072E+01
 0.27695861652E+01 0.29389758164E+01 0.32249157850E+01 0.36315303581E+01 0.41610256897E+01
 0.48088451543E+01 0.55577199114E+01 0.63732251635E+01 0.72040205001E+01 0.79899513740E+01
 0.86761216433E+01 0.92092414813E+01 0.95462729781E+01 0.86339630617E+01 0.85323723048E+01
 0.82357956728E+01 0.77684002171E+01 0.71685554107E+01 0.64847765257E+01 0.57692476743E+01
 0.50703339245E+01 0.44265116567E+01 0.38637107441E+01 0.33963927798E+01 0.30309766813E+01
 0.27695861652E+01 0.26126990995E+01 0.25603972133E+01 0.26126990995E+01 0.27695861652E+01
 0.30309766813E+01 0.33963927798E+01 0.38637107441E+01 0.44265116567E+01 0.50703339245E+01
 0.57692476743E+01 0.64847765257E+01 0.71685554107E+01 0.77684002171E+01 0.82357956728E+01
 0.85323723048E+01 0.83009666327E+01 0.82030006780E+01 0.79177962147E+01 0.74704469038E+01
 0.68994161542E+01 0.62514845778E+01 0.55752768242E+01 0.49147781722E+01 0.43046378582E+01
 0.37685081118E+01 0.33203606900E+01 0.29674856406E+01 0.27135133072E+01 0.25603972133E+01
 0.25092338652E+01 0.25603972133E+01 0.27135133072E+01 0.29674856406E+01 0.33203606900E+01
 0.37685081118E+01 0.43046378582E+01 0.49147781722E+01 0.55752768242E+01 0.62514845778E+01
 0.68994161542E+01 0.74704469038E+01 0.79177962147E+01 0.82030006780E+01 0.86339630617E+01
 0.85323723048E+01 0.82357956728E+01 0.77684002171E+01 0.71685554107E+01 0.64847765257E+01
 0.57692476743E+01 0.50703339245E+01 0.44265116567E+01 0.38637107441E+01 0.33963927798E+01
 0.30309766813E+01 0.27695861652E+01 0.26126990995E+01 0.25603972133E+01 0.26126990995E+01
 0.27695861652E+01 0.30309766813E+01 0.33963927798E+01 0.38637107441E+01 0.44265116567E+01
 0.50703339245E+01 0.57692476743E+01 0.64847765257E+01 0.71685554107E+01 0.77684002171E+01
 0.82357956728E+01 0.85323723048E+01 0.96613908900E+01 0.95462729781E+01 0.92092414813E+01
 0.86761216433E+01 0.79899513740E+01 0.72040205001E+01 0.63732251635E+01 0.55577199114E+01
 0.48088451543E+01 0.41610256897E+01 0.36315303581E+01 0.32249157850E+01 0.29389758164E+01
 0.27695861652E+01 0.27135133072E+01 0.27695861652E+01 0.29389758164E+01 0.32249157850E+01
 0.36315303581E+01 0.41610256897E+01 0.48088451543E+01 0.55577199114E+01 0.63732251635E+01
 0.72040205001E+01 0.79899513740E+01 0.86761216433E+01 0.92092414813E+01 0.95462729781E+01
 0.11585277483E+02 0.11446853997E+02 0.11035382466E+02 0.10369086499E+02 0.94937683269E+01
 0.84864867055E+01 0.74390619518E+01 0.64259040157E+01 0.54936099800E+01 0.46909397409E+01
 0.40445632316E+01 0.35587345124E+01 0.32249157850E+01 0.30309766813E+01 0.29674856406E+01
 0.30309766813E+01 0.32249157850E+01 0.35587345124E+01 0.40445632316E+01 0.46909397409E+01
 0.54936099800E+01 0.64259040157E+01 0.74390619518E+01 0.84864867055E+01 0.94937683269E+01
 0.10369086499E+02 0.11035382466E+02 0.11446853997E+02 0.14579149730E+02 0.14419382076E+02
 0.13930629828E+02 0.13101742100E+02 0.11957731650E+02 0.10587082959E+02 0.91326369612E+01
 0.77449220509E+01 0.65232086886E+01 0.54882877781E+01 0.46586223206E+01 0.40445632316E+01
 0.36315303581E+01 0.33963927798E+01 0.33203606900E+01 0.33963927798E+01 0.36315303581E+01
 0.40445632316E+01 0.46586223206E+01 0.54882877781E+01 0.65232086886E+01 0.77449220509E+01
 0.91326369612E+01 0.10587082959E+02 0.11957731650E+02 0.13101742100E+02 0.13930629828E+02
 0.14419382076E+02 0.18632628723E+02 0.18465070804E+02 0.17929774408E+02 0.16959935628E+02
 0.15526925045E+02 0.13704658808E+02 0.11679951457E+02 0.96964019526E+01 0.79615317853E+01
 0.65693264869E+01 0.54882877781E+01 0.46909397409E+01 0.41610256897E+01 0.38637107441E+01
 0.37685081118E+01 0.38637107441E+01 0.41610256897E+01 0.46909397409E+01 0.54882877781E+01
 0.65693264869E+01 0.79615317853E+01 0.96964019526E+01 0.11679951457E+02 0.13704658808E+02
 0.15526925045E+02 0.16959935628E+02 0.17929774408E+02 0.18465070804E+02 0.23540285496E+02
 0.23380066516E+02 0.22838200029E+02 0.21775797979E+02 0.20084484419E+02 0.17794062252E+02
 0.15113684903E+02 0.12377622010E+02 0.99223627393E+01 0.79615317853E+01 0.65232086886E+01
 0.54936099800E+01 0.48088451543E+01 0.44265116567E+01 0.43046378582E+01 0.44265116567E+01
 0.48088451543E+01 0.54936099800E+01 0.65232086886E+01 0.79615317853E+01 0.99223627393E+01
 0.12377622010E+02 0.15113684903E+02 0.17794062252E+02 0.20084484419E+02 0.21775797979E+02
 0.22838200029E+02 0.23380066516E+02 0.29021123604E+02 0.28865708327E+02 0.28315799651E+02
 0.27172420709E+02 0.25251310869E+02 0.22524167369E+02 0.19194264465E+02 0.15659795709E+02
 0.12377622010E+02 0.96964019526E+01 0.77449220509E+01 0.64259040157E+01 0.55577199114E+01
 0.50703339245E+01 0.49147781722E+01 0.50703339245E+01 0.55577199114E+01 0.64259040157E+01
 0.77449220509E+01 0.96964019526E+01 0.12377622010E+02 0.15659795709E+02 0.19194264465E+02
 0.22524167369E+02 0.25251310869E+02 0.27172420709E+02 0.28315799651E+02 0.28865708327E+02
 0.34887184529E+02 0.34697132410E+02 0.34042941575E+02 0.32718496924E+02 0.30515849811E+02
 0.27369711954E+02 0.23457292655E+02 0.19194264465E+02 0.15113684903E+02 0.11679951457E+02
 0.91326369612E+01 0.74390619518E+01 0.63732251635E+01 0.57692476743E+01 0.55752768242E+01
 0.57692476743E+01 0.63732251635E+01 0.74390619518E+01 0.91326369612E+01 0.11679951457E+02
 0.15113684903E+02 0.19194264465E+02 0.23457292655E+02 0.27369711954E+02 0.30515849811E+02
 0.32718496924E+02 0.34042941575E+02 0.34697132410E+02 0.41097201095E+02 0.40791666703E+02
 0.39826377754E+02 0.38077558838E+02 0.35412985400E+02 0.31793006779E+02 0.27369711954E+02
 0.22524167369E+02 0.17794062252E+02 0.13704658808E+02 0.10587082959E+02 0.84864867055E+01
 0.72040205001E+01 0.64847765257E+01 0.62514845778E+01 0.64847765257E+01 0.72040205001E+01
 0.84864867055E+01 0.10587082959E+02 0.13704658808E+02 0.17794062252E+02 0.22524167369E+02
 0.27369711954E+02 0.31793006779E+02 0.35412985400E+02 0.38077558838E+02 0.39826377754E+02
 0.40791666703E+02 0.47604517480E+02 0.47081805279E+02 0.45539571740E+02 0.43037136244E+02
 0.39637033544E+02 0.35412985400E+02 0.30515849811E+02 0.25251310869E+02 0.20084484419E+02
 0.15526925045E+02 0.11957731650E+02 0.94937683269E+01 0.79899513740E+01 0.71685554107E+01
 0.68994161542E+01 0.71685554107E+01 0.79899513740E+01 0.94937683269E+01 0.11957731650E+02
 0.15526925045E+02 0.20084484419E+02 0.25251310869E+02 0.30515849811E+02 0.35412985400E+02
 0.39637033544E+02 0.43037136244E+02 0.45539571740E+02 0.47081805279E+02 0.54097102938E+02
 0.53276563832E+02 0.50943401405E+02 0.47413721579E+02 0.43037136244E+02 0.38077558838E+02
 0.32718496924E+02 0.27172420709E+02 0.21775797979E+02 0.16959935628E+02 0.13101742100E+02
 0.10369086499E+02 0.86761216433E+01 0.77684002171E+01 0.74704469038E+01 0.77684002171E+01
 0.86761216433E+01 0.10369086499E+02 0.13101742100E+02 0.16959935628E+02 0.21775797979E+02
 0.27172420709E+02 0.32718496924E+02 0.38077558838E+02 0.43037136244E+02 0.47413721579E+02
 0.50943401405E+02 0.53276563832E+02 0.59856290304E+02 0.58722836449E+02 0.55557015865E+02
 0.50943401405E+02 0.45539571740E+02 0.39826377754E+02 0.34042941575E+02 0.28315799651E+02
 0.22838200029E+02 0.17929774408E+02 0.13930629828E+02 0.11035382466E+02 0.92092414813E+01
 0.82357956728E+01 0.79177962147E+01 0.82357956728E+01 0.92092414813E+01 0.11035382466E+02
 0.13930629828E+02 0.17929774408E+02 0.22838200029E+02 0.28315799651E+02 0.34042941575E+02
 0.39826377754E+02 0.45539571740E+02 0.50943401405E+02 0.55557015865E+02 0.58722836449E+02
 0.63898965258E+02 0.62526316279E+02 0.58722836449E+02 0.53276563832E+02 0.47081805279E+02
 0.40791666703E+02 0.34697132410E+02 0.28865708327E+02 0.23380066516E+02 0.18465070804E+02
 0.14419382076E+02 0.11446853997E+02 0.95462729781E+01 0.85323723048E+01 0.82030006780E+01
 0.85323723048E+01 0.95462729781E+01 0.11446853997E+02 0.14419382076E+02 0.18465070804E+02
 0.23380066516E+02 0.28865708327E+02 0.34697132410E+02 0.40791666703E+02 0.47081805279E+02
 0.53276563832E+02 0.58722836449E+02 0.62526316279E+02 0.61061918871E+02 0.59856290304E+02
 0.56498618914E+02 0.51636100168E+02 0.45998616591E+02 0.40118625297E+02 0.34249191438E+02
 0.28496812074E+02 0.23019796446E+02 0.18109004675E+02 0.14093144678E+02 0.11171272527E+02
 0.93201427955E+01 0.83334242759E+01 0.80116039470E+01 0.83334242759E+01 0.93201427955E+01
 0.11171272527E+02 0.14093144678E+02 0.18109004675E+02 0.23019796446E+02 0.28496812074E+02
 0.34249191438E+02 0.40118625297E+02 0.45998616591E+02 0.51636100168E+02 0.56498618914E+02
 0.59856290304E+02 0.59856290304E+02 0.58722836449E+02 0.55557015865E+02 0.50943401405E+02
 0.45539571740E+02 0.39826377754E+02 0.34042941575E+02 0.28315799651E+02 0.22838200029E+02
 0.17929774408E+02 0.13930629828E+02 0.11035382466E+02 0.92092414813E+01 0.82357956728E+01
 0.79177962147E+01 0.82357956728E+01 0.92092414813E+01 0.11035382466E+02 0.13930629828E+02
 0.17929774408E+02 0.22838200029E+02 0.28315799651E+02 0.34042941575E+02 0.39826377754E+02
 0.45539571740E+02 0.50943401405E+02 0.55557015865E+02 0.58722836449E+02 0.56498618914E+02
 0.55557015865E+02 0.52900691036E+02 0.48947071730E+02 0.44162133956E+02 0.38892249123E+02