   1   1   0   0
  0.1757600E+02  0.2600000E-09  0.2600000E-09  0.2600000E-09  0.5000000E-15
  1.000000000000000E-004
  CAR 
 unknown system                          
     31.91181027     -4.87157160  301      5.80433949      1.00000000
     -4.872  0.0000E+00  0.0000E+00
     -4.749  0.0000E+00  0.0000E+00
     -4.626  0.0000E+00  0.0000E+00
     -4.504  0.0000E+00  0.0000E+00
     -4.381  0.0000E+00  0.0000E+00
     -4.259  0.0000E+00  0.0000E+00
     -4.136  0.0000E+00  0.0000E+00
     -4.013  0.0000E+00  0.0000E+00
     -3.891  0.0000E+00  0.0000E+00
     -3.768  0.0000E+00  0.0000E+00
     -3.645  0.0000E+00  0.0000E+00
     -3.523  0.0000E+00  0.0000E+00
     -3.400  0.0000E+00  0.0000E+00
     -3.278  0.0000E+00  0.0000E+00
     -3.155  0.0000E+00  0.0000E+00
     -3.032  0.0000E+00  0.0000E+00
     -2.910  0.0000E+00  0.0000E+00
     -2.787  0.2470E-02  0.6948E-04
     -2.665  0.1486E-01  0.1025E-02
     -2.542  0.3617E-01  0.4115E-02
     -2.419  0.5269E-01  0.9645E-02
     -2.297  0.6117E-01  0.1671E-01
     -2.174  0.6774E-01  0.2458E-01
     -2.052  0.7694E-01  0.3343E-01
     -1.929  0.8834E-01  0.4355E-01
     -1.806  0.1002E+00  0.5511E-01
     -1.684  0.1116E+00  0.6810E-01
     -1.561  0.1227E+00  0.8246E-01
     -1.438  0.1350E+00  0.9825E-01
     -1.316  0.1484E+00  0.1156E+00
     -1.193  0.1625E+00  0.1347E+00
     -1.071  0.1771E+00  0.1555E+00
     -0.948  0.1938E+00  0.1782E+00
     -0.825  0.2157E+00  0.2032E+00
     -0.703  0.2444E+00  0.2314E+00
     -0.580  0.2747E+00  0.2632E+00
     -0.458  0.3052E+00  0.2988E+00
     -0.335  0.3459E+00  0.3384E+00
     -0.212  0.4232E+00  0.3848E+00
     -0.090  0.6230E+00  0.4482E+00
      0.033  0.9591E+00  0.5455E+00
      0.155  0.1216E+01  0.6792E+00
      0.278  0.1573E+01  0.8495E+00
      0.401  0.1841E+01  0.1059E+01
      0.523  0.2168E+01  0.1306E+01
      0.646  0.2372E+01  0.1584E+01
      0.769  0.2483E+01  0.1889E+01
      0.891  0.2333E+01  0.2170E+01
      1.014  0.2575E+01  0.2466E+01
      1.136  0.2094E+01  0.2750E+01
      1.259  0.2038E+01  0.3002E+01
      1.382  0.1653E+01  0.3231E+01
      1.504  0.1416E+01  0.3418E+01
      1.627  0.1242E+01  0.3581E+01
      1.749  0.1245E+01  0.3734E+01
      1.872  0.1276E+01  0.3888E+01
      1.995  0.1454E+01  0.4055E+01
      2.117  0.1747E+01  0.4250E+01
      2.240  0.1556E+01  0.4452E+01
      2.362  0.2138E+01  0.4666E+01
      2.485  0.1718E+01  0.4910E+01
      2.608  0.1356E+01  0.5099E+01
      2.730  0.1088E+01  0.5247E+01
      2.853  0.9244E+00  0.5370E+01
      2.976  0.8166E+00  0.5477E+01
      3.098  0.8855E+00  0.5578E+01
      3.221  0.1103E+01  0.5699E+01
      3.343  0.1336E+01  0.5850E+01
      3.466  0.1520E+01  0.6025E+01
      3.589  0.1625E+01  0.6219E+01
      3.711  0.1790E+01  0.6427E+01
      3.834  0.2011E+01  0.6662E+01
      3.956  0.2102E+01  0.6918E+01
      4.079  0.1899E+01  0.7166E+01
      4.202  0.1685E+01  0.7386E+01
      4.324  0.1325E+01  0.7573E+01
      4.447  0.9124E+00  0.7707E+01
      4.569  0.1079E+01  0.7825E+01
      4.692  0.2379E+01  0.8018E+01
      4.815  0.2274E+01  0.8312E+01
      4.937  0.2065E+01  0.8578E+01
      5.060  0.1878E+01  0.8823E+01
      5.183  0.1906E+01  0.9059E+01
      5.305  0.1711E+01  0.9279E+01
      5.428  0.1566E+01  0.9480E+01
      5.550  0.1409E+01  0.9660E+01
      5.673  0.1330E+01  0.9827E+01
      5.796  0.1319E+01  0.9988E+01
      5.918  0.1371E+01  0.1016E+02
      6.041  0.1225E+01  0.1032E+02
      6.163  0.9430E+00  0.1045E+02
      6.286  0.6604E+00  0.1055E+02
      6.409  0.5982E+00  0.1062E+02
      6.531  0.5769E+00  0.1069E+02
      6.654  0.5674E+00  0.1076E+02
      6.776  0.5355E+00  0.1083E+02
      6.899  0.4979E+00  0.1090E+02
      7.022  0.4681E+00  0.1096E+02
      7.144  0.4346E+00  0.1101E+02
      7.267  0.4044E+00  0.1106E+02
      7.390  0.3746E+00  0.1111E+02
      7.512  0.3427E+00  0.1115E+02
      7.635  0.3088E+00  0.1119E+02
      7.757  0.2734E+00  0.1123E+02
      7.880  0.2463E+00  0.1126E+02
      8.003  0.2207E+00  0.1129E+02
      8.125  0.2165E+00  0.1132E+02
      8.248  0.2129E+00  0.1134E+02
      8.370  0.2098E+00  0.1137E+02
      8.493  0.2066E+00  0.1139E+02
      8.616  0.2033E+00  0.1142E+02
      8.738  0.2000E+00  0.1144E+02
      8.861  0.1966E+00  0.1147E+02
      8.984  0.1929E+00  0.1149E+02
      9.106  0.1892E+00  0.1151E+02
      9.229  0.1854E+00  0.1154E+02
      9.351  0.1815E+00  0.1156E+02
      9.474  0.1775E+00  0.1158E+02
      9.597  0.1735E+00  0.1160E+02
      9.719  0.1694E+00  0.1162E+02
      9.842  0.1651E+00  0.1165E+02
      9.964  0.1657E+00  0.1167E+02
     10.087  0.1653E+00  0.1169E+02
     10.210  0.1612E+00  0.1171E+02
     10.332  0.1562E+00  0.1173E+02
     10.455  0.2617E+00  0.1175E+02
     10.577  0.3512E+00  0.1179E+02
     10.700  0.3970E+00  0.1183E+02
     10.823  0.4244E+00  0.1188E+02
     10.945  0.4209E+00  0.1194E+02
     11.068  0.4253E+00  0.1199E+02
     11.191  0.4256E+00  0.1204E+02
     11.313  0.4255E+00  0.1209E+02
     11.436  0.4250E+00  0.1214E+02
     11.558  0.4215E+00  0.1220E+02
     11.681  0.4126E+00  0.1225E+02
     11.804  0.4046E+00  0.1230E+02
     11.926  0.3983E+00  0.1235E+02
     12.049  0.3915E+00  0.1240E+02
     12.171  0.3831E+00  0.1244E+02
     12.294  0.3744E+00  0.1249E+02
     12.417  0.3667E+00  0.1253E+02
     12.539  0.3625E+00  0.1258E+02
     12.662  0.3629E+00  0.1262E+02
     12.784  0.3633E+00  0.1267E+02
     12.907  0.3573E+00  0.1271E+02
     13.030  0.3498E+00  0.1276E+02
     13.152  0.3379E+00  0.1280E+02
     13.275  0.3310E+00  0.1284E+02
     13.398  0.3275E+00  0.1288E+02
     13.520  0.3240E+00  0.1292E+02
     13.643  0.3210E+00  0.1296E+02
     13.765  0.3183E+00  0.1300E+02
     13.888  0.3151E+00  0.1304E+02
     14.011  0.3115E+00  0.1308E+02
     14.133  0.3077E+00  0.1311E+02
     14.256  0.3024E+00  0.1315E+02
     14.378  0.2978E+00  0.1319E+02
     14.501  0.2933E+00  0.1322E+02
     14.624  0.2888E+00  0.1326E+02
     14.746  0.2842E+00  0.1329E+02
     14.869  0.2803E+00  0.1333E+02
     14.991  0.2855E+00  0.1336E+02
     15.114  0.3009E+00  0.1340E+02
     15.237  0.2942E+00  0.1344E+02
     15.359  0.2845E+00  0.1347E+02
     15.482  0.2687E+00  0.1351E+02
     15.605  0.2544E+00  0.1354E+02
     15.727  0.2433E+00  0.1357E+02
     15.850  0.2312E+00  0.1360E+02
     15.972  0.2301E+00  0.1363E+02
     16.095  0.2498E+00  0.1366E+02
     16.218  0.2601E+00  0.1369E+02
     16.340  0.2696E+00  0.1372E+02
     16.463  0.2783E+00  0.1375E+02
     16.585  0.2868E+00  0.1379E+02
     16.708  0.2942E+00  0.1382E+02
     16.831  0.3005E+00  0.1386E+02
     16.953  0.3624E+00  0.1390E+02
     17.076  0.3827E+00  0.1395E+02
     17.198  0.3761E+00  0.1399E+02
     17.321  0.4110E+00  0.1404E+02
     17.444  0.4602E+00  0.1409E+02
     17.566  0.4890E+00  0.1415E+02
     17.689  0.5143E+00  0.1421E+02
     17.812  0.4594E+00  0.1427E+02
     17.934  0.4736E+00  0.1433E+02
     18.057  0.4824E+00  0.1439E+02
     18.179  0.4981E+00  0.1445E+02
     18.302  0.5201E+00  0.1451E+02
     18.425  0.5429E+00  0.1458E+02
     18.547  0.5503E+00  0.1465E+02
     18.670  0.5542E+00  0.1471E+02
     18.792  0.5629E+00  0.1478E+02
     18.915  0.5712E+00  0.1485E+02
     19.038  0.5747E+00  0.1492E+02
     19.160  0.5244E+00  0.1499E+02
     19.283  0.5315E+00  0.1505E+02
     19.405  0.5497E+00  0.1512E+02
     19.528  0.5548E+00  0.1519E+02
     19.651  0.6070E+00  0.1526E+02
     19.773  0.5548E+00  0.1533E+02
     19.896  0.5259E+00  0.1540E+02
     20.019  0.5105E+00  0.1546E+02
     20.141  0.4880E+00  0.1552E+02
     20.264  0.4762E+00  0.1558E+02
     20.386  0.4802E+00  0.1564E+02
     20.509  0.4900E+00  0.1570E+02
     20.632  0.5000E+00  0.1576E+02
     20.754  0.5106E+00  0.1582E+02
     20.877  0.5190E+00  0.1588E+02
     20.999  0.5262E+00  0.1595E+02
     21.122  0.5336E+00  0.1601E+02
     21.245  0.4862E+00  0.1608E+02
     21.367  0.4950E+00  0.1614E+02
     21.490  0.5083E+00  0.1620E+02
     21.612  0.5195E+00  0.1626E+02
     21.735  0.5288E+00  0.1633E+02
     21.858  0.5378E+00  0.1639E+02
     21.980  0.5487E+00  0.1646E+02
     22.103  0.5566E+00  0.1653E+02
     22.226  0.5604E+00  0.1659E+02
     22.348  0.5614E+00  0.1666E+02
     22.471  0.5712E+00  0.1673E+02
     22.593  0.5592E+00  0.1680E+02
     22.716  0.5471E+00  0.1687E+02
     22.839  0.5566E+00  0.1694E+02
     22.961  0.5752E+00  0.1701E+02
     23.084  0.6680E+00  0.1708E+02
     23.206  0.8025E+00  0.1717E+02
     23.329  0.5990E+00  0.1726E+02
     23.452  0.4703E+00  0.1732E+02
     23.574  0.4800E+00  0.1738E+02
     23.697  0.4918E+00  0.1744E+02
     23.819  0.5060E+00  0.1750E+02
     23.942  0.5237E+00  0.1756E+02
     24.065  0.5729E+00  0.1763E+02
     24.187  0.6269E+00  0.1770E+02
     24.310  0.7615E+00  0.1779E+02
     24.433  0.8492E+00  0.1789E+02
     24.555  0.7507E+00  0.1799E+02
     24.678  0.6986E+00  0.1808E+02
     24.800  0.6519E+00  0.1816E+02
     24.923  0.6232E+00  0.1824E+02
     25.046  0.5947E+00  0.1831E+02
     25.168  0.5313E+00  0.1838E+02
     25.291  0.5145E+00  0.1844E+02
     25.413  0.5324E+00  0.1851E+02
     25.536  0.5547E+00  0.1857E+02
     25.659  0.6543E+00  0.1864E+02
     25.781  0.6173E+00  0.1873E+02
     25.904  0.6204E+00  0.1880E+02
     26.026  0.6298E+00  0.1888E+02
     26.149  0.6411E+00  0.1896E+02
     26.272  0.6535E+00  0.1904E+02
     26.394  0.6681E+00  0.1912E+02
     26.517  0.6877E+00  0.1920E+02
     26.640  0.7115E+00  0.1929E+02
     26.762  0.7516E+00  0.1938E+02
     26.885  0.7424E+00  0.1947E+02
     27.007  0.6236E+00  0.1956E+02
     27.130  0.5110E+00  0.1962E+02
     27.253  0.4314E+00  0.1968E+02
     27.375  0.3761E+00  0.1973E+02
     27.498  0.3416E+00  0.1978E+02
     27.620  0.3130E+00  0.1982E+02
     27.743  0.2866E+00  0.1985E+02
     27.866  0.2634E+00  0.1989E+02
     27.988  0.1995E+00  0.1992E+02
     28.111  0.1441E+00  0.1994E+02
     28.233  0.1098E+00  0.1995E+02
     28.356  0.7726E-01  0.1997E+02
     28.479  0.6065E-01  0.1997E+02
     28.601  0.4841E-01  0.1998E+02
     28.724  0.3867E-01  0.1999E+02
     28.847  0.3035E-01  0.1999E+02
     28.969  0.2307E-01  0.1999E+02
     29.092  0.1684E-01  0.2000E+02
     29.214  0.1166E-01  0.2000E+02
     29.337  0.7520E-02  0.2000E+02
     29.460  0.4425E-02  0.2000E+02
     29.582  0.2325E-02  0.2000E+02
     29.705  0.9168E-03  0.2000E+02
     29.827  0.1524E-03  0.2000E+02
     29.950  0.0000E+00  0.2000E+02
     30.073  0.0000E+00  0.2000E+02
     30.195  0.0000E+00  0.2000E+02
     30.318  0.0000E+00  0.2000E+02
     30.440  0.0000E+00  0.2000E+02
     30.563  0.0000E+00  0.2000E+02
     30.686  0.0000E+00  0.2000E+02
     30.808  0.0000E+00  0.2000E+02
     30.931  0.0000E+00  0.2000E+02
     31.054  0.0000E+00  0.2000E+02
     31.176  0.0000E+00  0.2000E+02
     31.299  0.0000E+00  0.2000E+02
     31.421  0.0000E+00  0.2000E+02
     31.544  0.0000E+00  0.2000E+02
     31.667  0.0000E+00  0.2000E+02
     31.789  0.0000E+00  0.2000E+02
     31.912  0.0000E+00  0.2000E+02
