    1    1    1    1
  0.1757600E+02  0.2600000E-09  0.2600000E-09  0.2600000E-09  0.5000000E-15
  1.000000000000000E-004
  CAR 
 unknown system                          
     10     56     10
 
  0.0000000E+00  0.0000000E+00  0.0000000E+00  0.1000000E-02
    1       -2.871572   1.000000
    2       -0.085236   1.000000
    3       -0.085236   1.000000
    4        6.103573  -0.164394
    5        6.103573  -0.179990
    6        6.103573  -0.030040
    7       21.390881   0.000000
    8       21.390881   0.000000
    9       21.390881   0.000000
   10       26.957306   0.000000
 
  0.1000000E+00  0.0000000E+00  0.0000000E+00  0.6000000E-02
    1       -2.588058   1.000000
    2       -0.031505   1.000000
    3        0.179424   1.000000
    4        5.845280   0.784755
    5        5.845280   0.458048
    6        6.124115  -0.064405
    7       19.548385   0.000000
    8       21.898280   0.000000
    9       21.898280   0.000000
   10       27.872671   0.000000
 
  0.2000000E+00  0.0000000E+00  0.0000000E+00  0.6000000E-02
    1       -1.877688   1.000000
    2        0.112295   1.000000
    3        1.021124   1.000000
    4        5.224355   1.001202
    5        5.224355   1.024168
    6        6.178215  -0.090205
    7       16.539937   0.000000
    8       23.234332   0.000000
    9       23.234332   0.000000
   10       26.368767   0.000000
 
  0.3000000E+00  0.0000000E+00  0.0000000E+00  0.6000000E-02
    1       -1.069394   1.000000
    2        0.296771   1.000000
    3        2.468122   1.000000
    4        4.542877   1.000000
    5        4.542877   1.000000
    6        6.245800  -0.044931
    7       13.725130   0.000000
    8       24.574946   0.000000
    9       25.001728   0.000000
   10       25.001729   0.000000
 
  0.4000000E+00  0.0000000E+00  0.0000000E+00  0.6000000E-02
    1       -0.449550   1.000000
    2        0.452000   1.000000
    3        4.044492   1.000000
    4        4.044492   1.000000
    5        4.201239   1.050231
    6        6.301106  -0.006481
    7       11.439534   0.000000
    8       23.394742   0.000000
    9       26.733812   0.000000
   10       26.753798   0.000000
 
  0.5000000E+00  0.0000000E+00  0.0000000E+00  0.3000000E-02
    1       -0.212885   1.000000
    2        0.512711   1.000000
    3        3.864306   1.000000
    4        3.864306   1.000000
    5        5.166968   1.112893
    6        6.322325   0.000000
    7       10.363319   0.000000
    8       22.984522   0.000000
    9       26.194006   0.000000
   10       27.592444   0.000000
 
  0.1000000E+00  0.1000000E+00  0.0000000E+00  0.1200000E-01
    1       -2.300227   1.000000
    2        0.131558   1.000000
    3        0.329518   1.000000
    4        5.572928   1.014824
    5        5.827991   0.726642
    6        5.909673   0.141012
    7       19.716275   0.000000
    8       20.312788   0.000000
    9       22.408964   0.000000
   10       27.939914   0.000000
 
  0.2000000E+00  0.1000000E+00  0.0000000E+00  0.2400000E-01
    1       -1.586954   1.000000
    2        0.322810   1.000000
    3        1.110089   1.000000
    4        4.937086   1.000564
    5        5.248389   1.022372
    6        5.936176   0.251148
    7       16.955082   0.000000
    8       21.144370   0.000000
    9       23.756661   0.000000
   10       26.638873   0.000000
 
  0.3000000E+00  0.1000000E+00  0.0000000E+00  0.2400000E-01
    1       -0.789321   1.000000
    2        0.523934   1.000000
    3        2.414956   1.000000
    4        4.397564   1.000000
    5        4.575080   1.000000
    6        6.009804   0.122306
    7       14.091060   0.000000
    8       22.446788   0.000000
    9       25.152585   0.000000
   10       25.550067   0.000000
 
  0.4000000E+00  0.1000000E+00  0.0000000E+00  0.2400000E-01
    1       -0.178520   1.000000
    2        0.705332   1.000000
    3        2.997007   1.000000
    4        4.081044   1.000000
    5        5.136896   1.043535
    6        6.070803   0.013978
    7       11.651975   0.000000
    8       23.199124   0.000000
    9       24.692755   0.000000
   10       27.355174   0.000000
 
  0.5000000E+00  0.1000000E+00  0.0000000E+00  0.1200000E-01
    1        0.055840   1.000000
    2        0.787512   1.000000
    3        2.904926   1.000000
    4        3.902263   1.000000
    5        6.094345   0.453352
    6        6.163645   0.000000
    7       10.383903   0.000000
    8       23.104678   0.000000
    9       25.743768   0.000000
   10       25.788926   0.000000
 
  0.2000000E+00  0.2000000E+00  0.0000000E+00  0.1200000E-01
    1       -0.914096   1.000000
    2        0.851259   1.000000
    3        1.542067   1.000000
    4        4.315057   1.000000
    5        5.238667   1.000113
    6        5.424096   1.070892
    7       17.949860   0.000000
    8       18.056942   0.000000
    9       25.135997   0.000000
   10       26.311043   0.000000
 
  0.3000000E+00  0.2000000E+00  0.0000000E+00  0.2400000E-01
    1       -0.247220   1.000000
    2        1.210783   1.000000
    3        2.402115   1.000000
    4        4.220031   1.000000
    5        4.658379   1.000000
    6        5.437357   0.964731
    7       14.966460   0.000000
    8       19.401759   0.000000
    9       25.303130   0.000000
   10       26.975104   0.000000
 
  0.4000000E+00  0.2000000E+00  0.0000000E+00  0.2400000E-01
    1        0.231449   1.000000
    2        1.467854   1.000000
    3        2.254702   1.000000
    4        4.178022   1.000000
    5        5.508226   1.002118
    6        5.960815   0.135947
    7       12.195950   0.000000
    8       20.974510   0.000000
    9       24.134749   0.000000
   10       26.796344   0.000000
 
  0.5000000E+00  0.2000000E+00  0.0000000E+00  0.1200000E-01
    1        0.414922   1.000000
    2        1.649629   1.000000
    3        1.984004   1.000000
    4        4.003089   1.000000
    5        5.536519   1.006267
    6        7.558478   0.000000
    7       10.434638   0.000000
    8       22.672244   0.000000
    9       22.707724   0.000000
   10       25.546282   0.000000
 
  0.3000000E+00  0.3000000E+00  0.0000000E+00  0.1200000E-01
    1        0.189887   1.000000
    2        1.237081   1.000000
    3        3.454308   1.000000
    4        4.571193   1.000000
    5        4.700837   1.006954
    6        4.862550   0.903959
    7       15.189716   0.000000
    8       17.406862   0.000000
    9       24.480514   0.000000
   10       28.686111   0.000000
 
  0.4000000E+00  0.3000000E+00  0.0000000E+00  0.2400000E-01
    1        0.490717   1.000000
    2        0.876992   1.000000
    3        3.946663   1.000000
    4        4.300138   1.000000
    5        4.879031   1.020535
    6        6.664955   0.002064
    7       12.751682   0.000000
    8       18.402313   0.000000
    9       22.699701   0.000000
   10       27.236628   0.000000
 
  0.5000000E+00  0.3000000E+00  0.0000000E+00  0.1200000E-01
    1        0.630025   1.000000
    2        0.696856   1.000000
    3        4.028284   1.000000
    4        4.130685   1.000000
    5        4.911137   1.028007
    6        8.859810   0.000000
    7       10.479459   0.000000
    8       19.625192   0.000000
    9       21.222272   0.000000
   10       26.536019   0.000000
 
  0.4000000E+00  0.4000000E+00  0.0000000E+00  0.1200000E-01
    1        0.171865   1.000000
    2        0.835609   1.000000
    3        4.378579   1.000000
    4        4.435128   1.000000
    5        5.865741   0.527110
    6        7.765277  -0.017532
    7       12.330168   0.000000
    8       16.928151   0.000000
    9       20.837534   0.000000
   10       28.059967   0.000000
 
  0.5000000E+00  0.4000000E+00  0.0000000E+00  0.1200000E-01
    1       -0.025945   1.000000
    2        0.912638   1.000000
    3        4.236494   1.000000
    4        4.446645   1.000000
    5        6.394107   0.103467
    6        9.877311   0.000000
    7       10.438012   0.000000
    8       16.897168   0.000000
    9       19.865218   0.000000
   10       27.785895   0.000000
 
  0.5000000E+00  0.5000000E+00  0.0000000E+00  0.3000000E-02
    1       -0.251687   1.000000
    2        0.995921   1.000000
    3        4.277623   1.000000
    4        4.277623   1.000000
    5        7.769547   0.000000
    6       10.289626   0.000000
    7       10.289626   0.000000
    8       15.570031   0.000000
    9       19.310469   0.000000
   10       28.413543   0.000000
 
  0.1000000E+00  0.1000000E+00  0.1000000E+00  0.8000000E-02
    1       -2.005206   1.000000
    2        0.382918   1.000000
    3        0.382918   1.000000
    4        5.534449   1.007603
    5        5.632716   1.025699
    6        5.632716   0.850963
    7       19.852470   0.000000
    8       20.790955   0.000000
    9       20.790955   0.000000
   10       29.520386   0.000000
 
  0.2000000E+00  0.1000000E+00  0.1000000E+00  0.2400000E-01
    1       -1.280236   1.000000
    2        0.527300   1.000000
    3        1.187166   1.000000
    4        4.966923   1.000381
    5        4.968940   1.006662
    6        5.675826   0.855690
    7       17.362995   0.000000
    8       21.233422   0.000000
    9       21.973045   0.000000
   10       27.815338   0.000000
 
  0.3000000E+00  0.1000000E+00  0.1000000E+00  0.2400000E-01
    1       -0.476190   1.000000
    2        0.716900   1.000000
    3        2.384764   1.000000
    4        4.239212   1.000000
    5        4.603454   1.000000
    6        5.758962   0.567647
    7       14.467876   0.000000
    8       22.476868   0.000000
    9       23.162633   0.000000
   10       26.636769   0.000000
 
  0.4000000E+00  0.1000000E+00  0.1000000E+00  0.2400000E-01
    1        0.163627   1.000000
    2        0.882810   1.000000
    3        2.750636   1.000000
    4        3.699362   1.000000
    5        5.671940   0.979706
    6        5.841071   0.137062
    7       11.894730   0.000000
    8       23.431927   0.000000
    9       23.829321   0.000000
   10       26.792420   0.000000
 
  0.5000000E+00  0.1000000E+00  0.1000000E+00  0.1200000E-01
    1        0.432163   1.000000
    2        0.950376   1.000000
    3        2.633119   1.000000
    4        3.501387   1.000000
    5        5.850163   0.813702
    6        6.925247   0.000000
    7       10.422312   0.000000
    8       23.311402   0.000000
    9       25.100757   0.000000
   10       25.788947   0.000000
 
  0.2000000E+00  0.2000000E+00  0.1000000E+00  0.2400000E-01
    1       -0.573121   1.000000
    2        1.038824   1.000000
    3        1.588103   1.000000
    4        4.352690   1.000000
    5        5.008580   1.000060
    6        5.110399   1.051794
    7       18.347037   0.000000
    8       18.461573   0.000000
    9       22.723089   0.000000
   10       28.048187   0.000000
 
  0.3000000E+00  0.2000000E+00  0.1000000E+00  0.4800000E-01
    1        0.121186   1.000000
    2        1.342110   1.000000
    3        2.417880   1.000000
    4        3.978118   1.000000
    5        4.721975   1.000000
    6        5.178932   0.982783
    7       15.380681   0.000000
    8       19.735707   0.000000
    9       23.835814   0.000000
   10       27.004665   0.000000
 
  0.4000000E+00  0.2000000E+00  0.1000000E+00  0.4800000E-01
    1        0.648677   1.000000
    2        1.543035   1.000000
    3        2.280982   1.000000
    4        3.618392   1.000000
    5        5.229649   1.009089
    6        6.433735   0.004963
    7       12.514853   0.000000
    8       21.258660   0.000000
    9       24.196904   0.000000
   10       25.628083   0.000000
 
  0.5000000E+00  0.2000000E+00  0.1000000E+00  0.2400000E-01
    1        0.878334   1.000000
    2        1.661761   1.000000
    3        2.036863   1.000000
    4        3.435204   1.000000
    5        5.269405   1.008200
    6        8.238036   0.000000
    7       10.520756   0.000000
    8       22.823397   0.000000
    9       23.210245   0.000000
   10       24.742509   0.000000
 
  0.3000000E+00  0.3000000E+00  0.1000000E+00  0.2400000E-01
    1        0.548926   1.000000
    2        1.374992   1.000000
    3        3.394875   1.000000
    4        3.964566   1.000000
    5        4.607624   1.008135
    6        5.204452   0.716881
    7       15.736289   0.000000
    8       17.622083   0.000000
    9       24.591315   0.000000
   10       25.639098   0.000000
 
  0.4000000E+00  0.3000000E+00  0.1000000E+00  0.4800000E-01
    1        0.735804   1.000000
    2        1.146542   1.000000
    3        3.730417   1.000000
    4        3.777142   1.000000
    5        4.774095   1.021225
    6        7.120286  -0.035686
    7       13.188078   0.000000
    8       18.664707   0.000000
    9       22.853801   0.000000
   10       25.729598   0.000000
 
  0.5000000E+00  0.3000000E+00  0.1000000E+00  0.2400000E-01
    1        0.698941   1.000000
    2        1.153988   1.000000
    3        3.565700   1.000000
    4        3.831257   1.000000
    5        4.847019   1.020998
    6        9.525434   0.000000
    7       10.652625   0.000000
    8       20.064942   0.000000
    9       21.098009   0.000000
   10       25.791707   0.000000
 
  0.4000000E+00  0.4000000E+00  0.1000000E+00  0.2400000E-01
    1        0.256378   1.000000
    2        1.288111   1.000000
    3        3.834980   1.000000
    4        3.882198   1.000000
    5        6.051190   0.422483
    6        8.279644  -0.014946
    7       12.891003   0.000000
    8       17.098628   0.000000
    9       20.734189   0.000000
   10       26.710961   0.000000
 
  0.5000000E+00  0.4000000E+00  0.1000000E+00  0.2400000E-01
    1        0.058230   1.000000
    2        1.376773   1.000000
    3        3.694132   1.000000
    4        3.908330   1.000000
    5        6.574696   0.055932
    6       10.553491   0.000000
    7       10.818555   0.000000
    8       17.132483   0.000000
    9       19.624721   0.000000
   10       27.077879   0.000000
 
  0.5000000E+00  0.5000000E+00  0.1000000E+00  0.6000000E-02
    1       -0.164238   1.000000
    2        1.467370   1.000000
    3        3.745660   1.000000
    4        3.745660   1.000000
    5        7.783655   0.000000
    6       10.977999   0.000000
    7       10.977999   0.000000
    8       15.607175   0.000000
    9       19.030080   0.000000
   10       28.258209   0.000000
 
  0.2000000E+00  0.2000000E+00  0.2000000E+00  0.8000000E-02
    1        0.182335   1.000000
    2        1.714657   1.000000
    3        1.714657   1.000000
    4        4.370244   1.000000
    5        4.370244   1.000000
    6        4.645957   1.011203
    7       18.929985   0.000000
    8       19.756624   0.000000
    9       19.756624   0.000000
   10       29.911810   0.000000
 
  0.3000000E+00  0.2000000E+00  0.2000000E+00  0.2400000E-01
    1        0.821649   1.000000
    2        1.892361   1.000000
    3        2.491576   1.000000
    4        3.561179   1.000000
    5        4.424125   1.000000
    6        5.081823   0.871975
    7       16.385764   0.000000
    8       20.178676   0.000000
    9       21.378228   0.000000
   10       27.992501   0.000000
 
  0.4000000E+00  0.2000000E+00  0.2000000E+00  0.2400000E-01
    1        1.279146   1.000000
    2        2.089132   1.000000
    3        2.333680   1.000000
    4        2.927933   1.000000
    5        4.634962   1.000381
    6        7.157102  -0.053518
    7       13.313771   0.000000
    8       21.342068   0.000000
    9       22.964526   0.000000
   10       25.753584   0.000000
 
  0.5000000E+00  0.2000000E+00  0.2000000E+00  0.1200000E-01
    1        1.509343   1.000000
    2        2.116650   1.000000
    3        2.227134   1.000000
    4        2.637279   1.000000
    5        4.692827   1.000647
    6        9.553257   0.000000
    7       10.738364   0.000000
    8       22.302748   0.000000
    9       24.008164   0.000000
   10       24.166302   0.000000
 
  0.3000000E+00  0.3000000E+00  0.2000000E+00  0.2400000E-01
    1        1.075891   1.000000
    2        2.100213   1.000000
    3        3.056071   1.000000
    4        3.390587   1.000000
    5        4.239815   1.014297
    6        5.765576   0.371090
    7       17.111100   0.000000
    8       18.114532   0.000000
    9       22.021423   0.000000
   10       25.836652   0.000000
 
  0.4000000E+00  0.3000000E+00  0.2000000E+00  0.4800000E-01
    1        0.965328   1.000000
    2        2.175610   1.000000
    3        2.818413   1.000000
    4        3.292521   1.000000
    5        4.754074   1.014403
    6        7.912441  -0.035793
    7       14.242197   0.000000
    8       19.183757   0.000000
    9       22.497955   0.000000
   10       24.232899   0.000000
 
  0.5000000E+00  0.3000000E+00  0.2000000E+00  0.2400000E-01
    1        0.868843   1.000000
    2        2.359639   1.000000
    3        2.503283   1.000000
    4        3.318951   1.000000
    5        4.888183   0.991807
    6       10.899458   0.000000
    7       11.066883   0.000000
    8       20.459895   0.000000
    9       21.200605   0.000000
   10       24.783272   0.000000
 
  0.4000000E+00  0.4000000E+00  0.2000000E+00  0.2400000E-01
    1        0.477545   1.000000
    2        2.347053   1.000000
    3        2.848987   1.000000
    4        3.063565   1.000000
    5        6.275855   0.283124
    6        9.266831  -0.004560
    7       14.251700   0.000000
    8       17.418826   0.000000
    9       20.320377   0.000000
   10       25.060234   0.000000
 
  0.5000000E+00  0.4000000E+00  0.2000000E+00  0.2400000E-01
    1        0.286805   1.000000
    2        2.544112   1.000000
    3        2.618505   1.000000
    4        3.048367   1.000000
    5        6.810209   0.005553
    6       11.673701   0.000000
    7       12.010084   0.000000
    8       17.771955   0.000000
    9       18.885646   0.000000
   10       25.858572   0.000000
 
  0.5000000E+00  0.5000000E+00  0.2000000E+00  0.6000000E-02
    1        0.074479   1.000000
    2        2.678304   1.000000
    3        2.678304   1.000000
    4        2.816580   1.000000
    5        7.820787   0.000000
    6       12.492795   0.000000
    7       12.492795   0.000000
    8       15.707289   0.000000
    9       18.230177   0.000000
   10       26.737648   0.000000
 
  0.3000000E+00  0.3000000E+00  0.3000000E+00  0.8000000E-02
    1        1.184876   1.000000
    2        2.419828   1.000000
    3        2.419828   1.000000
    4        4.160782   1.002051
    5        4.160782   1.055870
    6        6.695097  -0.015386
    7       18.574041   0.000000
    8       18.858080   0.000000
    9       18.858080   0.000000
   10       26.165070   0.000000
 
  0.4000000E+00  0.3000000E+00  0.3000000E+00  0.2400000E-01
    1        1.039377   1.000000
    2        1.894631   1.000000
    3        2.354191   1.000000
    4        4.194010   1.008771
    5        5.119180   0.908770
    6        8.825710  -0.010796
    7       15.451660   0.000000
    8       19.010931   0.000000
    9       20.615391   0.000000
   10       24.522085   0.000000
 
  0.5000000E+00  0.3000000E+00  0.3000000E+00  0.1200000E-01
    1        0.938988   1.000000
    2        1.701255   1.000000
    3        2.368611   1.000000
    4        4.215227   1.014248
    5        5.367524   0.736617
    6       11.647022   0.000000
    7       12.345163   0.000000
    8       19.155995   0.000000
    9       21.642866   0.000000
   10       23.827132   0.000000
 
  0.4000000E+00  0.4000000E+00  0.3000000E+00  0.2400000E-01
    1        0.754564   1.000000
    2        1.745835   1.000000
    3        1.892122   1.000000
    4        4.663923   1.006395
    5        6.428302   0.120722
    6       10.367252  -0.000012
    7       15.875922   0.000000
    8       17.414843   0.000000
    9       19.331119   0.000000
   10       24.324736   0.000000
 
  0.5000000E+00  0.4000000E+00  0.3000000E+00  0.2400000E-01
    1        0.584877   1.000000
    2        1.624403   1.000000
    3        1.867538   1.000000
    4        4.732268   1.001626
    5        6.988373  -0.028599
    6       12.648391   0.000000
    7       13.568747   0.000000
    8       17.807277   0.000000
    9       18.447766   0.000000
   10       25.199988   0.000000
 
  0.5000000E+00  0.5000000E+00  0.3000000E+00  0.6000000E-02
    1        0.391464   1.000000
    2        1.680345   1.000000
    3        1.680345   1.000000
    4        4.814124   0.978604
    5        7.866997   0.000000
    6       14.149584   0.000000
    7       14.149584   0.000000
    8       15.840475   0.000000
    9       17.158482   0.000000
   10       25.752046   0.000000
 
  0.4000000E+00  0.4000000E+00  0.4000000E+00  0.8000000E-02
    1        0.886740   1.000000
    2        1.248752   1.000000
    3        1.248752   1.000000
    4        6.521639   0.354697
    5        6.521639   0.007707
    6       11.857636   0.000000
    7       16.992623   0.000000
    8       17.295318   0.000000
    9       17.295318   0.000000
   10       24.135959   0.000000
 
  0.5000000E+00  0.4000000E+00  0.4000000E+00  0.1200000E-01
    1        0.783266   1.000000
    2        1.024128   1.000000
    3        1.235248   1.000000
    4        6.553915   0.207281
    5        7.289018  -0.018043
    6       13.830535   0.000000
    7       14.848924   0.000000
    8       16.799803   0.000000
    9       17.913464   0.000000
   10       23.980544   0.000000
 
  0.5000000E+00  0.5000000E+00  0.4000000E+00  0.6000000E-02
    1        0.669059   1.000000
    2        1.013030   1.000000
    3        1.013030   1.000000
    4        6.907228   0.022156
    5        7.904647   0.000000
    6       15.490621   0.000000
    7       15.490621   0.000000
    8       15.969054   0.000000
    9       16.261326   0.000000
   10       24.500438   0.000000
 
  0.5000000E+00  0.5000000E+00  0.5000000E+00  0.1000000E-02
    1        0.780918   1.000000
    2        0.780918   1.000000
    3        0.780918   1.000000
    4        7.919143   0.000000
    5        7.919143   0.000000
    6       15.915621   0.000000
    7       16.034474   0.000000
    8       16.034474   0.000000
    9       16.034474   0.000000
   10       22.860212   0.000000
