Starting job 28218117 ("jobfile") on c15-35 at Fri Sep 20 10:34:03 CEST 2019
 running on    4 total cores
 distrk:  each k-point on    4 cores,    1 groups
 distr:  one band on    2 cores,    2 groups
 using from now: INCAR     
 vasp.5.4.1 05Feb16 (build Mar 02 2016 14:09:44) complex                        
  
 POSCAR found type information on POSCAR  Pt
 POSCAR found :  1 types and       1 ions

 ----------------------------------------------------------------------------- 
|                                                                             |
|  ADVICE TO THIS USER RUNNING 'VASP/VAMP'   (HEAR YOUR MASTER'S VOICE ...):  |
|                                                                             |
|      You have a (more or less) 'small supercell' and for smaller cells      |
|      it is recommended  to use the reciprocal-space projection scheme!      |
|      The real space optimization is not  efficient for small cells and it   |
|      is also less accurate ...                                              |
|      Therefore set LREAL=.FALSE. in the  INCAR file                         |
|                                                                             |
 ----------------------------------------------------------------------------- 

 LDA part: xc-table for Pade appr. of Perdew
 POSCAR, INCAR and KPOINTS ok, starting setup
 WARNING: small aliasing (wrap around) errors must be expected
 FFT: planning ...
 WAVECAR not read
 entering main loop
       N       E                     dE             d eps       ncg     rms          rms(c)
DAV:   1     0.599724034627E+02    0.59972E+02   -0.52792E+03  1184   0.941E+02
DAV:   2    -0.467006098428E+01   -0.64642E+02   -0.60914E+02  1130   0.218E+02
DAV:   3    -0.592050960643E+01   -0.12504E+01   -0.12485E+01  1378   0.377E+01
DAV:   4    -0.593312414655E+01   -0.12615E-01   -0.12630E-01  1356   0.364E+00
DAV:   5    -0.593341747261E+01   -0.29333E-03   -0.29269E-03  1314   0.482E-01    0.349E+00
RMM:   6    -0.562610615043E+01    0.30731E+00   -0.37995E-01  1142   0.831E+00    0.103E+00
RMM:   7    -0.560301002063E+01    0.23096E-01   -0.53619E-02  1191   0.224E+00    0.325E-01
RMM:   8    -0.560025002289E+01    0.27600E-02   -0.49099E-03  1212   0.115E+00    0.103E-01
RMM:   9    -0.559964862900E+01    0.60139E-03   -0.82484E-04  1272   0.378E-01    0.173E-02
RMM:  10    -0.559969852710E+01   -0.49898E-04   -0.45812E-05  1221   0.708E-02    0.327E-03
RMM:  11    -0.559970295032E+01   -0.44232E-05   -0.39651E-06   745   0.277E-02
   1 F= -.55997030E+01 E0= -.55997030E+01  d E =0.000000E+00

Currently Loaded Modulefiles:
  1) intel/2016.1       2) vasp/5.4.1.Feb16

Job script resource usage:
       JobID  MaxVMSize     MaxRSS 
------------ ---------- ---------- 
28218117.ba+    216752K      2518K 

Job step resource usage:
       JobID    JobName  AllocCPUS  MaxVMSize     MaxRSS    Elapsed ExitCode 
------------ ---------- ---------- ---------- ---------- ---------- -------- 
28218117        jobfile          4                         00:00:05      0:0 
28218117.0    pmi_proxy          1    279832K       524K   00:00:04      0:0 

Job 28218117 ("jobfile") completed on c15-35 at Fri Sep 20 10:34:07 CEST 2019
