unknown system                          
   2.80000000000000     
     0.986660   -0.000000    0.000000
    -0.493330    0.854472   -0.000000
    -0.000000    0.000000    1.707563
   Pt
     2
Direct
  0.333333  0.666667  0.250000
  0.666667  0.333333  0.750000
 
   40   40   72
  3.9780      4.0013      4.0713      4.1889      4.3548      4.5694      4.8327      5.1430      5.4976      5.8919    
  6.3195      6.7719      7.2387      7.7073      8.1627      8.5890      8.9691      9.2862      9.5249      9.6733    
  9.7237      9.6733      9.5249      9.2862      8.9691      8.5890      8.1627      7.7073      7.2387      6.7719    
  6.3195      5.8919      5.4976      5.1430      4.8327      4.5694      4.3548      4.1889      4.0713      4.0013    
  4.0013      4.0013      4.0479      4.1418      4.2835      4.4738      4.7129      4.9999      5.3328      5.7079    
  6.1200      6.5614      7.0230      7.4931      7.9579      8.4020      8.8082      9.1595      9.4397      9.6350    
  9.7353      9.7353      9.6350      9.4397      9.1595      8.8082      8.4020      7.9579      7.4931      7.0230    
  6.5614      6.1199      5.7080      5.3328      4.9999      4.7129      4.4738      4.2835      4.1418      4.0479    
  4.0713      4.0479      4.0713      4.1418      4.2598      4.4260      4.6409      4.9041      5.2143      5.5688    
  5.9633      6.3916      6.8456      7.3147      7.7863      8.2453      8.6751      9.0586      9.3785      9.6195    
  9.7694      9.8203      9.7694      9.6195      9.3785      9.0586      8.6751      8.2453      7.7863      7.3147    
  6.8456      6.3917      5.9633      5.5688      5.2143      4.9041      4.6409      4.4260      4.2598      4.1418    
  4.1889      4.1418      4.1418      4.1889      4.2835      4.4260      4.6169      4.8561      5.1428      5.4753    
  5.8503      6.2630      6.7064      7.1714      7.6464      8.1170      8.5673      8.9801      9.3374      9.6224    
  9.8210      9.9229      9.9229      9.8209      9.6224      9.3374      8.9801      8.5674      8.1170      7.6464    
  7.1715      6.7064      6.2631      5.8503      5.4753      5.1428      4.8561      4.6169      4.4260      4.2835    
  4.3548      4.2835      4.2598      4.2835      4.3548      4.4738      4.6409      4.8561      5.1189      5.4283    
  5.7820      6.1765      6.6061      7.0632      7.5374      8.0153      8.4821      8.9202      9.3111      9.6371    
  9.8827      10.035      10.087      10.035      9.8827      9.6371      9.3111      8.9202      8.4821      8.0154    
  7.5374      7.0633      6.6061      6.1765      5.7820      5.4283      5.1189      4.8561      4.6409      4.4738    
  4.5694      4.4738      4.4260      4.4260      4.4738      4.5695      4.7129      4.9041      5.1428      5.4283    
  5.7592      6.1329      6.5454      6.9905      7.4591      7.9393      8.4172      8.8751      9.2948      9.6579    
  9.9476      10.149      10.253      10.253      10.149      9.9476      9.6579      9.2948      8.8752      8.4171    
  7.9393      7.4590      6.9905      6.5454      6.1329      5.7591      5.4283      5.1428      4.9041      4.7129    
  4.8327      4.7129      4.6409      4.6169      4.6409      4.7129      4.8326      4.9999      5.2143      5.4753    
  5.7820      6.1329      6.5251      6.9539      7.4117      7.8885      8.3711      8.8426      9.2849      9.6798    
  10.009      10.257      10.411      10.463      10.411      10.257      10.009      9.6798      9.2849      8.8426    
  8.3711      7.8885      7.4117      6.9539      6.5251      6.1329      5.7820      5.4753      5.2143      4.9999    
  5.1430      4.9999      4.9041      4.8561      4.8561      4.9041      4.9999      5.1430      5.3328      5.5688    
  5.8503      6.1765      6.5454      6.9539      7.3959      7.8630      8.3434      8.8212      9.2791      9.6988    
  10.062      10.350      10.551      10.654      10.654      10.551      10.350      10.062      9.6988      9.2791    
  8.8212      8.3434      7.8630      7.3959      6.9539      6.5454      6.1765      5.8503      5.5688      5.3328    
  5.4976      5.3328      5.2143      5.1428      5.1189      5.1428      5.2143      5.3328      5.4976      5.7080    
  5.9633      6.2630      6.6061      6.9905      7.4117      7.8630      8.3342      8.8106      9.2760      9.7125    
  10.101      10.424      10.666      10.815      10.866      10.815      10.666      10.424      10.101      9.7125    
  9.2760      8.8106      8.3342      7.8630      7.4117      6.9905      6.6061      6.2630      5.9633      5.7080    
  5.8919      5.7080      5.5688      5.4753      5.4283      5.4283      5.4753      5.5688      5.7080      5.8919    
  6.1199      6.3917      6.7064      7.0633      7.4590      7.8885      8.3434      8.8106      9.2750      9.7197    
  10.125      10.474      10.750      10.941      11.038      11.038      10.941      10.750      10.474      10.125    
  9.7196      9.2750      8.8105      8.3434      7.8885      7.4591      7.0632      6.7065      6.3916      6.1200    
  6.3195      6.1200      5.9633      5.8503      5.7820      5.7591      5.7820      5.8503      5.9633      6.1200    
  6.3195      6.5615      6.8456      7.1714      7.5374      7.9393      8.3711      8.8212      9.2760      9.7196    
  10.134      10.500      10.801      11.026      11.165      11.212      11.165      11.026      10.801      10.500    
  10.134      9.7196      9.2760      8.8212      8.3711      7.9393      7.5374      7.1714      6.8456      6.5614    
  6.7719      6.5614      6.3916      6.2630      6.1765      6.1329      6.1329      6.1765      6.2631      6.3916    
  6.5615      6.7719      7.0230      7.3147      7.6464      8.0154      8.4171      8.8426      9.2791      9.7126    
  10.125      10.500      10.819      11.070      11.243      11.331      11.331      11.243      11.070      10.819    
  10.500      10.125      9.7125      9.2791      8.8426      8.4171      8.0154      7.6464      7.3147      7.0230    
  7.2387      7.0230      6.8456      6.7064      6.6061      6.5454      6.5251      6.5454      6.6061      6.7064    
  6.8456      7.0230      7.2388      7.4931      7.7863      8.1170      8.4821      8.8752      9.2849      9.6988    
  10.101      10.474      10.801      11.070      11.269      11.391      11.433      11.391      11.269      11.070    
  10.801      10.474      10.101      9.6988      9.2849      8.8752      8.4821      8.1170      7.7863      7.4931    
  7.7073      7.4931      7.3147      7.1714      7.0632      6.9905      6.9539      6.9539      6.9905      7.0632    
  7.1714      7.3147      7.4931      7.7072      7.9579      8.2453      8.5673      8.9202      9.2948      9.6798    
  10.062      10.424      10.750      11.026      11.243      11.391      11.467      11.467      11.391      11.243    
  11.026      10.750      10.424      10.062      9.6798      9.2948      8.9202      8.5674      8.2453      7.9579    
  8.1627      7.9579      7.7863      7.6464      7.5374      7.4590      7.4117      7.3959      7.4117      7.4591    
  7.5374      7.6464      7.7863      7.9579      8.1627      8.4020      8.6752      8.9801      9.3111      9.6579    
  10.009      10.350      10.666      10.941      11.165      11.331      11.433      11.467      11.433      11.331    
  11.165      10.941      10.666      10.350      10.009      9.6579      9.3111      8.9801      8.6751      8.4020    
  8.5890      8.4020      8.2453      8.1170      8.0154      7.9393      7.8885      7.8630      7.8630      7.8885    
  7.9393      8.0154      8.1170      8.2453      8.4020      8.5891      8.8082      9.0586      9.3374      9.6371    
  9.9476      10.257      10.551      10.815      11.038      11.212      11.331      11.391      11.391      11.331    
  11.212      11.038      10.815      10.551      10.257      9.9476      9.6372      9.3373      9.0586      8.8082    
  8.9691      8.8082      8.6752      8.5673      8.4821      8.4171      8.3711      8.3434      8.3342      8.3434    
  8.3711      8.4171      8.4821      8.5673      8.6752      8.8082      8.9691      9.1595      9.3785      9.6223    
  9.8827      10.149      10.411      10.654      10.866      11.038      11.165      11.243      11.269      11.243    
  11.165      11.038      10.866      10.654      10.411      10.149      9.8827      9.6223      9.3785      9.1595    
  9.2861      9.1595      9.0585      8.9801      8.9202      8.8752      8.8426      8.8212      8.8106      8.8106    
  8.8212      8.8426      8.8751      8.9202      8.9801      9.0586      9.1595      9.2861      9.4397      9.6195    
  9.8210      10.035      10.253      10.463      10.654      10.815      10.941      11.026      11.070      11.070    
  11.026      10.941      10.815      10.654      10.463      10.253      10.035      9.8210      9.6195      9.4397    
  9.5249      9.4397      9.3785      9.3374      9.3111      9.2948      9.2850      9.2791      9.2760      9.2750    
  9.2760      9.2791      9.2849      9.2948      9.3111      9.3373      9.3785      9.4397      9.5249      9.6350    
  9.7694      9.9229      10.087      10.253      10.411      10.551      10.666      10.750      10.801      10.819    
  10.801      10.750      10.666      10.551      10.411      10.253      10.087      9.9229      9.7694      9.6350    
  9.6733      9.6350      9.6195      9.6223      9.6371      9.6579      9.6798      9.6988      9.7125      9.7196    
  9.7196      9.7125      9.6988      9.6798      9.6579      9.6371      9.6224      9.6195      9.6350      9.6733    
  9.7353      9.8203      9.9230      10.035      10.149      10.257      10.350      10.424      10.474      10.500    
  10.500      10.474      10.424      10.350      10.257      10.149      10.035      9.9229      9.8203      9.7353    
  9.7237      9.7353      9.7695      9.8209      9.8827      9.9476      10.009      10.062      10.101      10.125    
  10.134      10.125      10.101      10.062      10.009      9.9476      9.8827      9.8210      9.7694      9.7353    
  9.7237      9.7353      9.7694      9.8210      9.8827      9.9476      10.009      10.062      10.101      10.125    
  10.134      10.125      10.101      10.062      10.009      9.9476      9.8827      9.8209      9.7695      9.7353    
  9.6733      9.7353      9.8203      9.9229      10.035      10.149      10.257      10.350      10.424      10.474    
  10.500      10.500      10.474      10.424      10.350      10.257      10.149      10.035      9.9230      9.8203    
  9.7353      9.6733      9.6350      9.6195      9.6224      9.6371      9.6579      9.6798      9.6988      9.7125    
  9.7196      9.7196      9.7125      9.6988      9.6798      9.6579      9.6371      9.6223      9.6195      9.6350    
  9.5249      9.6350      9.7694      9.9229      10.087      10.253      10.411      10.551      10.666      10.750    
  10.801      10.819      10.801      10.750      10.666      10.551      10.411      10.253      10.087      9.9229    
  9.7694      9.6350      9.5249      9.4397      9.3785      9.3373      9.3111      9.2948      9.2849      9.2791    
  9.2760      9.2750      9.2760      9.2791      9.2850      9.2948      9.3111      9.3374      9.3785      9.4397    
  9.2861      9.4397      9.6195      9.8210      10.035      10.253      10.463      10.654      10.815      10.941    
  11.026      11.070      11.070      11.026      10.941      10.815      10.654      10.463      10.253      10.035    
  9.8210      9.6195      9.4397      9.2861      9.1595      9.0586      8.9801      8.9202      8.8751      8.8426    
  8.8212      8.8106      8.8106      8.8212      8.8426      8.8752      8.9202      8.9801      9.0585      9.1595    
  8.9691      9.1595      9.3785      9.6223      9.8827      10.149      10.411      10.654      10.866      11.038    
  11.165      11.243      11.269      11.243      11.165      11.038      10.866      10.654      10.411      10.149    
  9.8827      9.6223      9.3785      9.1595      8.9691      8.8082      8.6752      8.5673      8.4821      8.4171    
  8.3711      8.3434      8.3342      8.3434      8.3711      8.4171      8.4821      8.5673      8.6752      8.8082    
  8.5890      8.8082      9.0586      9.3373      9.6372      9.9476      10.257      10.551      10.815      11.038    
  11.212      11.331      11.391      11.391      11.331      11.212      11.038      10.815      10.551      10.257    
  9.9476      9.6371      9.3374      9.0586      8.8082      8.5891      8.4020      8.2453      8.1170      8.0154    
  7.9393      7.8885      7.8630      7.8630      7.8885      7.9393      8.0154      8.1170      8.2453      8.4020    
  8.1627      8.4020      8.6751      8.9801      9.3111      9.6579      10.009      10.350      10.666      10.941    
  11.165      11.331      11.433      11.467      11.433      11.331      11.165      10.941      10.666      10.350    
  10.009      9.6579      9.3111      8.9801      8.6752      8.4020      8.1627      7.9579      7.7863      7.6464    
  7.5374      7.4591      7.4117      7.3959      7.4117      7.4590      7.5374      7.6464      7.7863      7.9579    
  7.7073      7.9579      8.2453      8.5674      8.9202      9.2948      9.6798      10.062      10.424      10.750    
  11.026      11.243      11.391      11.467      11.467      11.391      11.243      11.026      10.750      10.424    
  10.062      9.6798      9.2948      8.9202      8.5673      8.2453      7.9579      7.7072      7.4931      7.3147    
  7.1714      7.0632      6.9905      6.9539      6.9539      6.9905      7.0632      7.1714      7.3147      7.4931    
  7.2387      7.4931      7.7863      8.1170      8.4821      8.8752      9.2849      9.6988      10.101      10.474    
  10.801      11.070      11.269      11.391      11.433      11.391      11.269      11.070      10.801      10.474    
  10.101      9.6988      9.2849      8.8752      8.4821      8.1170      7.7863      7.4931      7.2388      7.0230    
  6.8456      6.7064      6.6061      6.5454      6.5251      6.5454      6.6061      6.7064      6.8456      7.0230    
  6.7719      7.0230      7.3147      7.6464      8.0154      8.4171      8.8426      9.2791      9.7125      10.125    
  10.500      10.819      11.070      11.243      11.331      11.331      11.243      11.070      10.819      10.500    
  10.125      9.7126      9.2791      8.8426      8.4171      8.0154      7.6464      7.3147      7.0230      6.7719    
  6.5615      6.3916      6.2631      6.1765      6.1329      6.1329      6.1765      6.2630      6.3916      6.5614    
  6.3195      6.5614      6.8456      7.1714      7.5374      7.9393      8.3711      8.8212      9.2760      9.7196    
  10.134      10.500      10.801      11.026      11.165      11.212      11.165      11.026      10.801      10.500    
  10.134      9.7196      9.2760      8.8212      8.3711      7.9393      7.5374      7.1714      6.8456      6.5615    
  6.3195      6.1200      5.9633      5.8503      5.7820      5.7591      5.7820      5.8503      5.9633      6.1200    
  5.8919      6.1200      6.3916      6.7065      7.0632      7.4591      7.8885      8.3434      8.8105      9.2750    
  9.7196      10.125      10.474      10.750      10.941      11.038      11.038      10.941      10.750      10.474    
  10.125      9.7197      9.2750      8.8106      8.3434      7.8885      7.4590      7.0633      6.7064      6.3917    
  6.1199      5.8919      5.7080      5.5688      5.4753      5.4283      5.4283      5.4753      5.5688      5.7080    
  5.4976      5.7080      5.9633      6.2630      6.6061      6.9905      7.4117      7.8630      8.3342      8.8106    
  9.2760      9.7125      10.101      10.424      10.666      10.815      10.866      10.815      10.666      10.424    
  10.101      9.7125      9.2760      8.8106      8.3342      7.8630      7.4117      6.9905      6.6061      6.2630    
  5.9633      5.7080      5.4976      5.3328      5.2143      5.1428      5.1189      5.1428      5.2143      5.3328    
  5.1430      5.3328      5.5688      5.8503      6.1765      6.5454      6.9539      7.3959      7.8630      8.3434    
  8.8212      9.2791      9.6988      10.062      10.350      10.551      10.654      10.654      10.551      10.350    
  10.062      9.6988      9.2791      8.8212      8.3434      7.8630      7.3959      6.9539      6.5454      6.1765    
  5.8503      5.5688      5.3328      5.1430      4.9999      4.9041      4.8561      4.8561      4.9041      4.9999    
  4.8327      4.9999      5.2143      5.4753      5.7820      6.1329      6.5251      6.9539      7.4117      7.8885    
  8.3711      8.8426      9.2849      9.6798      10.009      10.257      10.411      10.463      10.411      10.257    
  10.009      9.6798      9.2849      8.8426      8.3711      7.8885      7.4117      6.9539      6.5251      6.1329    
  5.7820      5.4753      5.2143      4.9999      4.8326      4.7129      4.6409      4.6169      4.6409      4.7129    
  4.5694      4.7129      4.9041      5.1428      5.4283      5.7591      6.1329      6.5454      6.9905      7.4590    
  7.9393      8.4171      8.8752      9.2948      9.6579      9.9476      10.149      10.253      10.253      10.149    
  9.9476      9.6579      9.2948      8.8751      8.4172      7.9393      7.4591      6.9905      6.5454      6.1329    
  5.7592      5.4283      5.1428      4.9041      4.7129      4.5695      4.4738      4.4260      4.4260      4.4738    
  4.3548      4.4738      4.6409      4.8561      5.1189      5.4283      5.7820      6.1765      6.6061      7.0633    
  7.5374      8.0154      8.4821      8.9202      9.3111      9.6371      9.8827      10.035      10.087      10.035    
  9.8827      9.6371      9.3111      8.9202      8.4821      8.0153      7.5374      7.0632      6.6061      6.1765    
  5.7820      5.4283      5.1189      4.8561      4.6409      4.4738      4.3548      4.2835      4.2598      4.2835    
  4.1889      4.2835      4.4260      4.6169      4.8561      5.1428      5.4753      5.8503      6.2631      6.7064    
  7.1715      7.6464      8.1170      8.5674      8.9801      9.3374      9.6224      9.8209      9.9229      9.9229    
  9.8210      9.6224      9.3374      8.9801      8.5673      8.1170      7.6464      7.1714      6.7064      6.2630    
  5.8503      5.4753      5.1428      4.8561      4.6169      4.4260      4.2835      4.1889      4.1418      4.1418    
  4.0713      4.1418      4.2598      4.4260      4.6409      4.9041      5.2143      5.5688      5.9633      6.3917    
  6.8456      7.3147      7.7863      8.2453      8.6751      9.0586      9.3785      9.6195      9.7694      9.8203    
  9.7694      9.6195      9.3785      9.0586      8.6751      8.2453      7.7863      7.3147      6.8456      6.3916    
  5.9633      5.5688      5.2143      4.9041      4.6409      4.4260      4.2598      4.1418      4.0713      4.0479    
  4.0013      4.0479      4.1418      4.2835      4.4738      4.7129      4.9999      5.3328      5.7080      6.1199    
  6.5614      7.0230      7.4931      7.9579      8.4020      8.8082      9.1595      9.4397      9.6350      9.7353    
  9.7353      9.6350      9.4397      9.1595      8.8082      8.4020      7.9579      7.4931      7.0230      6.5614    
  6.1200      5.7079      5.3328      4.9999      4.7129      4.4738      4.2835      4.1418      4.0479      4.0013    
  4.0048      4.0285      4.0995      4.2187      4.3867      4.6038      4.8700      5.1838      5.5427      5.9421    
  6.3760      6.8360      7.3115      7.7897      8.2555      8.6920      9.0815      9.4066      9.6516      9.8041    
  9.8559      9.8041      9.6516      9.4066      9.0815      8.6921      8.2555      7.7897      7.3115      6.8360    
  6.3760      5.9421      5.5427      5.1838      4.8700      4.6038      4.3867      4.2187      4.0995      4.0285    
  4.0285      4.0285      4.0744      4.1669      4.3066      4.4942      4.7299      5.0129      5.3410      5.7107    
  6.1165      6.5512      7.0054      7.4678      7.9249      8.3612      8.7605      9.1058      9.3812      9.5731    
  9.6717      9.6717      9.5732      9.3812      9.1058      8.7605      8.3612      7.9249      7.4678      7.0054    
  6.5512      6.1165      5.7107      5.3411      5.0129      4.7299      4.4942      4.3066      4.1669      4.0744    
  4.0996      4.0772      4.0995      4.1669      4.2799      4.4394      4.6457      4.8985      5.1965      5.5366    
  5.9144      6.3236      6.7561      7.2018      7.6484      8.0822      8.4879      8.8492      9.1503      9.3769    
  9.5177      9.5655      9.5177      9.3769      9.1503      8.8492      8.4880      8.0823      7.6484      7.2017    
  6.7561      6.3236      5.9144      5.5366      5.1965      4.8985      4.6457      4.4394      4.2799      4.1669    
  4.2187      4.1750      4.1750      4.2187      4.3066      4.4394      4.6175      4.8411      5.1093      5.4200    
  5.7694      6.1524      6.5621      6.9894      7.4237      7.8526      8.2614      8.6348      8.9573      9.2143    
  9.3933      9.4852      9.4852      9.3933      9.2143      8.9574      8.6348      8.2614      7.8526      7.4238    
  6.9894      6.5621      6.1524      5.7694      5.4200      5.1093      4.8412      4.6175      4.4394      4.3066    
  4.3867      4.3224      4.3011      4.3224      4.3867      4.4942      4.6457      4.8412      5.0802      5.3614    
  5.6820      6.0377      6.4229      6.8299      7.2492      7.6698      8.0780      8.4595      8.7992      9.0823    
  9.2954      9.4278      9.4727      9.4278      9.2954      9.0823      8.7992      8.4595      8.0780      7.6697    
  7.2492      6.8298      6.4229      6.0377      5.6820      5.3614      5.0802      4.8412      4.6457      4.4942    
  4.6038      4.5201      4.4783      4.4783      4.5201      4.6038      4.7299      4.8985      5.1093      5.3614    
  5.6527      5.9801      6.3390      6.7229      7.1241      7.5325      7.9357      8.3206      8.6727      8.9768    
  9.2191      9.3878      9.4744      9.4744      9.3878      9.2191      8.9768      8.6726      8.3206      7.9358    
  7.5325      7.1241      6.7229      6.3390      5.9801      5.6527      5.3614      5.1094      4.8985      4.7299    
  4.8700      4.7680      4.7069      4.6865      4.7069      4.7680      4.8700      5.0129      5.1965      5.4200    
  5.6820      5.9801      6.3109      6.6693      7.0487      7.4405      7.8338      8.2166      8.5750      8.8943    
  9.1601      9.3601      9.4843      9.5264      9.4842      9.3600      9.1601      8.8943      8.5751      8.2166    
  7.8338      7.4405      7.0487      6.6693      6.3109      5.9801      5.6820      5.4200      5.1965      5.0129    
  5.1838      5.0656      4.9866      4.9471      4.9471      4.9866      5.0656      5.1838      5.3410      5.5366    
  5.7694      6.0377      6.3390      6.6692      7.0235      7.3943      7.7723      8.1470      8.5052      8.8327    
  9.1154      9.3407      9.4974      9.5779      9.5779      9.4975      9.3407      9.1154      8.8326      8.5052    
  8.1470      7.7723      7.3943      7.0235      6.6692      6.3390      6.0377      5.7694      5.5366      5.3411    
  5.5427      5.4111      5.3167      5.2598      5.2409      5.2598      5.3167      5.4111      5.5427      5.7107    
  5.9144      6.1524      6.4229      6.7230      7.0487      7.3943      7.7518      8.1120      8.4630      8.7914    
  9.0837      9.3272      9.5103      9.6241      9.6627      9.6241      9.5103      9.3272      9.0837      8.7914    
  8.4630      8.1120      7.7518      7.3943      7.0487      6.7229      6.4229      6.1524      5.9144      5.7107    
  5.9421      5.8013      5.6949      5.6235      5.5877      5.5877      5.6235      5.6949      5.8013      5.9421    
  6.1165      6.3236      6.5621      6.8298      7.1241      7.4405      7.7723      8.1120      8.4489      8.7706    
  9.0645      9.3184      9.5205      9.6611      9.7332      9.7332      9.6611      9.5205      9.3184      9.0646    
  8.7706      8.4489      8.1120      7.7723      7.4405      7.1241      6.8298      6.5621      6.3236      6.1166    
  6.3760      6.2312      6.1177      6.0360      5.9867      5.9702      5.9867      6.0360      6.1177      6.2313    
  6.3760      6.5512      6.7561      6.9894      7.2492      7.5325      7.8338      8.1470      8.4630      8.7706    
  9.0581      9.3140      9.5268      9.6866      9.7856      9.8192      9.7856      9.6866      9.5268      9.3140    
  9.0581      8.7706      8.4630      8.1470      7.8338      7.5325      7.2492      6.9894      6.7561      6.5512    
  6.8360      6.6938      6.5793      6.4928      6.4349      6.4058      6.4058      6.4348      6.4929      6.5793    
  6.6938      6.8360      7.0055      7.2017      7.4238      7.6698      7.9358      8.2166      8.5052      8.7913    
  9.0646      9.3140      9.5290      9.6995      9.8178      9.8783      9.8783      9.8178      9.6995      9.5290    
  9.3140      9.0645      8.7914      8.5052      8.2166      7.9357      7.6698      7.4237      7.2018      7.0054    
  7.3115      7.1795      7.0716      6.9877      6.9275      6.8914      6.8793      6.8914      6.9275      6.9877    
  7.0717      7.1795      7.3115      7.4679      7.6484      7.8525      8.0780      8.3206      8.5750      8.8327    
  9.0837      9.3184      9.5268      9.6995      9.8286      9.9083      9.9353      9.9083      9.8286      9.6995    
  9.5268      9.3184      9.0837      8.8327      8.5751      8.3206      8.0780      7.8526      7.6484      7.4678    
  7.7896      7.6763      7.5837      7.5107      7.4563      7.4203      7.4023      7.4024      7.4203      7.4563    
  7.5106      7.5837      7.6763      7.7897      7.9248      8.0823      8.2614      8.4595      8.6726      8.8943    
  9.1154      9.3272      9.5205      9.6866      9.8178      9.9084      9.9545      9.9545      9.9083      9.8178    
  9.6866      9.5205      9.3272      9.1154      8.8943      8.6727      8.4595      8.2614      8.0822      7.9249    
  8.2555      8.1695      8.1012      8.0485      8.0096      7.9827      7.9670      7.9618      7.9670      7.9828    
  8.0096      8.0485      8.1012      8.1695      8.2555      8.3612      8.4879      8.6349      8.7992      8.9768    
  9.1601      9.3407      9.5103      9.6611      9.7856      9.8783      9.9353      9.9545      9.9353      9.8783    
  9.7856      9.6611      9.5103      9.3407      9.1601      8.9768      8.7992      8.6348      8.4880      8.3612    
  8.6921      8.6419      8.6076      8.5854      8.5719      8.5640      8.5598      8.5579      8.5579      8.5597    
  8.5640      8.5718      8.5854      8.6075      8.6420      8.6920      8.7605      8.8492      8.9574      9.0823    
  9.2191      9.3600      9.4975      9.6241      9.7332      9.8192      9.8783      9.9083      9.9083      9.8783    
  9.8192      9.7332      9.6241      9.4974      9.3601      9.2191      9.0823      8.9573      8.8493      8.7604    
  9.0815      9.0755      9.0839      9.1017      9.1234      9.1448      9.1626      9.1741      9.1781      9.1741    
  9.1626      9.1448      9.1234      9.1017      9.0839      9.0755      9.0815      9.1058      9.1503      9.2143    
  9.2954      9.3878      9.4843      9.5779      9.6627      9.7332      9.7856      9.8178      9.8286      9.8178    
  9.7856      9.7332      9.6627      9.5780      9.4843      9.3878      9.2954      9.2143      9.1503      9.1058    
  9.4066      9.4513      9.5100      9.5762      9.6429      9.7042      9.7546      9.7903      9.8088      9.8088    
  9.7903      9.7547      9.7041      9.6429      9.5761      9.5100      9.4513      9.4066      9.3812      9.3769    
  9.3933      9.4278      9.4743      9.5264      9.5779      9.6241      9.6611      9.6866      9.6995      9.6996    
  9.6866      9.6611      9.6241      9.5779      9.5264      9.4744      9.4278      9.3933      9.3769      9.3812    
  9.6517      9.7515      9.8661      9.9877      10.108      10.219      10.312      10.382      10.425      10.440    
  10.425      10.382      10.312      10.219      10.108      9.9877      9.8661      9.7515      9.6517      9.5731    
  9.5177      9.4852      9.4727      9.4744      9.4843      9.4974      9.5103      9.5205      9.5268      9.5289    
  9.5268      9.5205      9.5103      9.4975      9.4843      9.4744      9.4727      9.4852      9.5177      9.5732    
  9.8041      9.9609      10.135      10.317      10.497      10.664      10.808      10.922      11.000      11.039    
  11.039      11.000      10.922      10.808      10.664      10.497      10.317      10.135      9.9609      9.8041    
  9.6717      9.5655      9.4852      9.4278      9.3878      9.3601      9.3407      9.3272      9.3184      9.3140    
  9.3140      9.3184      9.3272      9.3406      9.3601      9.3878      9.4278      9.4852      9.5655      9.6717    
  9.8559      10.068      10.302      10.546      10.790      11.019      11.221      11.386      11.509      11.584    
  11.609      11.584      11.509      11.386      11.221      11.019      10.790      10.546      10.302      10.068    
  9.8559      9.6717      9.5177      9.3933      9.2954      9.2191      9.1601      9.1154      9.0837      9.0645    
  9.0581      9.0645      9.0837      9.1154      9.1601      9.2191      9.2954      9.3933      9.5177      9.6717    
  9.8041      10.068      10.359      10.664      10.972      11.266      11.531      11.755      11.931      12.051    