unknown system                          
   2.80000000000000     
     0.987555   -0.000000    0.000000
    -0.493778    0.855248   -0.000000
    -0.000000    0.000000    1.708967
   Pt
     2
Direct
  0.333333  0.666667  0.250000
  0.666667  0.333333  0.750000
 
   40   40   72
 0.39809049664E+01 0.40042026994E+01 0.40743471988E+01 0.41920212719E+01 0.43580254326E+01
 0.45728578451E+01 0.48362619756E+01 0.51468515433E+01 0.55016940488E+01 0.58963087394E+01
 0.63241619092E+01 0.67769342603E+01 0.72441018851E+01 0.77130007896E+01 0.81687902657E+01
 0.85954205619E+01 0.89758312664E+01 0.92931182827E+01 0.95320482280E+01 0.96806047523E+01
 0.97310222241E+01 0.96806047790E+01 0.95320482880E+01 0.92931183874E+01 0.89758314298E+01
 0.85954207965E+01 0.81687905785E+01 0.77130011787E+01 0.72441023382E+01 0.67769347557E+01
 0.63241624192E+01 0.58963092353E+01 0.55016945058E+01 0.51468519440E+01 0.48362623113E+01
 0.45728581141E+01 0.43580256383E+01 0.41920214198E+01 0.40743472941E+01 0.40042027461E+01
 0.40041965537E+01 0.40041989437E+01 0.40509211864E+01 0.41448464936E+01 0.42867045334E+01
 0.44771787436E+01 0.47164212554E+01 0.50036390614E+01 0.53368035880E+01 0.57121874362E+01
 0.61245069946E+01 0.65662967660E+01 0.70282335148E+01 0.74986325996E+01 0.79638174861E+01
 0.84082470199E+01 0.88148161335E+01 0.91663641115E+01 0.94467721658E+01 0.96422530730E+01
 0.97426531152E+01 0.97426642275E+01 0.96422416453E+01 0.94467640116E+01 0.91663638366E+01
 0.88148243707E+01 0.84082544187E+01 0.79638169500E+01 0.74986130998E+01 0.70282473663E+01
 0.65663078493E+01 0.61244703966E+01 0.57122196782E+01 0.53367851558E+01 0.50036509885E+01
 0.47164219918E+01 0.44771757234E+01 0.42867079904E+01 0.41448381301E+01 0.40509216311E+01
 0.40743484711E+01 0.40509262490E+01 0.40743471045E+01 0.41448372575E+01 0.42629521797E+01
 0.44293417442E+01 0.46443699851E+01 0.49077772534E+01 0.52181716966E+01 0.55729626522E+01
 0.59677146097E+01 0.63963730397E+01 0.68506992489E+01 0.73200910720E+01 0.77920446657E+01
 0.82514556669E+01 0.86816375550E+01 0.90653536717E+01 0.93855368345E+01 0.96267825736E+01
 0.97768194739E+01 0.98277324601E+01 0.97768199336E+01 0.96268054520E+01 0.93855477464E+01
 0.90653526104E+01 0.86816241826E+01 0.82514491614E+01 0.77920669324E+01 0.73201033586E+01
 0.68506587953E+01 0.63964094794E+01 0.59677084137E+01 0.55729529421E+01 0.52181781767E+01
 0.49077662791E+01 0.46443739240E+01 0.44293406840E+01 0.42629563422E+01 0.41448431459E+01
 0.41920262857E+01 0.41448355310E+01 0.41448433468E+01 0.41920287741E+01 0.42867076392E+01
 0.44293470142E+01 0.46203480481E+01 0.48596796807E+01 0.51466392339E+01 0.54793487926E+01
 0.58546774017E+01 0.62676926945E+01 0.67114167604E+01 0.71767388166E+01 0.76521231440E+01
 0.81230680486E+01 0.85737703702E+01 0.89868411556E+01 0.93444197868E+01 0.96296400461E+01
 0.98283980183E+01 0.99304597948E+01 0.99304638461E+01 0.98283752010E+01 0.96296324734E+01
 0.93443994822E+01 0.89868659106E+01 0.85737779955E+01 0.81230739193E+01 0.76520799347E+01
 0.71767760145E+01 0.67113919462E+01 0.62677010861E+01 0.58546589083E+01 0.54793731860E+01
 0.51466303270E+01 0.48596933861E+01 0.46203430795E+01 0.44293467262E+01 0.42866969320E+01
 0.43580316006E+01 0.42867049116E+01 0.42629570609E+01 0.42866968581E+01 0.43580243614E+01
 0.44771708582E+01 0.46443698042E+01 0.48596948601E+01 0.51226939108E+01 0.54323380973E+01
 0.57862997572E+01 0.61810812739E+01 0.66110117250E+01 0.70684873589E+01 0.75429866787E+01
 0.80213356823E+01 0.84885051823E+01 0.89269266242E+01 0.93181413289E+01 0.96444174638E+01
 0.98901566488E+01 0.10042908934E+02 0.10094759048E+02 0.10042927819E+02 0.98901643093E+01
 0.96444416168E+01 0.93181431278E+01 0.89269106411E+01 0.84884924735E+01 0.80213625278E+01
 0.75429816083E+01 0.70685014911E+01 0.66110030343E+01 0.61810863448E+01 0.57863096390E+01
 0.54323147226E+01 0.51227058018E+01 0.48596825583E+01 0.46443787093E+01 0.44771759531E+01
 0.45728617970E+01 0.44771690721E+01 0.44293467518E+01 0.44293482925E+01 0.44771805510E+01
 0.45728646393E+01 0.47164223309E+01 0.49077628026E+01 0.51466392810E+01 0.54323048529E+01
 0.57634294577E+01 0.61374883105E+01 0.65502540951E+01 0.69956991081E+01 0.74646139910E+01
 0.79452703674E+01 0.84234909477E+01 0.88818316107E+01 0.93018532503E+01 0.96652774457E+01
 0.99551702802E+01 0.10157163688E+02 0.10260887968E+02 0.10260865786E+02 0.10157161167E+02
 0.99551462927E+01 0.96652659801E+01 0.93018474352E+01 0.88818581186E+01 0.84234728517E+01
 0.79452810578E+01 0.74645823441E+01 0.69957090836E+01 0.65502572339E+01 0.61374889153E+01
 0.57634261062E+01 0.54323243682E+01 0.51466315100E+01 0.49077711394E+01 0.47164121158E+01
 0.48362702945E+01 0.47164197271E+01 0.46443769938E+01 0.46203353455E+01 0.46443719221E+01
 0.47164107121E+01 0.48362610185E+01 0.50036533567E+01 0.52181718823E+01 0.54793792514E+01
 0.57863031039E+01 0.61374806508E+01 0.65299271523E+01 0.69590803582E+01 0.74172522568E+01
 0.78944184893E+01 0.83773812973E+01 0.88492392257E+01 0.92919812553E+01 0.96871250582E+01
 0.10016746726E+02 0.10264783109E+02 0.10418850811E+02 0.10471093130E+02 0.10418854219E+02
 0.10264797687E+02 0.10016761150E+02 0.96871382337E+01 0.92919692870E+01 0.88492412753E+01
 0.83773715612E+01 0.78944401612E+01 0.74172672266E+01 0.69590776099E+01 0.65299234150E+01
 0.61374772479E+01 0.57863116601E+01 0.54793603367E+01 0.52181849844E+01 0.50036491972E+01
 0.51468361431E+01 0.50036489910E+01 0.49077628844E+01 0.48597005442E+01 0.48596851671E+01
 0.49077823835E+01 0.50036455894E+01 0.51468488832E+01 0.53367925772E+01 0.55729421774E+01
 0.58546675600E+01 0.61810916864E+01 0.65502480007E+01 0.69590791979E+01 0.74014232238E+01
 0.78689343326E+01 0.83496928515E+01 0.88278512706E+01 0.92861414627E+01 0.97062087721E+01
 0.10069297438E+02 0.10358222608E+02 0.10558974550E+02 0.10661853588E+02 0.10661852672E+02
 0.10558978556E+02 0.10358191803E+02 0.10069292856E+02 0.97061953989E+01 0.92861449968E+01
 0.88278511682E+01 0.83496950236E+01 0.78689122442E+01 0.74014258764E+01 0.69590697935E+01
 0.65502767178E+01 0.61810765057E+01 0.58546795740E+01 0.55729383186E+01 0.53367947643E+01
 0.55017031024E+01 0.53368015584E+01 0.52181794197E+01 0.51466260147E+01 0.51226967356E+01
 0.51466271440E+01 0.52181725924E+01 0.53367998316E+01 0.55016881934E+01 0.57122278306E+01
 0.59677067347E+01 0.62676916617E+01 0.66110138886E+01 0.69957062194E+01 0.74172541078E+01
 0.78689106617E+01 0.83404615245E+01 0.88172188943E+01 0.92830275351E+01 0.97198917963E+01
 0.10108804121E+02 0.10431696644E+02 0.10673650781E+02 0.10823400215E+02 0.10874092056E+02
 0.10823391229E+02 0.10673660714E+02 0.10431720065E+02 0.10108802765E+02 0.97199069866E+01
 0.92830252599E+01 0.88172245799E+01 0.83404644810E+01 0.78689194481E+01 0.74172678398E+01
 0.69956968047E+01 0.66110056686E+01 0.62676876230E+01 0.59677158333E+01 0.57122172747E+01
 0.58962761368E+01 0.57122147580E+01 0.55729310722E+01 0.54793870375E+01 0.54323111883E+01
 0.54323418164E+01 0.54793542752E+01 0.55729595725E+01 0.57122033786E+01 0.58963037293E+01
 0.61244745779E+01 0.63964116145E+01 0.67113852540E+01 0.70685006947E+01 0.74645952535E+01
 0.78944521432E+01 0.83496827276E+01 0.88172286042E+01 0.92820190608E+01 0.97270303207E+01
 0.10133112290E+02 0.10482045739E+02 0.10758024489E+02 0.10948981844E+02 0.11046573878E+02
 0.11046600324E+02 0.10948961688E+02 0.10758035200E+02 0.10482009076E+02 0.10133133700E+02
 0.97269899559E+01 0.92820367108E+01 0.88172000774E+01 0.83497123212E+01 0.78944150457E+01
 0.74646191270E+01 0.70684743552E+01 0.67114299106E+01 0.63963775567E+01 0.61244973034E+01
 0.63241708843E+01 0.61245051593E+01 0.59677222625E+01 0.58546643750E+01 0.57863025117E+01
 0.57634175188E+01 0.57863037548E+01 0.58546750301E+01 0.59677066975E+01 0.61244992620E+01
 0.63241568104E+01 0.65663094656E+01 0.68506747683E+01 0.71767723900E+01 0.75429714968E+01
 0.79452683022E+01 0.83773731925E+01 0.88278588294E+01 0.92830211610E+01 0.97269901798E+01
 0.10141295843E+02 0.10507449585E+02 0.10809435155E+02 0.11034545933E+02 0.11173482432E+02
 0.11220443516E+02 0.11173486258E+02 0.11034546605E+02 0.10809442966E+02 0.10507461648E+02
 0.10141303376E+02 0.97270145909E+01 0.92830251284E+01 0.88278585040E+01 0.83773720407E+01
 0.79452689098E+01 0.75429841111E+01 0.71767626845E+01 0.68506660826E+01 0.65663055774E+01
 0.67769386460E+01 0.65662871175E+01 0.63963784737E+01 0.62676939783E+01 0.61810913854E+01
 0.61374883241E+01 0.61374927116E+01 0.61810721542E+01 0.62677042764E+01 0.63963747181E+01
 0.65663218683E+01 0.67769301887E+01 0.70282237238E+01 0.73201026381E+01 0.76520969622E+01
 0.80213713799E+01 0.84234728893E+01 0.88492452285E+01 0.92861366901E+01 0.97199271567E+01
 0.10133123771E+02 0.10507477554E+02 0.10826709998E+02 0.11077839531E+02 0.11251032488E+02
 0.11339346676E+02 0.11339353037E+02 0.11251013571E+02 0.11077856732E+02 0.10826694899E+02
 0.10507474002E+02 0.10133096711E+02 0.97199194739E+01 0.92861253072E+01 0.88492531485E+01
 0.84234726444E+01 0.80213723799E+01 0.76520809108E+01 0.73201084247E+01 0.70282372837E+01
 0.72441061959E+01 0.70282362553E+01 0.68507022780E+01 0.67114083293E+01 0.66110098671E+01
 0.65502467660E+01 0.65299232121E+01 0.65502601087E+01 0.66110092961E+01 0.67114146183E+01
 0.68506702519E+01 0.70282160244E+01 0.72441347552E+01 0.74986230552E+01 0.77920426932E+01
 0.81230690226E+01 0.84884934052E+01 0.88818557537E+01 0.92919649077E+01 0.97061902760E+01
 0.10108787543E+02 0.10482012692E+02 0.10809428362E+02 0.11077858426E+02 0.11277079586E+02
 0.11399654615E+02 0.11441024128E+02 0.11399663500E+02 0.11277084406E+02 0.11077848985E+02
 0.10809438359E+02 0.10482038316E+02 0.10108798026E+02 0.97062073427E+01 0.92919651615E+01
 0.88818505774E+01 0.84884903690E+01 0.81230651963E+01 0.77920696132E+01 0.74986154338E+01
 0.77129903205E+01 0.74986376214E+01 0.73200817006E+01 0.71767548000E+01 0.70684826803E+01
 0.69957138348E+01 0.69590776493E+01 0.69590744077E+01 0.69957041030E+01 0.70684785899E+01
 0.71767701162E+01 0.73201174762E+01 0.74986161047E+01 0.77129622535E+01 0.79638476705E+01
 0.82514539504E+01 0.85737706562E+01 0.89269194763E+01 0.93018485425E+01 0.96871573431E+01
 0.10069292781E+02 0.10431738748E+02 0.10758029541E+02 0.11034542500E+02 0.11251025377E+02
 0.11399666172E+02 0.11475287965E+02 0.11475288415E+02 0.11399656501E+02 0.11251028319E+02
 0.11034544212E+02 0.10758012958E+02 0.10431717803E+02 0.10069287913E+02 0.96871353600E+01
 0.93018619761E+01 0.89269057455E+01 0.85737937196E+01 0.82514394807E+01 0.79638216149E+01
 0.81687990024E+01 0.79638155469E+01 0.77920521709E+01 0.76521100693E+01 0.75429893175E+01
 0.74646020311E+01 0.74172528281E+01 0.74014307235E+01 0.74172540602E+01 0.74646200572E+01
 0.75429715868E+01 0.76520847675E+01 0.77920473539E+01 0.79638501571E+01 0.81687846560E+01
 0.84082196858E+01 0.86816558719E+01 0.89868430443E+01 0.93181501851E+01 0.96652424661E+01
 0.10016754794E+02 0.10358182223E+02 0.10673648932E+02 0.10948980424E+02 0.11173480072E+02
 0.11339339059E+02 0.11441028473E+02 0.11475290398E+02 0.11441028694E+02 0.11339340724E+02
 0.11173486220E+02 0.10948986363E+02 0.10673660541E+02 0.10358199179E+02 0.10016761590E+02
 0.96652538721E+01 0.93181455895E+01 0.89868526206E+01 0.86816314310E+01 0.84082521868E+01
 0.85954302513E+01 0.84082315964E+01 0.82514664975E+01 0.81230636244E+01 0.80213512317E+01
 0.79452647016E+01 0.78944360196E+01 0.78689091640E+01 0.78689288059E+01 0.78944096946E+01
 0.79452863423E+01 0.80213659439E+01 0.81230824598E+01 0.82514337387E+01 0.84082376242E+01
 0.85954562683E+01 0.88147993681E+01 0.90653555135E+01 0.93444081784E+01 0.96444505433E+01
 0.99551642711E+01 0.10264807791E+02 0.10558988051E+02 0.10823384832E+02 0.11046598234E+02
 0.11220449287E+02 0.11339356939E+02 0.11399645859E+02 0.11399667927E+02 0.11339341110E+02
 0.11220461436E+02 0.11046557771E+02 0.10823409281E+02 0.10558953300E+02 0.10264815126E+02
 0.99551405208E+01 0.96444570335E+01 0.93443948922E+01 0.90653632426E+01 0.88148087234E+01
 0.89758433110E+01 0.88148106037E+01 0.86816484008E+01 0.85737537391E+01 0.84885111905E+01
 0.84234754504E+01 0.83773852495E+01 0.83496968230E+01 0.83404648685E+01 0.83497040205E+01
 0.83773767072E+01 0.84234572389E+01 0.84885015642E+01 0.85737697671E+01 0.86816594405E+01
 0.88147780970E+01 0.89758547626E+01 0.91663614326E+01 0.93855436924E+01 0.96296166993E+01
 0.98901527135E+01 0.10157144329E+02 0.10418842857E+02 0.10661864777E+02 0.10874083422E+02
 0.11046576898E+02 0.11173483530E+02 0.11251024355E+02 0.11277087609E+02 0.11251016717E+02
 0.11173485848E+02 0.11046595095E+02 0.10874095341E+02 0.10661856591E+02 0.10418858117E+02
 0.10157145603E+02 0.98901702284E+01 0.96296157258E+01 0.93855584507E+01 0.91663581481E+01
 0.92931041395E+01 0.91663722708E+01 0.90653406922E+01 0.89868603432E+01 0.89269183920E+01
 0.88818495786E+01 0.88492329879E+01 0.88278497434E+01 0.88172132752E+01 0.88172098017E+01
 0.88278531180E+01 0.88492634681E+01 0.88818454932E+01 0.89269230151E+01 0.89868373695E+01
 0.90653793409E+01 0.91663591380E+01 0.92931034288E+01 0.94467808105E+01 0.96268025174E+01
 0.98283980780E+01 0.10042931935E+02 0.10260888112E+02 0.10471080437E+02 0.10661862410E+02
 0.10823408535E+02 0.10948974600E+02 0.11034545891E+02 0.11077848036E+02 0.11077857669E+02
 0.11034540149E+02 0.10948962993E+02 0.10823394563E+02 0.10661852035E+02 0.10471086865E+02
 0.10260883718E+02 0.10042919534E+02 0.98283943149E+01 0.96267923804E+01 0.94467720674E+01
 0.95320611608E+01 0.94467655456E+01 0.93855485835E+01 0.93444020901E+01 0.93181482682E+01
 0.93018367121E+01 0.92919861553E+01 0.92861444015E+01 0.92830318288E+01 0.92820393182E+01
 0.92830256219E+01 0.92861200093E+01 0.92919740378E+01 0.93018466740E+01 0.93181547999E+01
 0.93443860164E+01 0.93855448206E+01 0.94467822645E+01 0.95320410295E+01 0.96422334899E+01
 0.97768131769E+01 0.99304456174E+01 0.10094748131E+02 0.10260889488E+02 0.10418843849E+02
 0.10558965723E+02 0.10673653380E+02 0.10758027526E+02 0.10809437377E+02 0.10826693236E+02
 0.10809439564E+02 0.10758044716E+02 0.10673655057E+02 0.10558977478E+02 0.10418855699E+02
 0.10260871411E+02 0.10094765959E+02 0.99304461079E+01 0.97768316295E+01 0.96422349651E+01
 0.96806278504E+01 0.96422238364E+01 0.96268068459E+01 0.96296218596E+01 0.96444465112E+01
 0.96652580675E+01 0.96871561220E+01 0.97061699112E+01 0.97199234814E+01 0.97269741784E+01
 0.97270217599E+01 0.97199080433E+01 0.97062173044E+01 0.96871235485E+01 0.96652741288E+01
 0.96444371135E+01 0.96296518344E+01 0.96267653457E+01 0.96422695175E+01 0.96806052994E+01
 0.97426786702E+01 0.98277345509E+01 0.99304815614E+01 0.10042894616E+02 0.10157179282E+02
 0.10264794175E+02 0.10358213719E+02 0.10431704818E+02 0.10482039620E+02 0.10507458373E+02
 0.10507481120E+02 0.10481989570E+02 0.10431728313E+02 0.10358183737E+02 0.10264814164E+02
 0.10157144300E+02 0.10042937967E+02 0.99304415890E+01 0.98277567081E+01 0.97426349637E+01
 0.97310364180E+01 0.97426451153E+01 0.97768324938E+01 0.98283789627E+01 0.98901648864E+01
 0.99551524127E+01 0.10016752952E+02 0.10069299067E+02 0.10108809749E+02 0.10133131234E+02
 0.10141301622E+02 0.10133105753E+02 0.10108797969E+02 0.10069289566E+02 0.10016760720E+02
 0.99551408095E+01 0.98901552304E+01 0.98283983279E+01 0.97768146536E+01 0.97426414915E+01
 0.97310202557E+01 0.97426414049E+01 0.97768144979E+01 0.98283981321E+01 0.98901550261E+01
 0.99551406224E+01 0.10016760564E+02 0.10069289446E+02 0.10108797879E+02 0.10133105687E+02
 0.10141301571E+02 0.10133131194E+02 0.10108809718E+02 0.10069299045E+02 0.10016752937E+02
 0.99551524033E+01 0.98901648804E+01 0.98283789584E+01 0.97768324908E+01 0.97426451137E+01
 0.96806278237E+01 0.97426349411E+01 0.98277566924E+01 0.99304415821E+01 0.10042937970E+02
 0.10157144314E+02 0.10264814189E+02 0.10358183775E+02 0.10431728363E+02 0.10481989630E+02
 0.10507481189E+02 0.10507458451E+02 0.10482039712E+02 0.10431704930E+02 0.10358213860E+02
 0.10264794349E+02 0.10157179485E+02 0.10042894832E+02 0.99304817644E+01 0.98277347093E+01
 0.97426787568E+01 0.96806052994E+01 0.96422694338E+01 0.96267651978E+01 0.96296516517E+01
 0.96444369267E+01 0.96652739618E+01 0.96871234144E+01 0.97062172057E+01 0.97199079756E+01
 0.97270217155E+01 0.97269741501E+01 0.97199234637E+01 0.97061698997E+01 0.96871561132E+01
 0.96652580579E+01 0.96444464978E+01 0.96296218406E+01 0.96268068216E+01 0.96422238092E+01
 0.95320611009E+01 0.96422349130E+01 0.97768315915E+01 0.99304460880E+01 0.10094765958E+02
 0.10260871431E+02 0.10418855737E+02 0.10558977534E+02 0.10673655128E+02 0.10758044800E+02
 0.10809439657E+02 0.10826693334E+02 0.10809437481E+02 0.10758027640E+02 0.10673653511E+02
 0.10558965879E+02 0.10418844035E+02 0.10260889700E+02 0.10094748351E+02 0.99304458205E+01
 0.97768133326E+01 0.96422335735E+01 0.95320410295E+01 0.94467821861E+01 0.93855446840E+01
 0.93443858503E+01 0.93181546326E+01 0.93018465272E+01 0.92919739229E+01 0.92861199280E+01
 0.92830255697E+01 0.92820392874E+01 0.92830318114E+01 0.92861443902E+01 0.92919861435E+01
 0.93018366941E+01 0.93181482395E+01 0.93444020486E+01 0.93855485304E+01 0.94467654856E+01
 0.92931040348E+01 0.94467719742E+01 0.96267923095E+01 0.98283942736E+01 0.10042919525E+02
 0.10260883740E+02 0.10471086914E+02 0.10661852107E+02 0.10823394654E+02 0.10948963099E+02
 0.11034540265E+02 0.11077857790E+02 0.11077848160E+02 0.11034546016E+02 0.10948974730E+02
 0.10823408679E+02 0.10661862575E+02 0.10471080628E+02 0.10260888324E+02 0.10042932151E+02
 0.98283982738E+01 0.96268026653E+01 0.94467808889E+01 0.92931034288E+01 0.91663590663E+01
 0.90653792173E+01 0.89868372204E+01 0.89269228661E+01 0.88818453629E+01 0.88492633662E+01
 0.88278530455E+01 0.88172097536E+01 0.88172132435E+01 0.88278497187E+01 0.88492329612E+01
 0.88818495415E+01 0.89269183381E+01 0.89868602694E+01 0.90653406001E+01 0.91663721670E+01
 0.89758431476E+01 0.91663579981E+01 0.93855583308E+01 0.96296156481E+01 0.98901701978E+01
 0.10157145618E+02 0.10418858170E+02 0.10661856676E+02 0.10874095449E+02 0.11046595220E+02
 0.11173485984E+02 0.11251016859E+02 0.11277087753E+02 0.11251024495E+02 0.11173483668E+02
 0.11046577037E+02 0.10874083570E+02 0.10661864942E+02 0.10418843044E+02 0.10157144532E+02
 0.98901529178E+01 0.96296168820E+01 0.93855438290E+01 0.91663615043E+01 0.89758547626E+01
 0.88147780324E+01 0.86816593293E+01 0.85737696328E+01 0.84885014287E+01 0.84234571182E+01
 0.83773766088E+01 0.83497039445E+01 0.83404648092E+01 0.83496967715E+01 0.83773851953E+01
 0.84234753831E+01 0.84885111014E+01 0.85737536233E+01 0.86816482593E+01 0.88148104442E+01
 0.85954300167E+01 0.88148085005E+01 0.90653630544E+01 0.93443947573E+01 0.96444569621E+01
 0.99551405128E+01 0.10264815173E+02 0.10558953391E+02 0.10823409401E+02 0.11046557911E+02
 0.11220461588E+02 0.11339341268E+02 0.11399668087E+02 0.11399646015E+02 0.11339357088E+02
 0.11220449429E+02 0.11046598374E+02 0.10823384976E+02 0.10558988208E+02 0.10264807965E+02
 0.99551644582E+01 0.96444507301E+01 0.93444083446E+01 0.90653556371E+01 0.88147994328E+01
 0.85954562683E+01 0.84082375658E+01 0.82514336375E+01 0.81230823357E+01 0.80213658153E+01
 0.79452862220E+01 0.78944095883E+01 0.78689287125E+01 0.78689090768E+01 0.78944359286E+01
 0.79452645954E+01 0.80213510997E+01 0.81230634597E+01 0.82514662991E+01 0.84082313719E+01
 0.81687986897E+01 0.84082518786E+01 0.86816311563E+01 0.89868524060E+01 0.93181454525E+01
 0.96652538182E+01 0.10016761612E+02 0.10358199261E+02 0.10673660666E+02 0.10948986513E+02
 0.11173486383E+02 0.11339340894E+02 0.11441028865E+02 0.11475290567E+02 0.11441028634E+02
 0.11339339209E+02 0.11173480210E+02 0.10948980554E+02 0.10673649063E+02 0.10358182364E+02
 0.10016754950E+02 0.96652426331E+01 0.93181503523E+01 0.89868431934E+01 0.86816559831E+01
 0.84082197443E+01 0.81687846560E+01 0.79638501035E+01 0.77920472595E+01 0.76520846484E+01
 0.75429714579E+01 0.74646199284E+01 0.74172539352E+01 0.74014305995E+01 0.74172526974E+01
 0.74646018830E+01 0.75429891404E+01 0.76521098540E+01 0.77920519141E+01 0.79638152541E+01
 0.77129899314E+01 0.79638212175E+01 0.82514391080E+01 0.85737934055E+01 0.89269055173E+01
 0.93018618479E+01 0.96871353301E+01 0.10069287966E+02 0.10431717917E+02 0.10758013110E+02
 0.11034544383E+02 0.11251028498E+02 0.11399656680E+02 0.11475288590E+02 0.11475288134E+02
 0.11399666328E+02 0.11251025518E+02 0.11034542625E+02 0.10758029655E+02 0.10431738860E+02
 0.10069292901E+02 0.96871574772E+01 0.93018486893E+01 0.89269196254E+01 0.85737707906E+01
 0.82514540516E+01 0.79638477241E+01 0.77129622535E+01 0.74986160541E+01 0.73201173849E+01
 0.71767699970E+01 0.70684784544E+01 0.69957039583E+01 0.69590742551E+01 0.69590774846E+01
 0.69957136492E+01 0.70684824626E+01 0.71767545395E+01 0.73200813913E+01 0.74986372654E+01
 0.72441057428E+01 0.74986149550E+01 0.77920691421E+01 0.81230647724E+01 0.84884900290E+01
 0.88818503466E+01 0.92919650482E+01 0.97062073375E+01 0.10108798107E+02 0.10482038454E+02
 0.10809438528E+02 0.11077849167E+02 0.11277084589E+02 0.11399663679E+02 0.11441024299E+02
 0.11399654775E+02 0.11277079729E+02 0.11077858549E+02 0.10809428466E+02 0.10482012784E+02
 0.10108787633E+02 0.97061903746E+01 0.92919650227E+01 0.88818558839E+01 0.84884935407E+01
 0.81230691466E+01 0.77920427877E+01 0.74986231058E+01 0.72441347552E+01 0.70282159752E+01
 0.68506701610E+01 0.67114144954E+01 0.66110091498E+01 0.65502599433E+01 0.65299230268E+01
 0.65502465550E+01 0.66110096205E+01 0.67114080361E+01 0.68507019296E+01 0.70282358500E+01
 0.67769381505E+01 0.70282367427E+01 0.73201078686E+01 0.76520803805E+01 0.80213719192E+01
 0.84234722901E+01 0.88492529219E+01 0.92861252098E+01 0.97199194887E+01 0.10133096809E+02
 0.10507474152E+02 0.10826695074E+02 0.11077856914E+02 0.11251013749E+02 0.11339353207E+02
 0.11339346834E+02 0.11251032631E+02 0.11077839652E+02 0.10826710096E+02 0.10507477633E+02
 0.10133123838E+02 0.97199272245E+01 0.92861367713E+01 0.88492453304E+01 0.84234730101E+01
 0.80213715085E+01 0.76520970813E+01 0.73201027294E+01 0.70282237730E+01 0.67769301887E+01
 0.65663218194E+01 0.63963746257E+01 0.62677041479E+01 0.61810719951E+01 0.61374925239E+01
 0.61374881047E+01 0.61810911268E+01 0.62676936702E+01 0.63963781058E+01 0.65662866841E+01
 0.63241703743E+01 0.65663050032E+01 0.68506654679E+01 0.71767620670E+01 0.75429835371E+01
 0.79452684251E+01 0.83773716801E+01 0.88278582835E+01 0.92830250426E+01 0.97270146167E+01
 0.10141303481E+02 0.10507461798E+02 0.10809443136E+02 0.11034546776E+02 0.11173486422E+02
 0.11220443668E+02 0.11173482568E+02 0.11034546049E+02 0.10809435248E+02 0.10507449654E+02
 0.10141295894E+02 0.97269902242E+01 0.92830212132E+01 0.88278589019E+01 0.83773732910E+01
 0.79452684224E+01 0.75429716257E+01 0.71767725092E+01 0.68506748593E+01 0.65663095145E+01
 0.63241568104E+01 0.61244992129E+01 0.59677066032E+01 0.58546748957E+01 0.57863035834E+01
 0.57634173097E+01 0.57863022600E+01 0.58546640717E+01 0.59677218969E+01 0.61245047227E+01
 0.58962756409E+01 0.61244967288E+01 0.63963769183E+01 0.67114292384E+01 0.70684736927E+01
 0.74646185238E+01 0.78944145472E+01 0.83497119586E+01 0.88171998610E+01 0.92820366293E+01
 0.97269899818E+01 0.10133133798E+02 0.10482009213E+02 0.10758035352E+02 0.10948961838E+02
 0.11046600464E+02 0.11046574002E+02 0.10948981950E+02 0.10758024573E+02 0.10482045800E+02
 0.10133112329E+02 0.97270303490E+01 0.92820190916E+01 0.88172286522E+01 0.83496828037E+01
 0.78944522494E+01 0.74645953823E+01 0.70685008302E+01 0.67113853769E+01 0.63964117068E+01
 0.61244746270E+01 0.58963037293E+01 0.57122033292E+01 0.55729594765E+01 0.54793541358E+01
 0.54323416343E+01 0.54323109607E+01 0.54793867575E+01 0.55729307296E+01 0.57122143423E+01
 0.55017026454E+01 0.57122167309E+01 0.59677152081E+01 0.62676869363E+01 0.66110049558E+01
 0.69956961132E+01 0.74172672200E+01 0.78689189435E+01 0.83404641182E+01 0.88172243636E+01
 0.92830251741E+01 0.97199070014E+01 0.10108802846E+02 0.10431720179E+02 0.10673660838E+02
 0.10823391349E+02 0.10874092164E+02 0.10823400306E+02 0.10673650852E+02 0.10431696694E+02
 0.10108804151E+02 0.97198918141E+01 0.92830275524E+01 0.88172189260E+01 0.83404615838E+01
 0.78689107551E+01 0.74172542329E+01 0.69957063641E+01 0.66110140349E+01 0.62676917902E+01
 0.59677068289E+01 0.57122278800E+01 0.55016881934E+01 0.53367997822E+01 0.52181724955E+01
 0.51466270010E+01 0.51226965451E+01 0.51466257720E+01 0.52181791162E+01 0.53368011832E+01
 0.51468357423E+01 0.53367942754E+01 0.55729377389E+01 0.58546789126E+01 0.61810757870E+01
 0.65502759810E+01 0.69590690877E+01 0.74014252513E+01 0.78689117396E+01 0.83496946611E+01
 0.88278509477E+01 0.92861448993E+01 0.97061953937E+01 0.10069292909E+02 0.10358191885E+02
 0.10558978646E+02 0.10661852756E+02 0.10661853660E+02 0.10558974606E+02 0.10358222646E+02
 0.10069297460E+02 0.97062087836E+01 0.92861414740E+01 0.88278512952E+01 0.83496929029E+01
 0.78689344198E+01 0.74014233478E+01 0.69590793505E+01 0.65502481661E+01 0.61810918454E+01
 0.58546676944E+01 0.55729422733E+01 0.53367926266E+01 0.51468488832E+01 0.50036455403E+01
 0.49077822863E+01 0.48596850217E+01 0.48597003476E+01 0.49077626300E+01 0.50036486690E+01
 0.48362699589E+01 0.50036487777E+01 0.52181844730E+01 0.54793597332E+01 0.57863109771E+01
 0.61374765133E+01 0.65299226702E+01 0.69590769041E+01 0.74172666068E+01 0.78944396628E+01
 0.83773712005E+01 0.88492410487E+01 0.92919691738E+01 0.96871382038E+01 0.10016761172E+02
 0.10264797734E+02 0.10418854272E+02 0.10471093179E+02 0.10418850849E+02 0.10264783134E+02
 0.10016746741E+02 0.96871250670E+01 0.92919812671E+01 0.88492392525E+01 0.83773813515E+01
 0.78944185804E+01 0.74172523874E+01 0.69590805229E+01 0.65299273376E+01 0.61374808385E+01
 0.57863032753E+01 0.54793793908E+01 0.52181719792E+01 0.50036534058E+01 0.48362610185E+01
 0.47164106635E+01 0.46443718252E+01 0.46203351988E+01 0.46443767928E+01 0.47164194641E+01
 0.45728615280E+01 0.47164117707E+01 0.49077707077E+01 0.51466309851E+01 0.54323237528E+01
 0.57634254160E+01 0.61374881806E+01 0.65502564971E+01 0.69957083920E+01 0.74645817409E+01
 0.79452805731E+01 0.84234724974E+01 0.88818578879E+01 0.93018473069E+01 0.96652659262E+01
 0.99551462847E+01 0.10157161182E+02 0.10260865808E+02 0.10260887987E+02 0.10157163702E+02
 0.99551702895E+01 0.96652774553E+01 0.93018532684E+01 0.88818316478E+01 0.84234910150E+01
 0.79452704735E+01 0.74646141392E+01 0.69956992937E+01 0.65502543061E+01 0.61374885299E+01
 0.57634296668E+01 0.54323050350E+01 0.51466394241E+01 0.49077628997E+01 0.47164223795E+01
 0.45728646393E+01 0.44771805030E+01 0.44293481961E+01 0.44293466045E+01 0.44771688682E+01
 0.43580313949E+01 0.44771756803E+01 0.46443783588E+01 0.48596821205E+01 0.51227052725E+01
 0.54323141072E+01 0.57863089560E+01 0.61810856261E+01 0.66110023215E+01 0.70685008286E+01
 0.75429810343E+01 0.80213620670E+01 0.84884921336E+01 0.89269104130E+01 0.93181429908E+01
 0.96444415453E+01 0.98901642788E+01 0.10042927810E+02 0.10094759048E+02 0.10042908937E+02
 0.98901566548E+01 0.96444174772E+01 0.93181413576E+01 0.89269266781E+01 0.84885052715E+01
 0.80213358142E+01 0.75429868559E+01 0.70684875767E+01 0.66110119716E+01 0.61810815325E+01
 0.57863000089E+01 0.54323383249E+01 0.51226941013E+01 0.48596950055E+01 0.46443699011E+01
 0.44771709062E+01 0.43580243614E+01 0.42866968107E+01 0.42629569650E+01 0.42867047640E+01
 0.41920261378E+01 0.42866967253E+01 0.44293464516E+01 0.46203427271E+01 0.48596929483E+01
 0.51466298021E+01 0.54793725825E+01 0.58546582469E+01 0.62677003994E+01 0.67113912740E+01
 0.71767753970E+01 0.76520794044E+01 0.81230734954E+01 0.85737776814E+01 0.89868656960E+01
 0.93443993473E+01 0.96296323957E+01 0.98283751598E+01 0.99304638262E+01 0.99304597879E+01
 0.98283980225E+01 0.96296400651E+01 0.93444198284E+01 0.89868412294E+01 0.85737704860E+01
 0.81230682134E+01 0.76521233593E+01 0.71767390770E+01 0.67114170536E+01 0.62676930026E+01
 0.58546777049E+01 0.54793490727E+01 0.51466394766E+01 0.48596798773E+01 0.46203481948E+01
 0.44293471106E+01 0.42867076867E+01 0.41920287741E+01 0.41448432997E+01 0.41448354355E+01
 0.40743483758E+01 0.41448429979E+01 0.42629561350E+01 0.44293404093E+01 0.46443735735E+01
 0.49077658474E+01 0.52181776652E+01 0.55729523623E+01 0.59677077885E+01 0.63964088409E+01
 0.68506581806E+01 0.73201028025E+01 0.77920664614E+01 0.82514487887E+01 0.86816239079E+01
 0.90653524222E+01 0.93855476265E+01 0.96268053812E+01 0.97768198956E+01 0.98277324445E+01
 0.97768194769E+01 0.96267825979E+01 0.93855368876E+01 0.90653537638E+01 0.86816376965E+01
 0.82514558653E+01 0.77920449226E+01 0.73200913813E+01 0.68506995972E+01 0.63963734076E+01
 0.59677149752E+01 0.55729629948E+01 0.52181720001E+01 0.49077775078E+01 0.46443701860E+01
 0.44293418915E+01 0.42629522756E+01 0.41448373045E+01 0.40743471045E+01 0.40509262022E+01
 0.40041965070E+01 0.40509215359E+01 0.41448379821E+01 0.42867077836E+01 0.44771754505E+01
 0.47164216468E+01 0.50036505690E+01 0.53367846668E+01 0.57122191344E+01 0.61244698220E+01
 0.65663072751E+01 0.70282468254E+01 0.74986126209E+01 0.79638165527E+01 0.84082541106E+01
 0.88148241478E+01 0.91663636866E+01 0.94467639184E+01 0.96422415931E+01 0.97426642049E+01
 0.97426531169E+01 0.96422531003E+01 0.94467722258E+01 0.91663642153E+01 0.88148162930E+01
 0.84082472444E+01 0.79638177788E+01 0.74986329556E+01 0.70282339201E+01 0.65662971994E+01
 0.61245074313E+01 0.57121878519E+01 0.53368039631E+01 0.50036393833E+01 0.47164215184E+01
 0.44771789474E+01 0.42867046811E+01 0.41448465891E+01 0.40509212332E+01 0.40041989437E+01
 0.40077669782E+01 0.40314136383E+01 0.41025566954E+01 0.42218319951E+01 0.43899108132E+01
 0.46072613991E+01 0.48736073063E+01 0.51876855652E+01 0.55467481719E+01 0.59464885924E+01
 0.63806678390E+01 0.68409819324E+01 0.73168546677E+01 0.77954199832E+01 0.82616067856E+01
 0.86984682883E+01 0.90882494480E+01 0.94136110991E+01 0.96588360461E+01 0.98114339151E+01
 0.98632195134E+01 0.98114294409E+01 0.96588302091E+01 0.94136046342E+01 0.90882545461E+01
 0.86984824710E+01 0.82616003143E+01 0.77954044452E+01 0.73168670255E+01 0.68409864720E+01