    2    2   80    1
  0.1585296E+02  0.2765616E-09  0.2765616E-09  0.4786587E-09  0.5000000E-15
  1.000000000000000E-004
  CAR 
 unknown system                          
     20     48     14
 
  0.0000000E+00  0.0000000E+00  0.0000000E+00  0.2057613E-02
    1       -2.527170   1.000000
    2        0.119024   1.000000
    3        3.235244   1.000000
    4        3.737868   1.000000
    5        3.737868   1.000000
    6        4.105105   1.000000
    7        4.105105   1.000000
    8        5.329796   1.000000
    9        5.329796   1.000000
   10        6.460359   0.999999
   11        6.914810   0.943845
   12        6.914810   0.943845
   13       11.829511   0.000000
   14       22.927278   0.000000
 
  0.1111111E+00  0.6938894E-17  0.0000000E+00  0.1234568E-01
    1       -2.088232   1.000000
    2        0.513575   1.000000
    3        3.145365   1.000000
    4        3.750768   1.000000
    5        3.950003   1.000000
    6        4.076342   1.000000
    7        4.426345   1.000000
    8        4.618086   1.000000
    9        5.126077   1.000000
   10        5.264370   1.000000
   11        6.987932   0.857880
   12        8.920330   0.000000
   13       11.789721   0.000000
   14       23.260780   0.000000
 
  0.2222222E+00  0.1387779E-16  0.0000000E+00  0.1234568E-01
    1       -0.923596   1.000000
    2        1.268471   1.000000
    3        2.965835   1.000000
    4        3.154880   1.000000
    5        3.404031   1.000000
    6        4.565016   1.000000
    7        4.696346   1.000000
    8        4.702139   1.000000
    9        5.018063   1.000000
   10        5.311168   1.000000
   11        7.092685   0.629347
   12       11.348933   0.000000
   13       11.742131   0.000000
   14       20.434128   0.000000
 
  0.3333333E+00  0.2775558E-16  0.0000000E+00  0.1234568E-01
    1        0.318285   1.000000
    2        1.181502   1.000000
    3        2.108340   1.000000
    4        3.313221   1.000000
    5        3.849635   1.000000
    6        4.172960   1.000000
    7        4.290183   1.000000
    8        6.047551   1.000000
    9        6.290533   1.000000
   10        6.492198   0.999998
   11        7.138397   0.502750
   12       12.067502   0.000000
   13       13.778125   0.000000
   14       16.149060   0.000000
 
  0.4444444E+00  0.2775558E-16  0.0000000E+00  0.1234568E-01
    1        0.752145   1.000000
    2        0.879871   1.000000
    3        1.570294   1.000000
    4        3.857293   1.000000
    5        4.031939   1.000000
    6        4.054224   1.000000
    7        4.519432   1.000000
    8        7.144258   0.486220
    9        7.268561   0.180489
   10        7.457542   0.012231
   11        8.389455   0.000000
   12       12.042309   0.000000
   13       13.729291   0.000000
   14       15.698915   0.000000
 
  0.1111111E+00  0.1111111E+00  0.0000000E+00  0.1234568E-01
    1       -1.270614   1.000000
    2        1.178901   1.000000
    3        2.820801   1.000000
    4        3.581421   1.000000
    5        3.604164   1.000000
    6        4.050905   1.000000
    7        4.468100   1.000000
    8        4.794767   1.000000
    9        5.155075   1.000000
   10        5.178008   1.000000
   11        6.998599   0.840233
   12       10.715739   0.000000
   13       11.749968   0.000000
   14       22.468657   0.000000
 
  0.2222222E+00  0.1111111E+00  0.0000000E+00  0.2469136E-01
    1        0.064516   1.000000
    2        1.669696   1.000000
    3        2.518997   1.000000
    4        2.768767   1.000000
    5        3.436708   1.000000
    6        3.959026   1.000000
    7        4.747579   1.000000
    8        4.795736   1.000000
    9        6.018554   1.000000
   10        6.488246   0.999998
   11        6.979881   0.870291
   12       11.929395   0.000000
   13       13.049226   0.000000
   14       18.263930   0.000000
 
  0.3333333E+00  0.1111111E+00  0.0000000E+00  0.2469136E-01
    1        0.991628   1.000000
    2        1.306813   1.000000
    3        1.815769   1.000000
    4        3.466319   1.000000
    5        3.731917   1.000000
    6        4.075893   1.000000
    7        4.213601   1.000000
    8        6.090766   1.000000
    9        6.953195   0.905991
   10        7.022127   0.796460
   11        8.161195   0.000000
   12       13.027559   0.000000
   13       14.095697   0.000000
   14       15.350741   0.000000
 
  0.4444444E+00  0.1111111E+00  0.0000000E+00  0.1234568E-01
    1        1.093958   1.000000
    2        1.169963   1.000000
    3        1.573284   1.000000
    4        3.796692   1.000000
    5        3.862318   1.000000
    6        4.182679   1.000000
    7        4.292040   1.000000
    8        6.938572   0.922177
    9        7.086976   0.644493
   10        7.213414   0.300292
   11        9.948310   0.000000
   12       11.144833   0.000000
   13       15.009197   0.000000
   14       16.065005   0.000000
 
  0.2222222E+00  0.2222222E+00  0.0000000E+00  0.1234568E-01
    1        1.352678   1.000000
    2        2.024206   1.000000
    3        2.286917   1.000000
    4        2.296963   1.000000
    5        3.509635   1.000000
    6        3.835349   1.000000
    7        4.380475   1.000000
    8        5.191360   1.000000
    9        6.750069   0.997045
   10        6.984806   0.862791
   11        8.257313   0.000000
   12       12.952066   0.000000
   13       15.315770   0.000000
   14       15.742576   0.000000
 
  0.3333333E+00  0.2222222E+00  0.0000000E+00  0.2469136E-01
    1        1.757480   1.000000
    2        1.865526   1.000000
    3        1.973137   1.000000
    4        3.212912   1.000000
    5        3.482990   1.000000
    6        3.863398   1.000000
    7        4.370983   1.000000
    8        6.054609   1.000000
    9        6.604391   0.999922
   10        7.020063   0.800565
   11       10.128176   0.000000
   12       12.383846   0.000000
   13       14.517826   0.000000
   14       15.876148   0.000000
 
  0.3333333E+00  0.3333333E+00  0.0000000E+00  0.4115226E-02
    1        1.789234   1.000000
    2        2.422564   1.000000
    3        2.422564   1.000000
    4        2.899278   1.000000
    5        3.530491   1.000000
    6        3.530491   1.000000
    7        4.597162   1.000000
    8        6.400931   1.000000
    9        6.400931   1.000000
   10        6.442464   1.000000
   11       11.568400   0.000000
   12       11.568400   0.000000
   13       12.977787   0.000000
   14       18.888526   0.000000
 
  0.0000000E+00  0.0000000E+00  0.1666667E+00  0.4115226E-02
    1       -2.291794   1.000000
    2        0.080943   1.000000
    3        3.178340   1.000000
    4        3.705249   1.000000
    5        3.705249   1.000000
    6        4.037482   1.000000
    7        4.037482   1.000000
    8        5.465121   1.000000
    9        5.500317   1.000000
   10        5.500317   1.000000
   11        6.864672   0.973957
   12        6.864672   0.973957
   13       13.273776   0.000000
   14       22.250607   0.000000
 
  0.1111111E+00  0.6938894E-17  0.1666667E+00  0.2469136E-01
    1       -1.858562   1.000000
    2        0.489392   1.000000
    3        3.158929   1.000000
    4        3.595628   1.000000
    5        3.727238   1.000000
    6        4.024642   1.000000
    7        4.349998   1.000000
    8        4.524128   1.000000
    9        5.333836   1.000000
   10        5.344092   1.000000
   11        6.915529   0.943267
   12        8.039612   0.000000
   13       13.430930   0.000000
   14       22.782956   0.000000
 
  0.2222222E+00  0.1387779E-16  0.1666667E+00  0.2469136E-01
    1       -0.732804   1.000000
    2        1.293497   1.000000
    3        2.849877   1.000000
    4        3.048825   1.000000
    5        3.311410   1.000000
    6        4.256731   1.000000
    7        4.641315   1.000000
    8        5.136697   1.000000
    9        5.156720   1.000000
   10        5.332336   1.000000
   11        6.980765   0.868966
   12        9.490962   0.000000
   13       14.036765   0.000000
   14       20.674116   0.000000
 
  0.3333333E+00  0.2775558E-16  0.1666667E+00  0.2469136E-01
    1        0.347345   1.000000
    2        1.224343   1.000000
    3        2.171440   1.000000
    4        2.882287   1.000000
    5        3.902404   1.000000
    6        4.419460   1.000000
    7        4.616480   1.000000
    8        6.041680   1.000000
    9        6.296394   1.000000
   10        6.381966   1.000000
   11        7.040588   0.757569
   12       10.635112   0.000000
   13       14.912427   0.000000
   14       16.892703   0.000000
 
  0.4444444E+00  0.2775558E-16  0.1666667E+00  0.2469136E-01
    1        0.606404   1.000000
    2        0.877473   1.000000
    3        1.879332   1.000000
    4        2.875335   1.000000
    5        4.211113   1.000000
    6        4.324339   1.000000
    7        5.547852   1.000000
    8        6.828112   0.986130
    9        7.296402   0.133419
   10        7.474470   0.008906
   11        8.138531   0.000000
   12       11.351423   0.000000
   13       13.468112   0.000000
   14       15.775814   0.000000
 
  0.1111111E+00  0.1111111E+00  0.1666667E+00  0.2469136E-01
    1       -1.060267   1.000000
    2        1.189302   1.000000
    3        2.880251   1.000000
    4        3.089858   1.000000
    5        3.637195   1.000000
    6        3.876952   1.000000
    7        4.619763   1.000000
    8        4.814286   1.000000
    9        5.221564   1.000000
   10        5.366360   1.000000
   11        6.904174   0.951854
   12        9.169538   0.000000
   13       13.831284   0.000000
   14       22.547744   0.000000
 
  0.2222222E+00  0.1111111E+00  0.1666667E+00  0.4938272E-01
    1        0.189506   1.000000
    2        1.739488   1.000000
    3        2.322675   1.000000
    4        2.852971   1.000000
    5        3.304607   1.000000
    6        4.000299   1.000000
    7        4.608182   1.000000
    8        5.073926   1.000000
    9        6.169807   1.000000
   10        6.301263   1.000000
   11        6.963159   0.893620
   12       10.358794   0.000000
   13       14.794570   0.000000
   14       18.671382   0.000000
 
  0.3333333E+00  0.1111111E+00  0.1666667E+00  0.4938272E-01
    1        0.870377   1.000000
    2        1.357202   1.000000
    3        2.056956   1.000000
    4        2.804012   1.000000
    5        3.879304   1.000000
    6        4.404315   1.000000
    7        4.549480   1.000000
    8        6.078793   1.000000
    9        6.633930   0.999824
   10        7.148858   0.473259
   11        8.175362   0.000000
   12       11.792339   0.000000
   13       14.130843   0.000000
   14       16.723515   0.000000
 
  0.4444444E+00  0.1111111E+00  0.1666667E+00  0.2469136E-01
    1        0.888879   1.000000
    2        1.154451   1.000000
    3        2.010106   1.000000
    4        2.870055   1.000000
    5        3.741064   1.000000
    6        4.633153   1.000000
    7        5.138876   1.000000
    8        6.610266   0.999908
    9        7.069124   0.690309
   10        7.269118   0.179454
   11        9.822610   0.000000
   12       11.059200   0.000000
   13       14.647533   0.000000
   14       14.859455   0.000000
 
  0.2222222E+00  0.2222222E+00  0.1666667E+00  0.2469136E-01
    1        1.355340   1.000000
    2        1.865890   1.000000
    3        2.295268   1.000000
    4        2.526288   1.000000
    5        3.604355   1.000000
    6        3.783988   1.000000
    7        4.216947   1.000000
    8        5.409752   1.000000
    9        6.418691   1.000000
   10        7.165965   0.425421
   11        8.333239   0.000000
   12       11.899712   0.000000
   13       15.155307   0.000000
   14       17.058548   0.000000
 
  0.3333333E+00  0.2222222E+00  0.1666667E+00  0.4938272E-01
    1        1.529096   1.000000
    2        2.003794   1.000000
    3        2.256812   1.000000
    4        2.777844   1.000000
    5        3.477640   1.000000
    6        4.024254   1.000000
    7        4.543733   1.000000
    8        6.141734   1.000000
    9        6.267102   1.000000
   10        7.163034   0.433561
   11       10.241393   0.000000
   12       12.553505   0.000000
   13       14.254279   0.000000
   14       15.369477   0.000000
 
  0.3333333E+00  0.3333333E+00  0.1666667E+00  0.8230453E-02
    1        1.927741   1.000000
    2        2.334442   1.000000
    3        2.334442   1.000000
    4        2.907230   1.000000
    5        3.520987   1.000000
    6        3.520987   1.000000
    7        4.576228   1.000000
    8        6.082296   1.000000
    9        6.557421   0.999981
   10        6.557421   0.999981
   11       11.787838   0.000000
   12       11.787838   0.000000
   13       13.452935   0.000000
   14       17.347054   0.000000
 
  0.0000000E+00  0.0000000E+00  0.3333333E+00  0.4115226E-02
    1       -1.640644   1.000000
    2       -0.150488   1.000000
    3        3.085691   1.000000
    4        3.679701   1.000000
    5        3.679701   1.000000
    6        3.883693   1.000000
    7        3.883694   1.000000
    8        4.002648   1.000000
    9        5.900750   1.000000
   10        5.900750   1.000000
   11        6.683082   0.999373
   12        6.683082   0.999373
   13       16.138299   0.000000
   14       21.332793   0.000000
 
  0.1111111E+00  0.6938894E-17  0.3333333E+00  0.2469136E-01
    1       -1.219092   1.000000
    2        0.279365   1.000000
    3        3.099057   1.000000
    4        3.256418   1.000000
    5        3.443505   1.000000
    6        3.980990   1.000000
    7        4.010552   1.000000
    8        4.187957   1.000000
    9        5.787522   1.000000
   10        5.833640   1.000000
   11        6.680711   0.999409
   12        7.130554   0.524857
   13       16.339475   0.000000
   14       21.809301   0.000000
 
  0.2222222E+00  0.1387779E-16  0.3333333E+00  0.2469136E-01
    1       -0.197259   1.000000
    2        1.167996   1.000000
    3        2.481564   1.000000
    4        2.968852   1.000000
    5        3.234385   1.000000
    6        3.926237   1.000000
    7        4.656897   1.000000
    8        4.998368   1.000000
    9        5.716334   1.000000
   10        5.849328   1.000000
   11        6.665184   0.999600
   12        7.933568   0.000000
   13       16.811713   0.000000
   14       21.369403   0.000000
 
  0.3333333E+00  0.2775558E-16  0.3333333E+00  0.2469136E-01
    1        0.502011   1.000000
    2        1.187162   1.000000
    3        2.123141   1.000000
    4        2.510882   1.000000
    5        4.227297   1.000000
    6        4.786552   1.000000
    7        4.965446   1.000000
    8        5.901098   1.000000
    9        6.284361   1.000000
   10        6.467049   0.999999
   11        6.842785   0.982011
   12        8.760711   0.000000
   13       16.197110   0.000000
   14       18.404507   0.000000
 
  0.4444444E+00  0.2775558E-16  0.3333333E+00  0.2469136E-01
    1        0.509255   1.000000
    2        0.898745   1.000000
    3        2.066673   1.000000
    4        2.168657   1.000000
    5        4.662730   1.000000
    6        4.970082   1.000000
    7        6.137004   1.000000
    8        6.964345   0.892073
    9        7.342084   0.075873
   10        7.363151   0.056784
   11        7.452713   0.013358
   12        9.851062   0.000000
   13       13.676001   0.000000
   14       15.111158   0.000000
 
  0.1111111E+00  0.1111111E+00  0.3333333E+00  0.2469136E-01
    1       -0.468591   1.000000
    2        1.025835   1.000000
    3        2.640977   1.000000
    4        3.054426   1.000000
    5        3.124235   1.000000
    6        3.745169   1.000000
    7        4.526816   1.000000
    8        4.789273   1.000000
    9        5.739150   1.000000
   10        5.828974   1.000000
   11        6.624592   0.999864
   12        7.755313   0.000007
   13       16.712807   0.000000
   14       22.288963   0.000000
 
  0.2222222E+00  0.1111111E+00  0.3333333E+00  0.4938272E-01
    1        0.547427   1.000000
    2        1.643951   1.000000
    3        2.168082   1.000000
    4        2.853973   1.000000
    5        3.215486   1.000000
    6        3.811691   1.000000
    7        4.705111   1.000000
    8        5.552646   1.000000
    9        6.089104   1.000000
   10        6.454310   0.999999
   11        6.864450   0.974052
   12        8.591307   0.000000
   13       17.058304   0.000000
   14       19.810535   0.000000
 
  0.3333333E+00  0.1111111E+00  0.3333333E+00  0.4938272E-01
    1        0.829937   1.000000
    2        1.359621   1.000000
    3        2.090783   1.000000
    4        2.498504   1.000000
    5        4.014579   1.000000
    6        4.745809   1.000000
    7        5.104093   1.000000
    8        5.838252   1.000000
    9        6.400049   1.000000
   10        7.369510   0.051834
   11        8.185037   0.000000
   12        9.938495   0.000000
   13       14.836443   0.000000
   14       17.033606   0.000000
 
  0.4444444E+00  0.1111111E+00  0.3333333E+00  0.2469136E-01
    1        0.764561   1.000000
    2        1.202715   1.000000
    3        2.159101   1.000000
    4        2.312664   1.000000
    5        3.944169   1.000000
    6        5.338893   1.000000
    7        5.582887   1.000000
    8        6.125034   1.000000
    9        7.029570   0.781249
   10        7.304769   0.121094
   11        9.688174   0.000000
   12       10.735321   0.000000
   13       13.889529   0.000000
   14       13.965969   0.000000
 
  0.2222222E+00  0.2222222E+00  0.3333333E+00  0.2469136E-01
    1        1.386877   1.000000
    2        1.670730   1.000000
    3        2.427200   1.000000
    4        2.830297   1.000000
    5        3.476994   1.000000
    6        3.598188   1.000000
    7        4.297249   1.000000
    8        5.580241   1.000000
    9        6.276182   1.000000
   10        7.415620   0.025388
   11        8.453760   0.000000
   12       10.118801   0.000000
   13       16.077923   0.000000
   14       17.683054   0.000000
 
  0.3333333E+00  0.2222222E+00  0.3333333E+00  0.4938272E-01
    1        1.447049   1.000000
    2        2.008406   1.000000
    3        2.256187   1.000000
    4        3.008466   1.000000
    5        3.138353   1.000000
    6        4.159015   1.000000
    7        4.803581   1.000000
    8        5.509530   1.000000
    9        6.565100   0.999976
   10        7.317250   0.104234
   11       10.585274   0.000000
   12       12.375014   0.000000
   13       13.645708   0.000000
   14       15.583644   0.000000
 
  0.3333333E+00  0.3333333E+00  0.3333333E+00  0.8230453E-02
    1        2.169031   1.000000
    2        2.169031   1.000000
    3        2.290195   1.000000
    4        2.882785   1.000000
    5        3.513978   1.000000
    6        3.513978   1.000000
    7        4.570873   1.000000
    8        5.343963   1.000000
    9        6.837544   0.983589
   10        6.837544   0.983589
   11       12.493845   0.000000
   12       12.493845   0.000000
   13       14.568893   0.000000
   14       15.385054   0.000000
 
  0.0000000E+00  0.0000000E+00  0.5000000E+00  0.2057613E-02
    1       -0.787979   1.000000
    2       -0.787979   1.000000
    3        3.218336   1.000000
    4        3.218336   1.000000
    5        3.740745   1.000000
    6        3.740745   1.000000
    7        3.740745   1.000000
    8        3.740745   1.000000
    9        6.342401   1.000000
   10        6.342401   1.000000
   11        6.342401   1.000000
   12        6.342401   1.000000
   13       19.200194   0.000000
   14       19.200194   0.000000
 
  0.1111111E+00  0.6938894E-17  0.5000000E+00  0.1234568E-01
    1       -0.366142   1.000000
    2       -0.366142   1.000000
    3        2.983983   1.000000
    4        2.983983   1.000000
    5        3.624463   1.000000
    6        3.624463   1.000000
    7        4.040177   1.000000
    8        4.040177   1.000000
    9        6.281403   1.000000
   10        6.281403   1.000000
   11        6.457279   0.999999
   12        6.457279   0.999999
   13       19.438509   0.000000
   14       19.438509   0.000000
 
  0.2222222E+00  0.1387779E-16  0.5000000E+00  0.1234568E-01
    1        0.549114   1.000000
    2        0.549114   1.000000
    3        2.591576   1.000000
    4        2.591576   1.000000
    5        3.550675   1.000000
    6        3.550675   1.000000
    7        4.794551   1.000000
    8        4.794551   1.000000
    9        6.210218   1.000000
   10        6.210218   1.000000
   11        6.759620   0.996376
   12        6.759620   0.996376
   13       19.710913   0.000000
   14       19.710913   0.000000
 
  0.3333333E+00  0.2775558E-16  0.5000000E+00  0.1234568E-01
    1        0.836379   1.000000
    2        0.836379   1.000000
    3        2.258685   1.000000
    4        2.258685   1.000000
    5        4.723630   1.000000
    6        4.723630   1.000000
    7        5.323751   1.000000
    8        5.323751   1.000000
    9        6.640845   0.999788
   10        6.640845   0.999788
   11        7.229753   0.261381
   12        7.229753   0.261381
   13       17.582721   0.000000
   14       17.582721   0.000000
 
  0.4444444E+00  0.2775558E-16  0.5000000E+00  0.1234568E-01
    1        0.679829   1.000000
    2        0.679829   1.000000
    3        2.019255   1.000000
    4        2.019255   1.000000
    5        5.346244   1.000000
    6        5.346244   1.000000
    7        6.140964   1.000000
    8        6.140964   1.000000
    9        7.400141   0.032598
   10        7.400141   0.032598
   11        8.391339   0.000000
   12        8.391339   0.000000
   13       14.285465   0.000000
   14       14.285465   0.000000
 
  0.1111111E+00  0.1111111E+00  0.5000000E+00  0.1234568E-01
    1        0.354094   1.000000
    2        0.354094   1.000000
    3        2.697574   1.000000
    4        2.697574   1.000000
    5        3.379850   1.000000
    6        3.379850   1.000000
    7        4.628636   1.000000
    8        4.628636   1.000000
    9        6.198649   1.000000
   10        6.198649   1.000000
   11        6.697699   0.999105
   12        6.697699   0.999105
   13       19.775487   0.000000
   14       19.775487   0.000000
 
  0.2222222E+00  0.1111111E+00  0.5000000E+00  0.2469136E-01
    1        1.080395   1.000000
    2        1.080395   1.000000
    3        2.505017   1.000000
    4        2.505017   1.000000
    5        3.469839   1.000000
    6        3.469839   1.000000
    7        5.144037   1.000000
    8        5.144037   1.000000
    9        6.666207   0.999590
   10        6.666207   0.999590
   11        7.123985   0.543320
   12        7.123985   0.543320
   13       19.235225   0.000000
   14       19.235225   0.000000
 
  0.3333333E+00  0.1111111E+00  0.5000000E+00  0.2469136E-01
    1        1.044212   1.000000
    2        1.044212   1.000000
    3        2.262951   1.000000
    4        2.262951   1.000000
    5        4.592697   1.000000
    6        4.592697   1.000000
    7        5.311414   1.000000
    8        5.311414   1.000000
    9        7.110410   0.581131
   10        7.110410   0.581131
   11        8.601418   0.000000
   12        8.601418   0.000000
   13       15.923569   0.000000
   14       15.923569   0.000000
 
  0.4444444E+00  0.1111111E+00  0.5000000E+00  0.1234568E-01
    1        0.945923   1.000000
    2        0.945923   1.000000
    3        2.153617   1.000000
    4        2.153617   1.000000
    5        4.723295   1.000000
    6        4.723295   1.000000
    7        6.050369   1.000000
    8        6.050369   1.000000
    9        7.071882   0.683399
   10        7.071882   0.683399
   11       10.124758   0.000000
   12       10.124758   0.000000
   13       13.611676   0.000000
   14       13.611676   0.000000
 
  0.2222222E+00  0.2222222E+00  0.5000000E+00  0.1234568E-01
    1        1.496689   1.000000
    2        1.496689   1.000000
    3        2.721476   1.000000
    4        2.721476   1.000000
    5        3.430445   1.000000
    6        3.430445   1.000000
    7        4.833355   1.000000
    8        4.833355   1.000000
    9        7.196761   0.342444
   10        7.196761   0.342444
   11        8.817363   0.000000
   12        8.817363   0.000000
   13       17.372754   0.000000
   14       17.372754   0.000000
 
  0.3333333E+00  0.2222222E+00  0.5000000E+00  0.2469136E-01
    1        1.613204   1.000000
    2        1.613204   1.000000
    3        2.625638   1.000000
    4        2.625638   1.000000
    5        3.778106   1.000000
    6        3.778106   1.000000
    7        5.014073   1.000000
    8        5.014073   1.000000
    9        7.097532   0.616329
   10        7.097532   0.616329
   11       11.287503   0.000000
   12       11.287503   0.000000
   13       14.587757   0.000000
   14       14.587757   0.000000
 
  0.3333333E+00  0.3333333E+00  0.5000000E+00  0.4115226E-02
    1        2.091446   1.000000
    2        2.091446   1.000000
    3        2.687098   1.000000
    4        2.687098   1.000000
    5        3.514293   1.000000
    6        3.514293   1.000000
    7        4.766927   1.000000
    8        4.766927   1.000000
    9        6.962825   0.894053
   10        6.962825   0.894053
   11       13.721424   0.000000
   12       13.721424   0.000000
   13       13.721965   0.000000
   14       13.721965   0.000000
