<?xml version="1.0" encoding="ISO-8859-1"?>
<modeling>
 <generator>
  <i name="program" type="string">vasp </i>
  <i name="version" type="string">5.4.1  </i>
  <i name="subversion" type="string">05Feb16 (build Mar 02 2016 14:09:44) complex                          parallel </i>
  <i name="platform" type="string">Abel-impi-ifc-cuda </i>
  <i name="date" type="string">2019 09 20 </i>
  <i name="time" type="string">09:50:05 </i>
 </generator>
 <incar>
  <i type="string" name="PREC">accurate  ! normal/accurate</i>
  <i type="string" name="ALGO"> Fast      ! Algorithm for electronic re</i>
  <i type="logical" name="ADDGRID"> T  </i>
  <i type="int" name="ISPIN">     1</i>
  <i type="int" name="MAXMIX">    80</i>
  <i type="int" name="NELMIN">     4</i>
  <i type="int" name="IBRION">     1</i>
  <i name="EDIFF">      0.00001000</i>
  <i name="EDIFFG">     -0.01000000</i>
  <i type="int" name="NSW">    80</i>
  <i type="int" name="ISIF">     3</i>
  <i name="ENCUT">    500.00000000</i>
  <i type="string" name="LREAL"> Auto      ! Projection in reciprocal sp</i>
  <i type="int" name="ISMEAR">     0</i>
  <i name="SIGMA">      0.20000000</i>
  <i type="int" name="NWRITE">     1</i>
  <v type="int" name="KPOINT_BSE">    -1     0     0     0</v>
 </incar>
 <kpoints>
  <generation param="Gamma">
   <v type="int" name="divisions">       9        9        6 </v>
   <v name="usershift">      0.00000000       0.00000000       0.00000000 </v>
   <v name="genvec1">      0.11111111       0.00000000       0.00000000 </v>
   <v name="genvec2">      0.00000000       0.11111111       0.00000000 </v>
   <v name="genvec3">      0.00000000       0.00000000       0.16666667 </v>
   <v name="shift">      0.00000000       0.00000000       0.00000000 </v>
  </generation>
  <varray name="kpointlist" >
   <v>       0.00000000       0.00000000       0.00000000 </v>
   <v>       0.11111111       0.00000000       0.00000000 </v>
   <v>       0.22222222       0.00000000       0.00000000 </v>
   <v>       0.33333333       0.00000000       0.00000000 </v>
   <v>       0.44444444       0.00000000       0.00000000 </v>
   <v>       0.11111111       0.11111111       0.00000000 </v>
   <v>       0.22222222       0.11111111       0.00000000 </v>
   <v>       0.33333333       0.11111111       0.00000000 </v>
   <v>       0.44444444       0.11111111       0.00000000 </v>
   <v>       0.22222222       0.22222222       0.00000000 </v>
   <v>       0.33333333       0.22222222       0.00000000 </v>
   <v>       0.33333333       0.33333333       0.00000000 </v>
   <v>       0.00000000       0.00000000       0.16666667 </v>
   <v>       0.11111111       0.00000000       0.16666667 </v>
   <v>       0.22222222       0.00000000       0.16666667 </v>
   <v>       0.33333333       0.00000000       0.16666667 </v>
   <v>       0.44444444       0.00000000       0.16666667 </v>
   <v>       0.11111111       0.11111111       0.16666667 </v>
   <v>       0.22222222       0.11111111       0.16666667 </v>
   <v>       0.33333333       0.11111111       0.16666667 </v>
   <v>       0.44444444       0.11111111       0.16666667 </v>
   <v>       0.22222222       0.22222222       0.16666667 </v>
   <v>       0.33333333       0.22222222       0.16666667 </v>
   <v>       0.33333333       0.33333333       0.16666667 </v>
   <v>       0.00000000       0.00000000       0.33333333 </v>
   <v>       0.11111111       0.00000000       0.33333333 </v>
   <v>       0.22222222       0.00000000       0.33333333 </v>
   <v>       0.33333333       0.00000000       0.33333333 </v>
   <v>       0.44444444       0.00000000       0.33333333 </v>
   <v>       0.11111111       0.11111111       0.33333333 </v>
   <v>       0.22222222       0.11111111       0.33333333 </v>
   <v>       0.33333333       0.11111111       0.33333333 </v>
   <v>       0.44444444       0.11111111       0.33333333 </v>
   <v>       0.22222222       0.22222222       0.33333333 </v>
   <v>       0.33333333       0.22222222       0.33333333 </v>
   <v>       0.33333333       0.33333333       0.33333333 </v>
   <v>       0.00000000       0.00000000       0.50000000 </v>
   <v>       0.11111111       0.00000000       0.50000000 </v>
   <v>       0.22222222       0.00000000       0.50000000 </v>
   <v>       0.33333333       0.00000000       0.50000000 </v>
   <v>       0.44444444       0.00000000       0.50000000 </v>
   <v>       0.11111111       0.11111111       0.50000000 </v>
   <v>       0.22222222       0.11111111       0.50000000 </v>
   <v>       0.33333333       0.11111111       0.50000000 </v>
   <v>       0.44444444       0.11111111       0.50000000 </v>
   <v>       0.22222222       0.22222222       0.50000000 </v>
   <v>       0.33333333       0.22222222       0.50000000 </v>
   <v>       0.33333333       0.33333333       0.50000000 </v>
  </varray>
  <varray name="weights" >
   <v>       0.00205761 </v>
   <v>       0.01234568 </v>
   <v>       0.01234568 </v>
   <v>       0.01234568 </v>
   <v>       0.01234568 </v>
   <v>       0.01234568 </v>
   <v>       0.02469136 </v>
   <v>       0.02469136 </v>
   <v>       0.01234568 </v>
   <v>       0.01234568 </v>
   <v>       0.02469136 </v>
   <v>       0.00411523 </v>
   <v>       0.00411523 </v>
   <v>       0.02469136 </v>
   <v>       0.02469136 </v>
   <v>       0.02469136 </v>
   <v>       0.02469136 </v>
   <v>       0.02469136 </v>
   <v>       0.04938272 </v>
   <v>       0.04938272 </v>
   <v>       0.02469136 </v>
   <v>       0.02469136 </v>
   <v>       0.04938272 </v>
   <v>       0.00823045 </v>
   <v>       0.00411523 </v>
   <v>       0.02469136 </v>
   <v>       0.02469136 </v>
   <v>       0.02469136 </v>
   <v>       0.02469136 </v>
   <v>       0.02469136 </v>
   <v>       0.04938272 </v>
   <v>       0.04938272 </v>
   <v>       0.02469136 </v>
   <v>       0.02469136 </v>
   <v>       0.04938272 </v>
   <v>       0.00823045 </v>
   <v>       0.00205761 </v>
   <v>       0.01234568 </v>
   <v>       0.01234568 </v>
   <v>       0.01234568 </v>
   <v>       0.01234568 </v>
   <v>       0.01234568 </v>
   <v>       0.02469136 </v>
   <v>       0.02469136 </v>
   <v>       0.01234568 </v>
   <v>       0.01234568 </v>
   <v>       0.02469136 </v>
   <v>       0.00411523 </v>
  </varray>
 </kpoints>
 <parameters>
  <separator name="general" >
   <i type="string" name="SYSTEM">unknown system</i>
   <i type="logical" name="LCOMPAT"> F  </i>
  </separator>
  <separator name="electronic" >
   <i type="string" name="PREC">accura</i>
   <i name="ENMAX">    500.00000000</i>
   <i name="ENAUG">    358.96600000</i>
   <i name="EDIFF">      0.00001000</i>
   <i type="int" name="IALGO">    68</i>
   <i type="int" name="IWAVPR">    11</i>
   <i type="int" name="NBANDS">    14</i>
   <i name="NELECT">     20.00000000</i>
   <i type="int" name="TURBO">     0</i>
   <i type="int" name="IRESTART">     0</i>
   <i type="int" name="NREBOOT">     0</i>
   <i type="int" name="NMIN">     0</i>
   <i name="EREF">      0.00000000</i>
   <separator name="electronic smearing" >
    <i type="int" name="ISMEAR">     0</i>
    <i name="SIGMA">      0.20000000</i>
    <i name="KSPACING">      0.50000000</i>
    <i type="logical" name="KGAMMA"> T  </i>
   </separator>
   <separator name="electronic projectors" >
    <i type="logical" name="LREAL"> T  </i>
    <v name="ROPT">     -0.00025000</v>
    <i type="int" name="LMAXPAW">  -100</i>
    <i type="int" name="LMAXMIX">     2</i>
    <i type="logical" name="NLSPLINE"> F  </i>
   </separator>
   <separator name="electronic startup" >
    <i type="int" name="ISTART">     0</i>
    <i type="int" name="ICHARG">     2</i>
    <i type="int" name="INIWAV">     1</i>
   </separator>
   <separator name="electronic spin" >
    <i type="int" name="ISPIN">     1</i>
    <i type="logical" name="LNONCOLLINEAR"> F  </i>
    <v name="MAGMOM">      1.00000000      1.00000000</v>
    <i name="NUPDOWN">     -1.00000000</i>
    <i type="logical" name="LSORBIT"> F  </i>
    <v name="SAXIS">      0.00000000      0.00000000      1.00000000</v>
    <i type="logical" name="LSPIRAL"> F  </i>
    <v name="QSPIRAL">      0.00000000      0.00000000      0.00000000</v>
    <i type="logical" name="LZEROZ"> F  </i>
   </separator>
   <separator name="electronic exchange-correlation" >
    <i type="logical" name="LASPH"> F  </i>
    <i type="logical" name="LMETAGGA"> F  </i>
   </separator>
   <separator name="electronic convergence" >
    <i type="int" name="NELM">    60</i>
    <i type="int" name="NELMDL">    -5</i>
    <i type="int" name="NELMIN">     4</i>
    <i name="ENINI">    500.00000000</i>
    <separator name="electronic convergence detail" >
     <i type="logical" name="LDIAG"> T  </i>
     <i type="logical" name="LSUBROT"> F  </i>
     <i name="WEIMIN">      0.00100000</i>
     <i name="EBREAK">      0.00000018</i>
     <i name="DEPER">      0.30000000</i>
     <i type="int" name="NRMM">     4</i>
     <i name="TIME">      0.40000000</i>
    </separator>
   </separator>
   <separator name="electronic mixer" >
    <i name="AMIX">      0.40000000</i>
    <i name="BMIX">      1.00000000</i>
    <i name="AMIN">      0.10000000</i>
    <i name="AMIX_MAG">      1.60000000</i>
    <i name="BMIX_MAG">      1.00000000</i>
    <separator name="electronic mixer details" >
     <i type="int" name="IMIX">     4</i>
     <i type="logical" name="MIXFIRST"> F  </i>
     <i type="int" name="MAXMIX">    80</i>
     <i name="WC">    100.00000000</i>
     <i type="int" name="INIMIX">     1</i>
     <i type="int" name="MIXPRE">     1</i>
     <i type="int" name="MREMOVE">     5</i>
    </separator>
   </separator>
   <separator name="electronic dipolcorrection" >
    <i type="logical" name="LDIPOL"> F  </i>
    <i type="logical" name="LMONO"> F  </i>
    <i type="int" name="IDIPOL">     0</i>
    <i name="EPSILON">      1.00000000</i>
    <v name="DIPOL">   -100.00000000   -100.00000000   -100.00000000</v>
    <i name="EFIELD">      0.00000000</i>
   </separator>
  </separator>
  <separator name="grids" >
   <i type="int" name="NGX">    20</i>
   <i type="int" name="NGY">    20</i>
   <i type="int" name="NGZ">    36</i>
   <i type="int" name="NGXF">    40</i>
   <i type="int" name="NGYF">    40</i>
   <i type="int" name="NGZF">    72</i>
   <i type="logical" name="ADDGRID"> T  </i>
  </separator>
  <separator name="ionic" >
   <i type="int" name="NSW">    80</i>
   <i type="int" name="IBRION">     1</i>
   <i type="int" name="ISIF">     3</i>
   <i name="PSTRESS">      0.00000000</i>
   <i name="EDIFFG">     -0.01000000</i>
   <i type="int" name="NFREE">     0</i>
   <i name="POTIM">      0.50000000</i>
   <i name="SMASS">     -3.00000000</i>
   <i name="SCALEE">      1.00000000</i>
  </separator>
  <separator name="ionic md" >
   <i name="TEBEG">      0.00010000</i>
   <i name="TEEND">      0.00010000</i>
   <i type="int" name="NBLOCK">     1</i>
   <i type="int" name="KBLOCK">    80</i>
   <i type="int" name="NPACO">   256</i>
   <i name="APACO">     16.00000000</i>
  </separator>
  <separator name="symmetry" >
   <i type="int" name="ISYM">     2</i>
   <i name="SYMPREC">      0.00001000</i>
  </separator>
  <separator name="dos" >
   <i type="logical" name="LORBIT"> F  </i>
   <v name="RWIGS">     -1.00000000</v>
   <i type="int" name="NEDOS">   301</i>
   <i name="EMIN">     10.00000000</i>
   <i name="EMAX">    -10.00000000</i>
   <i name="EFERMI">      0.00000000</i>
  </separator>
  <separator name="writing" >
   <i type="int" name="NWRITE">     1</i>
   <i type="logical" name="LWAVE"> T  </i>
   <i type="logical" name="LCHARG"> T  </i>
   <i type="logical" name="LPARD"> F  </i>
   <i type="logical" name="LVTOT"> F  </i>
   <i type="logical" name="LVHAR"> F  </i>
   <i type="logical" name="LELF"> F  </i>
   <i type="logical" name="LOPTICS"> F  </i>
   <v name="STM">      0.00000000      0.00000000      0.00000000      0.00000000      0.00000000      0.00000000      0.00000000</v>
  </separator>
  <separator name="performance" >
   <i type="int" name="NPAR">     2</i>
   <i type="int" name="NSIM">     4</i>
   <i type="int" name="NBLK">    -1</i>
   <i type="logical" name="LPLANE"> T  </i>
   <i type="logical" name="LSCALAPACK"> F  </i>
   <i type="logical" name="LSCAAWARE"> F  </i>
   <i type="logical" name="LSCALU"> F  </i>
   <i type="logical" name="LASYNC"> F  </i>
   <i type="logical" name="LORBITALREAL"> F  </i>
  </separator>
  <separator name="miscellaneous" >
   <i type="int" name="IDIOT">     3</i>
   <i type="logical" name="LMUSIC"> F  </i>
   <v name="POMASS">    195.08000000</v>
   <v name="DARWINR">      0.00000000</v>
   <v name="DARWINV">      1.00000000</v>
   <i type="logical" name="LCORR"> T  </i>
  </separator>
  <i type="logical" name="GGA_COMPAT"> T  </i>
  <i type="logical" name="LBERRY"> F  </i>
  <i type="int" name="ICORELEVEL">     0</i>
  <i type="logical" name="LDAU"> F  </i>
  <i type="int" name="I_CONSTRAINED_M">     0</i>
  <separator name="electronic exchange-correlation" >
   <i type="string" name="GGA">--</i>
   <i type="int" name="VOSKOWN">     0</i>
   <i type="logical" name="LHFCALC"> F  </i>
   <i type="string" name="PRECFOCK"></i>
   <i type="logical" name="LSYMGRAD"> F  </i>
   <i type="logical" name="LHFONE"> F  </i>
   <i type="logical" name="LRHFCALC"> F  </i>
   <i type="logical" name="LTHOMAS"> F  </i>
   <i type="logical" name="LMODELHF"> F  </i>
   <i name="ENCUT4O">     -1.00000000</i>
   <i type="int" name="EXXOEP">     0</i>
   <i type="int" name="FOURORBIT">     0</i>
   <i name="AEXX">      0.00000000</i>
   <i name="HFALPHA">      0.00000000</i>
   <i name="MCALPHA">      0.00000000</i>
   <i name="ALDAX">      1.00000000</i>
   <i name="AGGAX">      1.00000000</i>
   <i name="ALDAC">      1.00000000</i>
   <i name="AGGAC">      1.00000000</i>
   <i type="int" name="NKREDX">     1</i>
   <i type="int" name="NKREDY">     1</i>
   <i type="int" name="NKREDZ">     1</i>
   <i type="logical" name="SHIFTRED"> F  </i>
   <i type="logical" name="ODDONLY"> F  </i>
   <i type="logical" name="EVENONLY"> F  </i>
   <i type="int" name="LMAXFOCK">     0</i>
   <i type="int" name="NMAXFOCKAE">     0</i>
   <i type="logical" name="LFOCKAEDFT"> F  </i>
   <i name="HFSCREEN">      0.00000000</i>
   <i name="HFSCREENC">      0.00000000</i>
   <i type="int" name="NBANDSGWLOW">     0</i>
  </separator>
  <separator name="vdW DFT" >
   <i type="logical" name="LUSE_VDW"> F  </i>
   <i name="Zab_VDW">     -0.84910000</i>
   <i name="PARAM1">      0.12340000</i>
   <i name="PARAM2">      1.00000000</i>
   <i name="PARAM3">      0.00000000</i>
  </separator>
  <separator name="model GW" >
   <i type="int" name="MODEL_GW">     0</i>
   <i name="MODEL_EPS0">      9.51177548</i>
   <i name="MODEL_ALPHA">      1.00000000</i>
  </separator>
  <separator name="linear response parameters" >
   <i type="logical" name="LEPSILON"> F  </i>
   <i type="logical" name="LRPA"> F  </i>
   <i type="logical" name="LNABLA"> F  </i>
   <i type="logical" name="LVEL"> F  </i>
   <i type="int" name="KINTER">     0</i>
   <i name="CSHIFT">      0.10000000</i>
   <i name="OMEGAMAX">     -1.00000000</i>
   <i name="DEG_THRESHOLD">      0.00200000</i>
  </separator>
  <separator name="orbital magnetization" >
   <i type="logical" name="NUCIND"> F  </i>
   <v name="MAGPOS">      0.00000000      0.00000000      0.00000000</v>
   <i type="logical" name="LNICSALL"> T  </i>
   <i type="logical" name="ORBITALMAG"> F  </i>
   <i type="logical" name="LMAGBLOCH"> F  </i>
   <i type="logical" name="LCHIMAG"> F  </i>
   <i type="logical" name="LGAUGE"> T  </i>
   <i type="int" name="MAGATOM">     0</i>
   <v name="MAGDIPOL">      0.00000000      0.00000000      0.00000000</v>
   <v name="AVECCONST">      0.00000000      0.00000000      0.00000000</v>
  </separator>
  <separator name="response functions" >
   <i type="logical" name="LADDER"> F  </i>
   <i type="logical" name="LFXC"> F  </i>
   <i type="logical" name="LHARTREE"> T  </i>
   <i type="int" name="IBSE">     0</i>
   <v type="int" name="KPOINT">    -1     0     0     0</v>
   <i type="logical" name="LTCTE"> F  </i>
   <i type="logical" name="LTETE"> F  </i>
   <i type="logical" name="LTRIPLET"> F  </i>
   <i type="logical" name="LFXCEPS"> F  </i>
   <i type="logical" name="LFXHEG"> F  </i>
   <i type="int" name="NATURALO">     0</i>
   <i type="logical" name="L2ORDER"> F  </i>
   <i type="logical" name="LUSEW"> F  </i>
   <i name="ENCUTGW">     -2.00000000</i>
   <i name="ENCUTGWSOFT">     -2.00000000</i>
   <i name="ENCUTLF">     -1.00000000</i>
   <i type="int" name="LMAXMP2">    -1</i>
   <i name="SCISSOR">      0.00000000</i>
   <i type="int" name="NOMEGA">     0</i>
   <i type="int" name="NOMEGAR">     0</i>
   <i type="int" name="NBANDSGW">    -1</i>
   <i type="int" name="NBANDSO">    -1</i>
   <i type="int" name="NBANDSV">    -1</i>
   <i type="int" name="NELM">     1</i>
   <i type="int" name="NELMHF">     1</i>
   <i type="int" name="DIM">     3</i>
   <i type="int" name="ANTIRES">     0</i>
   <i name="OMEGAMAX">    -30.00000000</i>
   <i name="OMEGAMIN">    -30.00000000</i>
   <i name="OMEGATL">   -200.00000000</i>
   <i type="int" name="OMEGAGRID">     0</i>
   <i name="CSHIFT">     -0.10000000</i>
   <i type="logical" name="SELFENERGY"> F  </i>
   <i type="logical" name="LSPECTRAL"> F  </i>
   <i type="logical" name="LSPECTRALGW"> F  </i>
   <i type="logical" name="LSINGLES"> F  </i>
   <i type="logical" name="LFERMIGW"> F  </i>
   <i type="logical" name="ODDONLYGW"> F  </i>
   <i type="logical" name="EVENONLYGW"> F  </i>
   <i type="int" name="NKREDLFX">     1</i>
   <i type="int" name="NKREDLFY">     1</i>
   <i type="int" name="NKREDLFZ">     1</i>
   <i type="int" name="MAXMEM">  1800</i>
   <i type="int" name="TELESCOPE">     0</i>
   <i type="int" name="TAUPAR">     1</i>
   <i type="int" name="OMEGAPAR">    -1</i>
   <i name="LAMBDA">      1.00000000</i>
  </separator>
  <separator name="External order field" >
   <i name="OFIELD_KAPPA">      0.00000000</i>
   <v name="OFIELD_K">      0.00000000      0.00000000      0.00000000</v>
   <i name="OFIELD_Q6_NEAR">      0.00000000</i>
   <i name="OFIELD_Q6_FAR">      0.00000000</i>
   <i name="OFIELD_A">      0.00000000</i>
  </separator>
 </parameters>
 <atominfo>
  <atoms>       2 </atoms>
  <types>       1 </types>
  <array name="atoms" >
   <dimension dim="1">ion</dimension>
   <field type="string">element</field>
   <field type="int">atomtype</field>
   <set>
    <rc><c>Pt</c><c>   1</c></rc>
    <rc><c>Pt</c><c>   1</c></rc>
   </set>
  </array>
  <array name="atomtypes" >
   <dimension dim="1">type</dimension>
   <field type="int">atomspertype</field>
   <field type="string">element</field>
   <field>mass</field>
   <field>valence</field>
   <field type="string">pseudopotential</field>
   <set>
    <rc><c>   2</c><c>Pt</c><c>    195.08000000</c><c>     10.00000000</c><c> PAW_PBE Pt 05Jan2001                   </c></rc>
   </set>
  </array>
 </atominfo>
 <structure name="initialpos" >
  <crystal>
   <varray name="basis" >
    <v>       2.76561593       0.00000000       0.00000000 </v>
    <v>      -1.38280797       2.39509364       0.00000000 </v>
    <v>       0.00000000       0.00000000       4.78658713 </v>
   </varray>
   <i name="volume">     31.70591826 </i>
   <varray name="rec_basis" >
    <v>       0.36158311       0.20876010       0.00000000 </v>
    <v>       0.00000000       0.41752021       0.00000000 </v>
    <v>       0.00000000       0.00000000       0.20891712 </v>
   </varray>
  </crystal>
  <varray name="positions" >
   <v>       0.33333333       0.66666667       0.25000000 </v>
   <v>       0.66666667       0.33333333       0.75000000 </v>
  </varray>
 </structure>
 <calculation>
  <scstep>
   <time name="dav">    0.53    0.54</time>
   <time name="total">    0.60    0.83</time>
   <energy>
    <i name="alphaZ">    183.55598950 </i>
    <i name="ewald">  -1654.75147500 </i>
    <i name="hartreedc">   -152.64008575 </i>
    <i name="XCdc">      7.20826592 </i>
    <i name="pawpsdc">   1146.49098650 </i>
    <i name="pawaedc">  -1089.92424116 </i>
    <i name="eentropy">     -0.02495721 </i>
    <i name="bandstr">    293.64486636 </i>
    <i name="atom">   1458.22633362 </i>
    <i name="e_fr_energy">    191.78568278 </i>
    <i name="e_wo_entrp">    191.81063999 </i>
    <i name="e_0_energy">    191.79816139 </i>
   </energy>
  </scstep>
  <scstep>
   <time name="dav">    0.54    0.54</time>
   <time name="total">    0.54    0.55</time>
   <energy>
    <i name="e_fr_energy">     -4.66719449 </i>
    <i name="e_wo_entrp">     -4.63319805 </i>
    <i name="e_0_energy">     -4.65019627 </i>
   </energy>
  </scstep>
  <scstep>
   <time name="dav">    0.64    0.64</time>
   <time name="total">    0.65    0.65</time>
   <energy>
    <i name="e_fr_energy">    -12.64679454 </i>
    <i name="e_wo_entrp">    -12.57261449 </i>
    <i name="e_0_energy">    -12.60970451 </i>
   </energy>
  </scstep>
  <scstep>
   <time name="dav">    0.58    0.59</time>
   <time name="total">    0.59    0.59</time>
   <energy>
    <i name="e_fr_energy">    -12.79195722 </i>
    <i name="e_wo_entrp">    -12.71745603 </i>
    <i name="e_0_energy">    -12.75470662 </i>
   </energy>
  </scstep>
  <scstep>
   <time name="dav">    0.65    0.65</time>
   <time name="total">    0.73    0.73</time>
   <energy>
    <i name="e_fr_energy">    -12.79473852 </i>
    <i name="e_wo_entrp">    -12.72023474 </i>
    <i name="e_0_energy">    -12.75748663 </i>
   </energy>
  </scstep>
  <scstep>
   <time name="diag">    0.07    0.07</time>
   <time name="diis">    0.37    0.37</time>
   <time name="orth">    0.01    0.01</time>
   <time name="total">    0.58    0.58</time>
   <energy>
    <i name="e_fr_energy">    -12.11112298 </i>
    <i name="e_wo_entrp">    -12.02648783 </i>
    <i name="e_0_energy">    -12.06880541 </i>
   </energy>
  </scstep>
  <scstep>
   <time name="diag">    0.07    0.07</time>
   <time name="diis">    0.37    0.37</time>
   <time name="orth">    0.01    0.01</time>
   <time name="total">    0.58    0.59</time>
   <energy>
    <i name="e_fr_energy">    -12.05628299 </i>
    <i name="e_wo_entrp">    -11.97064429 </i>
    <i name="e_0_energy">    -12.01346364 </i>
   </energy>
  </scstep>
  <scstep>
   <time name="diag">    0.07    0.07</time>
   <time name="diis">    0.36    0.37</time>
   <time name="orth">    0.01    0.01</time>
   <time name="total">    0.59    0.59</time>
   <energy>
    <i name="e_fr_energy">    -12.04882934 </i>
    <i name="e_wo_entrp">    -11.96354488 </i>
    <i name="e_0_energy">    -12.00618711 </i>
   </energy>
  </scstep>
  <scstep>
   <time name="diag">    0.07    0.07</time>
   <time name="diis">    0.38    0.38</time>
   <time name="orth">    0.01    0.01</time>
   <time name="total">    0.59    0.60</time>
   <energy>
    <i name="e_fr_energy">    -12.04846615 </i>
    <i name="e_wo_entrp">    -11.96311594 </i>
    <i name="e_0_energy">    -12.00579104 </i>
   </energy>
  </scstep>
  <scstep>
   <time name="diag">    0.07    0.07</time>
   <time name="diis">    0.36    0.36</time>
   <time name="orth">    0.01    0.01</time>
   <time name="total">    0.58    0.58</time>
   <energy>
    <i name="e_fr_energy">    -12.04848156 </i>
    <i name="e_wo_entrp">    -11.96318693 </i>
    <i name="e_0_energy">    -12.00583425 </i>
   </energy>
  </scstep>
  <scstep>
   <time name="diag">    0.07    0.07</time>
   <time name="diis">    0.37    0.37</time>
   <time name="orth">    0.01    0.01</time>
   <time name="total">    0.51    0.51</time>
   <energy>
    <i name="alphaZ">    183.55598950 </i>
    <i name="ewald">  -1654.75147500 </i>
    <i name="hartreedc">   -133.05632907 </i>
    <i name="XCdc">      6.48712431 </i>
    <i name="pawpsdc">   1185.70975876 </i>
    <i name="pawaedc">  -1134.09016510 </i>
    <i name="eentropy">     -0.08528574 </i>
    <i name="bandstr">     75.95557383 </i>
    <i name="atom">   1458.22633362 </i>
    <i name="e_fr_energy">    -12.04847489 </i>
    <i name="e_wo_entrp">    -11.96318915 </i>
    <i name="e_0_energy">    -12.00583202 </i>
   </energy>
  </scstep>
  <structure>
   <crystal>
    <varray name="basis" >
     <v>       2.76561593       0.00000000       0.00000000 </v>
     <v>      -1.38280797       2.39509364       0.00000000 </v>
     <v>       0.00000000       0.00000000       4.78658713 </v>
    </varray>
    <i name="volume">     31.70591826 </i>
    <varray name="rec_basis" >
     <v>       0.36158311       0.20876010       0.00000000 </v>
     <v>       0.00000000       0.41752021       0.00000000 </v>
     <v>       0.00000000       0.00000000       0.20891712 </v>
    </varray>
   </crystal>
   <varray name="positions" >
    <v>       0.33333333       0.66666667       0.25000000 </v>
    <v>       0.66666667       0.33333333       0.75000000 </v>
   </varray>
  </structure>
  <varray name="forces" >
   <v>       0.00000000       0.00000000       0.00000000 </v>
   <v>      -0.00000000      -0.00000000       0.00000000 </v>
  </varray>
  <varray name="stress" >
   <v>      -2.24906660      -0.00000000       0.00000000 </v>
   <v>      -0.00000000      -2.24906658      -0.00000000 </v>
   <v>      -0.00000000       0.00000000      -2.36750719 </v>
  </varray>
  <energy>
   <i name="e_fr_energy">    -12.04847489 </i>
   <i name="e_wo_entrp">    -12.00583202 </i>
   <i name="e_0_energy">     -0.08528574 </i>
  </energy>
  <time name="totalsc">    8.98    9.34</time>
 </calculation>
 <calculation>
  <scstep>
   <time name="dav">    0.56    0.56</time>
   <time name="total">    0.70    0.71</time>
   <energy>
    <i name="alphaZ">    184.15886864 </i>
    <i name="ewald">  -1656.56278905 </i>
    <i name="hartreedc">   -133.19701849 </i>
    <i name="XCdc">      6.54013636 </i>
    <i name="pawpsdc">   1185.66259458 </i>
    <i name="pawaedc">  -1134.03306225 </i>
    <i name="eentropy">     -0.08485054 </i>
    <i name="bandstr">     77.23950019 </i>
    <i name="atom">   1458.22633362 </i>
    <i name="e_fr_energy">    -12.05028696 </i>
    <i name="e_wo_entrp">    -11.96543641 </i>
    <i name="e_0_energy">    -12.00786169 </i>
   </energy>
  </scstep>
  <scstep>
   <time name="diag">    0.07    0.07</time>
   <time name="diis">    0.36    0.37</time>
   <time name="orth">    0.01    0.01</time>
   <time name="total">    0.58    0.59</time>
   <energy>
    <i name="e_fr_energy">    -12.04838208 </i>
    <i name="e_wo_entrp">    -11.96332472 </i>
    <i name="e_0_energy">    -12.00585340 </i>
   </energy>
  </scstep>
  <scstep>
   <time name="diag">    0.07    0.07</time>
   <time name="diis">    0.37    0.37</time>
   <time name="orth">    0.01    0.01</time>
   <time name="total">    0.58    0.59</time>
   <energy>
    <i name="e_fr_energy">    -12.04826550 </i>
    <i name="e_wo_entrp">    -11.96329296 </i>
    <i name="e_0_energy">    -12.00577923 </i>
   </energy>
  </scstep>
  <scstep>
   <time name="diag">    0.07    0.07</time>
   <time name="diis">    0.24    0.24</time>
   <time name="orth">    0.01    0.01</time>
   <time name="total">    0.38    0.38</time>
   <energy>
    <i name="alphaZ">    184.15886864 </i>
    <i name="ewald">  -1656.56278905 </i>
    <i name="hartreedc">   -132.45567915 </i>
    <i name="XCdc">      6.51452787 </i>
    <i name="pawpsdc">   1186.68160228 </i>
    <i name="pawaedc">  -1135.08769766 </i>
    <i name="eentropy">     -0.08497787 </i>
    <i name="bandstr">     76.56154416 </i>
    <i name="atom">   1458.22633362 </i>
    <i name="e_fr_energy">    -12.04826717 </i>
    <i name="e_wo_entrp">    -11.96328930 </i>
    <i name="e_0_energy">    -12.00577823 </i>
   </energy>
  </scstep>
  <structure>
   <crystal>
    <varray name="basis" >
     <v>       2.76264683      -0.00000000       0.00000000 </v>
     <v>      -1.38132341       2.39252233      -0.00000000 </v>
     <v>      -0.00000000       0.00000000       4.78117774 </v>
    </varray>
    <i name="volume">     31.60212290 </i>
    <varray name="rec_basis" >
     <v>       0.36197171       0.20898447       0.00000000 </v>
     <v>       0.00000000       0.41796893      -0.00000000 </v>
     <v>      -0.00000000       0.00000000       0.20915349 </v>
    </varray>
   </crystal>
   <varray name="positions" >
    <v>       0.33333333       0.66666667       0.25000000 </v>
    <v>       0.66666667       0.33333333       0.75000000 </v>
   </varray>
  </structure>
  <varray name="forces" >
   <v>       0.00000000      -0.00000000       0.00000000 </v>
   <v>      -0.00000000       0.00000000       0.00000000 </v>
  </varray>
  <varray name="stress" >
   <v>       8.45460705       0.00000000       0.00000000 </v>
   <v>      -0.00000000       8.45460697       0.00000000 </v>
   <v>       0.00000000       0.00000000       7.65797359 </v>
  </varray>
  <energy>
   <i name="e_fr_energy">    -12.04826717 </i>
   <i name="e_wo_entrp">    -12.00577823 </i>
   <i name="e_0_energy">     -0.08497787 </i>
  </energy>
  <time name="totalsc">    4.58    4.62</time>
 </calculation>
 <calculation>
  <scstep>
   <time name="dav">    0.53    0.53</time>
   <time name="total">    0.67    0.68</time>
   <energy>
    <i name="alphaZ">    183.67396168 </i>
    <i name="ewald">  -1655.11003437 </i>
    <i name="hartreedc">   -132.34790371 </i>
    <i name="XCdc">      6.47213436 </i>
    <i name="pawpsdc">   1186.74952655 </i>
    <i name="pawaedc">  -1135.15522427 </i>
    <i name="eentropy">     -0.08530953 </i>
    <i name="bandstr">     75.52673454 </i>
    <i name="atom">   1458.22633362 </i>
    <i name="e_fr_energy">    -12.04978113 </i>
    <i name="e_wo_entrp">    -11.96447160 </i>
    <i name="e_0_energy">    -12.00712636 </i>
   </energy>
  </scstep>
  <scstep>
   <time name="diag">    0.07    0.07</time>
   <time name="diis">    0.37    0.37</time>
   <time name="orth">    0.01    0.01</time>
   <time name="total">    0.58    0.58</time>
   <energy>
    <i name="e_fr_energy">    -12.04845778 </i>
    <i name="e_wo_entrp">    -11.96320153 </i>
    <i name="e_0_energy">    -12.00582966 </i>
   </energy>
  </scstep>
  <scstep>
   <time name="diag">    0.07    0.07</time>
   <time name="diis">    0.35    0.35</time>
   <time name="orth">    0.01    0.01</time>
   <time name="total">    0.57    0.58</time>
   <energy>
    <i name="e_fr_energy">    -12.04847082 </i>
    <i name="e_wo_entrp">    -11.96320092 </i>
    <i name="e_0_energy">    -12.00583587 </i>
   </energy>
  </scstep>
  <scstep>
   <time name="diag">    0.07    0.07</time>
   <time name="diis">    0.22    0.22</time>
   <time name="orth">    0.01    0.01</time>
   <time name="total">    0.36    0.36</time>
   <energy>
    <i name="alphaZ">    183.67396168 </i>
    <i name="ewald">  -1655.11003437 </i>
    <i name="hartreedc">   -132.92993584 </i>
    <i name="XCdc">      6.49218540 </i>
    <i name="pawpsdc">   1185.81499873 </i>
    <i name="pawaedc">  -1134.19557474 </i>
    <i name="eentropy">     -0.08526769 </i>
    <i name="bandstr">     76.06486184 </i>
    <i name="atom">   1458.22633362 </i>
    <i name="e_fr_energy">    -12.04847137 </i>
    <i name="e_wo_entrp">    -11.96320369 </i>
    <i name="e_0_energy">    -12.00583753 </i>
   </energy>
  </scstep>
  <structure>
   <crystal>
    <varray name="basis" >
     <v>       2.76515463      -0.00000000       0.00000000 </v>
     <v>      -1.38257731       2.39469414      -0.00000000 </v>
     <v>      -0.00000000       0.00000000       4.78510892 </v>
    </varray>
    <i name="volume">     31.68555383 </i>
    <varray name="rec_basis" >
     <v>       0.36164343       0.20879493      -0.00000000 </v>
     <v>       0.00000000       0.41758986      -0.00000000 </v>
     <v>      -0.00000000       0.00000000       0.20898166 </v>
    </varray>
   </crystal>
   <varray name="positions" >
    <v>       0.33333333       0.66666667       0.25000000 </v>
    <v>       0.66666667       0.33333333       0.75000000 </v>
   </varray>
  </structure>
  <varray name="forces" >
   <v>      -0.00000000       0.00000000       0.00000000 </v>
   <v>       0.00000000      -0.00000000       0.00000000 </v>
  </varray>
  <varray name="stress" >
   <v>       0.33498386       0.00000000       0.00000000 </v>
   <v>       0.00000000       0.33498386       0.00000000 </v>
   <v>      -0.00000000      -0.00000000       0.41033790 </v>
  </varray>
  <energy>
   <i name="e_fr_energy">    -12.04847137 </i>
   <i name="e_wo_entrp">    -12.00583753 </i>
   <i name="e_0_energy">     -0.08526769 </i>
  </energy>
  <time name="totalsc">    4.47    4.51</time>
  <eigenvalues>
   <array>
    <dimension dim="1">band</dimension>
    <dimension dim="2">kpoint</dimension>
    <dimension dim="3">spin</dimension>
    <field>eigene</field>
    <field>occ</field>
    <set>
     <set comment="spin 1">
      <set comment="kpoint 1">
       <r>   -2.5272    1.0000 </r>
       <r>    0.1190    1.0000 </r>
       <r>    3.2352    1.0000 </r>
       <r>    3.7379    1.0000 </r>
       <r>    3.7379    1.0000 </r>
       <r>    4.1051    1.0000 </r>
       <r>    4.1051    1.0000 </r>
       <r>    5.3298    1.0000 </r>
       <r>    5.3298    1.0000 </r>
       <r>    6.4604    1.0000 </r>
       <r>    6.9148    0.9438 </r>
       <r>    6.9148    0.9438 </r>
       <r>   11.8295    0.0000 </r>
       <r>   22.9273    0.0000 </r>
      </set>
      <set comment="kpoint 2">
       <r>   -2.0882    1.0000 </r>
       <r>    0.5136    1.0000 </r>
       <r>    3.1454    1.0000 </r>
       <r>    3.7508    1.0000 </r>
       <r>    3.9500    1.0000 </r>
       <r>    4.0763    1.0000 </r>
       <r>    4.4263    1.0000 </r>
       <r>    4.6181    1.0000 </r>
       <r>    5.1261    1.0000 </r>
       <r>    5.2644    1.0000 </r>
       <r>    6.9879    0.8579 </r>
       <r>    8.9203    0.0000 </r>
       <r>   11.7897    0.0000 </r>
       <r>   23.2608    0.0000 </r>
      </set>
      <set comment="kpoint 3">
       <r>   -0.9236    1.0000 </r>
       <r>    1.2685    1.0000 </r>
       <r>    2.9658    1.0000 </r>
       <r>    3.1549    1.0000 </r>
       <r>    3.4040    1.0000 </r>
       <r>    4.5650    1.0000 </r>
       <r>    4.6963    1.0000 </r>
       <r>    4.7021    1.0000 </r>
       <r>    5.0181    1.0000 </r>
       <r>    5.3112    1.0000 </r>
       <r>    7.0927    0.6293 </r>
       <r>   11.3489    0.0000 </r>
       <r>   11.7421    0.0000 </r>
       <r>   20.4341    0.0000 </r>
      </set>
      <set comment="kpoint 4">
       <r>    0.3183    1.0000 </r>
       <r>    1.1815    1.0000 </r>
       <r>    2.1083    1.0000 </r>
       <r>    3.3132    1.0000 </r>
       <r>    3.8496    1.0000 </r>
       <r>    4.1730    1.0000 </r>
       <r>    4.2902    1.0000 </r>
       <r>    6.0476    1.0000 </r>
       <r>    6.2905    1.0000 </r>
       <r>    6.4922    1.0000 </r>
       <r>    7.1384    0.5028 </r>
       <r>   12.0675    0.0000 </r>
       <r>   13.7781    0.0000 </r>
       <r>   16.1491    0.0000 </r>
      </set>
      <set comment="kpoint 5">
       <r>    0.7521    1.0000 </r>
       <r>    0.8799    1.0000 </r>
       <r>    1.5703    1.0000 </r>
       <r>    3.8573    1.0000 </r>
       <r>    4.0319    1.0000 </r>
       <r>    4.0542    1.0000 </r>
       <r>    4.5194    1.0000 </r>
       <r>    7.1443    0.4862 </r>
       <r>    7.2686    0.1805 </r>
       <r>    7.4575    0.0122 </r>
       <r>    8.3895    0.0000 </r>
       <r>   12.0423    0.0000 </r>
       <r>   13.7293    0.0000 </r>
       <r>   15.6989    0.0000 </r>
      </set>
      <set comment="kpoint 6">
       <r>   -1.2706    1.0000 </r>
       <r>    1.1789    1.0000 </r>
       <r>    2.8208    1.0000 </r>
       <r>    3.5814    1.0000 </r>
       <r>    3.6042    1.0000 </r>
       <r>    4.0509    1.0000 </r>
       <r>    4.4681    1.0000 </r>
       <r>    4.7948    1.0000 </r>
       <r>    5.1551    1.0000 </r>
       <r>    5.1780    1.0000 </r>
       <r>    6.9986    0.8402 </r>
       <r>   10.7157    0.0000 </r>
       <r>   11.7500    0.0000 </r>
       <r>   22.4687    0.0000 </r>
      </set>
      <set comment="kpoint 7">
       <r>    0.0645    1.0000 </r>
       <r>    1.6697    1.0000 </r>
       <r>    2.5190    1.0000 </r>
       <r>    2.7688    1.0000 </r>
       <r>    3.4367    1.0000 </r>
       <r>    3.9590    1.0000 </r>
       <r>    4.7476    1.0000 </r>
       <r>    4.7957    1.0000 </r>
       <r>    6.0186    1.0000 </r>
       <r>    6.4882    1.0000 </r>
       <r>    6.9799    0.8703 </r>
       <r>   11.9294    0.0000 </r>
       <r>   13.0492    0.0000 </r>
       <r>   18.2639    0.0000 </r>
      </set>
      <set comment="kpoint 8">
       <r>    0.9916    1.0000 </r>
       <r>    1.3068    1.0000 </r>
       <r>    1.8158    1.0000 </r>
       <r>    3.4663    1.0000 </r>
       <r>    3.7319    1.0000 </r>
       <r>    4.0759    1.0000 </r>
       <r>    4.2136    1.0000 </r>
       <r>    6.0908    1.0000 </r>
       <r>    6.9532    0.9060 </r>
       <r>    7.0221    0.7965 </r>
       <r>    8.1612    0.0000 </r>
       <r>   13.0276    0.0000 </r>
       <r>   14.0957    0.0000 </r>
       <r>   15.3507    0.0000 </r>
      </set>
      <set comment="kpoint 9">
       <r>    1.0940    1.0000 </r>
       <r>    1.1700    1.0000 </r>
       <r>    1.5733    1.0000 </r>
       <r>    3.7967    1.0000 </r>
       <r>    3.8623    1.0000 </r>
       <r>    4.1827    1.0000 </r>
       <r>    4.2920    1.0000 </r>
       <r>    6.9386    0.9222 </r>
       <r>    7.0870    0.6445 </r>
       <r>    7.2134    0.3003 </r>
       <r>    9.9483    0.0000 </r>
       <r>   11.1448    0.0000 </r>
       <r>   15.0092    0.0000 </r>
       <r>   16.0650    0.0000 </r>
      </set>
      <set comment="kpoint 10">
       <r>    1.3527    1.0000 </r>
       <r>    2.0242    1.0000 </r>
       <r>    2.2869    1.0000 </r>
       <r>    2.2970    1.0000 </r>
       <r>    3.5096    1.0000 </r>
       <r>    3.8353    1.0000 </r>
       <r>    4.3805    1.0000 </r>
       <r>    5.1914    1.0000 </r>
       <r>    6.7501    0.9970 </r>
       <r>    6.9848    0.8628 </r>
       <r>    8.2573    0.0000 </r>
       <r>   12.9521    0.0000 </r>
       <r>   15.3158    0.0000 </r>
       <r>   15.7426    0.0000 </r>
      </set>
      <set comment="kpoint 11">
       <r>    1.7575    1.0000 </r>
       <r>    1.8655    1.0000 </r>
       <r>    1.9731    1.0000 </r>
       <r>    3.2129    1.0000 </r>
       <r>    3.4830    1.0000 </r>
       <r>    3.8634    1.0000 </r>
       <r>    4.3710    1.0000 </r>
       <r>    6.0546    1.0000 </r>
       <r>    6.6044    0.9999 </r>
       <r>    7.0201    0.8006 </r>
       <r>   10.1282    0.0000 </r>
       <r>   12.3838    0.0000 </r>
       <r>   14.5178    0.0000 </r>
       <r>   15.8761    0.0000 </r>
      </set>
      <set comment="kpoint 12">
       <r>    1.7892    1.0000 </r>
       <r>    2.4226    1.0000 </r>
       <r>    2.4226    1.0000 </r>
       <r>    2.8993    1.0000 </r>
       <r>    3.5305    1.0000 </r>
       <r>    3.5305    1.0000 </r>
       <r>    4.5972    1.0000 </r>
       <r>    6.4009    1.0000 </r>
       <r>    6.4009    1.0000 </r>
       <r>    6.4425    1.0000 </r>
       <r>   11.5684    0.0000 </r>
       <r>   11.5684    0.0000 </r>
       <r>   12.9778    0.0000 </r>
       <r>   18.8885    0.0000 </r>
      </set>
      <set comment="kpoint 13">
       <r>   -2.2918    1.0000 </r>
       <r>    0.0809    1.0000 </r>
       <r>    3.1783    1.0000 </r>
       <r>    3.7052    1.0000 </r>
       <r>    3.7052    1.0000 </r>
       <r>    4.0375    1.0000 </r>
       <r>    4.0375    1.0000 </r>
       <r>    5.4651    1.0000 </r>
       <r>    5.5003    1.0000 </r>
       <r>    5.5003    1.0000 </r>
       <r>    6.8647    0.9740 </r>
       <r>    6.8647    0.9740 </r>
       <r>   13.2738    0.0000 </r>
       <r>   22.2506    0.0000 </r>
      </set>
      <set comment="kpoint 14">
       <r>   -1.8586    1.0000 </r>
       <r>    0.4894    1.0000 </r>
       <r>    3.1589    1.0000 </r>
       <r>    3.5956    1.0000 </r>
       <r>    3.7272    1.0000 </r>
       <r>    4.0246    1.0000 </r>
       <r>    4.3500    1.0000 </r>
       <r>    4.5241    1.0000 </r>
       <r>    5.3338    1.0000 </r>
       <r>    5.3441    1.0000 </r>
       <r>    6.9155    0.9433 </r>
       <r>    8.0396    0.0000 </r>
       <r>   13.4309    0.0000 </r>
       <r>   22.7830    0.0000 </r>
      </set>
      <set comment="kpoint 15">
       <r>   -0.7328    1.0000 </r>
       <r>    1.2935    1.0000 </r>
       <r>    2.8499    1.0000 </r>
       <r>    3.0488    1.0000 </r>
       <r>    3.3114    1.0000 </r>
       <r>    4.2567    1.0000 </r>
       <r>    4.6413    1.0000 </r>
       <r>    5.1367    1.0000 </r>
       <r>    5.1567    1.0000 </r>
       <r>    5.3323    1.0000 </r>
       <r>    6.9808    0.8690 </r>
       <r>    9.4910    0.0000 </r>
       <r>   14.0368    0.0000 </r>
       <r>   20.6741    0.0000 </r>
      </set>
      <set comment="kpoint 16">
       <r>    0.3473    1.0000 </r>
       <r>    1.2243    1.0000 </r>
       <r>    2.1714    1.0000 </r>
       <r>    2.8823    1.0000 </r>
       <r>    3.9024    1.0000 </r>
       <r>    4.4195    1.0000 </r>
       <r>    4.6165    1.0000 </r>
       <r>    6.0417    1.0000 </r>
       <r>    6.2964    1.0000 </r>
       <r>    6.3820    1.0000 </r>
       <r>    7.0406    0.7576 </r>
       <r>   10.6351    0.0000 </r>
       <r>   14.9124    0.0000 </r>
       <r>   16.8927    0.0000 </r>
      </set>
      <set comment="kpoint 17">
       <r>    0.6064    1.0000 </r>
       <r>    0.8775    1.0000 </r>
       <r>    1.8793    1.0000 </r>
       <r>    2.8753    1.0000 </r>
       <r>    4.2111    1.0000 </r>
       <r>    4.3243    1.0000 </r>
       <r>    5.5479    1.0000 </r>
       <r>    6.8281    0.9861 </r>
       <r>    7.2964    0.1334 </r>
       <r>    7.4745    0.0089 </r>
       <r>    8.1385    0.0000 </r>
       <r>   11.3514    0.0000 </r>
       <r>   13.4681    0.0000 </r>
       <r>   15.7758    0.0000 </r>
      </set>
      <set comment="kpoint 18">
       <r>   -1.0603    1.0000 </r>
       <r>    1.1893    1.0000 </r>
       <r>    2.8803    1.0000 </r>
       <r>    3.0899    1.0000 </r>
       <r>    3.6372    1.0000 </r>
       <r>    3.8770    1.0000 </r>
       <r>    4.6198    1.0000 </r>
       <r>    4.8143    1.0000 </r>
       <r>    5.2216    1.0000 </r>
       <r>    5.3664    1.0000 </r>
       <r>    6.9042    0.9519 </r>
       <r>    9.1695    0.0000 </r>
       <r>   13.8313    0.0000 </r>
       <r>   22.5477    0.0000 </r>
      </set>
      <set comment="kpoint 19">
       <r>    0.1895    1.0000 </r>
       <r>    1.7395    1.0000 </r>
       <r>    2.3227    1.0000 </r>
       <r>    2.8530    1.0000 </r>
       <r>    3.3046    1.0000 </r>
       <r>    4.0003    1.0000 </r>
       <r>    4.6082    1.0000 </r>
       <r>    5.0739    1.0000 </r>
       <r>    6.1698    1.0000 </r>
       <r>    6.3013    1.0000 </r>
       <r>    6.9632    0.8936 </r>
       <r>   10.3588    0.0000 </r>
       <r>   14.7946    0.0000 </r>
       <r>   18.6714    0.0000 </r>
      </set>
      <set comment="kpoint 20">
       <r>    0.8704    1.0000 </r>
       <r>    1.3572    1.0000 </r>
       <r>    2.0570    1.0000 </r>
       <r>    2.8040    1.0000 </r>
       <r>    3.8793    1.0000 </r>
       <r>    4.4043    1.0000 </r>
       <r>    4.5495    1.0000 </r>
       <r>    6.0788    1.0000 </r>
       <r>    6.6339    0.9998 </r>
       <r>    7.1489    0.4733 </r>
       <r>    8.1754    0.0000 </r>
       <r>   11.7923    0.0000 </r>
       <r>   14.1308    0.0000 </r>
       <r>   16.7235    0.0000 </r>
      </set>
      <set comment="kpoint 21">
       <r>    0.8889    1.0000 </r>
       <r>    1.1545    1.0000 </r>
       <r>    2.0101    1.0000 </r>
       <r>    2.8701    1.0000 </r>
       <r>    3.7411    1.0000 </r>
       <r>    4.6332    1.0000 </r>
       <r>    5.1389    1.0000 </r>
       <r>    6.6103    0.9999 </r>
       <r>    7.0691    0.6903 </r>
       <r>    7.2691    0.1795 </r>
       <r>    9.8226    0.0000 </r>
       <r>   11.0592    0.0000 </r>
       <r>   14.6475    0.0000 </r>
       <r>   14.8595    0.0000 </r>
      </set>
      <set comment="kpoint 22">
       <r>    1.3553    1.0000 </r>
       <r>    1.8659    1.0000 </r>
       <r>    2.2953    1.0000 </r>
       <r>    2.5263    1.0000 </r>
       <r>    3.6044    1.0000 </r>
       <r>    3.7840    1.0000 </r>
       <r>    4.2169    1.0000 </r>
       <r>    5.4098    1.0000 </r>
       <r>    6.4187    1.0000 </r>
       <r>    7.1660    0.4254 </r>
       <r>    8.3332    0.0000 </r>
       <r>   11.8997    0.0000 </r>
       <r>   15.1553    0.0000 </r>
       <r>   17.0585    0.0000 </r>
      </set>
      <set comment="kpoint 23">
       <r>    1.5291    1.0000 </r>
       <r>    2.0038    1.0000 </r>
       <r>    2.2568    1.0000 </r>
       <r>    2.7778    1.0000 </r>
       <r>    3.4776    1.0000 </r>
       <r>    4.0243    1.0000 </r>
       <r>    4.5437    1.0000 </r>
       <r>    6.1417    1.0000 </r>
       <r>    6.2671    1.0000 </r>
       <r>    7.1630    0.4336 </r>
       <r>   10.2414    0.0000 </r>
       <r>   12.5535    0.0000 </r>
       <r>   14.2543    0.0000 </r>
       <r>   15.3695    0.0000 </r>
      </set>
      <set comment="kpoint 24">
       <r>    1.9277    1.0000 </r>
       <r>    2.3344    1.0000 </r>
       <r>    2.3344    1.0000 </r>
       <r>    2.9072    1.0000 </r>
       <r>    3.5210    1.0000 </r>
       <r>    3.5210    1.0000 </r>
       <r>    4.5762    1.0000 </r>
       <r>    6.0823    1.0000 </r>
       <r>    6.5574    1.0000 </r>
       <r>    6.5574    1.0000 </r>
       <r>   11.7878    0.0000 </r>
       <r>   11.7878    0.0000 </r>
       <r>   13.4529    0.0000 </r>
       <r>   17.3471    0.0000 </r>
      </set>
      <set comment="kpoint 25">
       <r>   -1.6406    1.0000 </r>
       <r>   -0.1505    1.0000 </r>
       <r>    3.0857    1.0000 </r>
       <r>    3.6797    1.0000 </r>
       <r>    3.6797    1.0000 </r>
       <r>    3.8837    1.0000 </r>
       <r>    3.8837    1.0000 </r>
       <r>    4.0026    1.0000 </r>
       <r>    5.9007    1.0000 </r>
       <r>    5.9007    1.0000 </r>
       <r>    6.6831    0.9994 </r>
       <r>    6.6831    0.9994 </r>
       <r>   16.1383    0.0000 </r>
       <r>   21.3328    0.0000 </r>
      </set>
      <set comment="kpoint 26">
       <r>   -1.2191    1.0000 </r>
       <r>    0.2794    1.0000 </r>
       <r>    3.0991    1.0000 </r>
       <r>    3.2564    1.0000 </r>
       <r>    3.4435    1.0000 </r>
       <r>    3.9810    1.0000 </r>
       <r>    4.0106    1.0000 </r>
       <r>    4.1880    1.0000 </r>
       <r>    5.7875    1.0000 </r>
       <r>    5.8336    1.0000 </r>
       <r>    6.6807    0.9994 </r>
       <r>    7.1306    0.5249 </r>
       <r>   16.3395    0.0000 </r>
       <r>   21.8093    0.0000 </r>
      </set>
      <set comment="kpoint 27">
       <r>   -0.1973    1.0000 </r>
       <r>    1.1680    1.0000 </r>
       <r>    2.4816    1.0000 </r>
       <r>    2.9689    1.0000 </r>
       <r>    3.2344    1.0000 </r>
       <r>    3.9262    1.0000 </r>
       <r>    4.6569    1.0000 </r>
       <r>    4.9984    1.0000 </r>
       <r>    5.7163    1.0000 </r>
       <r>    5.8493    1.0000 </r>
       <r>    6.6652    0.9996 </r>
       <r>    7.9336    0.0000 </r>
       <r>   16.8117    0.0000 </r>
       <r>   21.3694    0.0000 </r>
      </set>
      <set comment="kpoint 28">
       <r>    0.5020    1.0000 </r>
       <r>    1.1872    1.0000 </r>
       <r>    2.1231    1.0000 </r>
       <r>    2.5109    1.0000 </r>
       <r>    4.2273    1.0000 </r>
       <r>    4.7866    1.0000 </r>
       <r>    4.9654    1.0000 </r>
       <r>    5.9011    1.0000 </r>
       <r>    6.2844    1.0000 </r>
       <r>    6.4670    1.0000 </r>
       <r>    6.8428    0.9820 </r>
       <r>    8.7607    0.0000 </r>
       <r>   16.1971    0.0000 </r>
       <r>   18.4045    0.0000 </r>
      </set>
      <set comment="kpoint 29">
       <r>    0.5093    1.0000 </r>
       <r>    0.8987    1.0000 </r>
       <r>    2.0667    1.0000 </r>
       <r>    2.1687    1.0000 </r>
       <r>    4.6627    1.0000 </r>
       <r>    4.9701    1.0000 </r>
       <r>    6.1370    1.0000 </r>
       <r>    6.9643    0.8921 </r>
       <r>    7.3421    0.0759 </r>
       <r>    7.3632    0.0568 </r>
       <r>    7.4527    0.0134 </r>
       <r>    9.8511    0.0000 </r>
       <r>   13.6760    0.0000 </r>
       <r>   15.1112    0.0000 </r>
      </set>
      <set comment="kpoint 30">
       <r>   -0.4686    1.0000 </r>
       <r>    1.0258    1.0000 </r>
       <r>    2.6410    1.0000 </r>
       <r>    3.0544    1.0000 </r>
       <r>    3.1242    1.0000 </r>
       <r>    3.7452    1.0000 </r>
       <r>    4.5268    1.0000 </r>
       <r>    4.7893    1.0000 </r>
       <r>    5.7391    1.0000 </r>
       <r>    5.8290    1.0000 </r>
       <r>    6.6246    0.9999 </r>
       <r>    7.7553    0.0000 </r>
       <r>   16.7128    0.0000 </r>
       <r>   22.2890    0.0000 </r>
      </set>
      <set comment="kpoint 31">
       <r>    0.5474    1.0000 </r>
       <r>    1.6440    1.0000 </r>
       <r>    2.1681    1.0000 </r>
       <r>    2.8540    1.0000 </r>
       <r>    3.2155    1.0000 </r>
       <r>    3.8117    1.0000 </r>
       <r>    4.7051    1.0000 </r>
       <r>    5.5526    1.0000 </r>
       <r>    6.0891    1.0000 </r>
       <r>    6.4543    1.0000 </r>
       <r>    6.8645    0.9741 </r>
       <r>    8.5913    0.0000 </r>
       <r>   17.0583    0.0000 </r>
       <r>   19.8105    0.0000 </r>
      </set>
      <set comment="kpoint 32">
       <r>    0.8299    1.0000 </r>
       <r>    1.3596    1.0000 </r>
       <r>    2.0908    1.0000 </r>
       <r>    2.4985    1.0000 </r>
       <r>    4.0146    1.0000 </r>
       <r>    4.7458    1.0000 </r>
       <r>    5.1041    1.0000 </r>
       <r>    5.8383    1.0000 </r>
       <r>    6.4000    1.0000 </r>
       <r>    7.3695    0.0518 </r>
       <r>    8.1850    0.0000 </r>
       <r>    9.9385    0.0000 </r>
       <r>   14.8364    0.0000 </r>
       <r>   17.0336    0.0000 </r>
      </set>
      <set comment="kpoint 33">
       <r>    0.7646    1.0000 </r>
       <r>    1.2027    1.0000 </r>
       <r>    2.1591    1.0000 </r>
       <r>    2.3127    1.0000 </r>
       <r>    3.9442    1.0000 </r>
       <r>    5.3389    1.0000 </r>
       <r>    5.5829    1.0000 </r>
       <r>    6.1250    1.0000 </r>
       <r>    7.0296    0.7812 </r>
       <r>    7.3048    0.1211 </r>
       <r>    9.6882    0.0000 </r>
       <r>   10.7353    0.0000 </r>
       <r>   13.8895    0.0000 </r>
       <r>   13.9660    0.0000 </r>
      </set>
      <set comment="kpoint 34">
       <r>    1.3869    1.0000 </r>
       <r>    1.6707    1.0000 </r>
       <r>    2.4272    1.0000 </r>
       <r>    2.8303    1.0000 </r>
       <r>    3.4770    1.0000 </r>
       <r>    3.5982    1.0000 </r>
       <r>    4.2972    1.0000 </r>
       <r>    5.5802    1.0000 </r>
       <r>    6.2762    1.0000 </r>
       <r>    7.4156    0.0254 </r>
       <r>    8.4538    0.0000 </r>
       <r>   10.1188    0.0000 </r>
       <r>   16.0779    0.0000 </r>
       <r>   17.6831    0.0000 </r>
      </set>
      <set comment="kpoint 35">
       <r>    1.4470    1.0000 </r>
       <r>    2.0084    1.0000 </r>
       <r>    2.2562    1.0000 </r>
       <r>    3.0085    1.0000 </r>
       <r>    3.1384    1.0000 </r>
       <r>    4.1590    1.0000 </r>
       <r>    4.8036    1.0000 </r>
       <r>    5.5095    1.0000 </r>
       <r>    6.5651    1.0000 </r>
       <r>    7.3173    0.1042 </r>
       <r>   10.5853    0.0000 </r>
       <r>   12.3750    0.0000 </r>
       <r>   13.6457    0.0000 </r>
       <r>   15.5836    0.0000 </r>
      </set>
      <set comment="kpoint 36">
       <r>    2.1690    1.0000 </r>
       <r>    2.1690    1.0000 </r>
       <r>    2.2902    1.0000 </r>
       <r>    2.8828    1.0000 </r>
       <r>    3.5140    1.0000 </r>
       <r>    3.5140    1.0000 </r>
       <r>    4.5709    1.0000 </r>
       <r>    5.3440    1.0000 </r>
       <r>    6.8375    0.9836 </r>
       <r>    6.8375    0.9836 </r>
       <r>   12.4938    0.0000 </r>
       <r>   12.4938    0.0000 </r>
       <r>   14.5689    0.0000 </r>
       <r>   15.3851    0.0000 </r>
      </set>
      <set comment="kpoint 37">
       <r>   -0.7880    1.0000 </r>
       <r>   -0.7880    1.0000 </r>
       <r>    3.2183    1.0000 </r>
       <r>    3.2183    1.0000 </r>
       <r>    3.7407    1.0000 </r>
       <r>    3.7407    1.0000 </r>
       <r>    3.7407    1.0000 </r>
       <r>    3.7407    1.0000 </r>
       <r>    6.3424    1.0000 </r>
       <r>    6.3424    1.0000 </r>
       <r>    6.3424    1.0000 </r>
       <r>    6.3424    1.0000 </r>
       <r>   19.2002    0.0000 </r>
       <r>   19.2002    0.0000 </r>
      </set>
      <set comment="kpoint 38">
       <r>   -0.3661    1.0000 </r>
       <r>   -0.3661    1.0000 </r>
       <r>    2.9840    1.0000 </r>
       <r>    2.9840    1.0000 </r>
       <r>    3.6245    1.0000 </r>
       <r>    3.6245    1.0000 </r>
       <r>    4.0402    1.0000 </r>
       <r>    4.0402    1.0000 </r>
       <r>    6.2814    1.0000 </r>
       <r>    6.2814    1.0000 </r>
       <r>    6.4573    1.0000 </r>
       <r>    6.4573    1.0000 </r>
       <r>   19.4385    0.0000 </r>
       <r>   19.4385    0.0000 </r>
      </set>
      <set comment="kpoint 39">
       <r>    0.5491    1.0000 </r>
       <r>    0.5491    1.0000 </r>
       <r>    2.5916    1.0000 </r>
       <r>    2.5916    1.0000 </r>
       <r>    3.5507    1.0000 </r>
       <r>    3.5507    1.0000 </r>
       <r>    4.7946    1.0000 </r>
       <r>    4.7946    1.0000 </r>
       <r>    6.2102    1.0000 </r>
       <r>    6.2102    1.0000 </r>
       <r>    6.7596    0.9964 </r>
       <r>    6.7596    0.9964 </r>
       <r>   19.7109    0.0000 </r>
       <r>   19.7109    0.0000 </r>
      </set>
      <set comment="kpoint 40">
       <r>    0.8364    1.0000 </r>
       <r>    0.8364    1.0000 </r>
       <r>    2.2587    1.0000 </r>
       <r>    2.2587    1.0000 </r>
       <r>    4.7236    1.0000 </r>
       <r>    4.7236    1.0000 </r>
       <r>    5.3238    1.0000 </r>
       <r>    5.3238    1.0000 </r>
       <r>    6.6408    0.9998 </r>
       <r>    6.6408    0.9998 </r>
       <r>    7.2298    0.2614 </r>
       <r>    7.2298    0.2614 </r>
       <r>   17.5827    0.0000 </r>
       <r>   17.5827    0.0000 </r>
      </set>
      <set comment="kpoint 41">
       <r>    0.6798    1.0000 </r>
       <r>    0.6798    1.0000 </r>
       <r>    2.0193    1.0000 </r>
       <r>    2.0193    1.0000 </r>
       <r>    5.3462    1.0000 </r>
       <r>    5.3462    1.0000 </r>
       <r>    6.1410    1.0000 </r>
       <r>    6.1410    1.0000 </r>
       <r>    7.4001    0.0326 </r>
       <r>    7.4001    0.0326 </r>
       <r>    8.3913    0.0000 </r>
       <r>    8.3913    0.0000 </r>
       <r>   14.2855    0.0000 </r>
       <r>   14.2855    0.0000 </r>
      </set>
      <set comment="kpoint 42">
       <r>    0.3541    1.0000 </r>
       <r>    0.3541    1.0000 </r>
       <r>    2.6976    1.0000 </r>
       <r>    2.6976    1.0000 </r>
       <r>    3.3798    1.0000 </r>
       <r>    3.3798    1.0000 </r>
       <r>    4.6286    1.0000 </r>
       <r>    4.6286    1.0000 </r>
       <r>    6.1986    1.0000 </r>
       <r>    6.1986    1.0000 </r>
       <r>    6.6977    0.9991 </r>
       <r>    6.6977    0.9991 </r>
       <r>   19.7755    0.0000 </r>
       <r>   19.7755    0.0000 </r>
      </set>
      <set comment="kpoint 43">
       <r>    1.0804    1.0000 </r>
       <r>    1.0804    1.0000 </r>
       <r>    2.5050    1.0000 </r>
       <r>    2.5050    1.0000 </r>
       <r>    3.4698    1.0000 </r>
       <r>    3.4698    1.0000 </r>
       <r>    5.1440    1.0000 </r>
       <r>    5.1440    1.0000 </r>
       <r>    6.6662    0.9996 </r>
       <r>    6.6662    0.9996 </r>
       <r>    7.1240    0.5433 </r>
       <r>    7.1240    0.5433 </r>
       <r>   19.2352    0.0000 </r>
       <r>   19.2352    0.0000 </r>
      </set>
      <set comment="kpoint 44">
       <r>    1.0442    1.0000 </r>
       <r>    1.0442    1.0000 </r>
       <r>    2.2630    1.0000 </r>
       <r>    2.2630    1.0000 </r>
       <r>    4.5927    1.0000 </r>
       <r>    4.5927    1.0000 </r>
       <r>    5.3114    1.0000 </r>
       <r>    5.3114    1.0000 </r>
       <r>    7.1104    0.5811 </r>
       <r>    7.1104    0.5811 </r>
       <r>    8.6014    0.0000 </r>
       <r>    8.6014    0.0000 </r>
       <r>   15.9236    0.0000 </r>
       <r>   15.9236    0.0000 </r>
      </set>
      <set comment="kpoint 45">
       <r>    0.9459    1.0000 </r>
       <r>    0.9459    1.0000 </r>
       <r>    2.1536    1.0000 </r>
       <r>    2.1536    1.0000 </r>
       <r>    4.7233    1.0000 </r>
       <r>    4.7233    1.0000 </r>
       <r>    6.0504    1.0000 </r>
       <r>    6.0504    1.0000 </r>
       <r>    7.0719    0.6834 </r>
       <r>    7.0719    0.6834 </r>
       <r>   10.1248    0.0000 </r>
       <r>   10.1248    0.0000 </r>
       <r>   13.6117    0.0000 </r>
       <r>   13.6117    0.0000 </r>
      </set>
      <set comment="kpoint 46">
       <r>    1.4967    1.0000 </r>
       <r>    1.4967    1.0000 </r>
       <r>    2.7215    1.0000 </r>
       <r>    2.7215    1.0000 </r>
       <r>    3.4304    1.0000 </r>
       <r>    3.4304    1.0000 </r>
       <r>    4.8334    1.0000 </r>
       <r>    4.8334    1.0000 </r>
       <r>    7.1968    0.3424 </r>
       <r>    7.1968    0.3424 </r>
       <r>    8.8174    0.0000 </r>
       <r>    8.8174    0.0000 </r>
       <r>   17.3728    0.0000 </r>
       <r>   17.3728    0.0000 </r>
      </set>
      <set comment="kpoint 47">
       <r>    1.6132    1.0000 </r>
       <r>    1.6132    1.0000 </r>
       <r>    2.6256    1.0000 </r>
       <r>    2.6256    1.0000 </r>
       <r>    3.7781    1.0000 </r>
       <r>    3.7781    1.0000 </r>
       <r>    5.0141    1.0000 </r>
       <r>    5.0141    1.0000 </r>
       <r>    7.0975    0.6163 </r>
       <r>    7.0975    0.6163 </r>
       <r>   11.2875    0.0000 </r>
       <r>   11.2875    0.0000 </r>
       <r>   14.5878    0.0000 </r>
       <r>   14.5878    0.0000 </r>
      </set>
      <set comment="kpoint 48">
       <r>    2.0914    1.0000 </r>
       <r>    2.0914    1.0000 </r>
       <r>    2.6871    1.0000 </r>
       <r>    2.6871    1.0000 </r>
       <r>    3.5143    1.0000 </r>
       <r>    3.5143    1.0000 </r>
       <r>    4.7669    1.0000 </r>
       <r>    4.7669    1.0000 </r>
       <r>    6.9628    0.8941 </r>
       <r>    6.9628    0.8941 </r>
       <r>   13.7214    0.0000 </r>
       <r>   13.7214    0.0000 </r>
       <r>   13.7220    0.0000 </r>
       <r>   13.7220    0.0000 </r>
      </set>
     </set>
    </set>
   </array>
  </eigenvalues>
  <separator name="orbital magnetization" >
   <v name="MAGDIPOLOUT">      0.00000000      0.00000000      0.00000000</v>
  </separator>
 </calculation>
 <structure name="finalpos" >
  <crystal>
   <varray name="basis" >
    <v>       2.76515463      -0.00000000       0.00000000 </v>
    <v>      -1.38257731       2.39469414      -0.00000000 </v>
    <v>      -0.00000000       0.00000000       4.78510892 </v>
   </varray>
   <i name="volume">     31.68555383 </i>
   <varray name="rec_basis" >
    <v>       0.36164343       0.20879493      -0.00000000 </v>
    <v>       0.00000000       0.41758986      -0.00000000 </v>
    <v>      -0.00000000       0.00000000       0.20898166 </v>
   </varray>
  </crystal>
  <varray name="positions" >
   <v>       0.33333333       0.66666667       0.25000000 </v>
   <v>       0.66666667       0.33333333       0.75000000 </v>
  </varray>
 </structure>
</modeling>
