unknown system                          
           1
     2.762647   -0.000000    0.000000
    -1.381323    2.392522   -0.000000
    -0.000000    0.000000    4.781178
   Pt
   2
Direct configuration=     1
   0.33333333  0.66666667  0.25000000
   0.66666667  0.33333333  0.75000000
unknown system                          
           1
     2.765155   -0.000000    0.000000
    -1.382577    2.394694   -0.000000
    -0.000000    0.000000    4.785109
   Pt
   2
Direct configuration=     2
   0.33333333  0.66666667  0.25000000
   0.66666667  0.33333333  0.75000000
unknown system                          
           1
     2.765155   -0.000000    0.000000
    -1.382577    2.394694   -0.000000
    -0.000000    0.000000    4.785109
   Pt
   2
Direct configuration=     3
   0.33333333  0.66666667  0.25000000
   0.66666667  0.33333333  0.75000000
