  20  20   0   0
  0.1957362E+02  0.3905268E-09  0.3905268E-09  0.2566844E-08  0.5000000E-15
  1.000000000000000E-004
  CAR 
 unknown system                          
      9.64606789    -35.85332564  301      0.58410535      1.00000000
    -35.853  0.0000E+00  0.0000E+00
    -35.702  0.0000E+00  0.0000E+00
    -35.550  0.0000E+00  0.0000E+00
    -35.398  0.0000E+00  0.0000E+00
    -35.247  0.0000E+00  0.0000E+00
    -35.095  0.0000E+00  0.0000E+00
    -34.943  0.0000E+00  0.0000E+00
    -34.792  0.0000E+00  0.0000E+00
    -34.640  0.0000E+00  0.0000E+00
    -34.488  0.0000E+00  0.0000E+00
    -34.337  0.0000E+00  0.0000E+00
    -34.185  0.0000E+00  0.0000E+00
    -34.033  0.0000E+00  0.0000E+00
    -33.882  0.0000E+00  0.0000E+00
    -33.730  0.0000E+00  0.2000E+01
    -33.578  0.0000E+00  0.2000E+01
    -33.427  0.0000E+00  0.2000E+01
    -33.275  0.0000E+00  0.2000E+01
    -33.123  0.0000E+00  0.2000E+01
    -32.972  0.0000E+00  0.2000E+01
    -32.820  0.0000E+00  0.2000E+01
    -32.668  0.0000E+00  0.6000E+01
    -32.517  0.0000E+00  0.8000E+01
    -32.365  0.0000E+00  0.8000E+01
    -32.213  0.0000E+00  0.8000E+01
    -32.062  0.0000E+00  0.8000E+01
    -31.910  0.0000E+00  0.8000E+01
    -31.758  0.0000E+00  0.8000E+01
    -31.607  0.0000E+00  0.8000E+01
    -31.455  0.0000E+00  0.8000E+01
    -31.303  0.0000E+00  0.8000E+01
    -31.152  0.0000E+00  0.8000E+01
    -31.000  0.0000E+00  0.8000E+01
    -30.848  0.0000E+00  0.8000E+01
    -30.697  0.0000E+00  0.8000E+01
    -30.545  0.0000E+00  0.8000E+01
    -30.393  0.0000E+00  0.8000E+01
    -30.242  0.0000E+00  0.8000E+01
    -30.090  0.0000E+00  0.8000E+01
    -29.938  0.0000E+00  0.8000E+01
    -29.787  0.0000E+00  0.8000E+01
    -29.635  0.0000E+00  0.8000E+01
    -29.483  0.0000E+00  0.8000E+01
    -29.332  0.0000E+00  0.8000E+01
    -29.180  0.0000E+00  0.8000E+01
    -29.028  0.0000E+00  0.8000E+01
    -28.877  0.0000E+00  0.8000E+01
    -28.725  0.0000E+00  0.8000E+01
    -28.573  0.0000E+00  0.8000E+01
    -28.422  0.0000E+00  0.8000E+01
    -28.270  0.0000E+00  0.8000E+01
    -28.118  0.0000E+00  0.8000E+01
    -27.967  0.0000E+00  0.8000E+01
    -27.815  0.0000E+00  0.8000E+01
    -27.663  0.0000E+00  0.8000E+01
    -27.512  0.0000E+00  0.8000E+01
    -27.360  0.0000E+00  0.8000E+01
    -27.208  0.0000E+00  0.8000E+01
    -27.057  0.0000E+00  0.8000E+01
    -26.905  0.0000E+00  0.8000E+01
    -26.753  0.0000E+00  0.8000E+01
    -26.602  0.0000E+00  0.8000E+01
    -26.450  0.0000E+00  0.8000E+01
    -26.298  0.0000E+00  0.8000E+01
    -26.147  0.0000E+00  0.8000E+01
    -25.995  0.0000E+00  0.8000E+01
    -25.843  0.0000E+00  0.8000E+01
    -25.692  0.0000E+00  0.8000E+01
    -25.540  0.0000E+00  0.8000E+01
    -25.388  0.0000E+00  0.8000E+01
    -25.237  0.0000E+00  0.8000E+01
    -25.085  0.0000E+00  0.8000E+01
    -24.933  0.0000E+00  0.8000E+01
    -24.782  0.0000E+00  0.8000E+01
    -24.630  0.0000E+00  0.8000E+01
    -24.478  0.0000E+00  0.8000E+01
    -24.327  0.0000E+00  0.8000E+01
    -24.175  0.0000E+00  0.8000E+01
    -24.023  0.0000E+00  0.8000E+01
    -23.872  0.0000E+00  0.8000E+01
    -23.720  0.0000E+00  0.8000E+01
    -23.568  0.0000E+00  0.8000E+01
    -23.417  0.0000E+00  0.8000E+01
    -23.265  0.0000E+00  0.8000E+01
    -23.113  0.0000E+00  0.8000E+01
    -22.962  0.0000E+00  0.8000E+01
    -22.810  0.0000E+00  0.8000E+01
    -22.659  0.0000E+00  0.8000E+01
    -22.507  0.0000E+00  0.8000E+01
    -22.355  0.0000E+00  0.8000E+01
    -22.204  0.0000E+00  0.8000E+01
    -22.052  0.0000E+00  0.8000E+01
    -21.900  0.0000E+00  0.8000E+01
    -21.749  0.0000E+00  0.8000E+01
    -21.597  0.0000E+00  0.8000E+01
    -21.445  0.0000E+00  0.8000E+01
    -21.294  0.0000E+00  0.8000E+01
    -21.142  0.0000E+00  0.8000E+01
    -20.990  0.0000E+00  0.8000E+01
    -20.839  0.0000E+00  0.8000E+01
    -20.687  0.0000E+00  0.8000E+01
    -20.535  0.0000E+00  0.8000E+01
    -20.384  0.0000E+00  0.8000E+01
    -20.232  0.0000E+00  0.8000E+01
    -20.080  0.0000E+00  0.8000E+01
    -19.929  0.0000E+00  0.8000E+01
    -19.777  0.0000E+00  0.8000E+01
    -19.625  0.0000E+00  0.8000E+01
    -19.474  0.0000E+00  0.8000E+01
    -19.322  0.0000E+00  0.8000E+01
    -19.170  0.0000E+00  0.8000E+01
    -19.019  0.0000E+00  0.8000E+01
    -18.867  0.0000E+00  0.8000E+01
    -18.715  0.0000E+00  0.8000E+01
    -18.564  0.0000E+00  0.8000E+01
    -18.412  0.0000E+00  0.8000E+01
    -18.260  0.0000E+00  0.8000E+01
    -18.109  0.0000E+00  0.8000E+01
    -17.957  0.0000E+00  0.8000E+01
    -17.805  0.0000E+00  0.8000E+01
    -17.654  0.3807E+01  0.8059E+01
    -17.502  0.1375E+02  0.9413E+01
    -17.350  0.9495E+01  0.1119E+02
    -17.199  0.7384E+01  0.1234E+02
    -17.047  0.3054E+02  0.1327E+02
    -16.895  0.7396E+01  0.1482E+02
    -16.744  0.3615E+01  0.1582E+02
    -16.592  0.4602E+02  0.1898E+02
    -16.440  0.5288E+01  0.2383E+02
    -16.289  0.4606E+01  0.2666E+02
    -16.137  0.1608E+02  0.2886E+02
    -15.985  0.2495E+01  0.2984E+02
    -15.834  0.1245E+01  0.3195E+02
    -15.682  0.2508E+02  0.3426E+02
    -15.530  0.1303E+00  0.3600E+02
    -15.379  0.3961E+00  0.3604E+02
    -15.227  0.1835E+01  0.3627E+02
    -15.075  0.4570E+01  0.3667E+02
    -14.924  0.1201E+02  0.3768E+02
    -14.772  0.2035E+02  0.4145E+02
    -14.620  0.3713E+02  0.4729E+02
    -14.469  0.2190E+02  0.5168E+02
    -14.317  0.1375E+02  0.5577E+02
    -14.165  0.0000E+00  0.5600E+02
    -14.014  0.0000E+00  0.5600E+02
    -13.862  0.0000E+00  0.5600E+02
    -13.710  0.0000E+00  0.5600E+02
    -13.559  0.0000E+00  0.5600E+02
    -13.407  0.0000E+00  0.5600E+02
    -13.255  0.0000E+00  0.5600E+02
    -13.104  0.0000E+00  0.5600E+02
    -12.952  0.0000E+00  0.5600E+02
    -12.800  0.0000E+00  0.5600E+02
    -12.649  0.0000E+00  0.5600E+02
    -12.497  0.0000E+00  0.5600E+02
    -12.345  0.0000E+00  0.5600E+02
    -12.194  0.0000E+00  0.5600E+02
    -12.042  0.0000E+00  0.5600E+02
    -11.890  0.0000E+00  0.5600E+02
    -11.739  0.0000E+00  0.5600E+02
    -11.587  0.0000E+00  0.5600E+02
    -11.435  0.0000E+00  0.5600E+02
    -11.284  0.0000E+00  0.5600E+02
    -11.132  0.0000E+00  0.5600E+02
    -10.980  0.0000E+00  0.5600E+02
    -10.829  0.0000E+00  0.5600E+02
    -10.677  0.0000E+00  0.5600E+02
    -10.525  0.0000E+00  0.5600E+02
    -10.374  0.0000E+00  0.5600E+02
    -10.222  0.0000E+00  0.5600E+02
    -10.070  0.0000E+00  0.5600E+02
     -9.919  0.0000E+00  0.5600E+02
     -9.767  0.0000E+00  0.5600E+02
     -9.615  0.0000E+00  0.5600E+02
     -9.464  0.0000E+00  0.5600E+02
     -9.312  0.0000E+00  0.5600E+02
     -9.160  0.0000E+00  0.5600E+02
     -9.009  0.0000E+00  0.5600E+02
     -8.857  0.0000E+00  0.5600E+02
     -8.705  0.0000E+00  0.5600E+02
     -8.554  0.0000E+00  0.5600E+02
     -8.402  0.0000E+00  0.5600E+02
     -8.250  0.0000E+00  0.5600E+02
     -8.099  0.0000E+00  0.5600E+02
     -7.947  0.0000E+00  0.5600E+02
     -7.795  0.0000E+00  0.5600E+02
     -7.644  0.0000E+00  0.5600E+02
     -7.492  0.0000E+00  0.5600E+02
     -7.340  0.0000E+00  0.5600E+02
     -7.189  0.0000E+00  0.5600E+02
     -7.037  0.0000E+00  0.5600E+02
     -6.885  0.0000E+00  0.5600E+02
     -6.734  0.0000E+00  0.5600E+02
     -6.582  0.0000E+00  0.5600E+02
     -6.430  0.0000E+00  0.5600E+02
     -6.279  0.0000E+00  0.5600E+02
     -6.127  0.0000E+00  0.5600E+02
     -5.975  0.0000E+00  0.5600E+02
     -5.824  0.0000E+00  0.5600E+02
     -5.672  0.0000E+00  0.5600E+02
     -5.520  0.0000E+00  0.5600E+02
     -5.369  0.0000E+00  0.5600E+02
     -5.217  0.0000E+00  0.5600E+02
     -5.065  0.0000E+00  0.5600E+02
     -4.914  0.0000E+00  0.5600E+02
     -4.762  0.0000E+00  0.5600E+02
     -4.610  0.0000E+00  0.5600E+02
     -4.459  0.1389E+02  0.5664E+02
     -4.307  0.1047E+02  0.5887E+02
     -4.155  0.1114E+02  0.6151E+02
     -4.004  0.1462E+02  0.6390E+02
     -3.852  0.1286E+02  0.6622E+02
     -3.700  0.1742E+02  0.6885E+02
     -3.549  0.1486E+02  0.7143E+02
     -3.397  0.1839E+02  0.7427E+02
     -3.245  0.2030E+02  0.7725E+02
     -3.094  0.2267E+02  0.8065E+02
     -2.942  0.1991E+02  0.8413E+02
     -2.790  0.1558E+02  0.8680E+02
     -2.639  0.1489E+02  0.8930E+02
     -2.487  0.1470E+02  0.9162E+02
     -2.335  0.1389E+02  0.9377E+02
     -2.184  0.1247E+02  0.9574E+02
     -2.032  0.1049E+02  0.9748E+02
     -1.880  0.1113E+02  0.9909E+02
     -1.729  0.8383E+01  0.1005E+03
     -1.577  0.1606E+02  0.1024E+03
     -1.425  0.1759E+02  0.1048E+03
     -1.274  0.1647E+02  0.1070E+03
     -1.122  0.2179E+02  0.1099E+03
     -0.970  0.3057E+02  0.1140E+03
     -0.819  0.1399E+02  0.1176E+03
     -0.667  0.1558E+02  0.1203E+03
     -0.515  0.1307E+02  0.1230E+03
     -0.364  0.9840E+01  0.1249E+03
     -0.212  0.1273E+02  0.1267E+03
     -0.060  0.1161E+01  0.1275E+03
      0.091  0.9538E+00  0.1276E+03
      0.243  0.7821E+00  0.1278E+03
      0.395  0.6104E+00  0.1279E+03
      0.546  0.0000E+00  0.1280E+03
      0.698  0.0000E+00  0.1280E+03
      0.850  0.0000E+00  0.1280E+03
      1.001  0.0000E+00  0.1280E+03
      1.153  0.0000E+00  0.1280E+03
      1.305  0.0000E+00  0.1280E+03
      1.456  0.0000E+00  0.1280E+03
      1.608  0.7329E-02  0.1280E+03
      1.760  0.1038E+01  0.1281E+03
      1.911  0.2805E+01  0.1285E+03
      2.063  0.3263E+01  0.1289E+03
      2.215  0.3809E+01  0.1295E+03
      2.366  0.7944E+01  0.1302E+03
      2.518  0.7792E+01  0.1314E+03
      2.669  0.8544E+01  0.1327E+03
      2.821  0.8080E+01  0.1340E+03
      2.973  0.9511E+01  0.1353E+03
      3.124  0.1293E+02  0.1371E+03
      3.276  0.1186E+02  0.1389E+03
      3.428  0.1783E+02  0.1415E+03
      3.579  0.1877E+02  0.1443E+03
      3.731  0.1260E+02  0.1466E+03
      3.883  0.5276E+01  0.1480E+03
      4.034  0.1696E+01  0.1487E+03
      4.186  0.6196E+00  0.1489E+03
      4.338  0.5927E+00  0.1490E+03
      4.489  0.5659E+00  0.1491E+03
      4.641  0.5390E+00  0.1492E+03
      4.793  0.5121E+00  0.1493E+03
      4.944  0.4852E+00  0.1493E+03
      5.096  0.4584E+00  0.1494E+03
      5.248  0.4315E+00  0.1495E+03
      5.399  0.4046E+00  0.1495E+03
      5.551  0.8733E+00  0.1496E+03
      5.703  0.2226E+00  0.1497E+03
      5.854  0.2965E+00  0.1498E+03
      6.006  0.3704E+00  0.1498E+03
      6.158  0.4444E+00  0.1499E+03
      6.309  0.5183E+00  0.1499E+03
      6.461  0.1086E+01  0.1500E+03
      6.613  0.9022E+00  0.1502E+03
      6.764  0.8855E+00  0.1503E+03
      6.916  0.9916E+00  0.1505E+03
      7.068  0.1098E+01  0.1506E+03
      7.219  0.1204E+01  0.1508E+03
      7.371  0.1310E+01  0.1510E+03
      7.523  0.3818E+01  0.1517E+03
      7.674  0.0000E+00  0.1520E+03
      7.826  0.0000E+00  0.1520E+03
      7.978  0.0000E+00  0.1520E+03
      8.129  0.0000E+00  0.1520E+03
      8.281  0.0000E+00  0.1520E+03
      8.433  0.0000E+00  0.1520E+03
      8.584  0.0000E+00  0.1520E+03
      8.736  0.0000E+00  0.1520E+03
      8.888  0.0000E+00  0.1520E+03
      9.039  0.0000E+00  0.1520E+03
      9.191  0.0000E+00  0.1520E+03
      9.343  0.0000E+00  0.1520E+03
      9.494  0.0000E+00  0.1520E+03
      9.646  0.0000E+00  0.1520E+03
