Automatically generated mesh
       6
Reciprocal lattice
    0.00000000000000    0.00000000000000    0.00000000000000             1
    0.20000000000000    0.00000000000000    0.00000000000000             4
    0.40000000000000    0.00000000000000    0.00000000000000             4
    0.20000000000000    0.20000000000000    0.00000000000000             4
    0.40000000000000    0.20000000000000    0.00000000000000             8
    0.40000000000000    0.40000000000000    0.00000000000000             4
Tetrahedra
        31    0.00666666666667
         4         1         1         2         4
         4         1         2         2         4
         4         1         2         4         4
         4         2         2         3         5
         4         2         2         4         5
         4         2         4         4         5
         4         2         3         3         5
         4         2         3         5         5
         4         2         4         5         5
         8         3         3         3         5
         8         3         3         5         5
         8         3         5         5         5
         4         2         3         3         4
         4         3         3         4         5
         4         3         4         5         5
         4         2         2         3         4
         4         2         3         4         4
         4         3         4         4         5
         4         1         2         2         2
         4         2         2         2         4
         2         2         2         4         4
         2         1         1         2         2
         4         4         4         5         6
         4         4         5         5         6
         4         4         5         6         6
        12         5         5         5         6
        10         5         5         6         6
         8         5         6         6         6
         4         4         5         5         5
         2         4         4         5         5
         6         6         6         6         6
