 vasp.5.4.4.18Apr17-6-g9f103f2a35 (build Jun 30 2017 11:15:00) complex          
  
 executed on    STALLO_VASP_5.4.4 date 2019.11.06  14:28:40
 running on    4 total cores
 distrk:  each k-point on    4 cores,    1 groups
 distr:  one band on NCORES_PER_BAND=   2 cores,    2 groups


--------------------------------------------------------------------------------------------------------


 INCAR:
 POTCAR:   PAW_PBE O 08Apr2002                    
 POTCAR:   PAW_PBE Sr_sv 07Sep2000                
 POTCAR:   PAW_PBE Ti 08Apr2002                   
 POTCAR:   PAW_PBE O 08Apr2002                    
   VRHFIN =O: s2p4                                                              
   LEXCH  = PE                                                                  
   EATOM  =   432.3788 eV,   31.7789 Ry                                         
                                                                                
   TITEL  = PAW_PBE O 08Apr2002                                                 
   LULTRA =        F    use ultrasoft PP ?                                      
   IUNSCR =        0    unscreen: 0-lin 1-nonlin 2-no                           
   RPACOR =     .000    partial core radius                                     
   POMASS =   16.000; ZVAL   =    6.000    mass and valenz                      
   RCORE  =    1.520    outmost cutoff radius                                   
   RWIGS  =    1.550; RWIGS  =     .820    wigner-seitz radius (au A)           
   ENMAX  =  400.000; ENMIN  =  300.000 eV                                      
   ICORE  =        2    local potential                                         
   LCOR   =        T    correct aug charges                                     
   LPAW   =        T    paw PP                                                  
   EAUG   =  605.392                                                            
   DEXC   =     .000                                                            
   RMAX   =    2.264    core radius for proj-oper                               
   RAUG   =    1.300    factor for augmentation sphere                          
   RDEP   =    1.550    radius for radial grids                                 
   QCUT   =   -5.520; QGAM   =   11.041    optimization parameters              
                                                                                
   Description                                                                  
     l     E      TYP  RCUT    TYP  RCUT                                        
     0   .000     23  1.200                                                     
     0  -.700     23  1.200                                                     
     1   .000     23  1.520                                                     
     1   .600     23  1.520                                                     
     2   .000      7  1.500                                                     
  local pseudopotential read in
  atomic valenz-charges read in
  non local Contribution for L=           0  read in
    real space projection operators read in
  non local Contribution for L=           0  read in
    real space projection operators read in
  non local Contribution for L=           1  read in
    real space projection operators read in
  non local Contribution for L=           1  read in
    real space projection operators read in
    PAW grid and wavefunctions read in
 
   number of l-projection  operators is LMAX  =           4
   number of lm-projection operators is LMMAX =           8
 
 POTCAR:   PAW_PBE Sr_sv 07Sep2000                
   VRHFIN =Sr: 4s4p5s                                                           
   LEXCH  = PE                                                                  
   EATOM  =   842.4562 eV,   61.9188 Ry                                         
                                                                                
   TITEL  = PAW_PBE Sr_sv 07Sep2000                                             
   LULTRA =        F    use ultrasoft PP ?                                      
   IUNSCR =        1    unscreen: 0-lin 1-nonlin 2-no                           
   RPACOR =    2.200    partial core radius                                     
   POMASS =   87.620; ZVAL   =   10.000    mass and valenz                      
   RCORE  =    2.500    outmost cutoff radius                                   
   RWIGS  =    4.040; RWIGS  =    2.138    wigner-seitz radius (au A)           
   ENMAX  =  229.282; ENMIN  =  171.961 eV                                      
   RCLOC  =    2.201    cutoff for local pot                                    
   LCOR   =        T    correct aug charges                                     
   LPAW   =        T    paw PP                                                  
   EAUG   =  366.804                                                            
   DEXC   =     .000                                                            
   RMAX   =    3.045    core radius for proj-oper                               
   RAUG   =    1.300    factor for augmentation sphere                          
   RDEP   =    2.562    radius for radial grids                                 
   QCUT   =   -4.105; QGAM   =    8.210    optimization parameters              
                                                                                
   Description                                                                  
     l     E      TYP  RCUT    TYP  RCUT                                        
     0   .000     23  2.480                                                     
     0   .000     23  2.480                                                     
     1   .000     23  2.500                                                     
     1   .000     23  2.500                                                     
     2   .000     23  2.500                                                     
     2   .000     23  2.500                                                     
  local pseudopotential read in
  partial core-charges read in
  atomic valenz-charges read in
  non local Contribution for L=           0  read in
    real space projection operators read in
  non local Contribution for L=           0  read in
    real space projection operators read in
  non local Contribution for L=           1  read in
    real space projection operators read in
  non local Contribution for L=           1  read in
    real space projection operators read in
  non local Contribution for L=           2  read in
    real space projection operators read in
  non local Contribution for L=           2  read in
    real space projection operators read in
    PAW grid and wavefunctions read in
 
   number of l-projection  operators is LMAX  =           6
   number of lm-projection operators is LMMAX =          18
 
 POTCAR:   PAW_PBE Ti 08Apr2002                   
   VRHFIN =Ti: d3 s1                                                            
   LEXCH  = PE                                                                  
   EATOM  =    94.7929 eV,    6.9671 Ry                                         
                                                                                
   TITEL  = PAW_PBE Ti 08Apr2002                                                
   LULTRA =        F    use ultrasoft PP ?                                      
   IUNSCR =        1    unscreen: 0-lin 1-nonlin 2-no                           
   RPACOR =    2.200    partial core radius                                     
   POMASS =   47.880; ZVAL   =    4.000    mass and valenz                      
   RCORE  =    2.800    outmost cutoff radius                                   
   RWIGS  =    2.500; RWIGS  =    1.323    wigner-seitz radius (au A)           
   ENMAX  =  178.330; ENMIN  =  133.747 eV                                      
   RCLOC  =    2.215    cutoff for local pot                                    
   LCOR   =        T    correct aug charges                                     
   LPAW   =        T    paw PP                                                  
   EAUG   =  328.883                                                            
   DEXC   =    -.043                                                            
   RMAX   =    3.453    core radius for proj-oper                               
   RAUG   =    1.300    factor for augmentation sphere                          
   RDEP   =    2.885    radius for radial grids                                 
   QCUT   =   -3.620; QGAM   =    7.241    optimization parameters              
                                                                                
   Description                                                                  
     l     E      TYP  RCUT    TYP  RCUT                                        
     2   .000     23  2.800                                                     
     2   .000     23  2.800                                                     
     0   .000     23  2.800                                                     
     0  1.500     23  2.800                                                     
     1  -.400     23  2.800                                                     
     3   .000      7   .000                                                     
  local pseudopotential read in
  partial core-charges read in
  atomic valenz-charges read in
  non local Contribution for L=           2  read in
    real space projection operators read in
  non local Contribution for L=           2  read in
    real space projection operators read in
  non local Contribution for L=           0  read in
    real space projection operators read in
  non local Contribution for L=           0  read in
    real space projection operators read in
  non local Contribution for L=           1  read in
    real space projection operators read in
    PAW grid and wavefunctions read in
 
   number of l-projection  operators is LMAX  =           5
   number of lm-projection operators is LMMAX =          15
 

 ----------------------------------------------------------------------------- 
|                                                                             |
|  ADVICE TO THIS USER RUNNING 'VASP/VAMP'   (HEAR YOUR MASTER'S VOICE ...):  |
|                                                                             |
|      You have a (more or less) 'large supercell' and for larger cells       |
|      it might be more efficient to use real space projection operators      |
|      So try LREAL= Auto  in the INCAR   file.                               |
|      Mind: If you want to do a very accurate calculations keep the          |
|      reciprocal projection scheme          (i.e. LREAL=.FALSE.)             |
|                                                                             |
 ----------------------------------------------------------------------------- 

 PAW_PBE O 08Apr2002                    :
 energy of atom  1       EATOM= -432.3788
 kinetic energy error for atom=    0.0224 (will be added to EATOM!!)
 PAW_PBE Sr_sv 07Sep2000                :
 energy of atom  2       EATOM= -842.4562
 kinetic energy error for atom=    0.0012 (will be added to EATOM!!)
 PAW_PBE Ti 08Apr2002                   :
 energy of atom  3       EATOM=  -94.7929
 kinetic energy error for atom=    0.0002 (will be added to EATOM!!)
 
 
 POSCAR:  O Sr Ti                                
  positions in direct lattice
  No initial velocities read in
 exchange correlation table for  LEXCH =        8
   RHO(1)=    0.500       N(1)  =     2000
   RHO(2)=  100.500       N(2)  =     4000
 


--------------------------------------------------------------------------------------------------------


 ion  position               nearest neighbor table
   1  0.500  0.500  0.234-  17 1.95  13 2.76  13 2.76  13 2.76  13 2.76
   2  0.500  0.000  0.310-  17 1.95  17 1.95  13 2.76  14 2.76  13 2.76  14 2.76
   3  0.000  0.500  0.310-  17 1.95  17 1.95  13 2.76  13 2.76  14 2.76  14 2.76
   4  0.500  0.500  0.386-  17 1.95  18 1.95  14 2.76  14 2.76  14 2.76  14 2.76
   5  0.500  0.000  0.462-  18 1.95  18 1.95  15 2.76  15 2.76  14 2.76  14 2.76
   6  0.000  0.500  0.462-  18 1.95  18 1.95  15 2.76  15 2.76  14 2.76  14 2.76
   7  0.500  0.500  0.538-  18 1.95  19 1.95  15 2.76  15 2.76  15 2.76  15 2.76
   8  0.500  0.000  0.614-  19 1.95  19 1.95  16 2.76  16 2.76  15 2.76  15 2.76
   9  0.000  0.500  0.614-  19 1.95  19 1.95  16 2.76  16 2.76  15 2.76  15 2.76
  10  0.500  0.500  0.690-  19 1.95  20 1.95  16 2.76  16 2.76  16 2.76  16 2.76
  11  0.500  0.000  0.766-  20 1.95  20 1.95  16 2.76  16 2.76
  12  0.000  0.500  0.766-  20 1.95  20 1.95  16 2.76  16 2.76
  13  0.000  0.000  0.234-   2 2.76   3 2.76   3 2.76   2 2.76   1 2.76   1 2.76   1 2.76   1 2.76
                            17 3.38  17 3.38  17 3.38  17 3.38  14 3.91
  14  0.000  0.000  0.386-   2 2.76   3 2.76   3 2.76   2 2.76   4 2.76   4 2.76   4 2.76   4 2.76
                             5 2.76   6 2.76   5 2.76   6 2.76  17 3.38  17 3.38  17 3.38  17 3.38
  15  0.000  0.000  0.538-   5 2.76   6 2.76   6 2.76   5 2.76   7 2.76   7 2.76   7 2.76   7 2.76
                             8 2.76   9 2.76   8 2.76   9 2.76  18 3.38  18 3.38  18 3.38  18 3.38
  16  0.000  0.000  0.690-   8 2.76   9 2.76  11 2.76  12 2.76   9 2.76  12 2.76   8 2.76  11 2.76
                            10 2.76  10 2.76  10 2.76  10 2.76  20 3.38  19 3.38  19 3.38  19 3.38
  17  0.500  0.500  0.310-   1 1.95   4 1.95   3 1.95   2 1.95   2 1.95   3 1.95  13 3.38  13 3.38
                            14 3.38  14 3.38  13 3.38  14 3.38  13 3.38  14 3.38
  18  0.500  0.500  0.462-   7 1.95   6 1.95   5 1.95   5 1.95   6 1.95   4 1.95  15 3.38  15 3.38
                            15 3.38  15 3.38  14 3.38  14 3.38  14 3.38  14 3.38
  19  0.500  0.500  0.614-  10 1.95   9 1.95   8 1.95   8 1.95   9 1.95   7 1.95  16 3.38  16 3.38
                            16 3.38  16 3.38  15 3.38  15 3.38  15 3.38  15 3.38
  20  0.500  0.500  0.766-  10 1.95  11 1.95  12 1.95  11 1.95  12 1.95  16 3.38  16 3.38  16 3.38
                            16 3.38
 
  LATTYP: Found a simple tetragonal cell.
 ALAT       =     3.9052680000
 C/A-ratio  =     6.5727724704
  
  Lattice vectors:
  
 A1 = (   3.9052680000,   0.0000000000,   0.0000000000)
 A2 = (   0.0000000000,   3.9052680000,   0.0000000000)
 A3 = (   0.0000000000,   0.0000000000,  25.6684380000)


Analysis of symmetry for initial positions (statically):
=====================================================================
 Subroutine PRICEL returns:
 Original cell was already a primitive cell.
 

 Routine SETGRP: Setting up the symmetry group for a 
 simple tetragonal supercell.


 Subroutine GETGRP returns: Found  8 space group operations
 (whereof  8 operations were pure point group operations)
 out of a pool of 16 trial point group operations.


The static configuration has the point symmetry C_4v.


Analysis of symmetry for dynamics (positions and initial velocities):
=====================================================================
 Subroutine PRICEL returns:
 Original cell was already a primitive cell.
 

 Routine SETGRP: Setting up the symmetry group for a 
 simple tetragonal supercell.


 Subroutine GETGRP returns: Found  8 space group operations
 (whereof  8 operations were pure point group operations)
 out of a pool of 16 trial point group operations.


The dynamic configuration has the point symmetry C_4v.


 Subroutine INISYM returns: Found  8 space group operations
 (whereof  8 operations are pure point group operations),
 and found     1 'primitive' translations

 
 
 KPOINTS: k-density: 3.0                          

Automatic generation of k-mesh.
Space group operators:
 irot       det(A)        alpha          n_x          n_y          n_z        tau_x        tau_y        tau_z
    1     1.000000     0.000000     1.000000     0.000000     0.000000     0.000000     0.000000     0.000000
    2     1.000000    90.000000     0.000000     0.000000    -1.000000     0.000000     0.000000     0.000000
    3     1.000000   180.000000     0.000000     0.000000     1.000000     0.000000     0.000000     0.000000
    4     1.000000    90.000000     0.000000     0.000000     1.000000     0.000000     0.000000     0.000000
    5    -1.000000   180.000000     0.000000     1.000000     0.000000     0.000000     0.000000     0.000000
    6    -1.000000   180.000000     0.707107     0.707107     0.000000     0.000000     0.000000     0.000000
    7    -1.000000   180.000000     1.000000     0.000000     0.000000     0.000000     0.000000     0.000000
    8    -1.000000   180.000000     0.707107    -0.707107     0.000000     0.000000     0.000000     0.000000
 
 Subroutine IBZKPT returns following result:
 ===========================================
 
 Found      6 irreducible k-points:
 
 Following reciprocal coordinates:
            Coordinates               Weight
  0.000000  0.000000  0.000000      1.000000
  0.200000  0.000000  0.000000      4.000000
  0.400000  0.000000  0.000000      4.000000
  0.200000  0.200000  0.000000      4.000000
  0.400000  0.200000  0.000000      8.000000
  0.400000  0.400000  0.000000      4.000000
 
 Following cartesian coordinates:
            Coordinates               Weight
  0.000000  0.000000  0.000000      1.000000
  0.051213  0.000000  0.000000      4.000000
  0.102426  0.000000  0.000000      4.000000
  0.051213  0.051213  0.000000      4.000000
  0.102426  0.051213  0.000000      8.000000
  0.102426  0.102426  0.000000      4.000000
 
 TETIRR: Found     31 inequivalent tetrahedra from      150


--------------------------------------------------------------------------------------------------------




 Dimension of arrays:
   k-points           NKPTS =      6   k-points in BZ     NKDIM =      6   number of bands    NBANDS=     76
   number of dos      NEDOS =    301   number of ions     NIONS =     20
   non local maximal  LDIM  =      6   non local SUM 2l+1 LMDIM =     18
   total plane-waves  NPLWV =  80640
   max r-space proj   IRMAX =      1   max aug-charges    IRDMAX=  14425
   dimension x,y,z NGX =    24 NGY =   24 NGZ =  140
   dimension x,y,z NGXF=    48 NGYF=   48 NGZF=  280
   support grid    NGXF=    48 NGYF=   48 NGZF=  280
   ions per type =              12   4   4
   NGX,Y,Z   is equivalent  to a cutoff of  10.22, 10.22,  9.07 a.u.
   NGXF,Y,Z  is equivalent  to a cutoff of  20.43, 20.43, 18.13 a.u.

 SYSTEM =  unknown system                          
 POSCAR =   O Sr Ti                                

 Startparameter for this run:
   NWRITE =      2    write-flag & timer
   PREC   = normal    normal or accurate (medium, high low for compatibility)
   ISTART =      0    job   : 0-new  1-cont  2-samecut
   ICHARG =      2    charge: 1-file 2-atom 10-const
   ISPIN  =      1    spin polarized calculation?
   LNONCOLLINEAR =      F non collinear calculations
   LSORBIT =      F    spin-orbit coupling
   INIWAV =      1    electr: 0-lowe 1-rand  2-diag
   LASPH  =      F    aspherical Exc in radial PAW
   METAGGA=      F    non-selfconsistent MetaGGA calc.

 Electronic Relaxation 1
   ENCUT  =  500.0 eV  36.75 Ry    6.06 a.u.   7.12  7.12 46.80*2*pi/ulx,y,z
   ENINI  =  500.0     initial cutoff
   ENAUG  =  605.4 eV  augmentation charge cutoff
   NELM   =     60;   NELMIN=  4; NELMDL= -5     # of ELM steps 
   EDIFF  = 0.1E-04   stopping-criterion for ELM
   LREAL  =      F    real-space projection
   NLSPLINE    = F    spline interpolate recip. space projectors
   LCOMPAT=      F    compatible to vasp.4.4
   GGA_COMPAT  = T    GGA compatible to vasp.4.4-vasp.4.6
   LMAXPAW     = -100 max onsite density
   LMAXMIX     =    2 max onsite mixed and CHGCAR
   VOSKOWN=      0    Vosko Wilk Nusair interpolation
   ROPT   =    0.00000   0.00000   0.00000
 Ionic relaxation
   EDIFFG = 0.1E-03   stopping-criterion for IOM
   NSW    =      0    number of steps for IOM
   NBLOCK =      1;   KBLOCK =      1    inner block; outer block 
   IBRION =     -1    ionic relax: 0-MD 1-quasi-New 2-CG
   NFREE  =      0    steps in history (QN), initial steepest desc. (CG)
   ISIF   =      2    stress and relaxation
   IWAVPR =     10    prediction:  0-non 1-charg 2-wave 3-comb
   ISYM   =      2    0-nonsym 1-usesym 2-fastsym
   LCORR  =      T    Harris-Foulkes like correction to forces

   POTIM  = 0.5000    time-step for ionic-motion
   TEIN   =    0.0    initial temperature
   TEBEG  =    0.0;   TEEND  =   0.0 temperature during run
   SMASS  =  -3.00    Nose mass-parameter (am)
   estimated Nose-frequenzy (Omega)   =  0.10E-29 period in steps =****** mass=  -0.349E-27a.u.
   SCALEE = 1.0000    scale energy and forces
   NPACO  =    256;   APACO  = 16.0  distance and # of slots for P.C.
   PSTRESS=    0.0 pullay stress

  Mass of Ions in am
   POMASS =  16.00 87.62 47.88
  Ionic Valenz
   ZVAL   =   6.00 10.00  4.00
  Atomic Wigner-Seitz radii
   RWIGS  =  -1.00 -1.00 -1.00
  virtual crystal weights 
   VCA    =   1.00  1.00  1.00
   NELECT =     128.0000    total number of electrons
   NUPDOWN=      -1.0000    fix difference up-down

 DOS related values:
   EMIN   =  10.00;   EMAX   =-10.00  energy-range for DOS
   EFERMI =   0.00
   ISMEAR =    -5;   SIGMA  =   0.20  broadening in eV -4-tet -1-fermi 0-gaus

 Electronic relaxation 2 (details)
   IALGO  =     68    algorithm
   LDIAG  =      T    sub-space diagonalisation (order eigenvalues)
   LSUBROT=      F    optimize rotation matrix (better conditioning)
   TURBO    =      0    0=normal 1=particle mesh
   IRESTART =      0    0=no restart 2=restart with 2 vectors
   NREBOOT  =      0    no. of reboots
   NMIN     =      0    reboot dimension
   EREF     =   0.00    reference energy to select bands
   IMIX   =      4    mixing-type and parameters
     AMIX     =   0.40;   BMIX     =  1.00
     AMIX_MAG =   1.60;   BMIX_MAG =  1.00
     AMIN     =   0.10
     WC   =   100.;   INIMIX=   1;  MIXPRE=   1;  MAXMIX= -45

 Intra band minimization:
   WEIMIN = 0.0000     energy-eigenvalue tresh-hold
   EBREAK =  0.33E-07  absolut break condition
   DEPER  =   0.30     relativ break condition  

   TIME   =   0.40     timestep for ELM

  volume/ion in A,a.u.               =      19.57       132.09
  Fermi-wavevector in a.u.,A,eV,Ry     =   1.127832  2.131294 17.306682  1.272005
  Thomas-Fermi vector in A             =   2.264520
 
 Write flags
   LWAVE        =      F    write WAVECAR
   LDOWNSAMPLE  =      F    k-point downsampling of WAVECAR
   LCHARG       =      T    write CHGCAR
   LVTOT        =      F    write LOCPOT, total local potential
   LVHAR        =      F    write LOCPOT, Hartree potential only
   LELF         =      F    write electronic localiz. function (ELF)
   LORBIT       =      0    0 simple, 1 ext, 2 COOP (PROOUT), +10 PAW based schemes


 Dipole corrections
   LMONO  =      F    monopole corrections only (constant potential shift)
   LDIPOL =      F    correct potential (dipole corrections)
   IDIPOL =      0    1-x, 2-y, 3-z, 4-all directions 
   EPSILON=  1.0000000 bulk dielectric constant

 Exchange correlation treatment:
   GGA     =    --    GGA type
   LEXCH   =     8    internal setting for exchange type
   VOSKOWN=      0    Vosko Wilk Nusair interpolation
   LHFCALC =     F    Hartree Fock is set to
   LHFONE  =     F    Hartree Fock one center treatment
   AEXX    =    0.0000 exact exchange contribution

 Linear response parameters
   LEPSILON=     F    determine dielectric tensor
   LRPA    =     F    only Hartree local field effects (RPA)
   LNABLA  =     F    use nabla operator in PAW spheres
   LVEL    =     F    velocity operator in full k-point grid
   LINTERFAST=   F  fast interpolation
   KINTER  =     0    interpolate to denser k-point grid
   CSHIFT  =0.1000    complex shift for real part using Kramers Kronig
   OMEGAMAX=  -1.0    maximum frequency
   DEG_THRESHOLD= 0.2000000E-02 threshold for treating states as degnerate
   RTIME   =   -0.100 relaxation time in fs
  (WPLASMAI=    0.000 imaginary part of plasma frequency in eV, 0.658/RTIME)
   DFIELD  = 0.0000000 0.0000000 0.0000000 field for delta impulse in time
 
 Orbital magnetization related:
   ORBITALMAG=     F  switch on orbital magnetization
   LCHIMAG   =     F  perturbation theory with respect to B field
   DQ        =  0.001000  dq finite difference perturbation B field
   LLRAUG    =     F  two centre corrections for induced B field



--------------------------------------------------------------------------------------------------------


 Static calculation
 charge density and potential will be updated during run
 non-spin polarized calculation
 RMM-DIIS sequential band-by-band and
  variant of blocked Davidson during initial phase
 perform sub-space diagonalisation
    before iterative eigenvector-optimisation
 modified Broyden-mixing scheme, WC =      100.0
 initial mixing is a Kerker type mixing with AMIX =  0.4000 and BMIX =      1.0000
 Hartree-type preconditioning will be used
 using additional bands           12
 reciprocal scheme for non local part
 use partial core corrections
 calculate Harris-corrections to forces 
   (improved forces if not selfconsistent)
 use gradient corrections 
 use of overlap-Matrix (Vanderbilt PP)
 Fermi weights with tetrahedron method with Bloechl corrections


--------------------------------------------------------------------------------------------------------


  energy-cutoff  :      500.00
  volume of cell :      391.47
      direct lattice vectors                 reciprocal lattice vectors
     3.905268000  0.000000000  0.000000000     0.256064373  0.000000000  0.000000000
     0.000000000  3.905268000  0.000000000     0.000000000  0.256064373  0.000000000
     0.000000000  0.000000000 25.668438000     0.000000000  0.000000000  0.038958350

  length of vectors
     3.905268000  3.905268000 25.668438000     0.256064373  0.256064373  0.038958350


 
 k-points in units of 2pi/SCALE and weight: k-density: 3.0                          
   0.00000000  0.00000000  0.00000000       0.040
   0.05121287  0.00000000  0.00000000       0.160
   0.10242575  0.00000000  0.00000000       0.160
   0.05121287  0.05121287  0.00000000       0.160
   0.10242575  0.05121287  0.00000000       0.320
   0.10242575  0.10242575  0.00000000       0.160
 
 k-points in reciprocal lattice and weights: k-density: 3.0                          
   0.00000000  0.00000000  0.00000000       0.040
   0.20000000  0.00000000  0.00000000       0.160
   0.40000000  0.00000000  0.00000000       0.160
   0.20000000  0.20000000  0.00000000       0.160
   0.40000000  0.20000000  0.00000000       0.320
   0.40000000  0.40000000  0.00000000       0.160
 
 position of ions in fractional coordinates (direct lattice) 
   0.50000000  0.50000000  0.23375010
   0.50000000  0.00000000  0.30982150
   0.00000000  0.50000000  0.30982150
   0.50000000  0.50000000  0.38589290
   0.50000000  0.00000000  0.46196430
   0.00000000  0.50000000  0.46196430
   0.50000000  0.50000000  0.53803570
   0.50000000  0.00000000  0.61410710
   0.00000000  0.50000000  0.61410710
   0.50000000  0.50000000  0.69017850
   0.50000000  0.00000000  0.76624990
   0.00000000  0.50000000  0.76624990
   0.00000000  0.00000000  0.23375010
   0.00000000  0.00000000  0.38589290
   0.00000000  0.00000000  0.53803570
   0.00000000  0.00000000  0.69017850
   0.50000000  0.50000000  0.30982150
   0.50000000  0.50000000  0.46196430
   0.50000000  0.50000000  0.61410710
   0.50000000  0.50000000  0.76624990
 
 position of ions in cartesian coordinates  (Angst):
   1.95263400  1.95263400  6.00000000
   1.95263400  0.00000000  7.95263400
   0.00000000  1.95263400  7.95263400
   1.95263400  1.95263400  9.90526800
   1.95263400  0.00000000 11.85790200
   0.00000000  1.95263400 11.85790200
   1.95263400  1.95263400 13.81053600
   1.95263400  0.00000000 15.76317000
   0.00000000  1.95263400 15.76317000
   1.95263400  1.95263400 17.71580400
   1.95263400  0.00000000 19.66843800
   0.00000000  1.95263400 19.66843800
   0.00000000  0.00000000  6.00000000
   0.00000000  0.00000000  9.90526800
   0.00000000  0.00000000 13.81053600
   0.00000000  0.00000000 17.71580400
   1.95263400  1.95263400  7.95263400
   1.95263400  1.95263400 11.85790200
   1.95263400  1.95263400 15.76317000
   1.95263400  1.95263400 19.66843800
 


--------------------------------------------------------------------------------------------------------


 k-point  1 :   0.0000 0.0000 0.0000  plane waves:    9877
 k-point  2 :   0.2000 0.0000 0.0000  plane waves:    9924
 k-point  3 :   0.4000 0.0000 0.0000  plane waves:    9972
 k-point  4 :   0.2000 0.2000 0.0000  plane waves:    9912
 k-point  5 :   0.4000 0.2000 0.0000  plane waves:    9948
 k-point  6 :   0.4000 0.4000 0.0000  plane waves:    9968

 maximum and minimum number of plane-waves per node :      5005     4919

 maximum number of plane-waves:      9972
 maximum index in each direction: 
   IXMAX=    7   IYMAX=    7   IZMAX=   46
   IXMIN=   -7   IYMIN=   -7   IZMIN=  -46


 parallel 3D FFT for wavefunctions:
    minimum data exchange during FFTs selected (reduces bandwidth)
 parallel 3D FFT for charge:
    minimum data exchange during FFTs selected (reduces bandwidth)


 total amount of memory used by VASP MPI-rank0    81940. kBytes
=======================================================================

   base      :      30000. kBytes
   nonl-proj :      14519. kBytes
   fftplans  :       6668. kBytes
   grid      :      11994. kBytes
   one-center:        155. kBytes
   wavefun   :      18604. kBytes
 
     INWAV:  cpu time    0.0010: real time    0.0004
 Broyden mixing: mesh for mixing (old mesh)
   NGX = 15   NGY = 15   NGZ = 93
  (NGX  = 48   NGY  = 48   NGZ  =280)
  gives a total of  20925 points

 initial charge density was supplied:
 charge density of overlapping atoms calculated
 number of electron     128.0000000 magnetization 
 keeping initial charge density in first step


--------------------------------------------------------------------------------------------------------


 Maximum index for augmentation-charges         3446 (set IRDMAX)


--------------------------------------------------------------------------------------------------------


 First call to EWALD:  gamma=   0.242
 Maximum number of real-space cells 5x 5x 1
 Maximum number of reciprocal cells 2x 2x 8

    FEWALD:  cpu time    0.0020: real time    0.0019


--------------------------------------- Iteration      1(   1)  ---------------------------------------


    POTLOK:  cpu time    0.0970: real time    0.3385
    SETDIJ:  cpu time    0.0120: real time    0.0124
     EDDAV:  cpu time    2.7306: real time    2.7348
 BZINTS: Fermi energy: 15.476851;128.000000 electrons
         Band energy: 162.542904;  BLOECHL correction: -0.103356
       DOS:  cpu time    0.0030: real time    0.0032
    --------------------------------------------
      LOOP:  cpu time    2.8426: real time    3.0889

 eigenvalue-minimisations  :   912
 total energy-change (2. order) : 0.1621891E+04  (-0.5623854E+04)
 number of electron     128.0000000 magnetization 
 augmentation part      128.0000000 magnetization 

 Free energy of the ion-electron system (eV)
  ---------------------------------------------------
  alpha Z        PSCENC =       451.31605171
  Ewald energy   TEWEN  =     24913.70541863
  -Hartree energ DENC   =    -33364.93616084
  -exchange      EXHF   =         0.00000000
  -V(xc)+E(xc)   XCENC  =       326.68052994
  PAW double counting   =      5334.45189010    -5139.13784255
  entropy T*S    EENTRO =         0.00000000
  eigenvalues    EBANDS =       162.54290385
  atomic energy  EATOM  =      8937.26825017
  Solvation  Ediel_sol  =         0.00000000
  ---------------------------------------------------
  free energy    TOTEN  =      1621.89104102 eV

  energy without entropy =     1621.89104102  energy(sigma->0) =     1621.89104102


--------------------------------------------------------------------------------------------------------




--------------------------------------- Iteration      1(   2)  ---------------------------------------


     EDDAV:  cpu time    3.0795: real time    3.0850
 BZINTS: Fermi energy:  4.976745;127.996090 electrons
         Band energy:***********;  BLOECHL correction: -0.107331
       DOS:  cpu time    0.0040: real time    0.0042
    --------------------------------------------
      LOOP:  cpu time    3.0835: real time    3.0892

 eigenvalue-minimisations  :  1072
 total energy-change (2. order) :-0.1435916E+04  (-0.1378192E+04)
 number of electron     128.0000000 magnetization 
 augmentation part      128.0000000 magnetization 

 Free energy of the ion-electron system (eV)
  ---------------------------------------------------
  alpha Z        PSCENC =       451.31605171
  Ewald energy   TEWEN  =     24913.70541863
  -Hartree energ DENC   =    -33364.93616084
  -exchange      EXHF   =         0.00000000
  -V(xc)+E(xc)   XCENC  =       326.68052994
  PAW double counting   =      5334.45189010    -5139.13784255
  entropy T*S    EENTRO =         0.00000000
  eigenvalues    EBANDS =     -1273.37275045
  atomic energy  EATOM  =      8937.26825017
  Solvation  Ediel_sol  =         0.00000000
  ---------------------------------------------------
  free energy    TOTEN  =       185.97538671 eV

  energy without entropy =      185.97538671  energy(sigma->0) =      185.97538671


--------------------------------------------------------------------------------------------------------




--------------------------------------- Iteration      1(   3)  ---------------------------------------


     EDDAV:  cpu time    3.4745: real time    3.4789
 BZINTS: Fermi energy: -2.321133;128.000000 electrons
         Band energy:***********;  BLOECHL correction:  0.000000
       DOS:  cpu time    0.0010: real time    0.0008
    --------------------------------------------
      LOOP:  cpu time    3.4755: real time    3.4798

 eigenvalue-minimisations  :  1248
 total energy-change (2. order) :-0.3602306E+03  (-0.3510949E+03)
 number of electron     128.0000000 magnetization 
 augmentation part      128.0000000 magnetization 

 Free energy of the ion-electron system (eV)
  ---------------------------------------------------
  alpha Z        PSCENC =       451.31605171
  Ewald energy   TEWEN  =     24913.70541863
  -Hartree energ DENC   =    -33364.93616084
  -exchange      EXHF   =         0.00000000
  -V(xc)+E(xc)   XCENC  =       326.68052994
  PAW double counting   =      5334.45189010    -5139.13784255
  entropy T*S    EENTRO =         0.00000000
  eigenvalues    EBANDS =     -1633.60336743
  atomic energy  EATOM  =      8937.26825017
  Solvation  Ediel_sol  =         0.00000000
  ---------------------------------------------------
  free energy    TOTEN  =      -174.25523027 eV

  energy without entropy =     -174.25523027  energy(sigma->0) =     -174.25523027


--------------------------------------------------------------------------------------------------------




--------------------------------------- Iteration      1(   4)  ---------------------------------------


     EDDAV:  cpu time    3.2945: real time    3.2992
 BZINTS: Fermi energy: -4.249070;128.000000 electrons
         Band energy:***********;  BLOECHL correction:  0.000000
       DOS:  cpu time    0.0000: real time    0.0006
    --------------------------------------------
      LOOP:  cpu time    3.2945: real time    3.2998

 eigenvalue-minimisations  :  1168
 total energy-change (2. order) :-0.2593328E+02  (-0.2582526E+02)
 number of electron     128.0000000 magnetization 
 augmentation part      128.0000000 magnetization 

 Free energy of the ion-electron system (eV)
  ---------------------------------------------------
  alpha Z        PSCENC =       451.31605171
  Ewald energy   TEWEN  =     24913.70541863
  -Hartree energ DENC   =    -33364.93616084
  -exchange      EXHF   =         0.00000000
  -V(xc)+E(xc)   XCENC  =       326.68052994
  PAW double counting   =      5334.45189010    -5139.13784255
  entropy T*S    EENTRO =         0.00000000
  eigenvalues    EBANDS =     -1659.53664694
  atomic energy  EATOM  =      8937.26825017
  Solvation  Ediel_sol  =         0.00000000
  ---------------------------------------------------
  free energy    TOTEN  =      -200.18850977 eV

  energy without entropy =     -200.18850977  energy(sigma->0) =     -200.18850977


--------------------------------------------------------------------------------------------------------




--------------------------------------- Iteration      1(   5)  ---------------------------------------


     EDDAV:  cpu time    4.1514: real time    4.1538
 BZINTS: Fermi energy: -4.261517;128.000000 electrons
         Band energy:***********;  BLOECHL correction:  0.000000
       DOS:  cpu time    0.0000: real time    0.0006
    CHARGE:  cpu time    0.1160: real time    0.1161
    MIXING:  cpu time    0.0030: real time    0.0029
    --------------------------------------------
      LOOP:  cpu time    4.2704: real time    4.2735

 eigenvalue-minimisations  :  1552
 total energy-change (2. order) :-0.1564916E+01  (-0.1564089E+01)
 number of electron     127.9999793 magnetization 
 augmentation part       13.6844673 magnetization 

 Broyden mixing:
  rms(total) = 0.37120E+01    rms(broyden)= 0.37115E+01
  rms(prec ) = 0.39623E+01
  weight for this iteration     100.00

 Free energy of the ion-electron system (eV)
  ---------------------------------------------------
  alpha Z        PSCENC =       451.31605171
  Ewald energy   TEWEN  =     24913.70541863
  -Hartree energ DENC   =    -33364.93616084
  -exchange      EXHF   =         0.00000000
  -V(xc)+E(xc)   XCENC  =       326.68052994
  PAW double counting   =      5334.45189010    -5139.13784255
  entropy T*S    EENTRO =         0.00000000
  eigenvalues    EBANDS =     -1661.10156292
  atomic energy  EATOM  =      8937.26825017
  Solvation  Ediel_sol  =         0.00000000
  ---------------------------------------------------
  free energy    TOTEN  =      -201.75342576 eV

  energy without entropy =     -201.75342576  energy(sigma->0) =     -201.75342576


--------------------------------------------------------------------------------------------------------




--------------------------------------- Iteration      1(   6)  ---------------------------------------


    POTLOK:  cpu time    0.0920: real time    0.0948
    SETDIJ:  cpu time    0.0120: real time    0.0114
    EDDIAG:  cpu time    0.3180: real time    0.3192
  RMM-DIIS:  cpu time    2.1507: real time    2.1502
    ORTHCH:  cpu time    0.0670: real time    0.0673
 BZINTS: Fermi energy: -0.068099;128.000000 electrons
         Band energy:***********;  BLOECHL correction: -0.071629
       DOS:  cpu time    0.0030: real time    0.0028
    CHARGE:  cpu time    0.1200: real time    0.1203
    MIXING:  cpu time    0.0030: real time    0.0026
    --------------------------------------------
      LOOP:  cpu time    2.7656: real time    2.7686

 eigenvalue-minimisations  :  1007
 total energy-change (2. order) : 0.4049085E+02  (-0.2860463E+02)
 number of electron     127.9999847 magnetization 
 augmentation part       14.2631206 magnetization 

 Broyden mixing:
  rms(total) = 0.13662E+01    rms(broyden)= 0.13651E+01
  rms(prec ) = 0.14358E+01
  weight for this iteration     100.00

 eigenvalues of (default mixing * dielectric matrix)
  average eigenvalue GAMMA=   0.7724
  0.7724

 Free energy of the ion-electron system (eV)
  ---------------------------------------------------
  alpha Z        PSCENC =       451.31605171
  Ewald energy   TEWEN  =     24913.70541863
  -Hartree energ DENC   =    -33647.50237557
  -exchange      EXHF   =         0.00000000
  -V(xc)+E(xc)   XCENC  =       346.47962750
  PAW double counting   =      5952.55969982    -5770.34429495
  entropy T*S    EENTRO =         0.00000000
  eigenvalues    EBANDS =     -1344.74495739
  atomic energy  EATOM  =      8937.26825017
  Solvation  Ediel_sol  =         0.00000000
  ---------------------------------------------------
  free energy    TOTEN  =      -161.26258007 eV

  energy without entropy =     -161.26258007  energy(sigma->0) =     -161.26258007


--------------------------------------------------------------------------------------------------------




--------------------------------------- Iteration      1(   7)  ---------------------------------------


    POTLOK:  cpu time    0.0900: real time    0.0953
    SETDIJ:  cpu time    0.0120: real time    0.0113
    EDDIAG:  cpu time    0.3180: real time    0.3177
  RMM-DIIS:  cpu time    2.3686: real time    2.3680
    ORTHCH:  cpu time    0.0640: real time    0.0648
 BZINTS: Fermi energy: -0.993542;128.000000 electrons
         Band energy:***********;  BLOECHL correction:  0.000000
       DOS:  cpu time    0.0000: real time    0.0006
    CHARGE:  cpu time    0.1180: real time    0.1175
    MIXING:  cpu time    0.0030: real time    0.0027
    --------------------------------------------
      LOOP:  cpu time    2.9735: real time    2.9780

 eigenvalue-minimisations  :  1099
 total energy-change (2. order) : 0.3591103E+01  (-0.1279674E+01)
 number of electron     127.9999842 magnetization 
 augmentation part       13.5796338 magnetization 

 Broyden mixing:
  rms(total) = 0.71125E+00    rms(broyden)= 0.71120E+00
  rms(prec ) = 0.74043E+00
  weight for this iteration     100.00

 eigenvalues of (default mixing * dielectric matrix)
  average eigenvalue GAMMA=   1.0743
  0.8986  1.2500

 Free energy of the ion-electron system (eV)
  ---------------------------------------------------
  alpha Z        PSCENC =       451.31605171
  Ewald energy   TEWEN  =     24913.70541863
  -Hartree energ DENC   =    -33657.08115516
  -exchange      EXHF   =         0.00000000
  -V(xc)+E(xc)   XCENC  =       342.82398748
  PAW double counting   =      5977.49965262    -5800.24204923
  entropy T*S    EENTRO =         0.00000000
  eigenvalues    EBANDS =     -1322.96163371
  atomic energy  EATOM  =      8937.26825017
  Solvation  Ediel_sol  =         0.00000000
  ---------------------------------------------------
  free energy    TOTEN  =      -157.67147749 eV

  energy without entropy =     -157.67147749  energy(sigma->0) =     -157.67147749


--------------------------------------------------------------------------------------------------------




--------------------------------------- Iteration      1(   8)  ---------------------------------------


    POTLOK:  cpu time    0.0920: real time    0.0950
    SETDIJ:  cpu time    0.0110: real time    0.0113
    EDDIAG:  cpu time    0.3180: real time    0.3179
  RMM-DIIS:  cpu time    2.6376: real time    2.6366
    ORTHCH:  cpu time    0.0640: real time    0.0649
 BZINTS: Fermi energy: -0.713434;128.000000 electrons
         Band energy:***********;  BLOECHL correction:  0.000000
       DOS:  cpu time    0.0010: real time    0.0006
    CHARGE:  cpu time    0.1170: real time    0.1176
    MIXING:  cpu time    0.0040: real time    0.0028
    --------------------------------------------
      LOOP:  cpu time    3.2445: real time    3.2466

 eigenvalue-minimisations  :  1215
 total energy-change (2. order) : 0.7325302E+00  (-0.3144568E+00)
 number of electron     127.9999841 magnetization 
 augmentation part       13.7663908 magnetization 

 Broyden mixing:
  rms(total) = 0.30914E+00    rms(broyden)= 0.30912E+00
  rms(prec ) = 0.32956E+00
  weight for this iteration     100.00

 eigenvalues of (default mixing * dielectric matrix)
  average eigenvalue GAMMA=   1.2761
  2.1958  0.9130  0.7196

 Free energy of the ion-electron system (eV)
  ---------------------------------------------------
  alpha Z        PSCENC =       451.31605171
  Ewald energy   TEWEN  =     24913.70541863
  -Hartree energ DENC   =    -33673.38702892
  -exchange      EXHF   =         0.00000000
  -V(xc)+E(xc)   XCENC  =       342.47065204
  PAW double counting   =      6074.68927163    -5901.69423423
  entropy T*S    EENTRO =         0.00000000
  eigenvalues    EBANDS =     -1301.30732833
  atomic energy  EATOM  =      8937.26825017
  Solvation  Ediel_sol  =         0.00000000
  ---------------------------------------------------
  free energy    TOTEN  =      -156.93894729 eV

  energy without entropy =     -156.93894729  energy(sigma->0) =     -156.93894729


--------------------------------------------------------------------------------------------------------




--------------------------------------- Iteration      1(   9)  ---------------------------------------


    POTLOK:  cpu time    0.0910: real time    0.0956
    SETDIJ:  cpu time    0.0120: real time    0.0113
    EDDIAG:  cpu time    0.3170: real time    0.3175
  RMM-DIIS:  cpu time    2.6376: real time    2.6397
    ORTHCH:  cpu time    0.0650: real time    0.0649
 BZINTS: Fermi energy: -0.182532;128.000000 electrons
         Band energy:***********;  BLOECHL correction:  0.000000
       DOS:  cpu time    0.0000: real time    0.0007
    CHARGE:  cpu time    0.1170: real time    0.1175
    MIXING:  cpu time    0.0040: real time    0.0036
    --------------------------------------------
      LOOP:  cpu time    3.2435: real time    3.2508

 eigenvalue-minimisations  :  1237
 total energy-change (2. order) : 0.1933589E+00  (-0.1281124E+00)
 number of electron     127.9999838 magnetization 
 augmentation part       13.7875308 magnetization 

 Broyden mixing:
  rms(total) = 0.99846E-01    rms(broyden)= 0.99771E-01
  rms(prec ) = 0.11791E+00
  weight for this iteration     100.00

 eigenvalues of (default mixing * dielectric matrix)
  average eigenvalue GAMMA=   1.1865
  2.2493  0.8776  0.8776  0.7415

 Free energy of the ion-electron system (eV)
  ---------------------------------------------------
  alpha Z        PSCENC =       451.31605171
  Ewald energy   TEWEN  =     24913.70541863
  -Hartree energ DENC   =    -33700.15974298
  -exchange      EXHF   =         0.00000000
  -V(xc)+E(xc)   XCENC  =       342.15576455
  PAW double counting   =      6172.45526605    -6003.11525981
  entropy T*S    EENTRO =         0.00000000
  eigenvalues    EBANDS =     -1270.37133670
  atomic energy  EATOM  =      8937.26825017
  Solvation  Ediel_sol  =         0.00000000
  ---------------------------------------------------
  free energy    TOTEN  =      -156.74558837 eV

  energy without entropy =     -156.74558837  energy(sigma->0) =     -156.74558837


--------------------------------------------------------------------------------------------------------




--------------------------------------- Iteration      1(  10)  ---------------------------------------


    POTLOK:  cpu time    0.0920: real time    0.0960
    SETDIJ:  cpu time    0.0110: real time    0.0113
    EDDIAG:  cpu time    0.3180: real time    0.3173
  RMM-DIIS:  cpu time    3.0255: real time    3.0250
    ORTHCH:  cpu time    0.0640: real time    0.0647
 BZINTS: Fermi energy: -0.142331;128.000000 electrons
         Band energy:***********;  BLOECHL correction:  0.000000
       DOS:  cpu time    0.0010: real time    0.0006
    CHARGE:  cpu time    0.1170: real time    0.1172
    MIXING:  cpu time    0.0030: real time    0.0031
    --------------------------------------------
      LOOP:  cpu time    3.6314: real time    3.6352

 eigenvalue-minimisations  :  1423
 total energy-change (2. order) : 0.4086616E-01  (-0.2341012E-01)
 number of electron     127.9999839 magnetization 
 augmentation part       13.7363784 magnetization 

 Broyden mixing:
  rms(total) = 0.61318E-01    rms(broyden)= 0.61311E-01
  rms(prec ) = 0.76706E-01
  weight for this iteration     100.00

 eigenvalues of (default mixing * dielectric matrix)
  average eigenvalue GAMMA=   1.2261
  2.0206  1.6850  0.9893  0.7549  0.6806

 Free energy of the ion-electron system (eV)
  ---------------------------------------------------
  alpha Z        PSCENC =       451.31605171
  Ewald energy   TEWEN  =     24913.70541863
  -Hartree energ DENC   =    -33717.92506056
  -exchange      EXHF   =         0.00000000
  -V(xc)+E(xc)   XCENC  =       342.52061819
  PAW double counting   =      6193.69172912    -6024.76713503
  entropy T*S    EENTRO =         0.00000000
  eigenvalues    EBANDS =     -1252.51459445
  atomic energy  EATOM  =      8937.26825017
  Solvation  Ediel_sol  =         0.00000000
  ---------------------------------------------------
  free energy    TOTEN  =      -156.70472221 eV

  energy without entropy =     -156.70472221  energy(sigma->0) =     -156.70472221


--------------------------------------------------------------------------------------------------------




--------------------------------------- Iteration      1(  11)  ---------------------------------------


    POTLOK:  cpu time    0.0910: real time    0.0943
    SETDIJ:  cpu time    0.0120: real time    0.0117
    EDDIAG:  cpu time    0.3180: real time    0.3175
  RMM-DIIS:  cpu time    2.8886: real time    2.8873
    ORTHCH:  cpu time    0.0620: real time    0.0625
 BZINTS: Fermi energy:  0.111021;128.000000 electrons
         Band energy:***********;  BLOECHL correction:  0.000000
       DOS:  cpu time    0.0000: real time    0.0007
    CHARGE:  cpu time    0.1180: real time    0.1172
    MIXING:  cpu time    0.0030: real time    0.0032
    --------------------------------------------
      LOOP:  cpu time    3.4925: real time    3.4944

 eigenvalue-minimisations  :  1359
 total energy-change (2. order) : 0.2201451E-01  (-0.1692402E-01)
 number of electron     127.9999840 magnetization 
 augmentation part       13.6660196 magnetization 

 Broyden mixing:
  rms(total) = 0.42081E-01    rms(broyden)= 0.42065E-01
  rms(prec ) = 0.53402E-01
  weight for this iteration     100.00

 eigenvalues of (default mixing * dielectric matrix)
  average eigenvalue GAMMA=   1.3133
  2.3231  2.3231  0.9183  0.9183  0.7622  0.6348

 Free energy of the ion-electron system (eV)
  ---------------------------------------------------
  alpha Z        PSCENC =       451.31605171
  Ewald energy   TEWEN  =     24913.70541863
  -Hartree energ DENC   =    -33739.11483893
  -exchange      EXHF   =         0.00000000
  -V(xc)+E(xc)   XCENC  =       342.92035638
  PAW double counting   =      6208.79344722    -6039.81702548
  entropy T*S    EENTRO =         0.00000000
  eigenvalues    EBANDS =     -1231.75436741
  atomic energy  EATOM  =      8937.26825017
  Solvation  Ediel_sol  =         0.00000000
  ---------------------------------------------------
  free energy    TOTEN  =      -156.68270770 eV

  energy without entropy =     -156.68270770  energy(sigma->0) =     -156.68270770


--------------------------------------------------------------------------------------------------------




--------------------------------------- Iteration      1(  12)  ---------------------------------------


    POTLOK:  cpu time    0.0920: real time    0.0969
    SETDIJ:  cpu time    0.0120: real time    0.0117
    EDDIAG:  cpu time    0.3180: real time    0.3175
  RMM-DIIS:  cpu time    3.0185: real time    3.0184
    ORTHCH:  cpu time    0.0620: real time    0.0625
 BZINTS: Fermi energy:  0.262016;128.000000 electrons
         Band energy:***********;  BLOECHL correction:  0.000000
       DOS:  cpu time    0.0010: real time    0.0006
    CHARGE:  cpu time    0.1170: real time    0.1167
    MIXING:  cpu time    0.0030: real time    0.0034
    --------------------------------------------
      LOOP:  cpu time    3.6234: real time    3.6276

 eigenvalue-minimisations  :  1436
 total energy-change (2. order) : 0.1252012E-01  (-0.4816495E-02)
 number of electron     127.9999839 magnetization 
 augmentation part       13.6347423 magnetization 

 Broyden mixing:
  rms(total) = 0.31086E-01    rms(broyden)= 0.31082E-01
  rms(prec ) = 0.39173E-01
  weight for this iteration     100.00

 eigenvalues of (default mixing * dielectric matrix)
  average eigenvalue GAMMA=   1.2672
  2.3999  2.1980  1.0214  1.0214  0.8512  0.7337  0.6448

 Free energy of the ion-electron system (eV)
  ---------------------------------------------------
  alpha Z        PSCENC =       451.31605171
  Ewald energy   TEWEN  =     24913.70541863
  -Hartree energ DENC   =    -33751.95268269
  -exchange      EXHF   =         0.00000000
  -V(xc)+E(xc)   XCENC  =       342.99071756
  PAW double counting   =      6212.42101596    -6043.21450662
  entropy T*S    EENTRO =         0.00000000
  eigenvalues    EBANDS =     -1219.20445231
  atomic energy  EATOM  =      8937.26825017
  Solvation  Ediel_sol  =         0.00000000
  ---------------------------------------------------
  free energy    TOTEN  =      -156.67018758 eV

  energy without entropy =     -156.67018758  energy(sigma->0) =     -156.67018758


--------------------------------------------------------------------------------------------------------




--------------------------------------- Iteration      1(  13)  ---------------------------------------


    POTLOK:  cpu time    0.0920: real time    0.0957
    SETDIJ:  cpu time    0.0120: real time    0.0117
    EDDIAG:  cpu time    0.3180: real time    0.3181
  RMM-DIIS:  cpu time    3.0755: real time    3.0741
    ORTHCH:  cpu time    0.0620: real time    0.0625
 BZINTS: Fermi energy:  0.334548;128.000000 electrons
         Band energy:***********;  BLOECHL correction:  0.000000
       DOS:  cpu time    0.0000: real time    0.0006
    CHARGE:  cpu time    0.1170: real time    0.1168
    MIXING:  cpu time    0.0040: real time    0.0035
    --------------------------------------------
      LOOP:  cpu time    3.6804: real time    3.6831

 eigenvalue-minimisations  :  1459
 total energy-change (2. order) : 0.5994175E-02  (-0.2231410E-02)
 number of electron     127.9999839 magnetization 
 augmentation part       13.6512838 magnetization 

 Broyden mixing:
  rms(total) = 0.15829E-01    rms(broyden)= 0.15826E-01
  rms(prec ) = 0.24027E-01
  weight for this iteration     100.00

 eigenvalues of (default mixing * dielectric matrix)
  average eigenvalue GAMMA=   1.4391
  2.9186  2.9186  1.3978  1.0842  0.9191  0.9191  0.7150  0.6405

 Free energy of the ion-electron system (eV)
  ---------------------------------------------------
  alpha Z        PSCENC =       451.31605171
  Ewald energy   TEWEN  =     24913.70541863
  -Hartree energ DENC   =    -33757.17002816
  -exchange      EXHF   =         0.00000000
  -V(xc)+E(xc)   XCENC  =       342.96032138
  PAW double counting   =      6212.04042422    -6042.73878400
  entropy T*S    EENTRO =         0.00000000
  eigenvalues    EBANDS =     -1214.04584737
  atomic energy  EATOM  =      8937.26825017
  Solvation  Ediel_sol  =         0.00000000
  ---------------------------------------------------
  free energy    TOTEN  =      -156.66419341 eV

  energy without entropy =     -156.66419341  energy(sigma->0) =     -156.66419341


--------------------------------------------------------------------------------------------------------




--------------------------------------- Iteration      1(  14)  ---------------------------------------


    POTLOK:  cpu time    0.0920: real time    0.0951
    SETDIJ:  cpu time    0.0120: real time    0.0117
    EDDIAG:  cpu time    0.3160: real time    0.3157
  RMM-DIIS:  cpu time    2.8356: real time    2.8348
    ORTHCH:  cpu time    0.0610: real time    0.0619
 BZINTS: Fermi energy:  0.424167;128.000000 electrons
         Band energy:***********;  BLOECHL correction:  0.000000
       DOS:  cpu time    0.0010: real time    0.0007
    CHARGE:  cpu time    0.1160: real time    0.1155
    MIXING:  cpu time    0.0030: real time    0.0037
    --------------------------------------------
      LOOP:  cpu time    3.4365: real time    3.4391

 eigenvalue-minimisations  :  1337
 total energy-change (2. order) : 0.4208052E-02  (-0.2061377E-02)
 number of electron     127.9999839 magnetization 
 augmentation part       13.6525995 magnetization 

 Broyden mixing:
  rms(total) = 0.16952E-01    rms(broyden)= 0.16946E-01
  rms(prec ) = 0.20373E-01
  weight for this iteration     100.00

 eigenvalues of (default mixing * dielectric matrix)
  average eigenvalue GAMMA=   1.4446
  3.5708  2.5030  1.5106  1.1723  1.1723  0.8794  0.8794  0.6845  0.6288

 Free energy of the ion-electron system (eV)
  ---------------------------------------------------
  alpha Z        PSCENC =       451.31605171
  Ewald energy   TEWEN  =     24913.70541863
  -Hartree energ DENC   =    -33768.60752978
  -exchange      EXHF   =         0.00000000
  -V(xc)+E(xc)   XCENC  =       342.89346929
  PAW double counting   =      6205.00801693    -6035.28621671
  entropy T*S    EENTRO =         0.00000000
  eigenvalues    EBANDS =     -1202.95744560
  atomic energy  EATOM  =      8937.26825017
  Solvation  Ediel_sol  =         0.00000000
  ---------------------------------------------------
  free energy    TOTEN  =      -156.65998536 eV

  energy without entropy =     -156.65998536  energy(sigma->0) =     -156.65998536


--------------------------------------------------------------------------------------------------------




--------------------------------------- Iteration      1(  15)  ---------------------------------------


    POTLOK:  cpu time    0.0920: real time    0.0935
    SETDIJ:  cpu time    0.0110: real time    0.0115
    EDDIAG:  cpu time    0.3180: real time    0.3173
  RMM-DIIS:  cpu time    2.9745: real time    2.9738
    ORTHCH:  cpu time    0.0620: real time    0.0625
 BZINTS: Fermi energy:  0.488373;128.000000 electrons
         Band energy:***********;  BLOECHL correction:  0.000000
       DOS:  cpu time    0.0010: real time    0.0007
    CHARGE:  cpu time    0.1170: real time    0.1171
    MIXING:  cpu time    0.0040: real time    0.0039
    --------------------------------------------
      LOOP:  cpu time    3.5795: real time    3.5804

 eigenvalue-minimisations  :  1399
 total energy-change (2. order) : 0.5174273E-03  (-0.9424442E-03)
 number of electron     127.9999839 magnetization 
 augmentation part       13.6522148 magnetization 

 Broyden mixing:
  rms(total) = 0.77176E-02    rms(broyden)= 0.77123E-02
  rms(prec ) = 0.10893E-01
  weight for this iteration     100.00

 eigenvalues of (default mixing * dielectric matrix)
  average eigenvalue GAMMA=   1.4938
  4.0018  2.4051  1.8990  1.5548  1.0154  1.0154  0.8856  0.8856  0.6515  0.6238

 Free energy of the ion-electron system (eV)
  ---------------------------------------------------
  alpha Z        PSCENC =       451.31605171
  Ewald energy   TEWEN  =     24913.70541863
  -Hartree energ DENC   =    -33775.09965506
  -exchange      EXHF   =         0.00000000
  -V(xc)+E(xc)   XCENC  =       342.98678141
  PAW double counting   =      6207.69596711    -6038.03922854
  entropy T*S    EENTRO =         0.00000000
  eigenvalues    EBANDS =     -1196.49305337
  atomic energy  EATOM  =      8937.26825017
  Solvation  Ediel_sol  =         0.00000000
  ---------------------------------------------------
  free energy    TOTEN  =      -156.65946793 eV

  energy without entropy =     -156.65946793  energy(sigma->0) =     -156.65946793


--------------------------------------------------------------------------------------------------------




--------------------------------------- Iteration      1(  16)  ---------------------------------------


    POTLOK:  cpu time    0.0920: real time    0.0939
    SETDIJ:  cpu time    0.0110: real time    0.0118
    EDDIAG:  cpu time    0.3170: real time    0.3169
  RMM-DIIS:  cpu time    2.9626: real time    2.9611
    ORTHCH:  cpu time    0.0620: real time    0.0624
 BZINTS: Fermi energy:  0.560719;128.000000 electrons
         Band energy:***********;  BLOECHL correction:  0.000000
       DOS:  cpu time    0.0000: real time    0.0007
    CHARGE:  cpu time    0.1170: real time    0.1167
    MIXING:  cpu time    0.0050: real time    0.0041
    --------------------------------------------
      LOOP:  cpu time    3.5665: real time    3.5676

 eigenvalue-minimisations  :  1399
 total energy-change (2. order) :-0.1103614E-02  (-0.3708959E-03)
 number of electron     127.9999839 magnetization 
 augmentation part       13.6406638 magnetization 

 Broyden mixing:
  rms(total) = 0.57635E-02    rms(broyden)= 0.57620E-02
  rms(prec ) = 0.72845E-02
  weight for this iteration     100.00

 eigenvalues of (default mixing * dielectric matrix)
  average eigenvalue GAMMA=   1.6404
  5.5547  2.5761  2.5761  1.2676  1.1003  1.1003  0.9622  0.8073  0.8073  0.6389
  0.6531

 Free energy of the ion-electron system (eV)
  ---------------------------------------------------
  alpha Z        PSCENC =       451.31605171
  Ewald energy   TEWEN  =     24913.70541863
  -Hartree energ DENC   =    -33780.80471889
  -exchange      EXHF   =         0.00000000
  -V(xc)+E(xc)   XCENC  =       342.98059234
  PAW double counting   =      6207.05770887    -6037.45093022
  entropy T*S    EENTRO =         0.00000000
  eigenvalues    EBANDS =     -1190.73294417
  atomic energy  EATOM  =      8937.26825017
  Solvation  Ediel_sol  =         0.00000000
  ---------------------------------------------------
  free energy    TOTEN  =      -156.66057154 eV

  energy without entropy =     -156.66057154  energy(sigma->0) =     -156.66057154


--------------------------------------------------------------------------------------------------------




--------------------------------------- Iteration      1(  17)  ---------------------------------------


    POTLOK:  cpu time    0.0900: real time    0.0935
    SETDIJ:  cpu time    0.0110: real time    0.0116
    EDDIAG:  cpu time    0.3170: real time    0.3172
  RMM-DIIS:  cpu time    2.9216: real time    2.9212
    ORTHCH:  cpu time    0.0620: real time    0.0625
 BZINTS: Fermi energy:  0.505804;128.000000 electrons
         Band energy:***********;  BLOECHL correction:  0.000000
       DOS:  cpu time    0.0000: real time    0.0006
    CHARGE:  cpu time    0.1210: real time    0.1208
    MIXING:  cpu time    0.0050: real time    0.0043
    --------------------------------------------
      LOOP:  cpu time    3.5275: real time    3.5317

 eigenvalue-minimisations  :  1383
 total energy-change (2. order) :-0.3274782E-03  (-0.1356313E-03)
 number of electron     127.9999839 magnetization 
 augmentation part       13.6418235 magnetization 

 Broyden mixing:
  rms(total) = 0.28844E-02    rms(broyden)= 0.28833E-02
  rms(prec ) = 0.38492E-02
  weight for this iteration     100.00

 eigenvalues of (default mixing * dielectric matrix)
  average eigenvalue GAMMA=   1.6589
  6.0382  2.9893  2.0501  1.5629  1.2239  1.2239  0.9807  0.9807  0.7812  0.7812
  0.6415  0.6533

 Free energy of the ion-electron system (eV)
  ---------------------------------------------------
  alpha Z        PSCENC =       451.31605171
  Ewald energy   TEWEN  =     24913.70541863
  -Hartree energ DENC   =    -33783.42314978
  -exchange      EXHF   =         0.00000000
  -V(xc)+E(xc)   XCENC  =       342.96458728
  PAW double counting   =      6205.85886787    -6036.22335542
  entropy T*S    EENTRO =         0.00000000
  eigenvalues    EBANDS =     -1188.12756948
  atomic energy  EATOM  =      8937.26825017
  Solvation  Ediel_sol  =         0.00000000
  ---------------------------------------------------
  free energy    TOTEN  =      -156.66089902 eV

  energy without entropy =     -156.66089902  energy(sigma->0) =     -156.66089902


--------------------------------------------------------------------------------------------------------




--------------------------------------- Iteration      1(  18)  ---------------------------------------


    POTLOK:  cpu time    0.0890: real time    0.0944
    SETDIJ:  cpu time    0.0120: real time    0.0118
    EDDIAG:  cpu time    0.3180: real time    0.3175
  RMM-DIIS:  cpu time    2.8676: real time    2.8676
    ORTHCH:  cpu time    0.0620: real time    0.0619
 BZINTS: Fermi energy:  0.537558;128.000000 electrons
         Band energy:***********;  BLOECHL correction:  0.000000
       DOS:  cpu time    0.0010: real time    0.0006
    CHARGE:  cpu time    0.1150: real time    0.1155
    MIXING:  cpu time    0.0050: real time    0.0044
    --------------------------------------------
      LOOP:  cpu time    3.4695: real time    3.4736

 eigenvalue-minimisations  :  1359
 total energy-change (2. order) :-0.1193830E-02  (-0.9221851E-04)
 number of electron     127.9999839 magnetization 
 augmentation part       13.6406750 magnetization 

 Broyden mixing:
  rms(total) = 0.36169E-02    rms(broyden)= 0.36157E-02
  rms(prec ) = 0.40566E-02
  weight for this iteration     100.00

 eigenvalues of (default mixing * dielectric matrix)
  average eigenvalue GAMMA=   1.7425
  6.8753  3.0969  2.2326  2.2326  1.2183  1.2183  1.2843  0.8874  0.8874  0.6331
  0.6877  0.6996  0.6996

 Free energy of the ion-electron system (eV)
  ---------------------------------------------------
  alpha Z        PSCENC =       451.31605171
  Ewald energy   TEWEN  =     24913.70541863
  -Hartree energ DENC   =    -33783.65899118
  -exchange      EXHF   =         0.00000000
  -V(xc)+E(xc)   XCENC  =       342.94498685
  PAW double counting   =      6204.95869287    -6035.27240720
  entropy T*S    EENTRO =         0.00000000
  eigenvalues    EBANDS =     -1187.92409470
  atomic energy  EATOM  =      8937.26825017
  Solvation  Ediel_sol  =         0.00000000
  ---------------------------------------------------
  free energy    TOTEN  =      -156.66209285 eV

  energy without entropy =     -156.66209285  energy(sigma->0) =     -156.66209285


--------------------------------------------------------------------------------------------------------




--------------------------------------- Iteration      1(  19)  ---------------------------------------


    POTLOK:  cpu time    0.0890: real time    0.0939
    SETDIJ:  cpu time    0.0130: real time    0.0115
    EDDIAG:  cpu time    0.3150: real time    0.3152
  RMM-DIIS:  cpu time    2.5826: real time    2.5828
    ORTHCH:  cpu time    0.0630: real time    0.0625
 BZINTS: Fermi energy:  0.523926;128.000000 electrons
         Band energy:***********;  BLOECHL correction:  0.000000
       DOS:  cpu time    0.0000: real time    0.0007
    CHARGE:  cpu time    0.1160: real time    0.1164
    MIXING:  cpu time    0.0060: real time    0.0047
    --------------------------------------------
      LOOP:  cpu time    3.1845: real time    3.1877

 eigenvalue-minimisations  :  1213
 total energy-change (2. order) :-0.1173997E-02  (-0.6341884E-04)
 number of electron     127.9999839 magnetization 
 augmentation part       13.6428587 magnetization 

 Broyden mixing:
  rms(total) = 0.15719E-02    rms(broyden)= 0.15712E-02
  rms(prec ) = 0.18051E-02
  weight for this iteration     100.00

 eigenvalues of (default mixing * dielectric matrix)
  average eigenvalue GAMMA=   1.8009
  7.4651  3.7968  2.2558  2.2558  1.4057  1.2105  1.2105  1.0894  0.8922  0.8922
  0.8026  0.6551  0.6551  0.6257

 Free energy of the ion-electron system (eV)
  ---------------------------------------------------
  alpha Z        PSCENC =       451.31605171
  Ewald energy   TEWEN  =     24913.70541863
  -Hartree energ DENC   =    -33784.33366630
  -exchange      EXHF   =         0.00000000
  -V(xc)+E(xc)   XCENC  =       342.96227484
  PAW double counting   =      6205.89242247    -6036.20678658
  entropy T*S    EENTRO =         0.00000000
  eigenvalues    EBANDS =     -1187.26723180
  atomic energy  EATOM  =      8937.26825017
  Solvation  Ediel_sol  =         0.00000000
  ---------------------------------------------------
  free energy    TOTEN  =      -156.66326685 eV

  energy without entropy =     -156.66326685  energy(sigma->0) =     -156.66326685


--------------------------------------------------------------------------------------------------------




--------------------------------------- Iteration      1(  20)  ---------------------------------------


    POTLOK:  cpu time    0.0900: real time    0.0959
    SETDIJ:  cpu time    0.0120: real time    0.0116
    EDDIAG:  cpu time    0.3170: real time    0.3173
  RMM-DIIS:  cpu time    2.3786: real time    2.3780
    ORTHCH:  cpu time    0.0620: real time    0.0621
 BZINTS: Fermi energy:  0.539623;128.000000 electrons
         Band energy:***********;  BLOECHL correction:  0.000000
       DOS:  cpu time    0.0010: real time    0.0007
    CHARGE:  cpu time    0.1160: real time    0.1160
    MIXING:  cpu time    0.0050: real time    0.0049
    --------------------------------------------
      LOOP:  cpu time    2.9815: real time    2.9865

 eigenvalue-minimisations  :  1107
 total energy-change (2. order) :-0.4619788E-03  (-0.2223818E-04)
 number of electron     127.9999839 magnetization 
 augmentation part       13.6407775 magnetization 

 Broyden mixing:
  rms(total) = 0.62302E-03    rms(broyden)= 0.62294E-03
  rms(prec ) = 0.71552E-03
  weight for this iteration     100.00

 eigenvalues of (default mixing * dielectric matrix)
  average eigenvalue GAMMA=   1.9212
  8.2818  4.3685  2.3869  2.3869  2.3841  1.3182  1.1734  1.1734  0.9014  0.9014
  0.8105  0.8105  0.6627  0.6289  0.6289

 Free energy of the ion-electron system (eV)
  ---------------------------------------------------
  alpha Z        PSCENC =       451.31605171
  Ewald energy   TEWEN  =     24913.70541863
  -Hartree energ DENC   =    -33784.27404090
  -exchange      EXHF   =         0.00000000
  -V(xc)+E(xc)   XCENC  =       342.95793417
  PAW double counting   =      6206.07023427    -6036.39389459
  entropy T*S    EENTRO =         0.00000000
  eigenvalues    EBANDS =     -1187.31368229
  atomic energy  EATOM  =      8937.26825017
  Solvation  Ediel_sol  =         0.00000000
  ---------------------------------------------------
  free energy    TOTEN  =      -156.66372883 eV

  energy without entropy =     -156.66372883  energy(sigma->0) =     -156.66372883


--------------------------------------------------------------------------------------------------------




--------------------------------------- Iteration      1(  21)  ---------------------------------------


    POTLOK:  cpu time    0.0900: real time    0.0946
    SETDIJ:  cpu time    0.0120: real time    0.0115
    EDDIAG:  cpu time    0.3180: real time    0.3174
  RMM-DIIS:  cpu time    2.0677: real time    2.0678
    ORTHCH:  cpu time    0.0630: real time    0.0630
 BZINTS: Fermi energy:  0.552278;128.000000 electrons
         Band energy:***********;  BLOECHL correction:  0.000000
       DOS:  cpu time    0.0010: real time    0.0007
    CHARGE:  cpu time    0.1170: real time    0.1171
    MIXING:  cpu time    0.0050: real time    0.0051
    --------------------------------------------
      LOOP:  cpu time    2.6736: real time    2.6772

 eigenvalue-minimisations  :   953
 total energy-change (2. order) :-0.2498650E-03  (-0.1137120E-04)
 number of electron     127.9999839 magnetization 
 augmentation part       13.6400354 magnetization 

 Broyden mixing:
  rms(total) = 0.44440E-03    rms(broyden)= 0.44428E-03
  rms(prec ) = 0.49821E-03
  weight for this iteration     100.00

 eigenvalues of (default mixing * dielectric matrix)
  average eigenvalue GAMMA=   1.9272
  8.4692  4.7307  2.6668  2.6668  2.1029  1.4147  1.1851  1.1851  0.9691  0.9691
  0.8929  0.8929  0.7604  0.6602  0.6344  0.6344

 Free energy of the ion-electron system (eV)
  ---------------------------------------------------
  alpha Z        PSCENC =       451.31605171
  Ewald energy   TEWEN  =     24913.70541863
  -Hartree energ DENC   =    -33784.19886736
  -exchange      EXHF   =         0.00000000
  -V(xc)+E(xc)   XCENC  =       342.95837637
  PAW double counting   =      6206.12951145    -6036.44436463
  entropy T*S    EENTRO =         0.00000000
  eigenvalues    EBANDS =     -1187.39835504
  atomic energy  EATOM  =      8937.26825017
  Solvation  Ediel_sol  =         0.00000000
  ---------------------------------------------------
  free energy    TOTEN  =      -156.66397869 eV

  energy without entropy =     -156.66397869  energy(sigma->0) =     -156.66397869


--------------------------------------------------------------------------------------------------------




--------------------------------------- Iteration      1(  22)  ---------------------------------------


    POTLOK:  cpu time    0.0920: real time    0.0968
    SETDIJ:  cpu time    0.0110: real time    0.0115
    EDDIAG:  cpu time    0.3190: real time    0.3174
  RMM-DIIS:  cpu time    1.7907: real time    1.7904
    ORTHCH:  cpu time    0.0630: real time    0.0630
 BZINTS: Fermi energy:  0.564350;128.000000 electrons
         Band energy:***********;  BLOECHL correction:  0.000000
       DOS:  cpu time    0.0000: real time    0.0007
    CHARGE:  cpu time    0.1170: real time    0.1170
    MIXING:  cpu time    0.0060: real time    0.0054
    --------------------------------------------
      LOOP:  cpu time    2.3986: real time    2.4022

 eigenvalue-minimisations  :   817
 total energy-change (2. order) :-0.3663279E-04  (-0.3753196E-05)
 number of electron     127.9999839 magnetization 
 augmentation part       13.6401974 magnetization 

 Broyden mixing:
  rms(total) = 0.26999E-03    rms(broyden)= 0.26997E-03
  rms(prec ) = 0.30343E-03
  weight for this iteration     100.00

 eigenvalues of (default mixing * dielectric matrix)
  average eigenvalue GAMMA=   1.9032
  8.2787  5.1972  2.9890  2.4558  2.1254  1.2274  1.2274  1.4683  1.3202  0.9344
  0.9344  0.8065  0.8065  0.6864  0.6410  0.6281  0.6281

 Free energy of the ion-electron system (eV)
  ---------------------------------------------------
  alpha Z        PSCENC =       451.31605171
  Ewald energy   TEWEN  =     24913.70541863
  -Hartree energ DENC   =    -33784.18153755
  -exchange      EXHF   =         0.00000000
  -V(xc)+E(xc)   XCENC  =       342.95808490
  PAW double counting   =      6206.08427244    -6036.39242844
  entropy T*S    EENTRO =         0.00000000
  eigenvalues    EBANDS =     -1187.42212719
  atomic energy  EATOM  =      8937.26825017
  Solvation  Ediel_sol  =         0.00000000
  ---------------------------------------------------
  free energy    TOTEN  =      -156.66401532 eV

  energy without entropy =     -156.66401532  energy(sigma->0) =     -156.66401532


--------------------------------------------------------------------------------------------------------




--------------------------------------- Iteration      1(  23)  ---------------------------------------


    POTLOK:  cpu time    0.0910: real time    0.0939
    SETDIJ:  cpu time    0.0120: real time    0.0115
    EDDIAG:  cpu time    0.3160: real time    0.3163
  RMM-DIIS:  cpu time    1.6048: real time    1.6046
    ORTHCH:  cpu time    0.0630: real time    0.0629
 BZINTS: Fermi energy:  0.574941;128.000000 electrons
         Band energy:***********;  BLOECHL correction:  0.000000
       DOS:  cpu time    0.0010: real time    0.0007
    CHARGE:  cpu time    0.1170: real time    0.1167
    MIXING:  cpu time    0.0050: real time    0.0056
    --------------------------------------------
      LOOP:  cpu time    2.2097: real time    2.2122

 eigenvalue-minimisations  :   724
 total energy-change (2. order) :-0.1306349E-04  (-0.1757933E-05)
 number of electron     127.9999839 magnetization 
 augmentation part       13.6404490 magnetization 

 Broyden mixing:
  rms(total) = 0.26600E-03    rms(broyden)= 0.26598E-03
  rms(prec ) = 0.29085E-03
  weight for this iteration     100.00

 eigenvalues of (default mixing * dielectric matrix)
  average eigenvalue GAMMA=   1.8310
  8.2867  5.2890  3.0137  2.5613  2.1300  1.3869  1.3869  1.2239  1.2239  0.9385
  0.9385  0.8061  0.8061  0.6930  0.6427  0.6375  0.6375  0.3562

 Free energy of the ion-electron system (eV)
  ---------------------------------------------------
  alpha Z        PSCENC =       451.31605171
  Ewald energy   TEWEN  =     24913.70541863
  -Hartree energ DENC   =    -33784.16692605
  -exchange      EXHF   =         0.00000000
  -V(xc)+E(xc)   XCENC  =       342.95835671
  PAW double counting   =      6206.08127083    -6036.38683490
  entropy T*S    EENTRO =         0.00000000
  eigenvalues    EBANDS =     -1187.43961549
  atomic energy  EATOM  =      8937.26825017
  Solvation  Ediel_sol  =         0.00000000
  ---------------------------------------------------
  free energy    TOTEN  =      -156.66402839 eV

  energy without entropy =     -156.66402839  energy(sigma->0) =     -156.66402839


--------------------------------------------------------------------------------------------------------




--------------------------------------- Iteration      1(  24)  ---------------------------------------


    POTLOK:  cpu time    0.0910: real time    0.0942
    SETDIJ:  cpu time    0.0120: real time    0.0115
    EDDIAG:  cpu time    0.3180: real time    0.3177
  RMM-DIIS:  cpu time    1.5628: real time    1.5623
    ORTHCH:  cpu time    0.0630: real time    0.0629
 BZINTS: Fermi energy:  0.584105;128.000000 electrons
         Band energy:***********;  BLOECHL correction:  0.000000
       DOS:  cpu time    0.0000: real time    0.0007
    --------------------------------------------
      LOOP:  cpu time    2.0467: real time    2.0491

 eigenvalue-minimisations  :   690
 total energy-change (2. order) :-0.5561313E-05  (-0.1065205E-05)
 number of electron     127.9999839 magnetization 
 augmentation part       13.6404490 magnetization 

 Free energy of the ion-electron system (eV)
  ---------------------------------------------------
  alpha Z        PSCENC =       451.31605171
  Ewald energy   TEWEN  =     24913.70541863
  -Hartree energ DENC   =    -33784.13700990
  -exchange      EXHF   =         0.00000000
  -V(xc)+E(xc)   XCENC  =       342.95759759
  PAW double counting   =      6206.05280441    -6036.35719829
  entropy T*S    EENTRO =         0.00000000
  eigenvalues    EBANDS =     -1187.46994829
  atomic energy  EATOM  =      8937.26825017
  Solvation  Ediel_sol  =         0.00000000
  ---------------------------------------------------
  free energy    TOTEN  =      -156.66403395 eV

  energy without entropy =     -156.66403395  energy(sigma->0) =     -156.66403395


--------------------------------------------------------------------------------------------------------




 average (electrostatic) potential at core
  the test charge radii are     0.7215  1.1929  1.2598
  (the norm of the test charge is              1.0000)
       1 -73.1648       2 -73.6855       3 -73.6855       4 -73.6487       5 -73.7289
       6 -73.7289       7 -73.8104       8 -73.8288       9 -73.8288      10 -74.0651
      11 -73.4379      12 -73.4379      13 -39.8972      14 -38.7733      15 -38.8608
      16 -38.7264      17 -29.2871      18 -29.4672      19 -29.6166      20 -29.6599
 
 
 
 E-fermi :   0.5841     XC(G=0):  -7.3742     alpha+bet : -7.6895


 k-point     1 :       0.0000    0.0000    0.0000
  band No.  band energies     occupation 
      1     -33.7852      2.00000
      2     -32.7966      2.00000
      3     -32.7080      2.00000
      4     -32.6591      2.00000
      5     -17.7113      2.00000
      6     -17.6269      2.00000
      7     -17.5212      2.00000
      8     -17.0476      2.00000
      9     -16.5657      2.00000
     10     -16.5208      2.00000
     11     -16.4923      2.00000
     12     -16.4659      2.00000
     13     -16.4201      2.00000
     14     -16.3769      2.00000
     15     -15.9470      2.00000
     16     -15.7503      2.00000
     17     -15.7012      2.00000
     18     -15.7012      2.00000
     19     -15.6047      2.00000
     20     -14.8512      2.00000
     21     -14.8512      2.00000
     22     -14.7561      2.00000
     23     -14.7561      2.00000
     24     -14.7297      2.00000
     25     -14.7297      2.00000
[...]
     43      -2.6559      2.00000
     44      -2.5847      2.00000
     45      -2.4190      2.00000
     46      -2.3223      2.00000
     47      -2.1202      2.00000
     48      -2.1090      2.00000
     49      -1.9492      2.00000
     50      -1.8790      2.00000
     51      -1.7257      2.00000
     52      -1.6666      2.00000
     53      -1.6281      2.00000
     54      -1.6090      2.00000
     55      -1.3650      2.00000
     56      -1.2801      2.00000
     57      -1.2763      2.00000
     58      -1.1021      2.00000
     59      -1.0121      2.00000
     60      -0.9527      2.00000
     61      -0.7566      2.00000
     62      -0.7285      2.00000
     63      -0.5214      2.00000
     64      -0.2693      2.00000
     65       1.8142      0.00000
     66       2.3595      0.00000
     67       2.9310      0.00000
     68       3.3021      0.00000
     69       3.3500      0.00000
     70       3.4110      0.00000
     71       3.4296      0.00000
     72       3.4461      0.00000
     73       3.5424      0.00000
     74       3.5757      0.00000
     75       3.6684      0.00000
     76       7.4342      0.00000

 k-point     4 :       0.2000    0.2000    0.0000
  band No.  band energies     occupation 
      1     -33.7728      2.00000
      2     -32.7819      2.00000
      3     -32.6935      2.00000
      4     -32.6444      2.00000
      5     -17.5058      2.00000
      6     -17.3840      2.00000
      7     -17.3420      2.00000
      8     -16.9814      2.00000
      9     -16.6101      2.00000
     10     -16.5731      2.00000
     11     -16.5291      2.00000
     12     -16.4895      2.00000
     13     -16.4377      2.00000
     14     -16.3253      2.00000
     15     -16.2619      2.00000
     16     -15.9288      2.00000
     17     -15.7263      2.00000
     18     -15.6730      2.00000
     19     -15.0185      2.00000
     20     -14.8597      2.00000
     21     -14.7507      2.00000
     22     -14.7162      2.00000
     23     -14.6694      2.00000
     24     -14.6559      2.00000
     25     -14.5031      2.00000
     26     -14.4973      2.00000
     27     -14.4457      2.00000
     28     -14.3965      2.00000
     29      -4.3030      2.00000
     30      -3.9829      2.00000
     31      -3.7725      2.00000
     32      -3.6971      2.00000
     33      -3.5361      2.00000
     34      -3.3961      2.00000
     35      -3.2945      2.00000
     36      -3.2782      2.00000
     37      -3.1963      2.00000
     38      -3.1778      2.00000
     39      -3.0598      2.00000
     40      -3.0402      2.00000
     41      -2.9154      2.00000
     42      -2.8015      2.00000
     43      -2.6558      2.00000
     44      -2.5933      2.00000
     45      -2.5345      2.00000
     46      -2.3676      2.00000
     47      -2.3672      2.00000
     48      -2.2944      2.00000
     49      -1.9113      2.00000
     50      -1.8692      2.00000
     51      -1.7330      2.00000
     52      -1.5236      2.00000
     53      -1.3199      2.00000
     54      -1.1305      2.00000
     55      -1.1190      2.00000
     56      -1.0965      2.00000
     57      -1.0086      2.00000
     58      -1.0040      2.00000
     59      -0.9269      2.00000
     60      -0.8409      2.00000
     61      -0.7673      2.00000
     62      -0.6157      2.00000
     63      -0.5870      2.00000
     64      -0.2179      2.00000
     65       2.2761      0.00000
     66       2.5095      0.00000
     67       2.6429      0.00000
     68       2.7158      0.00000
     69       2.7772      0.00000
     70       2.8429      0.00000
     71       2.8999      0.00000
     72       3.0118      0.00000
     73       3.1252      0.00000
     74       3.1770      0.00000
     75       3.3036      0.00000
     76       6.6771      0.00000

 k-point     5 :       0.4000    0.2000    0.0000
  band No.  band energies     occupation 
      1     -33.7629      2.00000
      2     -32.7701      2.00000
      3     -32.6819      2.00000
      4     -32.6326      2.00000
      5     -17.4843      2.00000
      6     -17.2835      2.00000
      7     -17.0655      2.00000
      8     -16.8234      2.00000
      9     -16.6388      2.00000
     10     -16.6032      2.00000
     11     -16.5392      2.00000
     12     -16.5054      2.00000
     13     -16.4170      2.00000
     14     -16.1797      2.00000
     15     -16.1322      2.00000
     16     -15.9061      2.00000
     17     -15.8317      2.00000
     18     -15.6072      2.00000
     19     -14.9300      2.00000
     20     -14.8739      2.00000
     21     -14.8234      2.00000
     22     -14.6755      2.00000
     23     -14.6070      2.00000
     24     -14.6025      2.00000
     25     -14.5650      2.00000
     26     -14.4757      2.00000
     27     -14.4238      2.00000
     28     -14.3784      2.00000
     29      -4.4370      2.00000
     30      -4.3356      2.00000
     31      -4.2532      2.00000
     32      -4.2036      2.00000
     33      -4.1154      2.00000
     34      -3.9393      2.00000
     35      -3.8067      2.00000
     36      -3.7128      2.00000
     37      -3.6036      2.00000
     38      -3.5111      2.00000
     39      -3.3637      2.00000
     40      -3.3280      2.00000
     41      -3.2848      2.00000
     42      -3.2219      2.00000
     43      -3.1428      2.00000
     44      -3.0196      2.00000
     45      -2.8945      2.00000
     46      -2.7763      2.00000
     47      -2.7197      2.00000
     48      -2.5425      2.00000
     49      -2.4690      2.00000
     50      -2.2293      2.00000
     51      -1.9094      2.00000
     52      -1.6379      2.00000
     53      -1.4465      2.00000
     54      -1.2292      2.00000
     55      -1.0967      2.00000
     56      -1.0460      2.00000
     57      -1.0087      2.00000
     58      -0.9721      2.00000
     59      -0.9403      2.00000
     60      -0.8718      2.00000
     61      -0.7069      2.00000
     62      -0.5285      2.00000
     63      -0.2647      2.00000
     64      -0.1444      2.00000
     65       2.4203      0.00000
     66       2.8009      0.00000
     67       3.1994      0.00000
     68       3.3595      0.00000
     69       3.4288      0.00000
     70       3.5400      0.00000
     71       3.5608      0.00000
     72       3.5939      0.00000
     73       3.6322      0.00000
     74       3.7323      0.00000
     75       3.8129      0.00000
     76       7.4680      0.00000

 k-point     6 :       0.4000    0.4000    0.0000
  band No.  band energies     occupation 
      1     -33.7535      2.00000
      2     -32.7592      2.00000
      3     -32.6711      2.00000
      4     -32.6217      2.00000
      5     -17.1272      2.00000
      6     -16.9296      2.00000
      7     -16.7494      2.00000
      8     -16.7119      2.00000
      9     -16.6218      2.00000
     10     -16.5848      2.00000
     11     -16.4655      2.00000
     12     -16.4205      2.00000
     13     -16.3855      2.00000
     14     -16.0547      2.00000
     15     -15.9493      2.00000
     16     -15.8895      2.00000
     17     -15.8307      2.00000
     18     -15.6554      2.00000
     19     -15.2891      2.00000
     20     -14.9380      2.00000
     21     -14.9232      2.00000
     22     -14.8933      2.00000
     23     -14.7467      2.00000
     24     -14.6665      2.00000
     25     -14.6346      2.00000
     26     -14.5416      2.00000
     27     -14.5027      2.00000
     28     -14.4621      2.00000
     29      -4.5292      2.00000
     30      -4.4581      2.00000
     31      -4.3559      2.00000
     32      -4.3024      2.00000
     33      -4.1895      2.00000
     34      -4.1462      2.00000
     35      -4.1363      2.00000
     36      -4.0772      2.00000
     37      -3.9953      2.00000
     38      -3.9749      2.00000
     39      -3.8497      2.00000
     40      -3.7861      2.00000
     41      -3.7718      2.00000
     42      -3.6973      2.00000
     43      -3.5359      2.00000
     44      -3.4590      2.00000
     45      -3.4401      2.00000
     46      -3.3070      2.00000
     47      -3.1395      2.00000
     48      -3.0730      2.00000
     49      -2.7756      2.00000
     50      -2.6101      2.00000
     51      -2.3419      2.00000
     52      -1.4665      2.00000
     53      -1.3762      2.00000
     54      -1.3402      2.00000
     55      -0.9684      2.00000
     56      -0.8972      2.00000
     57      -0.5907      2.00000
     58      -0.5210      2.00000
     59      -0.3644      2.00000
     60      -0.3185      2.00000
     61      -0.2959      2.00000
     62      -0.2586      2.00000
     63      -0.1894      2.00000
     64       0.4835      2.00000
     65       3.2778      0.00000
     66       3.4185      0.00000
     67       3.5333      0.00000
     68       3.6397      0.00000
     69       3.7479      0.00000
     70       3.8034      0.00000
     71       3.9282      0.00000
     72       3.9496      0.00000
     73       4.0001      0.00000
     74       4.0498      0.00000
     75       7.4799      0.00000
     76       7.5779      0.00000


--------------------------------------------------------------------------------------------------------


 soft charge-density along one line, spin component           1
         0         1         2         3         4         5         6         7         8         9
 total charge-density along one line
 
 pseudopotential strength for first ion, spin component:           1
 12.657  -0.343  -0.000  -0.022   0.000   0.000   0.001  -0.000
 -0.343   0.083   0.000   0.002  -0.000  -0.000  -0.000   0.000
 -0.000   0.000  -8.948   0.000  -0.000  -0.092  -0.000   0.000
 -0.022   0.002   0.000  -8.969   0.000  -0.000  -0.088  -0.000
  0.000  -0.000  -0.000   0.000  -8.948   0.000  -0.000  -0.092
  0.000  -0.000  -0.092  -0.000   0.000   0.247   0.000  -0.000
  0.001  -0.000  -0.000  -0.088  -0.000   0.000   0.246   0.000
 -0.000   0.000   0.000  -0.000  -0.092  -0.000   0.000   0.247
 total augmentation occupancy for first ion, spin component:           1
  1.865   0.125   0.000  -0.006   0.000  -0.000   0.013   0.000
  0.125   0.012   0.000   0.026   0.000   0.000   0.005   0.000
  0.000   0.000   1.520   0.000   0.000   0.123   0.000   0.000
 -0.006   0.026   0.000   1.520   0.000   0.000   0.133   0.000
  0.000   0.000   0.000   0.000   1.520   0.000   0.000   0.123
  0.000   0.000   0.123   0.000   0.000   0.011  -0.000   0.000
  0.013   0.005   0.000   0.133   0.000   0.000   0.013   0.000
  0.000   0.000   0.000   0.000   0.123   0.000   0.000   0.011


------------------------ aborting loop because EDIFF is reached ----------------------------------------


    CHARGE:  cpu time    0.1180: real time    0.1191
    FORLOC:  cpu time    0.0210: real time    0.0209
    FORNL :  cpu time    1.2428: real time    1.2426
    STRESS:  cpu time    2.4206: real time    2.4198
    FORCOR:  cpu time    0.1020: real time    0.1022
    FORHAR:  cpu time    0.0350: real time    0.0345
    MIXING:  cpu time    0.0050: real time    0.0059
    OFIELD:  cpu time    0.0000: real time    0.0000

  FORCE on cell =-STRESS in cart. coord.  units (eV):
  Direction    XX          YY          ZZ          XY          YZ          ZX
  --------------------------------------------------------------------------------------
  Alpha Z   451.31605   451.31605   451.31605
  Ewald   30025.31756 30025.31756-35136.94585     0.00000     0.00000     0.00000
  Hartree 32581.86547 32581.86547-31379.60591    -0.00000    -0.00000    -0.00000
  E(xc)    -579.82531  -579.82531  -579.33026     0.00000     0.00000    -0.00000
  Local  -64348.63486-64348.63486 64783.22563    -0.00000    -0.00000    -0.00000
  n-local  -488.11874  -465.69970  -479.19039    -1.72411    -0.00009     0.00002
  augment   115.93757   115.93757   114.94245     0.00000     0.00000     0.00000
  Kinetic  2211.85330  2256.17732  2229.80393    -9.01625     0.00003    -0.00003
  Fock        0.00000     0.00000     0.00000     0.00000     0.00000     0.00000
  -------------------------------------------------------------------------------------
  Total       3.08257     3.08257     4.21565     0.00000     0.00000     0.00000
  in kB      12.61604    12.61604    17.25338     0.00000     0.00000     0.00000
  external pressure =       14.16 kB  Pullay stress =        0.00 kB


 VOLUME and BASIS-vectors are now :
 -----------------------------------------------------------------------------
  energy-cutoff  :      500.00
  volume of cell :      391.47
      direct lattice vectors                 reciprocal lattice vectors
     3.905268000  0.000000000  0.000000000     0.256064373  0.000000000  0.000000000
     0.000000000  3.905268000  0.000000000     0.000000000  0.256064373  0.000000000
     0.000000000  0.000000000 25.668438000     0.000000000  0.000000000  0.038958350

  length of vectors
     3.905268000  3.905268000 25.668438000     0.256064373  0.256064373  0.038958350


 FORCES acting on ions
    electron-ion (+dipol)            ewald-force                    non-local-force                 convergence-correction
 -----------------------------------------------------------------------------------------------
   0.161E-12 -.328E-12 0.157E+04   -.276E-14 0.267E-14 -.158E+04   0.847E-21 0.127E-20 0.790E+01   0.596E-14 -.266E-13 0.213E-02
   0.162E-12 0.937E-13 0.112E+04   -.723E-14 -.374E-14 -.111E+04   0.000E+00 0.000E+00 -.251E+00   0.176E-14 -.221E-13 0.836E-03
   -.123E-13 0.207E-12 0.112E+04   0.548E-14 -.847E-14 -.111E+04   0.000E+00 -.424E-21 -.251E+00   -.202E-14 -.143E-13 0.836E-03
   0.153E-12 0.203E-12 0.669E+03   -.956E-14 -.300E-14 -.669E+03   0.000E+00 0.169E-20 0.669E+00   -.405E-14 -.243E-13 -.665E-04
   0.159E-12 -.100E-13 0.223E+03   -.458E-14 -.321E-14 -.223E+03   0.000E+00 0.000E+00 0.205E+00   -.569E-15 0.169E-13 -.148E-03
   -.118E-13 -.162E-12 0.223E+03   0.843E-14 -.119E-13 -.223E+03   0.000E+00 0.000E+00 0.205E+00   0.805E-15 0.122E-13 -.148E-03
   0.158E-12 -.397E-12 -.223E+03   0.148E-14 0.548E-14 0.223E+03   0.212E-21 0.000E+00 0.545E+00   -.113E-13 0.139E-14 -.129E-03
   0.160E-12 -.115E-12 -.669E+03   -.364E-14 -.423E-14 0.669E+03   0.169E-20 -.424E-21 0.352E-01   0.105E-13 0.376E-13 -.688E-03
   -.415E-14 0.546E-13 -.669E+03   0.918E-14 -.129E-13 0.669E+03   0.000E+00 0.000E+00 0.352E-01   0.106E-13 0.324E-13 -.688E-03
   0.145E-12 -.240E-12 -.112E+04   -.275E-14 -.659E-17 0.111E+04   0.169E-20 0.000E+00 0.272E+01   0.246E-14 0.317E-13 -.363E-03
   0.181E-12 -.444E-12 -.154E+04   -.662E-14 -.619E-14 0.154E+04   0.000E+00 0.000E+00 -.220E+01   0.602E-14 0.440E-13 0.114E-02
   -.108E-13 0.553E-12 -.154E+04   0.656E-14 -.517E-14 0.154E+04   -.212E-21 0.000E+00 -.220E+01   0.135E-14 0.408E-13 0.114E-02
   -.269E-14 0.263E-12 0.255E+04   0.718E-14 0.728E-15 -.255E+04   0.000E+00 0.424E-21 -.499E+01   -.186E-14 -.244E-13 0.332E-02
   -.346E-14 -.136E-12 0.111E+04   0.107E-13 0.217E-14 -.111E+04   0.000E+00 -.847E-21 0.152E-01   -.971E-14 -.581E-14 0.560E-03
   -.800E-14 -.141E-12 -.372E+03   0.231E-14 0.116E-13 0.372E+03   0.847E-21 0.000E+00 0.103E+00   -.196E-14 -.367E-16 -.733E-03
   -.159E-14 -.120E-12 -.186E+04   0.115E-13 0.210E-14 0.186E+04   0.000E+00 0.000E+00 -.812E+00   -.678E-14 0.327E-13 -.789E-03
   0.237E-15 -.106E-12 0.743E+03   -.881E-14 0.112E-13 -.744E+03   0.000E+00 0.000E+00 -.388E+00   0.126E-14 -.515E-15 0.770E-03
   0.164E-14 -.821E-13 0.148E+03   -.903E-14 0.795E-14 -.149E+03   0.000E+00 0.424E-21 -.898E-01   0.789E-16 -.325E-14 -.109E-03
   0.489E-14 -.157E-12 -.446E+03   -.935E-14 0.112E-13 0.446E+03   0.000E+00 0.000E+00 -.170E-01   -.214E-14 -.549E-14 -.435E-03
   0.626E-14 -.268E-12 -.105E+04   -.597E-14 0.907E-14 0.104E+04   0.000E+00 0.000E+00 0.143E+01   0.170E-14 -.800E-14 0.930E-03
 -----------------------------------------------------------------------------------------------
   0.124E-11 -.133E-11 -.266E+01   -.747E-14 0.527E-14 0.909E-12   0.508E-20 0.212E-20 0.265E+01   0.215E-14 0.115E-12 0.736E-02
 
 
 POSITION                                       TOTAL-FORCE (eV/Angst)
 -----------------------------------------------------------------------------------
      1.95263      1.95263      6.00000         0.000000      0.000000     -1.075034
      1.95263      0.00000      7.95263        -0.000000      0.000000     -0.001500
      0.00000      1.95263      7.95263        -0.000000      0.000000     -0.001500
      1.95263      1.95263      9.90527        -0.000000      0.000000      0.380037
      1.95263      0.00000     11.85790        -0.000000      0.000000      0.068299
      0.00000      1.95263     11.85790        -0.000000      0.000000      0.068299
      1.95263      1.95263     13.81054        -0.000000     -0.000000      0.306351
      1.95263      0.00000     15.76317        -0.000000      0.000000      0.021147
      0.00000      1.95263     15.76317        -0.000000      0.000000      0.021147
      1.95263      1.95263     17.71580        -0.000000      0.000000      1.064591
      1.95263      0.00000     19.66844        -0.000000      0.000000      0.460135
      0.00000      1.95263     19.66844        -0.000000     -0.000000      0.460135
      0.00000      0.00000      6.00000        -0.000000     -0.000000      1.190364
      0.00000      0.00000      9.90527        -0.000000      0.000000     -0.005324
      0.00000      0.00000     13.81054        -0.000000      0.000000     -0.057337
      0.00000      0.00000     17.71580        -0.000000      0.000000      0.663556
      1.95263      1.95263      7.95263        -0.000000      0.000000     -1.030765
      1.95263      1.95263     11.85790        -0.000000      0.000000     -0.312571
      1.95263      1.95263     15.76317        -0.000000      0.000000     -0.371155
      1.95263      1.95263     19.66844        -0.000000      0.000000     -1.848875
 -----------------------------------------------------------------------------------
    total drift:                                0.000000     -0.000000      0.001707


--------------------------------------------------------------------------------------------------------



  FREE ENERGIE OF THE ION-ELECTRON SYSTEM (eV)
  ---------------------------------------------------
  free  energy   TOTEN  =      -156.66403395 eV

  energy  without entropy=     -156.66403395  energy(sigma->0) =     -156.66403395
 


--------------------------------------------------------------------------------------------------------


    POTLOK:  cpu time    0.1020: real time    0.1020


--------------------------------------------------------------------------------------------------------


     LOOP+:  cpu time   81.3866: real time   81.7837
    4ORBIT:  cpu time    0.0000: real time    0.0000
 BZINTS: Fermi energy:  0.584105;128.000000 electrons
         Band energy:***********;  BLOECHL correction:  0.000000

 total amount of memory used by VASP MPI-rank0    81940. kBytes
=======================================================================

   base      :      30000. kBytes
   nonl-proj :      14519. kBytes
   fftplans  :       6668. kBytes
   grid      :      11994. kBytes
   one-center:        155. kBytes
   wavefun   :      18604. kBytes
 
  
  
 General timing and accounting informations for this job:
 ========================================================
  
                  Total CPU time used (sec):       83.282
                            User time (sec):       82.072
                          System time (sec):        1.211
                         Elapsed time (sec):       84.003
  
                   Maximum memory used (kb):       90752.
                   Average memory used (kb):           0.
  
                          Minor page faults:        26534
                          Major page faults:          181
                 Voluntary context switches:         3353
