<?xml version="1.0" encoding="ISO-8859-1"?>
<modeling>
 <generator>
  <i name="program" type="string">vasp </i>
  <i name="version" type="string">5.4.4.18Apr17-6-g9f103f2a35  </i>
  <i name="subversion" type="string">(build Jun 30 2017 11:15:00) complex            parallel </i>
  <i name="platform" type="string">STALLO_VASP_5.4.4 </i>
  <i name="date" type="string">2019 11 06 </i>
  <i name="time" type="string">14:28:40 </i>
 </generator>
 <incar>
  <i type="string" name="PREC">normal    ! low/normal/accurate</i>
  <i type="string" name="ALGO"> Fast      ! Algorithm for electronic re</i>
  <i type="int" name="ISPIN">     1</i>
  <i type="int" name="NELMIN">     4</i>
  <i name="EDIFF">      0.00001000</i>
  <i type="int" name="NSW">     0</i>
  <i name="ENCUT">    500.00000000</i>
  <i type="logical" name="LREAL"> F  </i>
  <i type="int" name="ISMEAR">    -5</i>
  <i name="SIGMA">      0.20000000</i>
  <i type="logical" name="LWAVE"> F  </i>
  <v type="int" name="KPOINT_BSE">    -1     0     0     0</v>
 </incar>
 <structure name="primitive_cell" >
  <crystal>
   <varray name="basis" >
    <v>       3.90526800       0.00000000       0.00000000 </v>
    <v>       0.00000000       3.90526800       0.00000000 </v>
    <v>       0.00000000       0.00000000      25.66843800 </v>
   </varray>
   <i name="volume">    391.47238071 </i>
   <varray name="rec_basis" >
    <v>       0.25606437       0.00000000       0.00000000 </v>
    <v>       0.00000000       0.25606437       0.00000000 </v>
    <v>       0.00000000       0.00000000       0.03895835 </v>
   </varray>
  </crystal>
  <varray name="positions" >
   <v>      -0.50000000      -0.50000000       0.23375010 </v>
   <v>      -0.50000000      -0.50000000       0.30982150 </v>
   <v>      -0.50000000       0.00000000       0.30982150 </v>
   <v>       0.00000000      -0.50000000       0.30982150 </v>
   <v>       0.00000000       0.00000000       0.23375010 </v>
   <v>      -0.50000000      -0.50000000       0.38589290 </v>
   <v>       0.00000000       0.00000000       0.38589290 </v>
   <v>      -0.50000000      -0.50000000       0.46196430 </v>
   <v>      -0.50000000       0.00000000       0.46196430 </v>
   <v>       0.00000000      -0.50000000       0.46196430 </v>
   <v>      -0.50000000      -0.50000000      -0.46196430 </v>
   <v>       0.00000000       0.00000000      -0.46196430 </v>
   <v>      -0.50000000      -0.50000000      -0.38589290 </v>
   <v>      -0.50000000       0.00000000      -0.38589290 </v>
   <v>       0.00000000      -0.50000000      -0.38589290 </v>
   <v>      -0.50000000      -0.50000000      -0.30982150 </v>
   <v>      -0.50000000      -0.50000000      -0.23375010 </v>
   <v>       0.00000000       0.00000000      -0.30982150 </v>
   <v>      -0.50000000       0.00000000      -0.23375010 </v>
   <v>       0.00000000      -0.50000000      -0.23375010 </v>
  </varray>
 </structure>
 <varray name="primitive_index" >
  <v type="int" >        1 </v>
  <v type="int" >       17 </v>
  <v type="int" >        2 </v>
  <v type="int" >        3 </v>
  <v type="int" >       13 </v>
  <v type="int" >        4 </v>
  <v type="int" >       14 </v>
  <v type="int" >       18 </v>
  <v type="int" >        5 </v>
  <v type="int" >        6 </v>
  <v type="int" >        7 </v>
  <v type="int" >       15 </v>
  <v type="int" >       19 </v>
  <v type="int" >        8 </v>
  <v type="int" >        9 </v>
  <v type="int" >       10 </v>
  <v type="int" >       20 </v>
  <v type="int" >       16 </v>
  <v type="int" >       11 </v>
  <v type="int" >       12 </v>
 </varray>
 <kpoints>
  <generation param="Gamma">
   <v type="int" name="divisions">       5        5        1 </v>
   <v name="usershift">      0.00000000       0.00000000       0.00000000 </v>
   <v name="genvec1">      0.20000000       0.00000000       0.00000000 </v>
   <v name="genvec2">      0.00000000       0.20000000       0.00000000 </v>
   <v name="genvec3">      0.00000000       0.00000000       1.00000000 </v>
   <v name="shift">      0.00000000       0.00000000       0.00000000 </v>
  </generation>
  <varray name="kpointlist" >
   <v>       0.00000000       0.00000000       0.00000000 </v>
   <v>       0.20000000       0.00000000       0.00000000 </v>
   <v>       0.40000000       0.00000000       0.00000000 </v>
   <v>       0.20000000       0.20000000       0.00000000 </v>
   <v>       0.40000000       0.20000000       0.00000000 </v>
   <v>       0.40000000       0.40000000       0.00000000 </v>
  </varray>
  <varray name="weights" >
   <v>       0.04000000 </v>
   <v>       0.16000000 </v>
   <v>       0.16000000 </v>
   <v>       0.16000000 </v>
   <v>       0.32000000 </v>
   <v>       0.16000000 </v>
  </varray>
  <varray name="tetrahedronlist"  type="int" >
   <v type="int" >        4        1        1        2        4 </v>
   <v type="int" >        4        1        2        2        4 </v>
   <v type="int" >        4        1        2        4        4 </v>
   <v type="int" >        4        2        2        3        5 </v>
   <v type="int" >        4        2        2        4        5 </v>
   <v type="int" >        4        2        4        4        5 </v>
   <v type="int" >        4        2        3        3        5 </v>
   <v type="int" >        4        2        3        5        5 </v>
   <v type="int" >        4        2        4        5        5 </v>
   <v type="int" >        8        3        3        3        5 </v>
   <v type="int" >        8        3        3        5        5 </v>
   <v type="int" >        8        3        5        5        5 </v>
   <v type="int" >        4        2        3        3        4 </v>
   <v type="int" >        4        3        3        4        5 </v>
   <v type="int" >        4        3        4        5        5 </v>
   <v type="int" >        4        2        2        3        4 </v>
   <v type="int" >        4        2        3        4        4 </v>
   <v type="int" >        4        3        4        4        5 </v>
   <v type="int" >        4        1        2        2        2 </v>
   <v type="int" >        4        2        2        2        4 </v>
   <v type="int" >        2        2        2        4        4 </v>
   <v type="int" >        2        1        1        2        2 </v>
   <v type="int" >        4        4        4        5        6 </v>
   <v type="int" >        4        4        5        5        6 </v>
   <v type="int" >        4        4        5        6        6 </v>
   <v type="int" >       12        5        5        5        6 </v>
   <v type="int" >       10        5        5        6        6 </v>
   <v type="int" >        8        5        6        6        6 </v>
   <v type="int" >        4        4        5        5        5 </v>
   <v type="int" >        2        4        4        5        5 </v>
   <v type="int" >        6        6        6        6        6 </v>
  </varray>
  <i name="volumeweight">      0.00666667 </i>
 </kpoints>
 <parameters>
  <separator name="general" >
   <i type="string" name="SYSTEM">unknown system</i>
   <i type="logical" name="LCOMPAT"> F  </i>
  </separator>
  <separator name="electronic" >
   <i type="string" name="PREC">normal</i>
   <i name="ENMAX">    500.00000000</i>
   <i name="ENAUG">    605.39200000</i>
   <i name="EDIFF">      0.00001000</i>
   <i type="int" name="IALGO">    68</i>
   <i type="int" name="IWAVPR">    10</i>
   <i type="int" name="NBANDS">    76</i>
   <i name="NELECT">    128.00000000</i>
   <i type="int" name="TURBO">     0</i>
   <i type="int" name="IRESTART">     0</i>
   <i type="int" name="NREBOOT">     0</i>
   <i type="int" name="NMIN">     0</i>
   <i name="EREF">      0.00000000</i>
   <separator name="electronic smearing" >
    <i type="int" name="ISMEAR">    -5</i>
    <i name="SIGMA">      0.20000000</i>
    <i name="KSPACING">      0.50000000</i>
    <i type="logical" name="KGAMMA"> T  </i>
   </separator>
   <separator name="electronic projectors" >
    <i type="logical" name="LREAL"> F  </i>
    <v name="ROPT">      0.00000000      0.00000000      0.00000000</v>
    <i type="int" name="LMAXPAW">  -100</i>
    <i type="int" name="LMAXMIX">     2</i>
    <i type="logical" name="NLSPLINE"> F  </i>
   </separator>
   <separator name="electronic startup" >
    <i type="int" name="ISTART">     0</i>
    <i type="int" name="ICHARG">     2</i>
    <i type="int" name="INIWAV">     1</i>
   </separator>
   <separator name="electronic spin" >
    <i type="int" name="ISPIN">     1</i>
    <i type="logical" name="LNONCOLLINEAR"> F  </i>
    <v name="MAGMOM">      1.00000000      1.00000000      1.00000000      1.00000000      1.00000000      1.00000000      1.00000000      1.00000000      1.00000000      1.00000000      1.00000000      1.00000000      1.00000000      1.00000000      1.00000000      1.00000000      1.00000000      1.00000000      1.00000000      1.00000000
</v>
    <i name="NUPDOWN">     -1.00000000</i>
    <i type="logical" name="LSORBIT"> F  </i>
    <v name="SAXIS">      0.00000000      0.00000000      1.00000000</v>
    <i type="logical" name="LSPIRAL"> F  </i>
    <v name="QSPIRAL">      0.00000000      0.00000000      0.00000000</v>
    <i type="logical" name="LZEROZ"> F  </i>
   </separator>
   <separator name="electronic exchange-correlation" >
    <i type="logical" name="LASPH"> F  </i>
    <i type="logical" name="LMETAGGA"> F  </i>
   </separator>
   <separator name="electronic convergence" >
    <i type="int" name="NELM">    60</i>
    <i type="int" name="NELMDL">    -5</i>
    <i type="int" name="NELMIN">     4</i>
    <i name="ENINI">    500.00000000</i>
    <separator name="electronic convergence detail" >
     <i type="logical" name="LDIAG"> T  </i>
     <i type="logical" name="LSUBROT"> F  </i>
     <i name="WEIMIN">      0.00000000</i>
     <i name="EBREAK">      0.00000003</i>
     <i name="DEPER">      0.30000000</i>
     <i type="int" name="NRMM">     4</i>
     <i name="TIME">      0.40000000</i>
    </separator>
   </separator>
   <separator name="electronic mixer" >
    <i name="AMIX">      0.40000000</i>
    <i name="BMIX">      1.00000000</i>
    <i name="AMIN">      0.10000000</i>
    <i name="AMIX_MAG">      1.60000000</i>
    <i name="BMIX_MAG">      1.00000000</i>
    <separator name="electronic mixer details" >
     <i type="int" name="IMIX">     4</i>
     <i type="logical" name="MIXFIRST"> F  </i>
     <i type="int" name="MAXMIX">   -45</i>
     <i name="WC">    100.00000000</i>
     <i type="int" name="INIMIX">     1</i>
     <i type="int" name="MIXPRE">     1</i>
     <i type="int" name="MREMOVE">     5</i>
    </separator>
   </separator>
   <separator name="electronic dipolcorrection" >
    <i type="logical" name="LDIPOL"> F  </i>
    <i type="logical" name="LMONO"> F  </i>
    <i type="int" name="IDIPOL">     0</i>
    <i name="EPSILON">      1.00000000</i>
    <v name="DIPOL">   -100.00000000   -100.00000000   -100.00000000</v>
    <i name="EFIELD">      0.00000000</i>
   </separator>
  </separator>
  <separator name="grids" >
   <i type="int" name="NGX">    24</i>
   <i type="int" name="NGY">    24</i>
   <i type="int" name="NGZ">   140</i>
   <i type="int" name="NGXF">    48</i>
   <i type="int" name="NGYF">    48</i>
   <i type="int" name="NGZF">   280</i>
   <i type="logical" name="ADDGRID"> F  </i>
  </separator>
  <separator name="ionic" >
   <i type="int" name="NSW">     0</i>
   <i type="int" name="IBRION">    -1</i>
   <i type="int" name="MDALGO">     0</i>
   <i type="int" name="ISIF">     2</i>
   <i name="PSTRESS">      0.00000000</i>
   <i name="EDIFFG">      0.00010000</i>
   <i type="int" name="NFREE">     0</i>
   <i name="POTIM">      0.50000000</i>
   <i name="SMASS">     -3.00000000</i>
   <i name="SCALEE">      1.00000000</i>
  </separator>
  <separator name="ionic md" >
   <i name="TEBEG">      0.00010000</i>
   <i name="TEEND">      0.00010000</i>
   <i type="int" name="NBLOCK">     1</i>
   <i type="int" name="KBLOCK">     1</i>
   <i type="int" name="NPACO">   256</i>
   <i name="APACO">     16.00000000</i>
  </separator>
  <separator name="symmetry" >
   <i type="int" name="ISYM">     2</i>
   <i name="SYMPREC">      0.00001000</i>
  </separator>
  <separator name="dos" >
   <i type="int" name="LORBIT">     0</i>
   <v name="RWIGS">     -1.00000000     -1.00000000     -1.00000000</v>
   <i type="int" name="NEDOS">   301</i>
   <i name="EMIN">     10.00000000</i>
   <i name="EMAX">    -10.00000000</i>
   <i name="EFERMI">      0.00000000</i>
  </separator>
  <separator name="writing" >
   <i type="int" name="NWRITE">     2</i>
   <i type="logical" name="LWAVE"> F  </i>
   <i type="logical" name="LDOWNSAMPLE"> F  </i>
   <i type="logical" name="LCHARG"> T  </i>
   <i type="logical" name="LPARD"> F  </i>
   <i type="logical" name="LVTOT"> F  </i>
   <i type="logical" name="LVHAR"> F  </i>
   <i type="logical" name="LELF"> F  </i>
   <i type="logical" name="LOPTICS"> F  </i>
   <v name="STM">      0.00000000      0.00000000      0.00000000      0.00000000      0.00000000      0.00000000      0.00000000</v>
  </separator>
  <separator name="performance" >
   <i type="int" name="NPAR">     2</i>
   <i type="int" name="NSIM">     4</i>
   <i type="int" name="NBLK">    -1</i>
   <i type="logical" name="LPLANE"> T  </i>
   <i type="logical" name="LSCALAPACK"> T  </i>
   <i type="logical" name="LSCAAWARE"> F  </i>
   <i type="logical" name="LSCALU"> F  </i>
   <i type="logical" name="LASYNC"> F  </i>
   <i type="logical" name="LORBITALREAL"> F  </i>
  </separator>
  <separator name="miscellaneous" >
   <i type="int" name="IDIOT">     3</i>
   <i type="int" name="ISPECIAL">     0</i>
   <i type="logical" name="LMUSIC"> F  </i>
   <v name="POMASS">     16.00000000     87.62000000     47.88000000</v>
   <v name="DARWINR">      0.00000000      0.00000000      0.00000000</v>
   <v name="DARWINV">      1.00000000      1.00000000      1.00000000</v>
   <i type="logical" name="LCORR"> T  </i>
  </separator>
  <i type="logical" name="GGA_COMPAT"> T  </i>
  <i type="logical" name="LBERRY"> F  </i>
  <i type="int" name="ICORELEVEL">     0</i>
  <i type="logical" name="LDAU"> F  </i>
  <i type="int" name="I_CONSTRAINED_M">     0</i>
  <separator name="electronic exchange-correlation" >
   <i type="string" name="GGA">--</i>
   <i type="int" name="VOSKOWN">     0</i>
   <i type="logical" name="LHFCALC"> F  </i>
   <i type="string" name="PRECFOCK"></i>
   <i type="logical" name="LSYMGRAD"> F  </i>
   <i type="logical" name="LHFONE"> F  </i>
   <i type="logical" name="LRHFCALC"> F  </i>
   <i type="logical" name="LTHOMAS"> F  </i>
   <i type="logical" name="LMODELHF"> F  </i>
   <i name="ENCUT4O">     -1.00000000</i>
   <i type="int" name="EXXOEP">     0</i>
   <i type="int" name="FOURORBIT">     0</i>
   <i name="AEXX">      0.00000000</i>
   <i name="HFALPHA">      0.00000000</i>
   <i name="MCALPHA">      0.00000000</i>
   <i name="ALDAX">      1.00000000</i>
   <i name="AGGAX">      1.00000000</i>
   <i name="ALDAC">      1.00000000</i>
   <i name="AGGAC">      1.00000000</i>
   <i type="int" name="NKREDX">     1</i>
   <i type="int" name="NKREDY">     1</i>
   <i type="int" name="NKREDZ">     1</i>
   <i type="logical" name="SHIFTRED"> F  </i>
   <i type="logical" name="ODDONLY"> F  </i>
   <i type="logical" name="EVENONLY"> F  </i>
   <i type="int" name="LMAXFOCK">     0</i>
   <i type="int" name="NMAXFOCKAE">     0</i>
   <i type="logical" name="LFOCKAEDFT"> F  </i>
   <i name="HFSCREEN">      0.00000000</i>
   <i name="HFSCREENC">      0.00000000</i>
   <i type="int" name="NBANDSGWLOW">     0</i>
  </separator>
  <separator name="vdW DFT" >
   <i type="logical" name="LUSE_VDW"> F  </i>
   <i name="Zab_VDW">     -0.84910000</i>
   <i name="PARAM1">      0.12340000</i>
   <i name="PARAM2">      1.00000000</i>
   <i name="PARAM3">      0.00000000</i>
  </separator>
  <separator name="model GW" >
   <i type="int" name="MODEL_GW">     0</i>
   <i name="MODEL_EPS0">     11.74417142</i>
   <i name="MODEL_ALPHA">      1.00000000</i>
  </separator>
  <separator name="linear response parameters" >
   <i type="logical" name="LEPSILON"> F  </i>
   <i type="logical" name="LRPA"> F  </i>
   <i type="logical" name="LNABLA"> F  </i>
   <i type="logical" name="LVEL"> F  </i>
   <i type="int" name="KINTER">     0</i>
   <i name="CSHIFT">      0.10000000</i>
   <i name="OMEGAMAX">     -1.00000000</i>
   <i name="DEG_THRESHOLD">      0.00200000</i>
   <i name="RTIME">     -0.10000000</i>
   <i name="WPLASMAI">      0.00000000</i>
   <v name="DFIELD">      0.00000000      0.00000000      0.00000000</v>
   <v name="WPLASMA">      0.00000000      0.00000000      0.00000000      0.00000000      0.00000000      0.00000000      0.00000000      0.00000000      0.00000000</v>
  </separator>
  <separator name="orbital magnetization" >
   <i type="logical" name="NUCIND"> F  </i>
   <v name="MAGPOS">      0.00000000      0.00000000      0.00000000</v>
   <i type="logical" name="LNICSALL"> T  </i>
   <i type="logical" name="ORBITALMAG"> F  </i>
   <i type="logical" name="LMAGBLOCH"> F  </i>
   <i type="logical" name="LCHIMAG"> F  </i>
   <i type="logical" name="LGAUGE"> T  </i>
   <i type="int" name="MAGATOM">     0</i>
   <v name="MAGDIPOL">      0.00000000      0.00000000      0.00000000</v>
   <v name="AVECCONST">      0.00000000      0.00000000      0.00000000</v>
  </separator>
  <separator name="response functions" >
   <i type="logical" name="LADDER"> F  </i>
   <i type="logical" name="LRPAFORCE"> F  </i>
   <i type="logical" name="LFXC"> F  </i>
   <i type="logical" name="LHARTREE"> T  </i>
   <i type="int" name="IBSE">     0</i>
   <v type="int" name="KPOINT">    -1     0     0     0</v>
   <i type="logical" name="LTCTE"> F  </i>
   <i type="logical" name="LTETE"> F  </i>
   <i type="logical" name="LTRIPLET"> F  </i>
   <i type="logical" name="LFXCEPS"> F  </i>
   <i type="logical" name="LFXHEG"> F  </i>
   <i type="int" name="NATURALO">     2</i>
   <i type="logical" name="L2ORDER"> F  </i>
   <i type="logical" name="LMP2LT"> F  </i>
   <i type="logical" name="LUSEW"> F  </i>
   <i name="ENCUTGW">     -2.00000000</i>
   <i name="ENCUTGWSOFT">     -2.00000000</i>
   <i name="ENCUTLF">     -1.00000000</i>
   <i type="int" name="LMAXMP2">    -1</i>
   <i name="SCISSOR">      0.00000000</i>
   <i type="int" name="NOMEGA">     0</i>
   <i type="int" name="NOMEGAR">     0</i>
   <i type="int" name="NBANDSGW">    -1</i>
   <i type="int" name="NBANDSO">    -1</i>
   <i type="int" name="NBANDSV">    -1</i>
   <i type="int" name="NELM">     1</i>
   <i type="int" name="NELMHF">     1</i>
   <i type="int" name="DIM">     3</i>
   <i type="int" name="ANTIRES">     0</i>
   <i name="OMEGAMAX">    -30.00000000</i>
   <i name="OMEGAMIN">    -30.00000000</i>
   <i name="OMEGATL">   -200.00000000</i>
   <i type="int" name="OMEGAGRID">   140</i>
   <i name="CSHIFT">     -0.10000000</i>
   <i type="logical" name="SELFENERGY"> F  </i>
   <i type="logical" name="LSPECTRAL"> F  </i>
   <i type="logical" name="LSPECTRALGW"> F  </i>
   <i type="logical" name="LSINGLES"> F  </i>
   <i type="logical" name="LFERMIGW"> F  </i>
   <i type="logical" name="ODDONLYGW"> F  </i>
   <i type="logical" name="EVENONLYGW"> F  </i>
   <i type="int" name="NKREDLFX">     1</i>
   <i type="int" name="NKREDLFY">     1</i>
   <i type="int" name="NKREDLFZ">     1</i>
   <i type="int" name="MAXMEM">  2800</i>
   <i type="int" name="TELESCOPE">     0</i>
   <i type="int" name="TAUPAR">     1</i>
   <i type="int" name="OMEGAPAR">    -1</i>
   <i name="LAMBDA">      1.00000000</i>
  </separator>
  <separator name="External order field" >
   <i name="OFIELD_KAPPA">      0.00000000</i>
   <v name="OFIELD_K">      0.00000000      0.00000000      0.00000000</v>
   <i name="OFIELD_Q6_NEAR">      0.00000000</i>
   <i name="OFIELD_Q6_FAR">      0.00000000</i>
   <i name="OFIELD_A">      0.00000000</i>
  </separator>
 </parameters>
 <atominfo>
  <atoms>      20 </atoms>
  <types>       3 </types>
  <array name="atoms" >
   <dimension dim="1">ion</dimension>
   <field type="string">element</field>
   <field type="int">atomtype</field>
   <set>
    <rc><c>O </c><c>   1</c></rc>
    <rc><c>O </c><c>   1</c></rc>
    <rc><c>O </c><c>   1</c></rc>
    <rc><c>O </c><c>   1</c></rc>
    <rc><c>O </c><c>   1</c></rc>
    <rc><c>O </c><c>   1</c></rc>
    <rc><c>O </c><c>   1</c></rc>
    <rc><c>O </c><c>   1</c></rc>
    <rc><c>O </c><c>   1</c></rc>
    <rc><c>O </c><c>   1</c></rc>
    <rc><c>O </c><c>   1</c></rc>
    <rc><c>O </c><c>   1</c></rc>
    <rc><c>Sr</c><c>   2</c></rc>
    <rc><c>Sr</c><c>   2</c></rc>
    <rc><c>Sr</c><c>   2</c></rc>
    <rc><c>Sr</c><c>   2</c></rc>
    <rc><c>Ti</c><c>   3</c></rc>
    <rc><c>Ti</c><c>   3</c></rc>
    <rc><c>Ti</c><c>   3</c></rc>
    <rc><c>Ti</c><c>   3</c></rc>
   </set>
  </array>
  <array name="atomtypes" >
   <dimension dim="1">type</dimension>
   <field type="int">atomspertype</field>
   <field type="string">element</field>
   <field>mass</field>
   <field>valence</field>
   <field type="string">pseudopotential</field>
   <set>
    <rc><c>  12</c><c>O </c><c>     16.00000000</c><c>      6.00000000</c><c> PAW_PBE O 08Apr2002                    </c></rc>
    <rc><c>   4</c><c>Sr</c><c>     87.62000000</c><c>     10.00000000</c><c> PAW_PBE Sr_sv 07Sep2000                </c></rc>
    <rc><c>   4</c><c>Ti</c><c>     47.88000000</c><c>      4.00000000</c><c> PAW_PBE Ti 08Apr2002                   </c></rc>
   </set>
  </array>
 </atominfo>
 <structure name="initialpos" >
  <crystal>
   <varray name="basis" >
    <v>       3.90526800       0.00000000       0.00000000 </v>
    <v>       0.00000000       3.90526800       0.00000000 </v>
    <v>       0.00000000       0.00000000      25.66843800 </v>
   </varray>
   <i name="volume">    391.47238071 </i>
   <varray name="rec_basis" >
    <v>       0.25606437       0.00000000       0.00000000 </v>
    <v>       0.00000000       0.25606437       0.00000000 </v>
    <v>       0.00000000       0.00000000       0.03895835 </v>
   </varray>
  </crystal>
  <varray name="positions" >
   <v>       0.50000000       0.50000000       0.23375010 </v>
   <v>       0.50000000       0.00000000       0.30982150 </v>
   <v>       0.00000000       0.50000000       0.30982150 </v>
   <v>       0.50000000       0.50000000       0.38589290 </v>
   <v>       0.50000000       0.00000000       0.46196430 </v>
   <v>       0.00000000       0.50000000       0.46196430 </v>
   <v>       0.50000000       0.50000000       0.53803570 </v>
   <v>       0.50000000       0.00000000       0.61410710 </v>
   <v>       0.00000000       0.50000000       0.61410710 </v>
   <v>       0.50000000       0.50000000       0.69017850 </v>
   <v>       0.50000000       0.00000000       0.76624990 </v>
   <v>       0.00000000       0.50000000       0.76624990 </v>
   <v>       0.00000000       0.00000000       0.23375010 </v>
   <v>       0.00000000       0.00000000       0.38589290 </v>
   <v>       0.00000000       0.00000000       0.53803570 </v>
   <v>       0.00000000       0.00000000       0.69017850 </v>
   <v>       0.50000000       0.50000000       0.30982150 </v>
   <v>       0.50000000       0.50000000       0.46196430 </v>
   <v>       0.50000000       0.50000000       0.61410710 </v>
   <v>       0.50000000       0.50000000       0.76624990 </v>
  </varray>
 </structure>
 <calculation>
  <scstep>
   <time name="dav">    2.73    2.73</time>
   <time name="total">    2.84    3.09</time>
   <energy>
    <i name="alphaZ">    451.31605171 </i>
    <i name="ewald">  24913.70541863 </i>
    <i name="hartreedc"> -33364.93616084 </i>
    <i name="XCdc">    326.68052994 </i>
    <i name="pawpsdc">   5334.45189010 </i>
    <i name="pawaedc">  -5139.13784255 </i>
    <i name="eentropy">      0.00000000 </i>
    <i name="bandstr">    162.54290385 </i>
    <i name="atom">   8937.26825017 </i>
    <i name="e_fr_energy">   1621.89104102 </i>
    <i name="e_wo_entrp">   1621.89104102 </i>
    <i name="e_0_energy">   1621.89104102 </i>
   </energy>
  </scstep>
  <scstep>
   <time name="dav">    3.08    3.09</time>
   <time name="total">    3.08    3.09</time>
   <energy>
    <i name="e_fr_energy">    185.97538671 </i>
    <i name="e_wo_entrp">    185.97538671 </i>
    <i name="e_0_energy">    185.97538671 </i>
   </energy>
  </scstep>
  <scstep>
   <time name="dav">    3.47    3.48</time>
   <time name="total">    3.48    3.48</time>
   <energy>
    <i name="e_fr_energy">   -174.25523027 </i>
    <i name="e_wo_entrp">   -174.25523027 </i>
    <i name="e_0_energy">   -174.25523027 </i>
   </energy>
  </scstep>
  <scstep>
   <time name="dav">    3.29    3.30</time>
   <time name="total">    3.29    3.30</time>
   <energy>
    <i name="e_fr_energy">   -200.18850977 </i>
    <i name="e_wo_entrp">   -200.18850977 </i>
    <i name="e_0_energy">   -200.18850977 </i>
   </energy>
  </scstep>
  <scstep>
   <time name="dav">    4.15    4.15</time>
   <time name="total">    4.27    4.27</time>
   <energy>
    <i name="e_fr_energy">   -201.75342576 </i>
    <i name="e_wo_entrp">   -201.75342576 </i>
    <i name="e_0_energy">   -201.75342576 </i>
   </energy>
  </scstep>
  <scstep>
   <time name="diag">    0.32    0.32</time>
   <time name="diis">    2.15    2.15</time>
   <time name="orth">    0.07    0.07</time>
   <time name="total">    2.77    2.77</time>
   <energy>
    <i name="e_fr_energy">   -161.26258007 </i>
    <i name="e_wo_entrp">   -161.26258007 </i>
    <i name="e_0_energy">   -161.26258007 </i>
   </energy>
  </scstep>
  <scstep>
   <time name="diag">    0.32    0.32</time>
   <time name="diis">    2.37    2.37</time>
   <time name="orth">    0.06    0.06</time>
   <time name="total">    2.97    2.98</time>
   <energy>
    <i name="e_fr_energy">   -157.67147749 </i>
    <i name="e_wo_entrp">   -157.67147749 </i>
    <i name="e_0_energy">   -157.67147749 </i>
   </energy>
  </scstep>
  <scstep>
   <time name="diag">    0.32    0.32</time>
   <time name="diis">    2.64    2.64</time>
   <time name="orth">    0.06    0.06</time>
   <time name="total">    3.24    3.25</time>
   <energy>
    <i name="e_fr_energy">   -156.93894729 </i>
    <i name="e_wo_entrp">   -156.93894729 </i>
    <i name="e_0_energy">   -156.93894729 </i>
   </energy>
  </scstep>
  <scstep>
   <time name="diag">    0.32    0.32</time>
   <time name="diis">    2.64    2.64</time>
   <time name="orth">    0.06    0.06</time>
   <time name="total">    3.24    3.25</time>
   <energy>
    <i name="e_fr_energy">   -156.74558837 </i>
    <i name="e_wo_entrp">   -156.74558837 </i>
    <i name="e_0_energy">   -156.74558837 </i>
   </energy>
  </scstep>
  <scstep>
   <time name="diag">    0.32    0.32</time>
   <time name="diis">    3.03    3.02</time>
   <time name="orth">    0.06    0.06</time>
   <time name="total">    3.63    3.64</time>
   <energy>
    <i name="e_fr_energy">   -156.70472221 </i>
    <i name="e_wo_entrp">   -156.70472221 </i>
    <i name="e_0_energy">   -156.70472221 </i>
   </energy>
  </scstep>
  <scstep>
   <time name="diag">    0.32    0.32</time>
   <time name="diis">    2.89    2.89</time>
   <time name="orth">    0.06    0.06</time>
   <time name="total">    3.49    3.49</time>
   <energy>
    <i name="e_fr_energy">   -156.68270770 </i>
    <i name="e_wo_entrp">   -156.68270770 </i>
    <i name="e_0_energy">   -156.68270770 </i>
   </energy>
  </scstep>
  <scstep>
   <time name="diag">    0.32    0.32</time>
   <time name="diis">    3.02    3.02</time>
   <time name="orth">    0.06    0.06</time>
   <time name="total">    3.62    3.63</time>
   <energy>
    <i name="e_fr_energy">   -156.67018758 </i>
    <i name="e_wo_entrp">   -156.67018758 </i>
    <i name="e_0_energy">   -156.67018758 </i>
   </energy>
  </scstep>
  <scstep>
   <time name="diag">    0.32    0.32</time>
   <time name="diis">    3.08    3.07</time>
   <time name="orth">    0.06    0.06</time>
   <time name="total">    3.68    3.68</time>
   <energy>
    <i name="e_fr_energy">   -156.66419341 </i>
    <i name="e_wo_entrp">   -156.66419341 </i>
    <i name="e_0_energy">   -156.66419341 </i>
   </energy>
  </scstep>
  <scstep>
   <time name="diag">    0.32    0.32</time>
   <time name="diis">    2.84    2.83</time>
   <time name="orth">    0.06    0.06</time>
   <time name="total">    3.44    3.44</time>
   <energy>
    <i name="e_fr_energy">   -156.65998536 </i>
    <i name="e_wo_entrp">   -156.65998536 </i>
    <i name="e_0_energy">   -156.65998536 </i>
   </energy>
  </scstep>
  <scstep>
   <time name="diag">    0.32    0.32</time>
   <time name="diis">    2.97    2.97</time>
   <time name="orth">    0.06    0.06</time>
   <time name="total">    3.58    3.58</time>
   <energy>
    <i name="e_fr_energy">   -156.65946793 </i>
    <i name="e_wo_entrp">   -156.65946793 </i>
    <i name="e_0_energy">   -156.65946793 </i>
   </energy>
  </scstep>
  <scstep>
   <time name="diag">    0.32    0.32</time>
   <time name="diis">    2.96    2.96</time>
   <time name="orth">    0.06    0.06</time>
   <time name="total">    3.57    3.57</time>
   <energy>
    <i name="e_fr_energy">   -156.66057154 </i>
    <i name="e_wo_entrp">   -156.66057154 </i>
    <i name="e_0_energy">   -156.66057154 </i>
   </energy>
  </scstep>
  <scstep>
   <time name="diag">    0.32    0.32</time>
   <time name="diis">    2.92    2.92</time>
   <time name="orth">    0.06    0.06</time>
   <time name="total">    3.53    3.53</time>
   <energy>
    <i name="e_fr_energy">   -156.66089902 </i>
    <i name="e_wo_entrp">   -156.66089902 </i>
    <i name="e_0_energy">   -156.66089902 </i>
   </energy>
  </scstep>
  <scstep>
   <time name="diag">    0.32    0.32</time>
   <time name="diis">    2.87    2.87</time>
   <time name="orth">    0.06    0.06</time>
   <time name="total">    3.47    3.47</time>
   <energy>
    <i name="e_fr_energy">   -156.66209285 </i>
    <i name="e_wo_entrp">   -156.66209285 </i>
    <i name="e_0_energy">   -156.66209285 </i>
   </energy>
  </scstep>
  <scstep>
   <time name="diag">    0.31    0.32</time>
   <time name="diis">    2.58    2.58</time>
   <time name="orth">    0.06    0.06</time>
   <time name="total">    3.18    3.19</time>
   <energy>
    <i name="e_fr_energy">   -156.66326685 </i>
    <i name="e_wo_entrp">   -156.66326685 </i>
    <i name="e_0_energy">   -156.66326685 </i>
   </energy>
  </scstep>
  <scstep>
   <time name="diag">    0.32    0.32</time>
   <time name="diis">    2.38    2.38</time>
   <time name="orth">    0.06    0.06</time>
   <time name="total">    2.98    2.99</time>
   <energy>
    <i name="e_fr_energy">   -156.66372883 </i>
    <i name="e_wo_entrp">   -156.66372883 </i>
    <i name="e_0_energy">   -156.66372883 </i>
   </energy>
  </scstep>
  <scstep>
   <time name="diag">    0.32    0.32</time>
   <time name="diis">    2.07    2.07</time>
   <time name="orth">    0.06    0.06</time>
   <time name="total">    2.67    2.68</time>
   <energy>
    <i name="e_fr_energy">   -156.66397869 </i>
    <i name="e_wo_entrp">   -156.66397869 </i>
    <i name="e_0_energy">   -156.66397869 </i>
   </energy>
  </scstep>
  <scstep>
   <time name="diag">    0.32    0.32</time>
   <time name="diis">    1.79    1.79</time>
   <time name="orth">    0.06    0.06</time>
   <time name="total">    2.40    2.40</time>
   <energy>
    <i name="e_fr_energy">   -156.66401532 </i>
    <i name="e_wo_entrp">   -156.66401532 </i>
    <i name="e_0_energy">   -156.66401532 </i>
   </energy>
  </scstep>
  <scstep>
   <time name="diag">    0.32    0.32</time>
   <time name="diis">    1.60    1.60</time>
   <time name="orth">    0.06    0.06</time>
   <time name="total">    2.21    2.21</time>
   <energy>
    <i name="e_fr_energy">   -156.66402839 </i>
    <i name="e_wo_entrp">   -156.66402839 </i>
    <i name="e_0_energy">   -156.66402839 </i>
   </energy>
  </scstep>
  <scstep>
   <time name="diag">    0.32    0.32</time>
   <time name="diis">    1.56    1.56</time>
   <time name="orth">    0.06    0.06</time>
   <time name="total">    2.05    2.05</time>
   <energy>
    <i name="alphaZ">    451.31605171 </i>
    <i name="ewald">  24913.70541863 </i>
    <i name="hartreedc"> -33784.13700990 </i>
    <i name="XCdc">    342.95759759 </i>
    <i name="pawpsdc">   6206.05280441 </i>
    <i name="pawaedc">  -6036.35719829 </i>
    <i name="eentropy">      0.00000000 </i>
    <i name="bandstr">  -1187.46994829 </i>
    <i name="atom">   8937.26825017 </i>
    <i name="e_fr_energy">   -156.66403395 </i>
    <i name="e_wo_entrp">   -156.66403395 </i>
    <i name="e_0_energy">   -156.66403395 </i>
   </energy>
  </scstep>
  <structure>
   <crystal>
    <varray name="basis" >
     <v>       3.90526800       0.00000000       0.00000000 </v>
     <v>       0.00000000       3.90526800       0.00000000 </v>
     <v>       0.00000000       0.00000000      25.66843800 </v>
    </varray>
    <i name="volume">    391.47238071 </i>
    <varray name="rec_basis" >
     <v>       0.25606437       0.00000000       0.00000000 </v>
     <v>       0.00000000       0.25606437       0.00000000 </v>
     <v>       0.00000000       0.00000000       0.03895835 </v>
    </varray>
   </crystal>
   <varray name="positions" >
    <v>       0.50000000       0.50000000       0.23375010 </v>
    <v>       0.50000000       0.00000000       0.30982150 </v>
    <v>       0.00000000       0.50000000       0.30982150 </v>
    <v>       0.50000000       0.50000000       0.38589290 </v>
    <v>       0.50000000       0.00000000       0.46196430 </v>
    <v>       0.00000000       0.50000000       0.46196430 </v>
    <v>       0.50000000       0.50000000       0.53803570 </v>
    <v>       0.50000000       0.00000000       0.61410710 </v>
    <v>       0.00000000       0.50000000       0.61410710 </v>
    <v>       0.50000000       0.50000000       0.69017850 </v>
    <v>       0.50000000       0.00000000       0.76624990 </v>
    <v>       0.00000000       0.50000000       0.76624990 </v>
    <v>       0.00000000       0.00000000       0.23375010 </v>
    <v>       0.00000000       0.00000000       0.38589290 </v>
    <v>       0.00000000       0.00000000       0.53803570 </v>
    <v>       0.00000000       0.00000000       0.69017850 </v>
    <v>       0.50000000       0.50000000       0.30982150 </v>
    <v>       0.50000000       0.50000000       0.46196430 </v>
    <v>       0.50000000       0.50000000       0.61410710 </v>
    <v>       0.50000000       0.50000000       0.76624990 </v>
   </varray>
  </structure>
  <varray name="forces" >
   <v>       0.00000000       0.00000000      -1.07503363 </v>
   <v>      -0.00000000       0.00000000      -0.00150008 </v>
   <v>      -0.00000000       0.00000000      -0.00150008 </v>
   <v>      -0.00000000       0.00000000       0.38003662 </v>
   <v>      -0.00000000       0.00000000       0.06829911 </v>
   <v>      -0.00000000       0.00000000       0.06829911 </v>
   <v>      -0.00000000      -0.00000000       0.30635109 </v>
   <v>      -0.00000000       0.00000000       0.02114673 </v>
   <v>      -0.00000000       0.00000000       0.02114673 </v>
   <v>      -0.00000000       0.00000000       1.06459064 </v>
   <v>      -0.00000000       0.00000000       0.46013477 </v>
   <v>      -0.00000000      -0.00000000       0.46013477 </v>
   <v>      -0.00000000      -0.00000000       1.19036375 </v>
   <v>      -0.00000000       0.00000000      -0.00532375 </v>
   <v>      -0.00000000       0.00000000      -0.05733687 </v>
   <v>      -0.00000000       0.00000000       0.66355617 </v>
   <v>      -0.00000000       0.00000000      -1.03076464 </v>
   <v>      -0.00000000       0.00000000      -0.31257079 </v>
   <v>      -0.00000000       0.00000000      -0.37115507 </v>
   <v>      -0.00000000       0.00000000      -1.84887456 </v>
  </varray>
  <varray name="stress" >
   <v>      12.61603583       0.00000000       0.00000000 </v>
   <v>       0.00000000      12.61603583       0.00000000 </v>
   <v>       0.00000000       0.00000000      17.25337961 </v>
  </varray>
  <energy>
   <i name="e_fr_energy">   -156.66403395 </i>
   <i name="e_wo_entrp">   -156.66403395 </i>
   <i name="e_0_energy">      0.00000000 </i>
  </energy>
  <time name="totalsc">   81.39   81.78</time>
  <eigenvalues>
   <array>
    <dimension dim="1">band</dimension>
    <dimension dim="2">kpoint</dimension>
    <dimension dim="3">spin</dimension>
    <field>eigene</field>
    <field>occ</field>
    <set>
     <set comment="spin 1">
      <set comment="kpoint 1">
       <r>  -33.7852    1.0000 </r>
       <r>  -32.7966    1.0000 </r>
       <r>  -32.7080    1.0000 </r>
       <r>  -32.6591    1.0000 </r>
       <r>  -17.7113    1.0000 </r>
       <r>  -17.6269    1.0000 </r>
       <r>  -17.5212    1.0000 </r>
       <r>  -17.0476    1.0000 </r>
       <r>  -16.5657    1.0000 </r>
       <r>  -16.5208    1.0000 </r>
       <r>  -16.4923    1.0000 </r>
       <r>  -16.4659    1.0000 </r>
       <r>  -16.4201    1.0000 </r>
       <r>  -16.3769    1.0000 </r>
       <r>  -15.9470    1.0000 </r>
       <r>  -15.7503    1.0000 </r>
       <r>  -15.7012    1.0000 </r>
       <r>  -15.7012    1.0000 </r>
       <r>  -15.6047    1.0000 </r>
       <r>  -14.8512    1.0000 </r>
       <r>  -14.8512    1.0000 </r>
       <r>  -14.7561    1.0000 </r>
       <r>  -14.7561    1.0000 </r>
       <r>  -14.7297    1.0000 </r>
       <r>  -14.7297    1.0000 </r>
       <r>  -14.6979    1.0000 </r>
       <r>  -14.4051    1.0000 </r>
       <r>  -14.2653    1.0000 </r>
       <r>   -4.2638    1.0000 </r>
       <r>   -3.7181    1.0000 </r>
       <r>   -3.1797    1.0000 </r>
       <r>   -3.0060    1.0000 </r>
       <r>   -3.0060    1.0000 </r>
       <r>   -2.9075    1.0000 </r>
       <r>   -2.9075    1.0000 </r>
       <r>   -2.8415    1.0000 </r>
       <r>   -2.8415    1.0000 </r>
       <r>   -2.5445    1.0000 </r>
       <r>   -2.5445    1.0000 </r>
       <r>   -2.5237    1.0000 </r>
       <r>   -2.2662    1.0000 </r>
       <r>   -2.1646    1.0000 </r>
       <r>   -2.1646    1.0000 </r>
       <r>   -1.9488    1.0000 </r>
       <r>   -1.8381    1.0000 </r>
       <r>   -1.7787    1.0000 </r>
       <r>   -1.7787    1.0000 </r>
       <r>   -1.6998    1.0000 </r>
       <r>   -1.4474    1.0000 </r>
       <r>   -1.4474    1.0000 </r>
       <r>   -1.3698    1.0000 </r>
       <r>   -1.3493    1.0000 </r>
       <r>   -1.0731    1.0000 </r>
       <r>   -1.0731    1.0000 </r>
       <r>   -0.8513    1.0000 </r>
       <r>   -0.7444    1.0000 </r>
       <r>   -0.7444    1.0000 </r>
       <r>   -0.6458    1.0000 </r>
       <r>   -0.5958    1.0000 </r>
       <r>   -0.5958    1.0000 </r>
       <r>   -0.3675    1.0000 </r>
       <r>   -0.3675    1.0000 </r>
       <r>   -0.0556    1.0000 </r>
       <r>   -0.0556    1.0000 </r>
       <r>    1.6072    0.0000 </r>
       <r>    1.7156    0.0000 </r>
       <r>    1.7156    0.0000 </r>
       <r>    1.7480    0.0000 </r>
       <r>    1.8804    0.0000 </r>
       <r>    1.9939    0.0000 </r>
       <r>    2.2887    0.0000 </r>
       <r>    2.2900    0.0000 </r>
       <r>    2.3271    0.0000 </r>
       <r>    3.0159    0.0000 </r>
       <r>    5.4599    0.0000 </r>
       <r>    5.5546    0.0000 </r>
      </set>
      <set comment="kpoint 2">
       <r>  -33.7789    1.0000 </r>
       <r>  -32.7891    1.0000 </r>
       <r>  -32.7006    1.0000 </r>
       <r>  -32.6516    1.0000 </r>
       <r>  -17.5944    1.0000 </r>
       <r>  -17.5023    1.0000 </r>
       <r>  -17.4867    1.0000 </r>
       <r>  -17.0455    1.0000 </r>
       <r>  -16.6093    1.0000 </r>
       <r>  -16.5646    1.0000 </r>
       <r>  -16.5447    1.0000 </r>
       <r>  -16.4607    1.0000 </r>
       <r>  -16.4258    1.0000 </r>
       <r>  -16.4187    1.0000 </r>
       <r>  -16.1378    1.0000 </r>
       <r>  -15.9299    1.0000 </r>
       <r>  -15.7128    1.0000 </r>
       <r>  -15.6867    1.0000 </r>
       <r>  -15.1089    1.0000 </r>
       <r>  -14.8334    1.0000 </r>
       <r>  -14.7380    1.0000 </r>
       <r>  -14.7166    1.0000 </r>
       <r>  -14.7109    1.0000 </r>
       <r>  -14.6766    1.0000 </r>
       <r>  -14.5628    1.0000 </r>
       <r>  -14.5547    1.0000 </r>
       <r>  -14.4396    1.0000 </r>
       <r>  -14.3267    1.0000 </r>
       <r>   -4.2877    1.0000 </r>
       <r>   -3.8604    1.0000 </r>
       <r>   -3.5737    1.0000 </r>
       <r>   -3.5565    1.0000 </r>
       <r>   -3.4163    1.0000 </r>
       <r>   -3.2623    1.0000 </r>
       <r>   -3.1417    1.0000 </r>
       <r>   -3.0414    1.0000 </r>
       <r>   -3.0219    1.0000 </r>
       <r>   -2.9250    1.0000 </r>
       <r>   -2.8489    1.0000 </r>
       <r>   -2.7529    1.0000 </r>
       <r>   -2.6727    1.0000 </r>
       <r>   -2.4827    1.0000 </r>
       <r>   -2.3294    1.0000 </r>
       <r>   -2.1970    1.0000 </r>
       <r>   -1.9654    1.0000 </r>
       <r>   -1.9568    1.0000 </r>
       <r>   -1.8493    1.0000 </r>
       <r>   -1.7109    1.0000 </r>
       <r>   -1.5872    1.0000 </r>
       <r>   -1.5281    1.0000 </r>
       <r>   -1.4671    1.0000 </r>
       <r>   -1.3873    1.0000 </r>
       <r>   -1.3581    1.0000 </r>
       <r>   -1.2821    1.0000 </r>
       <r>   -1.1666    1.0000 </r>
       <r>   -1.1526    1.0000 </r>
       <r>   -0.9909    1.0000 </r>
       <r>   -0.9291    1.0000 </r>
       <r>   -0.8996    1.0000 </r>
       <r>   -0.7861    1.0000 </r>
       <r>   -0.6521    1.0000 </r>
       <r>   -0.5947    1.0000 </r>
       <r>   -0.5395    1.0000 </r>
       <r>   -0.4963    1.0000 </r>
       <r>    1.7502    0.0000 </r>
       <r>    2.2831    0.0000 </r>
       <r>    2.3696    0.0000 </r>
       <r>    2.3807    0.0000 </r>
       <r>    2.4763    0.0000 </r>
       <r>    2.5995    0.0000 </r>
       <r>    2.6249    0.0000 </r>
       <r>    2.7445    0.0000 </r>
       <r>    3.0711    0.0000 </r>
       <r>    3.0841    0.0000 </r>
       <r>    5.6184    0.0000 </r>
       <r>    6.4473    0.0000 </r>
      </set>
      <set comment="kpoint 3">
       <r>  -33.7686    1.0000 </r>
       <r>  -32.7768    1.0000 </r>
       <r>  -32.6886    1.0000 </r>
       <r>  -32.6393    1.0000 </r>
       <r>  -17.6616    1.0000 </r>
       <r>  -17.4591    1.0000 </r>
       <r>  -17.2298    1.0000 </r>
       <r>  -16.9640    1.0000 </r>
       <r>  -16.7002    1.0000 </r>
       <r>  -16.6864    1.0000 </r>
       <r>  -16.5620    1.0000 </r>
       <r>  -16.4978    1.0000 </r>
       <r>  -16.4338    1.0000 </r>
       <r>  -16.2466    1.0000 </r>
       <r>  -16.2353    1.0000 </r>
       <r>  -15.8828    1.0000 </r>
       <r>  -15.6785    1.0000 </r>
       <r>  -15.6631    1.0000 </r>
       <r>  -14.8043    1.0000 </r>
       <r>  -14.7622    1.0000 </r>
       <r>  -14.7082    1.0000 </r>
       <r>  -14.7052    1.0000 </r>
       <r>  -14.6802    1.0000 </r>
       <r>  -14.5052    1.0000 </r>
       <r>  -14.4535    1.0000 </r>
       <r>  -14.3880    1.0000 </r>
       <r>  -14.3378    1.0000 </r>
       <r>  -14.2996    1.0000 </r>
       <r>   -4.4925    1.0000 </r>
       <r>   -4.4405    1.0000 </r>
       <r>   -4.2971    1.0000 </r>
       <r>   -4.1971    1.0000 </r>
       <r>   -4.1371    1.0000 </r>
       <r>   -4.0330    1.0000 </r>
       <r>   -3.8408    1.0000 </r>
       <r>   -3.6479    1.0000 </r>
       <r>   -3.3727    1.0000 </r>
       <r>   -3.1052    1.0000 </r>
       <r>   -3.0268    1.0000 </r>
       <r>   -2.9662    1.0000 </r>
       <r>   -2.8733    1.0000 </r>
       <r>   -2.8352    1.0000 </r>
       <r>   -2.6559    1.0000 </r>
       <r>   -2.5847    1.0000 </r>
       <r>   -2.4190    1.0000 </r>
       <r>   -2.3223    1.0000 </r>
       <r>   -2.1202    1.0000 </r>
       <r>   -2.1090    1.0000 </r>
       <r>   -1.9492    1.0000 </r>
       <r>   -1.8790    1.0000 </r>
       <r>   -1.7257    1.0000 </r>
       <r>   -1.6666    1.0000 </r>
       <r>   -1.6281    1.0000 </r>
       <r>   -1.6090    1.0000 </r>
       <r>   -1.3650    1.0000 </r>
       <r>   -1.2801    1.0000 </r>
       <r>   -1.2763    1.0000 </r>
       <r>   -1.1021    1.0000 </r>
       <r>   -1.0121    1.0000 </r>
       <r>   -0.9527    1.0000 </r>
       <r>   -0.7566    1.0000 </r>
       <r>   -0.7285    1.0000 </r>
       <r>   -0.5214    1.0000 </r>
       <r>   -0.2693    1.0000 </r>
       <r>    1.8142    0.0000 </r>
       <r>    2.3595    0.0000 </r>
       <r>    2.9310    0.0000 </r>
       <r>    3.3021    0.0000 </r>
       <r>    3.3500    0.0000 </r>
       <r>    3.4110    0.0000 </r>
       <r>    3.4296    0.0000 </r>
       <r>    3.4461    0.0000 </r>
       <r>    3.5424    0.0000 </r>
       <r>    3.5757    0.0000 </r>
       <r>    3.6684    0.0000 </r>
       <r>    7.4342    0.0000 </r>
      </set>
      <set comment="kpoint 4">
       <r>  -33.7728    1.0000 </r>
       <r>  -32.7819    1.0000 </r>
       <r>  -32.6935    1.0000 </r>
       <r>  -32.6444    1.0000 </r>
       <r>  -17.5058    1.0000 </r>
       <r>  -17.3840    1.0000 </r>
       <r>  -17.3420    1.0000 </r>
       <r>  -16.9814    1.0000 </r>
       <r>  -16.6101    1.0000 </r>
       <r>  -16.5731    1.0000 </r>
       <r>  -16.5291    1.0000 </r>
       <r>  -16.4895    1.0000 </r>
       <r>  -16.4377    1.0000 </r>
       <r>  -16.3253    1.0000 </r>
       <r>  -16.2619    1.0000 </r>
       <r>  -15.9288    1.0000 </r>
       <r>  -15.7263    1.0000 </r>
       <r>  -15.6730    1.0000 </r>
       <r>  -15.0185    1.0000 </r>
       <r>  -14.8597    1.0000 </r>
       <r>  -14.7507    1.0000 </r>
       <r>  -14.7162    1.0000 </r>
       <r>  -14.6694    1.0000 </r>
       <r>  -14.6559    1.0000 </r>
       <r>  -14.5031    1.0000 </r>
       <r>  -14.4973    1.0000 </r>
       <r>  -14.4457    1.0000 </r>
       <r>  -14.3965    1.0000 </r>
       <r>   -4.3030    1.0000 </r>
       <r>   -3.9829    1.0000 </r>
       <r>   -3.7725    1.0000 </r>
       <r>   -3.6971    1.0000 </r>
       <r>   -3.5361    1.0000 </r>
       <r>   -3.3961    1.0000 </r>
       <r>   -3.2945    1.0000 </r>
       <r>   -3.2782    1.0000 </r>
       <r>   -3.1963    1.0000 </r>
       <r>   -3.1778    1.0000 </r>
       <r>   -3.0598    1.0000 </r>
       <r>   -3.0402    1.0000 </r>
       <r>   -2.9154    1.0000 </r>
       <r>   -2.8015    1.0000 </r>
       <r>   -2.6558    1.0000 </r>
       <r>   -2.5933    1.0000 </r>
       <r>   -2.5345    1.0000 </r>
       <r>   -2.3676    1.0000 </r>
       <r>   -2.3672    1.0000 </r>
       <r>   -2.2944    1.0000 </r>
       <r>   -1.9113    1.0000 </r>
       <r>   -1.8692    1.0000 </r>
       <r>   -1.7330    1.0000 </r>
       <r>   -1.5236    1.0000 </r>
       <r>   -1.3199    1.0000 </r>
       <r>   -1.1305    1.0000 </r>
       <r>   -1.1190    1.0000 </r>
       <r>   -1.0965    1.0000 </r>
       <r>   -1.0086    1.0000 </r>
       <r>   -1.0040    1.0000 </r>
       <r>   -0.9269    1.0000 </r>
       <r>   -0.8409    1.0000 </r>
       <r>   -0.7673    1.0000 </r>
       <r>   -0.6157    1.0000 </r>
       <r>   -0.5870    1.0000 </r>
       <r>   -0.2179    1.0000 </r>
       <r>    2.2761    0.0000 </r>
       <r>    2.5095    0.0000 </r>
       <r>    2.6429    0.0000 </r>
       <r>    2.7158    0.0000 </r>
       <r>    2.7772    0.0000 </r>
       <r>    2.8429    0.0000 </r>
       <r>    2.8999    0.0000 </r>
       <r>    3.0118    0.0000 </r>
       <r>    3.1252    0.0000 </r>
       <r>    3.1770    0.0000 </r>
       <r>    3.3036    0.0000 </r>
       <r>    6.6771    0.0000 </r>
      </set>
      <set comment="kpoint 5">
       <r>  -33.7629    1.0000 </r>
       <r>  -32.7701    1.0000 </r>
       <r>  -32.6819    1.0000 </r>
       <r>  -32.6326    1.0000 </r>
       <r>  -17.4843    1.0000 </r>
       <r>  -17.2835    1.0000 </r>
       <r>  -17.0655    1.0000 </r>
       <r>  -16.8234    1.0000 </r>
       <r>  -16.6388    1.0000 </r>
       <r>  -16.6032    1.0000 </r>
       <r>  -16.5392    1.0000 </r>
       <r>  -16.5054    1.0000 </r>
       <r>  -16.4170    1.0000 </r>
       <r>  -16.1797    1.0000 </r>
       <r>  -16.1322    1.0000 </r>
       <r>  -15.9061    1.0000 </r>
       <r>  -15.8317    1.0000 </r>
       <r>  -15.6072    1.0000 </r>
       <r>  -14.9300    1.0000 </r>
       <r>  -14.8739    1.0000 </r>
       <r>  -14.8234    1.0000 </r>
       <r>  -14.6755    1.0000 </r>
       <r>  -14.6070    1.0000 </r>
       <r>  -14.6025    1.0000 </r>
       <r>  -14.5650    1.0000 </r>
       <r>  -14.4757    1.0000 </r>
       <r>  -14.4238    1.0000 </r>
       <r>  -14.3784    1.0000 </r>
       <r>   -4.4370    1.0000 </r>
       <r>   -4.3356    1.0000 </r>
       <r>   -4.2532    1.0000 </r>
       <r>   -4.2036    1.0000 </r>
       <r>   -4.1154    1.0000 </r>
       <r>   -3.9393    1.0000 </r>
       <r>   -3.8067    1.0000 </r>
       <r>   -3.7128    1.0000 </r>
       <r>   -3.6036    1.0000 </r>
       <r>   -3.5111    1.0000 </r>
       <r>   -3.3637    1.0000 </r>
       <r>   -3.3280    1.0000 </r>
       <r>   -3.2848    1.0000 </r>
       <r>   -3.2219    1.0000 </r>
       <r>   -3.1428    1.0000 </r>
       <r>   -3.0196    1.0000 </r>
       <r>   -2.8945    1.0000 </r>
       <r>   -2.7763    1.0000 </r>
       <r>   -2.7197    1.0000 </r>
       <r>   -2.5425    1.0000 </r>
       <r>   -2.4690    1.0000 </r>
       <r>   -2.2293    1.0000 </r>
       <r>   -1.9094    1.0000 </r>
       <r>   -1.6379    1.0000 </r>
       <r>   -1.4465    1.0000 </r>
       <r>   -1.2292    1.0000 </r>
       <r>   -1.0967    1.0000 </r>
       <r>   -1.0460    1.0000 </r>
       <r>   -1.0087    1.0000 </r>
       <r>   -0.9721    1.0000 </r>
       <r>   -0.9403    1.0000 </r>
       <r>   -0.8718    1.0000 </r>
       <r>   -0.7069    1.0000 </r>
       <r>   -0.5285    1.0000 </r>
       <r>   -0.2647    1.0000 </r>
       <r>   -0.1444    1.0000 </r>
       <r>    2.4203    0.0000 </r>
       <r>    2.8009    0.0000 </r>
       <r>    3.1994    0.0000 </r>
       <r>    3.3595    0.0000 </r>
       <r>    3.4288    0.0000 </r>
       <r>    3.5400    0.0000 </r>
       <r>    3.5608    0.0000 </r>
       <r>    3.5939    0.0000 </r>
       <r>    3.6322    0.0000 </r>
       <r>    3.7323    0.0000 </r>
       <r>    3.8129    0.0000 </r>
       <r>    7.4680    0.0000 </r>
      </set>
      <set comment="kpoint 6">
       <r>  -33.7535    1.0000 </r>
       <r>  -32.7592    1.0000 </r>
       <r>  -32.6711    1.0000 </r>
       <r>  -32.6217    1.0000 </r>
       <r>  -17.1272    1.0000 </r>
       <r>  -16.9296    1.0000 </r>
       <r>  -16.7494    1.0000 </r>
       <r>  -16.7119    1.0000 </r>
       <r>  -16.6218    1.0000 </r>
       <r>  -16.5848    1.0000 </r>
       <r>  -16.4655    1.0000 </r>
       <r>  -16.4205    1.0000 </r>
       <r>  -16.3855    1.0000 </r>
       <r>  -16.0547    1.0000 </r>
       <r>  -15.9493    1.0000 </r>
       <r>  -15.8895    1.0000 </r>
       <r>  -15.8307    1.0000 </r>
       <r>  -15.6554    1.0000 </r>
       <r>  -15.2891    1.0000 </r>
       <r>  -14.9380    1.0000 </r>
       <r>  -14.9232    1.0000 </r>
       <r>  -14.8933    1.0000 </r>
       <r>  -14.7467    1.0000 </r>
       <r>  -14.6665    1.0000 </r>
       <r>  -14.6346    1.0000 </r>
       <r>  -14.5416    1.0000 </r>
       <r>  -14.5027    1.0000 </r>
       <r>  -14.4621    1.0000 </r>
       <r>   -4.5292    1.0000 </r>
       <r>   -4.4581    1.0000 </r>
       <r>   -4.3559    1.0000 </r>
       <r>   -4.3024    1.0000 </r>
       <r>   -4.1895    1.0000 </r>
       <r>   -4.1462    1.0000 </r>
       <r>   -4.1363    1.0000 </r>
       <r>   -4.0772    1.0000 </r>
       <r>   -3.9953    1.0000 </r>
       <r>   -3.9749    1.0000 </r>
       <r>   -3.8497    1.0000 </r>
       <r>   -3.7861    1.0000 </r>
       <r>   -3.7718    1.0000 </r>
       <r>   -3.6973    1.0000 </r>
       <r>   -3.5359    1.0000 </r>
       <r>   -3.4590    1.0000 </r>
       <r>   -3.4401    1.0000 </r>
       <r>   -3.3070    1.0000 </r>
       <r>   -3.1395    1.0000 </r>
       <r>   -3.0730    1.0000 </r>
       <r>   -2.7756    1.0000 </r>
       <r>   -2.6101    1.0000 </r>
       <r>   -2.3419    1.0000 </r>
       <r>   -1.4665    1.0000 </r>
       <r>   -1.3762    1.0000 </r>
       <r>   -1.3402    1.0000 </r>
       <r>   -0.9684    1.0000 </r>
       <r>   -0.8972    1.0000 </r>
       <r>   -0.5907    1.0000 </r>
       <r>   -0.5210    1.0000 </r>
       <r>   -0.3644    1.0000 </r>
       <r>   -0.3185    1.0000 </r>
       <r>   -0.2959    1.0000 </r>
       <r>   -0.2586    1.0000 </r>
       <r>   -0.1894    1.0000 </r>
       <r>    0.4835    1.0000 </r>
       <r>    3.2778    0.0000 </r>
       <r>    3.4185    0.0000 </r>
       <r>    3.5333    0.0000 </r>
       <r>    3.6397    0.0000 </r>
       <r>    3.7479    0.0000 </r>
       <r>    3.8034    0.0000 </r>
       <r>    3.9282    0.0000 </r>
       <r>    3.9496    0.0000 </r>
       <r>    4.0001    0.0000 </r>
       <r>    4.0498    0.0000 </r>
       <r>    7.4799    0.0000 </r>
       <r>    7.5779    0.0000 </r>
      </set>
     </set>
    </set>
   </array>
  </eigenvalues>
  <separator name="orbital magnetization" >
   <v name="MAGDIPOLOUT">      0.00000000      0.00000000      0.00000000</v>
  </separator>
  <dos>
   <i name="efermi">      0.58410535 </i>
   <total>
    <array>
     <dimension dim="1">gridpoints</dimension>
     <dimension dim="2">spin</dimension>
     <field>energy</field>
     <field>total</field>
     <field>integrated</field>
     <set>
      <set comment="spin 1">
       <r>   -35.8533     0.0000     0.0000 </r>
       <r>   -35.7017     0.0000     0.0000 </r>
       <r>   -35.5500     0.0000     0.0000 </r>
       <r>   -35.3983     0.0000     0.0000 </r>
       <r>   -35.2467     0.0000     0.0000 </r>
       <r>   -35.0950     0.0000     0.0000 </r>
       <r>   -34.9433     0.0000     0.0000 </r>
       <r>   -34.7917     0.0000     0.0000 </r>
       <r>   -34.6400     0.0000     0.0000 </r>
       <r>   -34.4883     0.0000     0.0000 </r>
       <r>   -34.3367     0.0000     0.0000 </r>
       <r>   -34.1850     0.0000     0.0000 </r>
       <r>   -34.0333     0.0000     0.0000 </r>
       <r>   -33.8817     0.0000     0.0000 </r>
       <r>   -33.7300     0.0000     2.0000 </r>
       <r>   -33.5784     0.0000     2.0000 </r>
       <r>   -33.4267     0.0000     2.0000 </r>
       <r>   -33.2750     0.0000     2.0000 </r>
       <r>   -33.1234     0.0000     2.0000 </r>
       <r>   -32.9717     0.0000     2.0000 </r>
       <r>   -32.8200     0.0000     2.0000 </r>
       <r>   -32.6684     0.0000     6.0000 </r>
       <r>   -32.5167     0.0000     8.0000 </r>
       <r>   -32.3650     0.0000     8.0000 </r>
       <r>   -32.2134     0.0000     8.0000 </r>
       <r>   -32.0617     0.0000     8.0000 </r>
       <r>   -31.9100     0.0000     8.0000 </r>
       <r>   -31.7584     0.0000     8.0000 </r>
       <r>   -31.6067     0.0000     8.0000 </r>
       <r>   -31.4551     0.0000     8.0000 </r>
       <r>   -31.3034     0.0000     8.0000 </r>
       <r>   -31.1517     0.0000     8.0000 </r>
       <r>   -31.0001     0.0000     8.0000 </r>
       <r>   -30.8484     0.0000     8.0000 </r>
       <r>   -30.6967     0.0000     8.0000 </r>
       <r>   -30.5451     0.0000     8.0000 </r>
       <r>   -30.3934     0.0000     8.0000 </r>
       <r>   -30.2417     0.0000     8.0000 </r>
       <r>   -30.0901     0.0000     8.0000 </r>
       <r>   -29.9384     0.0000     8.0000 </r>
       <r>   -29.7867     0.0000     8.0000 </r>
       <r>   -29.6351     0.0000     8.0000 </r>
       <r>   -29.4834     0.0000     8.0000 </r>
       <r>   -29.3317     0.0000     8.0000 </r>
       <r>   -29.1801     0.0000     8.0000 </r>
       <r>   -29.0284     0.0000     8.0000 </r>
       <r>   -28.8768     0.0000     8.0000 </r>
       <r>   -28.7251     0.0000     8.0000 </r>
       <r>   -28.5734     0.0000     8.0000 </r>
       <r>   -28.4218     0.0000     8.0000 </r>
       <r>   -28.2701     0.0000     8.0000 </r>
       <r>   -28.1184     0.0000     8.0000 </r>
       <r>   -27.9668     0.0000     8.0000 </r>
       <r>   -27.8151     0.0000     8.0000 </r>
       <r>   -27.6634     0.0000     8.0000 </r>
       <r>   -27.5118     0.0000     8.0000 </r>
       <r>   -27.3601     0.0000     8.0000 </r>
       <r>   -27.2084     0.0000     8.0000 </r>
       <r>   -27.0568     0.0000     8.0000 </r>
       <r>   -26.9051     0.0000     8.0000 </r>
       <r>   -26.7534     0.0000     8.0000 </r>
       <r>   -26.6018     0.0000     8.0000 </r>
       <r>   -26.4501     0.0000     8.0000 </r>
       <r>   -26.2985     0.0000     8.0000 </r>
       <r>   -26.1468     0.0000     8.0000 </r>
       <r>   -25.9951     0.0000     8.0000 </r>
       <r>   -25.8435     0.0000     8.0000 </r>
       <r>   -25.6918     0.0000     8.0000 </r>
       <r>   -25.5401     0.0000     8.0000 </r>
       <r>   -25.3885     0.0000     8.0000 </r>
       <r>   -25.2368     0.0000     8.0000 </r>
       <r>   -25.0851     0.0000     8.0000 </r>
       <r>   -24.9335     0.0000     8.0000 </r>
       <r>   -24.7818     0.0000     8.0000 </r>
       <r>   -24.6301     0.0000     8.0000 </r>
       <r>   -24.4785     0.0000     8.0000 </r>
       <r>   -24.3268     0.0000     8.0000 </r>
       <r>   -24.1751     0.0000     8.0000 </r>
       <r>   -24.0235     0.0000     8.0000 </r>
       <r>   -23.8718     0.0000     8.0000 </r>
       <r>   -23.7202     0.0000     8.0000 </r>
       <r>   -23.5685     0.0000     8.0000 </r>
       <r>   -23.4168     0.0000     8.0000 </r>
       <r>   -23.2652     0.0000     8.0000 </r>
       <r>   -23.1135     0.0000     8.0000 </r>
       <r>   -22.9618     0.0000     8.0000 </r>
       <r>   -22.8102     0.0000     8.0000 </r>
       <r>   -22.6585     0.0000     8.0000 </r>
       <r>   -22.5068     0.0000     8.0000 </r>
       <r>   -22.3552     0.0000     8.0000 </r>
       <r>   -22.2035     0.0000     8.0000 </r>
       <r>   -22.0518     0.0000     8.0000 </r>
       <r>   -21.9002     0.0000     8.0000 </r>
       <r>   -21.7485     0.0000     8.0000 </r>
       <r>   -21.5968     0.0000     8.0000 </r>
       <r>   -21.4452     0.0000     8.0000 </r>
       <r>   -21.2935     0.0000     8.0000 </r>
       <r>   -21.1419     0.0000     8.0000 </r>
       <r>   -20.9902     0.0000     8.0000 </r>
       <r>   -20.8385     0.0000     8.0000 </r>
       <r>   -20.6869     0.0000     8.0000 </r>
       <r>   -20.5352     0.0000     8.0000 </r>
       <r>   -20.3835     0.0000     8.0000 </r>
       <r>   -20.2319     0.0000     8.0000 </r>
       <r>   -20.0802     0.0000     8.0000 </r>
       <r>   -19.9285     0.0000     8.0000 </r>
       <r>   -19.7769     0.0000     8.0000 </r>
       <r>   -19.6252     0.0000     8.0000 </r>
       <r>   -19.4735     0.0000     8.0000 </r>
       <r>   -19.3219     0.0000     8.0000 </r>
       <r>   -19.1702     0.0000     8.0000 </r>
       <r>   -19.0186     0.0000     8.0000 </r>
       <r>   -18.8669     0.0000     8.0000 </r>
       <r>   -18.7152     0.0000     8.0000 </r>
       <r>   -18.5636     0.0000     8.0000 </r>
       <r>   -18.4119     0.0000     8.0000 </r>
       <r>   -18.2602     0.0000     8.0000 </r>
       <r>   -18.1086     0.0000     8.0000 </r>
       <r>   -17.9569     0.0000     8.0000 </r>
       <r>   -17.8052     0.0000     8.0000 </r>
       <r>   -17.6536     3.8071     8.0586 </r>
       <r>   -17.5019    13.7471     9.4126 </r>
       <r>   -17.3502     9.4949    11.1861 </r>
       <r>   -17.1986     7.3840    12.3404 </r>
       <r>   -17.0469    30.5369    13.2738 </r>
       <r>   -16.8952     7.3961    14.8183 </r>
       <r>   -16.7436     3.6149    15.8173 </r>
       <r>   -16.5919    46.0220    18.9829 </r>
       <r>   -16.4403     5.2876    23.8308 </r>
       <r>   -16.2886     4.6056    26.6599 </r>
       <r>   -16.1369    16.0835    28.8576 </r>
       <r>   -15.9853     2.4948    29.8433 </r>
       <r>   -15.8336     1.2445    31.9482 </r>
       <r>   -15.6819    25.0833    34.2606 </r>
       <r>   -15.5303     0.1303    36.0048 </r>
       <r>   -15.3786     0.3961    36.0448 </r>
       <r>   -15.2269     1.8347    36.2691 </r>
       <r>   -15.0753     4.5696    36.6739 </r>
       <r>   -14.9236    12.0132    37.6797 </r>
       <r>   -14.7719    20.3504    41.4505 </r>
       <r>   -14.6203    37.1323    47.2888 </r>
       <r>   -14.4686    21.9024    51.6841 </r>
       <r>   -14.3169    13.7523    55.7727 </r>
       <r>   -14.1653     0.0000    56.0000 </r>
       <r>   -14.0136     0.0000    56.0000 </r>
       <r>   -13.8620     0.0000    56.0000 </r>
       <r>   -13.7103     0.0000    56.0000 </r>
       <r>   -13.5586     0.0000    56.0000 </r>
       <r>   -13.4070     0.0000    56.0000 </r>
       <r>   -13.2553     0.0000    56.0000 </r>
       <r>   -13.1036     0.0000    56.0000 </r>
       <r>   -12.9520     0.0000    56.0000 </r>
       <r>   -12.8003     0.0000    56.0000 </r>
       <r>   -12.6486     0.0000    56.0000 </r>
       <r>   -12.4970     0.0000    56.0000 </r>
       <r>   -12.3453     0.0000    56.0000 </r>
       <r>   -12.1936     0.0000    56.0000 </r>
       <r>   -12.0420     0.0000    56.0000 </r>
       <r>   -11.8903     0.0000    56.0000 </r>
       <r>   -11.7386     0.0000    56.0000 </r>
       <r>   -11.5870     0.0000    56.0000 </r>
       <r>   -11.4353     0.0000    56.0000 </r>
       <r>   -11.2837     0.0000    56.0000 </r>
       <r>   -11.1320     0.0000    56.0000 </r>
       <r>   -10.9803     0.0000    56.0000 </r>
       <r>   -10.8287     0.0000    56.0000 </r>
       <r>   -10.6770     0.0000    56.0000 </r>
       <r>   -10.5253     0.0000    56.0000 </r>
       <r>   -10.3737     0.0000    56.0000 </r>
       <r>   -10.2220     0.0000    56.0000 </r>
       <r>   -10.0703     0.0000    56.0000 </r>
       <r>    -9.9187     0.0000    56.0000 </r>
       <r>    -9.7670     0.0000    56.0000 </r>
       <r>    -9.6153     0.0000    56.0000 </r>
       <r>    -9.4637     0.0000    56.0000 </r>
       <r>    -9.3120     0.0000    56.0000 </r>
       <r>    -9.1603     0.0000    56.0000 </r>
       <r>    -9.0087     0.0000    56.0000 </r>
       <r>    -8.8570     0.0000    56.0000 </r>
       <r>    -8.7054     0.0000    56.0000 </r>
       <r>    -8.5537     0.0000    56.0000 </r>
       <r>    -8.4020     0.0000    56.0000 </r>
       <r>    -8.2504     0.0000    56.0000 </r>
       <r>    -8.0987     0.0000    56.0000 </r>
       <r>    -7.9470     0.0000    56.0000 </r>
       <r>    -7.7954     0.0000    56.0000 </r>
       <r>    -7.6437     0.0000    56.0000 </r>
       <r>    -7.4920     0.0000    56.0000 </r>
       <r>    -7.3404     0.0000    56.0000 </r>
       <r>    -7.1887     0.0000    56.0000 </r>
       <r>    -7.0370     0.0000    56.0000 </r>
       <r>    -6.8854     0.0000    56.0000 </r>
       <r>    -6.7337     0.0000    56.0000 </r>
       <r>    -6.5820     0.0000    56.0000 </r>
       <r>    -6.4304     0.0000    56.0000 </r>
       <r>    -6.2787     0.0000    56.0000 </r>
       <r>    -6.1271     0.0000    56.0000 </r>
       <r>    -5.9754     0.0000    56.0000 </r>
       <r>    -5.8237     0.0000    56.0000 </r>
       <r>    -5.6721     0.0000    56.0000 </r>
       <r>    -5.5204     0.0000    56.0000 </r>
       <r>    -5.3687     0.0000    56.0000 </r>
       <r>    -5.2171     0.0000    56.0000 </r>
       <r>    -5.0654     0.0000    56.0000 </r>
       <r>    -4.9137     0.0000    56.0000 </r>
       <r>    -4.7621     0.0000    56.0000 </r>
       <r>    -4.6104     0.0000    56.0000 </r>
       <r>    -4.4587    13.8908    56.6419 </r>
       <r>    -4.3071    10.4698    58.8746 </r>
       <r>    -4.1554    11.1364    61.5116 </r>
       <r>    -4.0038    14.6234    63.8967 </r>
       <r>    -3.8521    12.8640    66.2224 </r>
       <r>    -3.7004    17.4247    68.8523 </r>
       <r>    -3.5488    14.8615    71.4321 </r>
       <r>    -3.3971    18.3890    74.2714 </r>
       <r>    -3.2454    20.3028    77.2476 </r>
       <r>    -3.0938    22.6685    80.6468 </r>
       <r>    -2.9421    19.9051    84.1282 </r>
       <r>    -2.7904    15.5768    86.8002 </r>
       <r>    -2.6388    14.8913    89.2968 </r>
       <r>    -2.4871    14.7001    91.6159 </r>
       <r>    -2.3354    13.8864    93.7690 </r>
       <r>    -2.1838    12.4743    95.7446 </r>
       <r>    -2.0321    10.4895    97.4814 </r>
       <r>    -1.8804    11.1330    99.0874 </r>
       <r>    -1.7288     8.3831   100.5292 </r>
       <r>    -1.5771    16.0595   102.3786 </r>
       <r>    -1.4255    17.5888   104.8101 </r>
       <r>    -1.2738    16.4667   107.0494 </r>
       <r>    -1.1221    21.7946   109.9441 </r>
       <r>    -0.9705    30.5736   113.9745 </r>
       <r>    -0.8188    13.9873   117.6280 </r>
       <r>    -0.6671    15.5774   120.3069 </r>
       <r>    -0.5155    13.0699   122.9614 </r>
       <r>    -0.3638     9.8405   124.8546 </r>
       <r>    -0.2121    12.7277   126.7067 </r>
       <r>    -0.0605     1.1610   127.4752 </r>
       <r>     0.0912     0.9538   127.6329 </r>
       <r>     0.2429     0.7821   127.7646 </r>
       <r>     0.3945     0.6104   127.8702 </r>
       <r>     0.5462     0.0000   128.0000 </r>
       <r>     0.6979     0.0000   128.0000 </r>
       <r>     0.8495     0.0000   128.0000 </r>
       <r>     1.0012     0.0000   128.0000 </r>
       <r>     1.1528     0.0000   128.0000 </r>
       <r>     1.3045     0.0000   128.0000 </r>
       <r>     1.4562     0.0000   128.0000 </r>
       <r>     1.6078     0.0073   128.0000 </r>
       <r>     1.7595     1.0381   128.1243 </r>
       <r>     1.9112     2.8052   128.4725 </r>
       <r>     2.0628     3.2631   128.9297 </r>
       <r>     2.2145     3.8087   129.4660 </r>
       <r>     2.3662     7.9436   130.2340 </r>
       <r>     2.5178     7.7924   131.4414 </r>
       <r>     2.6695     8.5441   132.6886 </r>
       <r>     2.8212     8.0804   133.9748 </r>
       <r>     2.9728     9.5109   135.2705 </r>
       <r>     3.1245    12.9343   137.0851 </r>
       <r>     3.2762    11.8565   138.8890 </r>
       <r>     3.4278    17.8330   141.5054 </r>
       <r>     3.5795    18.7679   144.3361 </r>
       <r>     3.7311    12.5966   146.5951 </r>
       <r>     3.8828     5.2755   147.9805 </r>
       <r>     4.0345     1.6963   148.7351 </r>
       <r>     4.1861     0.6196   148.9268 </r>
       <r>     4.3378     0.5927   149.0187 </r>
       <r>     4.4895     0.5659   149.1066 </r>
       <r>     4.6411     0.5390   149.1904 </r>
       <r>     4.7928     0.5121   149.2701 </r>
       <r>     4.9445     0.4852   149.3457 </r>
       <r>     5.0961     0.4584   149.4173 </r>
       <r>     5.2478     0.4315   149.4848 </r>
       <r>     5.3995     0.4046   149.5482 </r>
       <r>     5.5511     0.8733   149.6301 </r>
       <r>     5.7028     0.2226   149.7189 </r>
       <r>     5.8545     0.2965   149.7582 </r>
       <r>     6.0061     0.3704   149.8088 </r>
       <r>     6.1578     0.4444   149.8706 </r>
       <r>     6.3094     0.5183   149.9436 </r>
       <r>     6.4611     1.0857   150.0348 </r>
       <r>     6.6128     0.9022   150.1855 </r>
       <r>     6.7644     0.8855   150.3157 </r>
       <r>     6.9161     0.9916   150.4581 </r>
       <r>     7.0678     1.0977   150.6165 </r>
       <r>     7.2194     1.2038   150.7910 </r>
       <r>     7.3711     1.3099   150.9816 </r>
       <r>     7.5228     3.8180   151.7345 </r>
       <r>     7.6744     0.0000   152.0000 </r>
       <r>     7.8261     0.0000   152.0000 </r>
       <r>     7.9778     0.0000   152.0000 </r>
       <r>     8.1294     0.0000   152.0000 </r>
       <r>     8.2811     0.0000   152.0000 </r>
       <r>     8.4328     0.0000   152.0000 </r>
       <r>     8.5844     0.0000   152.0000 </r>
       <r>     8.7361     0.0000   152.0000 </r>
       <r>     8.8877     0.0000   152.0000 </r>
       <r>     9.0394     0.0000   152.0000 </r>
       <r>     9.1911     0.0000   152.0000 </r>
       <r>     9.3427     0.0000   152.0000 </r>
       <r>     9.4944     0.0000   152.0000 </r>
       <r>     9.6461     0.0000   152.0000 </r>
      </set>
     </set>
    </array>
   </total>
  </dos>
 </calculation>
 <structure name="finalpos" >
  <crystal>
   <varray name="basis" >
    <v>       3.90526800       0.00000000       0.00000000 </v>
    <v>       0.00000000       3.90526800       0.00000000 </v>
    <v>       0.00000000       0.00000000      25.66843800 </v>
   </varray>
   <i name="volume">    391.47238071 </i>
   <varray name="rec_basis" >
    <v>       0.25606437       0.00000000       0.00000000 </v>
    <v>       0.00000000       0.25606437       0.00000000 </v>
    <v>       0.00000000       0.00000000       0.03895835 </v>
   </varray>
  </crystal>
  <varray name="positions" >
   <v>       0.50000000       0.50000000       0.23375010 </v>
   <v>       0.50000000       0.00000000       0.30982150 </v>
   <v>       0.00000000       0.50000000       0.30982150 </v>
   <v>       0.50000000       0.50000000       0.38589290 </v>
   <v>       0.50000000       0.00000000       0.46196430 </v>
   <v>       0.00000000       0.50000000       0.46196430 </v>
   <v>       0.50000000       0.50000000       0.53803570 </v>
   <v>       0.50000000       0.00000000       0.61410710 </v>
   <v>       0.00000000       0.50000000       0.61410710 </v>
   <v>       0.50000000       0.50000000       0.69017850 </v>
   <v>       0.50000000       0.00000000       0.76624990 </v>
   <v>       0.00000000       0.50000000       0.76624990 </v>
   <v>       0.00000000       0.00000000       0.23375010 </v>
   <v>       0.00000000       0.00000000       0.38589290 </v>
   <v>       0.00000000       0.00000000       0.53803570 </v>
   <v>       0.00000000       0.00000000       0.69017850 </v>
   <v>       0.50000000       0.50000000       0.30982150 </v>
   <v>       0.50000000       0.50000000       0.46196430 </v>
   <v>       0.50000000       0.50000000       0.61410710 </v>
   <v>       0.50000000       0.50000000       0.76624990 </v>
  </varray>
 </structure>
</modeling>
