unknown system                          
   1.00000000000000     
     4.913700    0.000000    0.000000
    -2.456850    4.255389    0.000000
     0.000000    0.000000    5.405130
   Si   O 
     3     6
Direct
  0.469800  0.020000  0.666670
  0.000000  0.469800  0.333330
  0.530200  0.530200  0.000000
  0.414500  0.266200  0.785600
  0.733800  0.148300  0.452270
  0.851700  0.585500  0.118930
  0.148300  0.733800  0.547730
  0.266200  0.414500  0.214400
  0.585500  0.851700  0.881070
 
   48   48   56
  1.4712      1.3865      1.3769      1.4193      1.4962      1.5974      1.7182      1.8563      2.0096      2.1747    
  2.3451      2.5125      2.6702      2.8175      2.9633      3.1272      3.3341      3.6102      3.9877      4.5234    
  5.3184      6.5179      8.2844      10.757      14.025      18.116      22.995      28.528      34.405      40.068    
  44.728      47.542      47.901      45.691      41.349      35.678      29.546      23.631      18.342      13.859    
  10.234      7.4408      5.4007      3.9832      3.0292      2.3877      1.9490      1.6526      1.4054      1.3140    
  1.3064      1.3626      1.4642      1.5998      1.7639      1.9530      2.1637      2.3908      2.6270      2.8606    
  3.0771      3.2646      3.4193      3.5501      3.6785      3.8331      4.0448      4.3499      4.8048      5.5016    
  6.5635      8.1174      10.257      13.021      16.380      20.231      24.366      28.449      32.017      34.546    
  35.587      34.917      32.636      29.127      24.922      20.539      16.369      12.661      9.5494      7.0806    
  5.2275      3.9018      2.9810      2.3447      1.9012      1.5965      1.4120      1.3236      1.3224      1.3923    
  1.5165      1.6827      1.8852      2.1211      2.3876      2.6796      2.9887      3.3008      3.5955      3.8505    
  4.0479      4.1819      4.2633      4.3186      4.3830      4.4935      4.6909      5.0301      5.5890      6.4631    
  7.7427      9.4861      11.697      14.312      17.187      20.101      22.760      24.837      26.025      26.118    
  25.077      23.049      20.323      17.239      14.112      11.190      8.6411      6.5563      4.9486      3.7662    
  2.9209      2.3209      1.8947      1.5988      1.4691      1.3962      1.4096      1.4968      1.6440      1.8400    
  2.0787      2.3587      2.6804      3.0414      3.4332      3.8394      4.2349      4.5878      4.8657      5.0450    
  5.1204      5.1088      5.0455      4.9758      4.9460      5.0013      5.1917      5.5790      6.2337      7.2166    
  8.5538      10.219      12.128      14.141      16.069      17.693      18.794      19.204      18.848      17.761    
  16.081      14.013      11.782      9.5937      7.6085      5.9270      4.5877      3.5739      2.8316      2.2943    
  1.9071      1.6370      1.5602      1.5144      1.5520      1.6631      1.8367      2.0633      2.3382      2.6622    
  3.0398      3.4734      3.9579      4.4761      4.9980      5.4821      5.8811      6.1524      6.2706      6.2360    
  6.0766      5.8423      5.5924      5.3839      5.2664      5.2858      5.4887      5.9186      6.6037      7.5444    
  8.7040      10.004      11.326      12.519      13.425      13.912      13.901      13.378      12.399      11.079    
  9.5644      8.0074      6.5372      5.2446      4.1776      3.3436      2.7176      2.2577      1.9251      1.6957    
  1.6758      1.6673      1.7380      1.8806      2.0856      2.3458      2.6586      3.0278      3.4620      3.9705    
  4.5547      5.2006      5.8746      6.5249      7.0886      7.5027      7.7183      7.7139      7.5034      7.1336    
  6.6739      6.2013      5.7859      5.4814      5.3243      5.3396      5.5460      5.9526      6.5484      7.2915    
  8.1080      8.9003      9.5612      9.9921      10.120      9.9115      9.3804      8.5824      7.6043      6.5465    
  5.5055      4.5575      3.7490      3.0958      2.5906      2.2136      1.9441      1.7671      1.8105      1.8491    
  1.9615      2.1429      2.3861      2.6853      3.0393      3.4547      3.9453      4.5282      5.2144      5.9969    
  6.8428      7.6923      8.4659      9.0771      9.4502      9.5376      9.3323      8.8708      8.2265      7.4942    
  6.7712      6.1369      5.6424      5.3128      5.1567      5.1737      5.3524      5.6668      6.0747      6.5186    
  6.9302      7.2379      7.3800      7.3195      7.0497      6.5919      5.9891      5.3003      4.5915      3.9227    
  3.3346      2.8454      2.4575      2.1664      1.9655      1.8485      1.9612      2.0554      2.2190      2.4484    
  2.7388      3.0855      3.4872      3.9515      4.4975      5.1511      5.9345      6.8522      7.8784      8.9509    
  9.9753      10.840      11.436      11.686      11.553      11.057      10.269      9.2953      8.2584      7.2723    
  6.4227      5.7575      5.2870      4.9957      4.8576      4.8475      4.9400      5.1023      5.2899      5.4508    
  5.5375      5.5165      5.3729      5.1099      4.7460      4.3118      3.8451      3.3849      2.9648      2.6077    
  2.3251      2.1199      1.9918      1.9393      2.1249      2.2815      2.5064      2.7964      3.1477      3.5552    
  4.0165      4.5381      5.1414      5.8602      6.7295      7.7698      8.9690      10.271      11.572      12.739    
  13.629      14.120      14.140      13.681      12.805      11.624      10.284      8.9324      7.6973      6.6624    
  5.8594      5.2748      4.8724      4.6148      4.4710      4.4129      4.4091      4.4248      4.4255      4.3817    
  4.2745      4.0988      3.8623      3.5800      3.2697      2.9527      2.6541      2.3989      2.2049      2.0795    
  2.0240      2.0389      2.2973      2.5214      2.8173      3.1831      3.6140      4.1028      4.6442      5.2409    
  5.9121      6.6952      7.6378      8.7792      10.127      11.640      13.220      14.718      15.959      16.773    
  17.039      16.707      15.817      14.484      12.871      11.160      9.5167      8.0667      6.8790      5.9671    
  5.3004      4.8260      4.4904      4.2532      4.0873      3.9698      3.8757      3.7786      3.6575      3.5017    
  3.3109      3.0922      2.8574      2.6226      2.4068      2.2299      2.1079      2.0508      2.0628      2.1448    
  2.4718      2.7667      3.1420      3.5984      4.1306      4.7282      5.3801      6.0818      6.8451      7.7052    
  8.7167      9.9360      11.395      13.078      14.904      16.725      18.345      19.549      20.155      20.057    
  19.253      17.845      16.012      13.967      11.915      10.024      8.4074      7.1172      6.1418      5.4252    
  4.8962      4.4964      4.1885      3.9489      3.7563      3.5888      3.4262      3.2527      3.0593      2.8467    
  2.6270      2.4194      2.2429      2.1130      2.0419      2.0389      2.1092      2.2534      2.6404      3.0057    
  3.4654      4.0240      4.6780      5.4145      6.2146      7.0628      7.9590      8.9287      10.023      11.309    
  12.840      14.634      16.639      18.730      20.706      22.324      23.345      23.591      22.995      21.624    
  19.655      17.328      14.891      12.561      10.497      8.7863      7.4457      6.4343      5.6806      5.1104    
  4.6647      4.3045      4.0057      3.7504      3.5212      3.3010      3.0764      2.8431      2.6077      2.3871    
  2.2032      2.0773      2.0250      2.0546      2.1674      2.3625      2.7962      3.2238      3.7667      4.4333    
  5.2237      6.1246      7.1105      8.1536      9.2376      10.370      11.587      12.951      14.533      16.377    
  18.474      20.736      22.988      24.983      26.441      27.112      26.850      25.655      23.677      21.164    
  18.403      15.664      13.153      11.002      9.2618      7.9183      6.9088      6.1474      5.5522      5.0636    
  4.6468      4.2822      3.9546      3.6510      3.3617      3.0808      2.8070      2.5480      2.3242      2.1642    
  2.0927      2.1211      2.2491      2.4737      2.9380      3.4088      4.0230      4.7934      5.7238      6.8031    
  8.0032      9.2863      10.618      11.980      13.384      14.874      16.514      18.370      20.471      22.783    
  25.180      27.445      29.287      30.406      30.570      29.694      27.866      25.315      22.348      19.274    
  16.355      13.777      11.640      9.9583      8.6786      7.7092      6.9521      6.3279      5.7835      5.2884    
  4.8270      4.3926      3.9832      3.5987      3.2391      2.9092      2.6235      2.4061      2.2827      2.2703    
  2.3748      2.5964      3.0738      3.5562      4.2161      5.0713      6.1298      7.3843      8.8086      10.360    
  11.989      13.652      15.325      17.016      18.767      20.637      22.686      24.931      27.318      29.689    
  31.786      33.290      33.906      33.453      31.932      29.522      26.519      23.257      20.044      17.121    
  14.638      12.644      11.104      9.9302      9.0147      8.2585      7.5848      6.9452      6.3177      5.6991    
  5.0964      4.5227      3.9940      3.5259      3.1314      2.8232      2.6166      2.5281      2.5700      2.7495    
  3.2219      3.6743      4.3399      5.2434      6.3987      7.8037      9.4372      11.258      13.211      15.229    
  17.252      19.240      21.189      23.131      25.127      27.232      29.463      31.748      33.903      35.635    
  36.629      36.633      35.544      33.450      30.609      27.369      24.065      20.970      18.270      16.052    
  14.311      12.972      11.925      11.054      10.261      9.4748      8.6589      7.8058      6.9321      6.0713    
  5.2634      4.5442      3.9381      3.4592      3.1153      2.9129      2.8577      2.9566      3.4071      3.7835    
  4.4046      5.3042      6.5051      8.0123      9.8118      11.870      14.134      16.527      18.957      21.334    
  23.592      25.713      27.724      29.689      31.671      33.661      35.552      37.176      38.298      38.666    
  38.096      36.558      34.191      31.268      28.133      25.120      22.435      20.184      18.385      16.982    
  15.868      14.923      14.035      13.116      12.106      10.984      9.7711      8.5226      7.3061      6.1863    
  5.2152      4.4288      3.8442      3.4590      3.2606      3.2409      3.6557      3.9127      4.4364      5.2707    
  6.4500      7.9898      9.8856      12.115      14.635      17.372      20.219      23.044      25.716      28.145    
  30.300      32.212      33.917      35.385      36.628      37.666      38.454      38.856      38.693      37.846    
  36.319      34.234      31.798      29.262      26.908      24.916      23.304      22.020      20.971      20.043    
  19.124      18.110      16.923      15.521      13.919      12.183      10.416      8.7263      7.2088      5.9360    
  4.9487      4.2521      3.8230      3.6297      4.0004      4.0932      4.4710      5.1786      6.2623      7.7512    
  9.6535      11.960      14.641      17.640      20.851      24.120      27.266      30.123      32.579      34.593    
  36.071      36.911      37.190      37.128      36.959      36.808      36.650      36.371      35.866      35.088    
  34.040      32.766      31.364      30.016      28.905      28.012      27.254      26.532      25.726      24.722    
  23.416      21.746      19.713      17.394      14.929      12.487      10.223      8.2538      6.6530      5.4531    
  4.6425      4.1754      4.4983      4.3620      4.5464      5.0743      5.9931      7.3454      9.1547      11.427    
  14.149      17.284      20.745      24.383      27.988      31.333      34.224      36.517      37.937      38.229    
  37.427      35.878      34.118      32.659      31.805      31.619      31.997      32.760      33.683      34.507    
  35.006      35.101      34.932      34.760      34.614      34.404      33.999      33.242      31.981      30.110    
  27.616      24.599      21.261      17.851      14.602      11.688      9.2282      7.2891      5.8871      4.9827    
  5.2501      4.7760      4.7043      5.0053      5.7032      6.8437      8.4654      10.590      13.222      16.346    
  19.902      23.765      27.731      31.538      34.925      37.651      39.255      39.263      37.539      34.415    
  30.646      27.161      24.748      23.852      24.561      26.692      29.836      33.397      36.713      39.274    
  40.941      41.976      42.807      43.518      43.966      43.910      43.074      41.236      38.329      34.487    
  30.017      25.312      20.737      16.563      12.959      10.018      7.7766      6.2139      6.4007      5.4269    
  4.9999      5.0178      5.4510      6.3253      7.6835      9.5612      11.981      14.948      18.431      22.340    
  26.499      30.653      34.500      37.731      39.753      39.850      37.619      33.214      27.430      21.521    
  16.803      14.266      14.402      17.223      22.301      28.787      35.548      41.496      46.008      49.130    
  51.422      53.491      55.356      56.677      56.960      55.726      52.717      48.031      42.117      35.624    
  29.188      23.276      18.144      13.890      10.537      8.0632      8.1133      6.4378      5.5112      5.1625    
  5.2877      5.8621      6.9087      8.4666      10.575      13.261      16.519      20.291      24.448      28.769    
  32.951      36.651      39.243      39.801      37.626      32.560      25.232      17.019      9.6664      4.7471    
  3.3045      5.7572      11.896      20.840      31.099      40.961      49.134      55.231      59.757      63.630    
  67.449      70.913      73.269      73.628      71.309      66.162      58.685      49.868      40.822      32.428    
  25.162      19.155      14.366      10.714      10.529      7.9366      6.3337      5.5014      5.2599      5.5092    
  6.2227      7.4228      9.1576      11.473      14.386      17.868      21.837      26.126      30.465      34.507    
  37.695      38.995      37.440      32.508      24.490      14.638      4.8951     -2.6860     -6.4804     -5.5259    
 0.40496      10.679      23.725      37.352      49.531      59.225      66.660      72.897      79.025      85.239    
  90.624      93.815      93.495      88.939      80.399      69.083      56.709      44.868      34.562      26.120    
  19.443      14.309      13.739      10.019      7.5587      6.1053      5.4146      5.3040      5.6778      6.5180    
  7.8593      9.7561      12.246      15.330      18.965      23.044      27.351      31.569      35.257      37.440    
  36.958      32.958      25.302      14.881      3.5464     -6.4018     -12.850     -14.270     -9.8831     0.16650    
  14.581      31.019      46.855      60.268      70.949      79.899      88.539      97.684      106.67      113.77    
  116.96      114.66      106.44      93.318      77.476      61.399      47.004      35.189      25.973      18.960    
  17.775      12.727      9.2465      7.0360      5.7957      5.2719      5.2998      5.8011      6.7666      8.2383    
  10.273      12.903      16.114      19.846      23.959      28.201      32.219      35.271      36.142      33.736    
  27.490      17.779      6.0664     -5.4050     -14.248     -18.466     -16.716     -8.5135      5.4225      23.020    
  41.380      57.971      71.746      83.361      94.398      106.17      118.66      130.10      137.92      139.66    
  133.79      120.62      102.30      82.025      62.859      46.732      34.168      24.744      22.602      16.032    
  11.404      8.3214      6.4323      5.4322      5.0981      5.2831      5.9117      6.9910      8.5860      10.753    
  13.500      16.806      20.611      24.753      28.942      32.708      35.005      34.621      30.650      22.909    
  12.265     0.56565     -9.8517     -16.727     -18.231     -13.222     -1.6557      15.024      34.097      52.616    
  68.766      82.569      95.474      109.16      124.29      139.59      152.32      159.43      158.05      147.09    
  128.28      105.14      81.536      60.678      44.084      31.674      28.085      19.834      13.969      9.9377    
  7.3263      5.7949      5.0723      4.9483      5.2809      6.0277      7.2358      8.9695      11.259      14.120    
  17.562      21.518      25.778      30.023      33.605      35.362      34.186      29.421      21.263      10.892    
 0.22530     -8.5272     -13.241     -12.201     -4.5678      9.0872      26.670      45.281      62.530      77.640    
  91.580      106.14      122.56      140.35      157.04      169.52      174.03      167.81      151.11      127.33    
  100.96      76.025      55.313      39.558      33.915      23.926      16.802      11.803      8.4429      6.3500    
  5.2121      4.7713      4.8379      5.3172      6.2108      7.5698      9.4465      11.894      14.970      18.691    
  22.952      27.518      32.057      35.746      37.435      36.173      31.560      23.998      14.692      5.4380    
 -1.6678     -4.5708     -1.7428      7.2096      21.157      37.730      54.364      69.560      83.545      97.842    
  114.03      132.43      151.23      167.52      177.61      177.59      165.81      144.32      117.75      90.634    
  66.709      47.831      39.534      27.971      19.679      13.779      9.7061      7.0571      5.4921      4.7270    
  4.5451      4.8055      5.4531      6.5109      8.0458      10.141      12.890      16.368      20.578      25.390    
  30.565      35.709      39.899      42.077      41.433      37.674      31.194      23.091      15.053      9.1163    
  7.2404      10.686      19.418      31.979      46.120      59.960      72.954      86.005      100.65      117.79    
  136.53      154.36      168.07      173.74      168.34      152.00      128.22      101.65      76.433      55.464    
  44.154      31.507      22.309      15.678      10.998      7.8437      5.8706      4.7906      4.3716      4.4385    
  4.8901      5.7190      6.9916      8.8076      11.283      14.545      18.680      23.664      29.329      35.411    
  41.453      46.515      49.582      49.876      47.082      41.514      34.187      26.758      21.251      19.489    
  22.406      29.622      39.645      50.691      61.674      72.733      84.960      99.485      116.24      133.49    
  148.39      157.67      158.09      148.23      129.78      106.49      82.443      61.116      46.934      34.009    
  24.363      17.280      12.169      8.6130      6.2915      4.9299      4.2897      4.1757      4.4623      5.1180    
  6.1951      7.7966      10.059      13.144      17.202      22.292      28.335      35.130      42.379      49.545    
  55.624      59.557      60.520      58.151      52.761      45.430      37.899      32.142      29.730      31.260    
  36.206      43.318      51.381      59.914      69.369      80.674      94.203      109.07      123.23      133.87    
  138.19      134.22      122.05      103.92      83.280      63.561      47.272      35.032      25.536      18.368    
  13.061      9.2586      6.6867      5.1005      4.2680      3.9900      4.1323      4.6476      5.5721      7.0073    
  9.1048      12.051      16.034      21.178      27.504      34.901      43.121      51.751      60.078      66.950    
  71.190      71.940      68.940      62.719      54.589      46.367      39.865      36.339      36.138      38.749    
  43.239      48.871      55.527      63.661      73.642      85.146      97.005      107.23      113.43      113.62    
  107.03      94.601      78.708      62.188      45.056      34.356      25.623      18.773      13.542      9.6816    
  6.9848      5.2504      4.2714      3.8584      3.8763      4.2685      5.0619      6.3583      8.3196      11.146    
  15.048      20.203      26.728      34.633      43.772      53.757      63.891      73.137      80.105      83.536    
  82.737      77.835      69.807      60.257      50.998      43.575      38.895      37.111      37.790      40.308    
  44.249      49.582      56.375      64.495      73.378      81.828      88.150      90.614      88.127      80.766    
  69.822      57.286      40.725      32.081      24.586      18.419      13.531      9.8085      7.1237      5.3317    
  4.2647      3.7551      3.6724      3.9561      4.6291      5.7954      7.6245      10.328      14.131      19.250    
  25.886      34.190      44.183      55.589      67.680      79.235      88.715      94.542      95.611      91.748    
  83.778      73.260      62.027      51.726      43.513      37.940      35.025      34.437      35.755      38.652    
  42.856      48.161      54.248      60.468      65.779      68.932      68.890      65.270      58.556      49.917    
  35.083      28.591      22.573      17.343      13.017      9.6057      7.0656      5.3101      4.2179      3.6529    
  3.4979      3.6918      4.2535      5.2873      6.9698      9.5242      13.191      18.214      24.856      33.409    
  44.108      56.900      71.146      85.460      97.869      106.31      109.27      106.27      98.037      86.288    
  73.093      60.307      49.236      40.586      34.585      31.140      29.968      30.648      32.741      35.887    
  39.765      43.975      47.919      50.810      51.854      50.544      46.898      41.462      28.993      24.419    
  19.871      15.683      12.054      9.0860      6.8032      5.1701      4.1112      3.5298      3.3314      3.4571    
  3.9189      4.8174      6.3325      8.6970      12.168      17.012      23.534      32.133      43.263      57.187    
  73.527      90.893      106.92      118.86      124.44      122.69      114.20      100.90      85.305      69.780    
  55.950      44.624      36.032      30.112      26.637      25.245      25.491      26.925      29.154      31.823    
  34.538      36.812      38.108      37.987      36.269      33.124      23.132      20.078      16.821      13.643    
  10.756      8.3049      6.3571      4.9143      3.9389      3.3744      3.1562      3.2337      3.6111      4.3779    
  5.7078      7.8371      11.038      15.601      21.856      30.254      41.422      55.961      73.916      94.148    
  114.12      130.42      139.85      140.55      132.63      118.03      99.821      81.093      64.121      50.028    
  39.029      30.917      25.383      22.092      20.650      20.610      21.537      23.048      24.798      26.436    
  27.604      27.973      27.329      25.653      17.903      15.959      13.736      11.445      9.2686      7.3478    
  5.7696      4.5605      3.7081      3.1860      2.9626      3.0075      3.3194      3.9657      5.1017      6.9597    
  9.8219      13.995      19.818      27.756      38.512      52.956      71.618      93.882      117.41      138.40    
  152.76      157.42      151.55      136.85      116.61      94.644      74.135      56.875      43.313      33.113    
  25.748      20.778      17.820      16.464      16.271      16.834      17.802      18.876      19.781      20.273    
  20.160      19.356      13.485      12.307      10.861      9.2956      7.7421      6.3138      5.0984      4.1385    
  3.4333      2.9711      2.7511      2.7735      3.0369      3.5793      4.5261      6.0971      8.5718      12.258    
  17.498      24.738      34.668      48.268      66.475      89.351      115.18      140.27      160.06      170.11    
  168.05      154.83      133.96      109.58      85.690      65.050      48.685      36.342      27.280      20.847    
  16.578      14.066      12.880      12.607      12.898      13.464      14.060      14.485      14.588      14.265    
  9.9246      9.2524      8.3615      7.3506      6.3037      5.2974      4.4081      3.6848      3.1314      2.7409    
  2.5332      2.5377      2.7616      3.2179      3.9959      5.2881      7.3547      10.491      15.033      21.400    
  30.197      42.350      58.990      80.805      106.97      134.46      158.81      174.83      178.37      168.77    
  149.03      123.86      97.631      73.997      54.836      40.291      29.590      21.865      16.483      12.980    
  10.928      9.9272      9.6278      9.7335      10.003      10.263      10.396      10.305      7.1936      6.8381    
  6.3238      5.7080      5.0420      4.3731      3.7570      3.2372      2.8226      2.5106      2.3270      2.3162    
  2.5001      2.8850      3.5252      4.5669      6.2336      8.8010      12.593      17.992      25.493      35.853    
  50.160      69.464      93.820      121.27      147.88      168.71      178.52      174.64      158.51      134.66    
  107.96      82.527      61.121      44.562      32.326      23.451      17.126      12.790      10.011      8.3998    
  7.6000      7.3018      7.2624      7.3214      7.3814      7.3633      5.2083      5.0337      4.7583      4.4042    
  4.0034      3.5862      3.1846      2.8282      2.5311      2.2984      2.1508      2.1299      2.2719      2.5940    
  3.1256      3.9564      5.2590      7.2812      10.328      14.743      20.918      29.414      41.104      57.064    
  77.931      102.89      129.02      152.00      166.79      169.35      159.07      139.11      114.28      88.934    
  66.495      48.561      35.096      25.260      18.160      13.150      9.7807      7.6687      6.4518      5.8132    
  5.5099      5.3807      5.3299      5.2921      3.8370      3.7493      3.6122      3.4212      3.1944      2.9520    
  2.7089      2.4802      2.2814      2.1235      2.0197      1.9995      2.1050      2.3681      2.8083      3.4689    
  4.4652      6.0021      8.3539      11.827      16.743      23.501      32.703      45.204      61.813      82.544    
  105.79      128.13      145.24      153.01      149.26      135.21      114.55      91.465      69.701      51.495    
  37.411      26.943      19.284      13.771      9.9433      7.4269      5.8689      4.9559      4.4429      4.1595    
  4.0005      3.9069      2.9213      2.8630      2.7972      2.7050      2.5898      2.4632      2.3326      2.2048    
  2.0911      2.0019      1.9456      1.9409      2.0239      2.2327      2.5884      3.1117      3.8677      5.0029    
  6.7424      9.3577      13.133      18.364      25.431      34.885      47.391      63.325      82.102      101.65    
  118.55      129.13      130.76      123.03      107.97      89.004      69.687      52.565      38.734      28.141    
  20.225      14.407      10.258      7.4336      5.6113      4.4883      3.8140      3.4081      3.1590      3.0083    
  2.3122      2.2559      2.2230      2.1901      2.1484      2.1006      2.0514      2.0053      1.9677      1.9435    
  1.9380      1.9623      2.0406      2.2054      2.4828      2.8911      3.4643      4.2884      5.5251      7.4022    
  10.177      14.099      19.414      26.431      35.557      47.164      61.185      76.620      91.327      102.44    
  107.35      104.82      95.499      81.621      66.060      51.258      38.620      28.523      20.736      14.860    
  10.551      7.5282      5.5190      4.2420      3.4455      2.9434      2.6228      2.4241      1.9018      1.8381    
  1.8196      1.8225      1.8321      1.8437      1.8590      1.8814      1.9124      1.9524      2.0019      2.0655    
  2.1553      2.2930      2.5049      2.8141      3.2431      3.8360      4.6908      5.9763      7.9124      10.724    
  14.606      19.737      26.322      34.573      44.549      55.845      67.314      77.113      83.191      84.075    
  79.519      70.617      59.308      47.589      36.891      27.876      20.629      14.975      10.702      7.6126    
  5.4958      4.1125      3.2270      2.6540      2.2782      2.0389      1.6306      1.5566      1.5445      1.5703    
  1.6176      1.6780      1.7494      1.8320      1.9260      2.0292      2.1377      2.2489      2.3649      2.4963    
  2.6626      2.8885      3.1971      3.6151      4.1951      5.0419      6.3186      8.2188      10.924      14.576    
  19.282      25.121      32.104      40.043      48.373      56.062      61.767      64.253      62.904      58.001    
  50.608      42.111      33.717      26.182      19.815      14.651      10.618      7.6076      5.4758      4.0400    
  3.0997      2.4806      2.0652      1.7921      1.4808      1.4201      1.4129      1.4377      1.4813      1.5386    
  1.6079      1.6878      1.7769      1.8734      1.9739      2.0736      2.1689      2.2599      2.3547      2.4707    
  2.6310      2.8585      3.1757      3.6170      4.2476      5.1697      6.5074      8.3732      10.834      13.892    
  17.474      21.427      25.499      29.310      32.376      34.201      34.434      33.013      30.186      26.414    
  22.218      18.043      14.206      10.894      8.1870      6.0866      4.5380      3.4477      2.7029      2.1964    
  1.8492      1.6178      1.3996      1.3332      1.3280      1.3655      1.4312      1.5182      1.6246      1.7482    
  1.8849      2.0303      2.1799      2.3277      2.4649      2.5837      2.6827      2.7707      2.8664      2.9942    
  3.1786      3.4449      3.8282      4.3870      5.2074      6.3876      8.0070      10.097      12.622      15.477    
  18.483      21.389      23.879      25.621      26.337      25.890      24.337      21.914      18.953      15.797    
  12.733      9.9693      7.6364      5.7834      4.3872      3.3744      2.6537      2.1437      1.7861      1.5452    
  1.4127      1.3510      1.3528      1.4032      1.4893      1.6030      1.7413      1.9018      2.0803      2.2711    
  2.4685      2.6647      2.8486      3.0073      3.1302      3.2151      3.2715      3.3204      3.3899      3.5079    
  3.7006      4.0011      4.4593      5.1426      6.1214      7.4458      9.1225      11.098      13.255      15.415    