unknown system                          
   1.00000000000000     
     4.913700    0.000000    0.000000
    -2.456850    4.255389    0.000000
     0.000000    0.000000    5.405130
   Si   O 
     3     6
Direct
  0.469800  0.020000  0.666670
  0.000000  0.469800  0.333330
  0.530200  0.530200  0.000000
  0.414500  0.266200  0.785600
  0.733800  0.148300  0.452270
  0.851700  0.585500  0.118930
  0.148300  0.733800  0.547730
  0.266200  0.414500  0.214400
  0.585500  0.851700  0.881070
 
   48   48   56
 0.14712172331E+01 0.13865472837E+01 0.13768954602E+01 0.14193022206E+01 0.14961518450E+01
 0.15973713370E+01 0.17181791813E+01 0.18562531144E+01 0.20096276087E+01 0.21747127366E+01
 0.23450912279E+01 0.25125163695E+01 0.26702252290E+01 0.28174515608E+01 0.29633096541E+01
 0.31271843193E+01 0.33341433285E+01 0.36102452855E+01 0.39877048405E+01 0.45234043292E+01
 0.53183689669E+01 0.65179034500E+01 0.82844165044E+01 0.10757436880E+02 0.14025004295E+02
 0.18115960622E+02 0.22994991839E+02 0.28527725122E+02 0.34404694112E+02 0.40067794974E+02
 0.44728278853E+02 0.47541818151E+02 0.47900769095E+02 0.45690840153E+02 0.41348550079E+02
 0.35678095114E+02 0.29545693014E+02 0.23631286082E+02 0.18341522372E+02 0.13859090403E+02
 0.10233556457E+02 0.74407926843E+01 0.54007254354E+01 0.39832210656E+01 0.30291897653E+01
 0.23877347796E+01 0.19489755007E+01 0.16525938601E+01 0.14054143482E+01 0.13140130653E+01
 0.13064331630E+01 0.13626199675E+01 0.14642426426E+01 0.15998085189E+01 0.17638592312E+01
 0.19530460867E+01 0.21636730034E+01 0.23908473632E+01 0.26270328024E+01 0.28605879331E+01
 0.30771449800E+01 0.32645921324E+01 0.34192584496E+01 0.35501090575E+01 0.36785041842E+01
 0.38331449114E+01 0.40448465017E+01 0.43498684553E+01 0.48048260113E+01 0.55015821551E+01
 0.65634744527E+01 0.81173702292E+01 0.10257435384E+02 0.13021193235E+02 0.16380440549E+02
 0.20230624720E+02 0.24365601589E+02 0.28449061944E+02 0.32017111163E+02 0.34545967341E+02
 0.35586532853E+02 0.34917455806E+02 0.32635873323E+02 0.29126521469E+02 0.24922460331E+02
 0.20539294879E+02 0.16369274635E+02 0.12661324908E+02 0.95494429017E+01 0.70806205679E+01
 0.52275451649E+01 0.39017688480E+01 0.29810212784E+01 0.23446849271E+01 0.19011500704E+01
 0.15964904913E+01 0.14119862113E+01 0.13236123877E+01 0.13223547182E+01 0.13922846715E+01
 0.15164709090E+01 0.16827444088E+01 0.18852073752E+01 0.21211492582E+01 0.23875982760E+01
 0.26796164003E+01 0.29887299580E+01 0.33007653221E+01 0.35955150758E+01 0.38504892655E+01
 0.40478815896E+01 0.41818970740E+01 0.42633451267E+01 0.43186372967E+01 0.43829827227E+01
 0.44935382849E+01 0.46909412204E+01 0.50300875810E+01 0.55890439866E+01 0.64630886416E+01
 0.77426650870E+01 0.94860580571E+01 0.11697355800E+02 0.14311896384E+02 0.17187170378E+02
 0.20100500966E+02 0.22759918105E+02 0.24836719636E+02 0.26024685739E+02 0.26117660572E+02
 0.25076759995E+02 0.23049335866E+02 0.20322952970E+02 0.17238750738E+02 0.14111918244E+02
 0.11189713494E+02 0.86411027687E+01 0.65563253260E+01 0.49485514842E+01 0.37662154393E+01
 0.29209228679E+01 0.23208736310E+01 0.18946526498E+01 0.15987525563E+01 0.14690953109E+01
 0.13962060255E+01 0.14095781847E+01 0.14967767949E+01 0.16440182624E+01 0.18400229087E+01
 0.20786568799E+01 0.23586528068E+01 0.26803570535E+01 0.30413803482E+01 0.34332323339E+01
 0.38394307590E+01 0.42349014697E+01 0.45878241034E+01 0.48657001849E+01 0.50450127229E+01
 0.51204302884E+01 0.51087545415E+01 0.50454574707E+01 0.49757854643E+01 0.49460294026E+01
 0.50013379882E+01 0.51917016079E+01 0.55790104351E+01 0.62337182974E+01 0.72165725149E+01
 0.85537834001E+01 0.10219069784E+02 0.12128090501E+02 0.14140916642E+02 0.16069118363E+02
 0.17692691394E+02 0.18793923086E+02 0.19204372796E+02 0.18847911028E+02 0.17760853506E+02
 0.16081171283E+02 0.14013084823E+02 0.11781877043E+02 0.95936829400E+01 0.76085221814E+01
 0.59270084551E+01 0.45876719690E+01 0.35739084031E+01 0.28315726801E+01 0.22943486709E+01
 0.19071413504E+01 0.16369548073E+01 0.15602259796E+01 0.15144416731E+01 0.15520352172E+01
 0.16631418397E+01 0.18366828504E+01 0.20633322116E+01 0.23382174882E+01 0.26622075567E+01
 0.30397685677E+01 0.34734425076E+01 0.39578849397E+01 0.44760609715E+01 0.49979618284E+01
 0.54820618365E+01 0.58810688672E+01 0.61524404531E+01 0.62706169351E+01 0.62359519211E+01
 0.60765993664E+01 0.58423234420E+01 0.55924396947E+01 0.53838793509E+01 0.52663505492E+01
 0.52857956039E+01 0.54887175136E+01 0.59185690594E+01 0.66037421648E+01 0.75444472144E+01
 0.87040262444E+01 0.10004447072E+02 0.11326343462E+02 0.12519139419E+02 0.13425241622E+02
 0.13912252450E+02 0.13900505010E+02 0.13377587865E+02 0.12399397994E+02 0.11079112564E+02
 0.95644266290E+01 0.80073920596E+01 0.65372164914E+01 0.52446397195E+01 0.41776281077E+01
 0.33436204808E+01 0.27175760273E+01 0.22577413825E+01 0.19250699462E+01 0.16957148421E+01
 0.16757560858E+01 0.16673106012E+01 0.17380331128E+01 0.18805668453E+01 0.20856380564E+01
 0.23458200051E+01 0.26586268224E+01 0.30277791254E+01 0.34620251119E+01 0.39704716648E+01
 0.45546766266E+01 0.52006176118E+01 0.58745924915E+01 0.65248760346E+01 0.70885660828E+01
 0.75026861249E+01 0.77182787615E+01 0.77139472393E+01 0.75034209030E+01 0.71335801319E+01
 0.66738790077E+01 0.62013226463E+01 0.57859249462E+01 0.54814001029E+01 0.53242560441E+01
 0.53395648508E+01 0.55459746397E+01 0.59526280713E+01 0.65483706650E+01 0.72914867378E+01
 0.81080485110E+01 0.89002729305E+01 0.95612000796E+01 0.99920573036E+01 0.10119837987E+02
 0.99115186918E+01 0.93804015064E+01 0.85824347110E+01 0.76042531644E+01 0.65464606933E+01
 0.55054701549E+01 0.45575100867E+01 0.37489897464E+01 0.30958205387E+01 0.25905827715E+01
 0.22136488550E+01 0.19440981944E+01 0.17671198694E+01 0.18105168566E+01 0.18490626817E+01
 0.19615179261E+01 0.21429033700E+01 0.23861342778E+01 0.26852728569E+01 0.30393323045E+01
 0.34547343965E+01 0.39453357288E+01 0.45282400580E+01 0.52144010409E+01 0.59969135226E+01
 0.68428015165E+01 0.76923167386E+01 0.84658820529E+01 0.90771391517E+01 0.94502412628E+01
 0.95375976808E+01 0.93322723992E+01 0.88708345762E+01 0.82264549745E+01 0.74941998382E+01
 0.67711579516E+01 0.61368665469E+01 0.56424205220E+01 0.53127818816E+01 0.51567360856E+01
 0.51736522157E+01 0.53523580028E+01 0.56668420467E+01 0.60746642150E+01 0.65185804675E+01
 0.69302093485E+01 0.72378577365E+01 0.73800416718E+01 0.73195271690E+01 0.70497249104E+01
 0.65919134773E+01 0.59891134316E+01 0.53002545025E+01 0.45915289741E+01 0.39227414261E+01
 0.33345914674E+01 0.28453677876E+01 0.24575075521E+01 0.21664075047E+01 0.19655233805E+01
 0.18484602208E+01 0.19612331184E+01 0.20554204618E+01 0.22190103918E+01 0.24483829671E+01
 0.27388462209E+01 0.30855275116E+01 0.34871866694E+01 0.39515226176E+01 0.44975102480E+01
 0.51511162652E+01 0.59345211741E+01 0.68521839503E+01 0.78783593807E+01 0.89509101041E+01
 0.99753219655E+01 0.10839622071E+02 0.11436441504E+02 0.11685853443E+02 0.11553133479E+02
 0.11057433470E+02 0.10269041619E+02 0.92952573802E+01 0.82584173923E+01 0.72722530863E+01
 0.64226935945E+01 0.57574763455E+01 0.52869995083E+01 0.49956630986E+01 0.48576438862E+01
 0.48475282883E+01 0.49399897773E+01 0.51023184774E+01 0.52898703033E+01 0.54508352311E+01
 0.55375220642E+01 0.55164932460E+01 0.53729006171E+01 0.51099009781E+01 0.47460324799E+01
 0.43118122185E+01 0.38451049924E+01 0.33849439693E+01 0.29648215599E+01 0.26077142237E+01
 0.23250668639E+01 0.21199423691E+01 0.19917558858E+01 0.19393129226E+01 0.21249096523E+01
 0.22815025978E+01 0.25063582922E+01 0.27963841127E+01 0.31476604724E+01 0.35552288995E+01
 0.40164503425E+01 0.45380562982E+01 0.51413966403E+01 0.58601556010E+01 0.67295196965E+01
 0.77697913015E+01 0.89690405326E+01 0.10270695248E+02 0.11572408942E+02 0.12739293948E+02
 0.13628701858E+02 0.14119691355E+02 0.14139679074E+02 0.13681382976E+02 0.12804851517E+02
 0.11624105015E+02 0.10283748478E+02 0.89324407391E+01 0.76972619848E+01 0.66624307491E+01
 0.58593932470E+01 0.52747831037E+01 0.48724493908E+01 0.46148213965E+01 0.44710322305E+01
 0.44128828802E+01 0.44090996014E+01 0.44248492419E+01 0.44255225690E+01 0.43817467881E+01
 0.42745333769E+01 0.40988205022E+01 0.38623032834E+01 0.35799614264E+01 0.32697213200E+01
 0.29527049239E+01 0.26540809466E+01 0.23989171221E+01 0.22049188267E+01 0.20795396405E+01
 0.20240480690E+01 0.20389044759E+01 0.22972859601E+01 0.25213503218E+01 0.28172790411E+01
 0.31831242611E+01 0.36139676117E+01 0.41028107601E+01 0.46441649232E+01 0.52409345262E+01
 0.59121011681E+01 0.66951539627E+01 0.76377910444E+01 0.87791627929E+01 0.10127184306E+02
 0.11640332023E+02 0.13220202574E+02 0.14718415640E+02 0.15959033773E+02 0.16773455484E+02
 0.17038799049E+02 0.16707362793E+02 0.15817497432E+02 0.14483653026E+02 0.12870510077E+02
 0.11159598853E+02 0.95167395794E+01 0.80666825430E+01 0.68789732875E+01 0.59670514635E+01
 0.53004067871E+01 0.48259669244E+01 0.44903554269E+01 0.42532410764E+01 0.40873170771E+01
 0.39698138344E+01 0.38756698193E+01 0.37785750303E+01 0.36574702318E+01 0.35016673582E+01
 0.33108894665E+01 0.30921771113E+01 0.28574144157E+01 0.26225701659E+01 0.24068282425E+01
 0.22298593911E+01 0.21078634933E+01 0.20508254331E+01 0.20628188874E+01 0.21447788982E+01
 0.24717990040E+01 0.27667231850E+01 0.31420264065E+01 0.35984139871E+01 0.41305762442E+01
 0.47281724041E+01 0.53800975902E+01 0.60818203352E+01 0.68451410241E+01 0.77052099113E+01
 0.87167080138E+01 0.99360451171E+01 0.11395381379E+02 0.13078215707E+02 0.14903830493E+02
 0.16725233148E+02 0.18344785470E+02 0.19548844161E+02 0.20154914333E+02 0.20056977292E+02
 0.19253097890E+02 0.17845316496E+02 0.16012427920E+02 0.13967238304E+02 0.11914930375E+02
 0.10023653493E+02 0.84074321131E+01 0.71172050683E+01 0.61418467707E+01 0.54251893148E+01
 0.48962263793E+01 0.44963854384E+01 0.41885317826E+01 0.39489010015E+01 0.37562962689E+01
 0.35888032316E+01 0.34262193631E+01 0.32527308515E+01 0.30592675205E+01 0.28466972333E+01
 0.26270495028E+01 0.24193917133E+01 0.22428974360E+01 0.21130224461E+01 0.20419245915E+01
 0.20389351591E+01 0.21091589257E+01 0.22534417982E+01 0.26403624529E+01 0.30056905512E+01
 0.34654338426E+01 0.40239977744E+01 0.46780238928E+01 0.54145146681E+01 0.62145923016E+01
 0.70627747474E+01 0.79590486677E+01 0.89286515712E+01 0.10023216399E+02 0.11308637869E+02
 0.12840464316E+02 0.14634043503E+02 0.16639495031E+02 0.18729628914E+02 0.20705729620E+02
 0.22324396058E+02 0.23345300281E+02 0.23590506952E+02 0.22994717634E+02 0.21624103040E+02
 0.19655474375E+02 0.17328118364E+02 0.14890877471E+02 0.12560761745E+02 0.10496711988E+02
 0.87863304491E+01 0.74457478023E+01 0.64342889349E+01 0.56806331498E+01 0.51104370787E+01
 0.46646916486E+01 0.43045004988E+01 0.40057055629E+01 0.37504003418E+01 0.35212397469E+01
 0.33010113884E+01 0.30764496775E+01 0.28430793978E+01 0.26077344113E+01 0.23871390273E+01
 0.22032272898E+01 0.20772695316E+01 0.20250253350E+01 0.20545620121E+01 0.21674231002E+01
 0.23624815783E+01 0.27961979556E+01 0.32238178974E+01 0.37666838906E+01 0.44332631525E+01
 0.52236955766E+01 0.61245857164E+01 0.71104924876E+01 0.81536192390E+01 0.92375685153E+01
 0.10369551749E+02 0.11586616249E+02 0.12951259137E+02 0.14532765705E+02 0.16376894271E+02
 0.18473902913E+02 0.20735606764E+02 0.22987784862E+02 0.24983096221E+02 0.26440780578E+02
 0.27111749306E+02 0.26849501067E+02 0.25655390015E+02 0.23676971828E+02 0.21163716234E+02
 0.18403478559E+02 0.15664039189E+02 0.13153440218E+02 0.11001963004E+02 0.92618043764E+01
 0.79183052614E+01 0.69087702343E+01 0.61474263823E+01 0.55522290028E+01 0.50635737975E+01
 0.46468194177E+01 0.42822069256E+01 0.39546456903E+01 0.36510174169E+01 0.33616698634E+01
 0.30807657041E+01 0.28070023699E+01 0.25479935240E+01 0.23241565506E+01 0.21641827359E+01
 0.20927369805E+01 0.21211456036E+01 0.22491064304E+01 0.24736520762E+01 0.29379714476E+01
 0.34087740852E+01 0.40229575085E+01 0.47933501727E+01 0.57238483653E+01 0.68030718459E+01
 0.80031782241E+01 0.92863497549E+01 0.10617631813E+02 0.11979639377E+02 0.13383879824E+02
 0.14873654588E+02 0.16514300558E+02 0.18369880674E+02 0.20471049756E+02 0.22782701026E+02
 0.25180419052E+02 0.27445196688E+02 0.29287350911E+02 0.30405635796E+02 0.30569850789E+02
 0.29694273412E+02 0.27865993600E+02 0.25315380250E+02 0.22348251236E+02 0.19274248264E+02
 0.16355250894E+02 0.13777408960E+02 0.11640125487E+02 0.99582522527E+01 0.86785887704E+01
 0.77091615881E+01 0.69521478315E+01 0.63279314574E+01 0.57834900089E+01 0.52883841008E+01
 0.48269777338E+01 0.43925514983E+01 0.39832449676E+01 0.35986635084E+01 0.32390574174E+01
 0.29091583667E+01 0.26234855724E+01 0.24061490664E+01 0.22827016046E+01 0.22703054172E+01
 0.23748133038E+01 0.25964445268E+01 0.30737516912E+01 0.35562443670E+01 0.42161346109E+01
 0.50712704604E+01 0.61298245256E+01 0.73842616276E+01 0.88085710275E+01 0.10360315608E+02
 0.11989351599E+02 0.13651860568E+02 0.15324897574E+02 0.17016399683E+02 0.18766591109E+02
 0.20637017065E+02 0.22685558896E+02 0.24931235012E+02 0.27317866435E+02 0.29688539012E+02
 0.31785526179E+02 0.33290455986E+02 0.33906107124E+02 0.33452788827E+02 0.31931713159E+02
 0.29521871408E+02 0.26519112829E+02 0.23257182032E+02 0.20044164369E+02 0.17121274421E+02
 0.14637987291E+02 0.12644177380E+02 0.11104452244E+02 0.99302263998E+01 0.90146533738E+01
 0.82584546365E+01 0.75847594455E+01 0.69451561973E+01 0.63177054873E+01 0.56990727747E+01
 0.50963957256E+01 0.45226913638E+01 0.39940056946E+01 0.35258919186E+01 0.31313971249E+01
 0.28231947740E+01 0.26166211590E+01 0.25280881101E+01 0.25700079636E+01 0.27494870063E+01
 0.32219148337E+01 0.36742672320E+01 0.43399338581E+01 0.52433591053E+01 0.63986638633E+01
 0.78036993323E+01 0.94371598865E+01 0.11258425740E+02 0.13210722829E+02 0.15228830625E+02
 0.17251989371E+02 0.19240296795E+02 0.21188846146E+02 0.23131257576E+02 0.25126903728E+02
 0.27232421953E+02 0.29462565237E+02 0.31748293327E+02 0.33902702667E+02 0.35635035095E+02
 0.36629435189E+02 0.36633464891E+02 0.35544316310E+02 0.33450141256E+02 0.30609181562E+02
 0.27368974711E+02 0.24064586815E+02 0.20969890150E+02 0.18270161569E+02 0.16052139496E+02
 0.14310719375E+02 0.12971870691E+02 0.11925033913E+02 0.11054276189E+02 0.10260756430E+02
 0.94747548158E+01 0.86589357136E+01 0.78057982131E+01 0.69321142309E+01 0.60713125941E+01
 0.52634115126E+01 0.45441512425E+01 0.39381200145E+01 0.34591561105E+01 0.31153378958E+01
 0.29129343517E+01 0.28576812558E+01 0.29565720034E+01 0.34071073469E+01 0.37835120525E+01
 0.44046306481E+01 0.53042233137E+01 0.65050621619E+01 0.80123476064E+01 0.98118403885E+01
 0.11870192249E+02 0.14133737501E+02 0.16526872475E+02 0.18957373688E+02 0.21334148941E+02
 0.23592339556E+02 0.25712526514E+02 0.27723739304E+02 0.29688619907E+02 0.31671449058E+02
 0.33660842934E+02 0.35551680676E+02 0.37175861137E+02 0.38298391886E+02 0.38665816806E+02
 0.38096236427E+02 0.36558082886E+02 0.34191065080E+02 0.31267899579E+02 0.28133335871E+02
 0.25120279551E+02 0.22435129869E+02 0.20183780929E+02 0.18384975019E+02 0.16981769654E+02
 0.15868095393E+02 0.14922773076E+02 0.14034921435E+02 0.13115745108E+02 0.12105743769E+02
 0.10983743111E+02 0.97711485827E+01 0.85225574939E+01 0.73061418282E+01 0.61863009907E+01
 0.52151580363E+01 0.44288460410E+01 0.38441885524E+01 0.34589575522E+01 0.32606290373E+01
 0.32409341709E+01 0.36556713267E+01 0.39126739460E+01 0.44364405988E+01 0.52706927674E+01
 0.64499607560E+01 0.79897726789E+01 0.98856181276E+01 0.12114990897E+02 0.14634728662E+02
 0.17372178269E+02 0.20219427832E+02 0.23043564779E+02 0.25715597397E+02 0.28144776682E+02
 0.30300221093E+02 0.32212045393E+02 0.33917336807E+02 0.35385308191E+02 0.36627847246E+02
 0.37666027194E+02 0.38454492040E+02 0.38855529673E+02 0.38692750257E+02 0.37846369931E+02
 0.36318788282E+02 0.34234108425E+02 0.31797595798E+02 0.29262027618E+02 0.26907934330E+02
 0.24916134838E+02 0.23303673778E+02 0.22019920473E+02 0.20970871767E+02 0.20043155025E+02
 0.19123634264E+02 0.18110365142E+02 0.16923244441E+02 0.15521340846E+02 0.13918664950E+02
 0.12183182504E+02 0.10416322926E+02 0.87263060927E+01 0.72088046301E+01 0.59360125345E+01
 0.49487095847E+01 0.42521455117E+01 0.38230302645E+01 0.36296909632E+01 0.40003695669E+01
 0.40931861443E+01 0.44710086138E+01 0.51786417954E+01 0.62623362015E+01 0.77512307207E+01
 0.96535037283E+01 0.11959651411E+02 0.14641304211E+02 0.17639890409E+02 0.20850940540E+02
 0.24120288824E+02 0.27266227908E+02 0.30122560032E+02 0.32578774273E+02 0.34592935150E+02
 0.36071174998E+02 0.36911319165E+02 0.37190292395E+02 0.37127571323E+02 0.36958688857E+02
 0.36808131603E+02 0.36650061386E+02 0.36371141010E+02 0.35866039635E+02 0.35087576927E+02
 0.34040233868E+02 0.32766447844E+02 0.31364438679E+02 0.30016279666E+02 0.28905071083E+02
 0.28011506076E+02 0.27254449522E+02 0.26531583159E+02 0.25726392743E+02 0.24721535216E+02
 0.23415888160E+02 0.21746489339E+02 0.19713341921E+02 0.17393532889E+02 0.14928729034E+02
 0.12487353568E+02 0.10223467893E+02 0.82537808392E+01 0.66529741549E+01 0.54531244232E+01
 0.46425266985E+01 0.41754370641E+01 0.44982763281E+01 0.43620084555E+01 0.45464297950E+01
 0.50742949012E+01 0.59931243094E+01 0.73453985321E+01 0.91547352852E+01 0.11426513550E+02
 0.14148978220E+02 0.17283661538E+02 0.20744959253E+02 0.24382511502E+02 0.27987630726E+02
 0.31332593916E+02 0.34223606136E+02 0.36517420392E+02 0.37937016701E+02 0.38229286712E+02
 0.37427328936E+02 0.35877859762E+02 0.34118202483E+02 0.32658772990E+02 0.31804910121E+02
 0.31618668491E+02 0.31997175642E+02 0.32760419107E+02 0.33682903456E+02 0.34506556243E+02
 0.35005643859E+02 0.35100802619E+02 0.34932287685E+02 0.34760126744E+02 0.34613886947E+02
 0.34403844147E+02 0.33999232931E+02 0.33242144825E+02 0.31980582572E+02 0.30110179597E+02
 0.27616265842E+02 0.24599156290E+02 0.21260877650E+02 0.17851050137E+02 0.14601600279E+02
 0.11688289695E+02 0.92282427236E+01 0.72891125887E+01 0.58871329276E+01 0.49826646249E+01
 0.52500697326E+01 0.47760123401E+01 0.47042684821E+01 0.50052635888E+01 0.57031729634E+01
 0.68437224163E+01 0.84654120027E+01 0.10589884839E+02 0.13222417202E+02 0.16346088679E+02
 0.19902377970E+02 0.23765469240E+02 0.27730759525E+02 0.31538075258E+02 0.34925498054E+02
 0.37651031816E+02 0.39254554906E+02 0.39262666044E+02 0.37538735271E+02 0.34415035245E+02
 0.30645906087E+02 0.27161073648E+02 0.24748033431E+02 0.23851601431E+02 0.24561436856E+02
 0.26691947385E+02 0.29835500826E+02 0.33397263792E+02 0.36712606185E+02 0.39273611684E+02
 0.40940680569E+02 0.41975788116E+02 0.42806561908E+02 0.43517751195E+02 0.43965662276E+02
 0.43910074475E+02 0.43073545498E+02 0.41235995303E+02 0.38329197036E+02 0.34486644443E+02
 0.30017223608E+02 0.25312338349E+02 0.20737328837E+02 0.16563265382E+02 0.12959061957E+02
 0.10017891564E+02 0.77766193287E+01 0.62139041883E+01 0.64007322880E+01 0.54268654730E+01
 0.49998596306E+01 0.50178141181E+01 0.54510275323E+01 0.63253087343E+01 0.76835083523E+01
 0.95612004575E+01 0.11981095924E+02 0.14947873423E+02 0.18431260994E+02 0.22340021289E+02
 0.26499446775E+02 0.30652737938E+02 0.34499927853E+02 0.37730580027E+02 0.39752873346E+02
 0.39849762316E+02 0.37619269301E+02 0.33214275350E+02 0.27429853499E+02 0.21521109808E+02
 0.16803116151E+02 0.14265769949E+02 0.14401895849E+02 0.17222900029E+02 0.22300559604E+02
 0.28787440482E+02 0.35547667133E+02 0.41495734249E+02 0.46008175704E+02 0.49129798809E+02
 0.51422459476E+02 0.53491130812E+02 0.55356442560E+02 0.56677377476E+02 0.56959650053E+02
 0.55725976561E+02 0.52717158980E+02 0.48030940589E+02 0.42116866004E+02 0.35623835700E+02
 0.29188136244E+02 0.23276236141E+02 0.18143838037E+02 0.13890451231E+02 0.10536957871E+02
 0.80632233224E+01 0.81132922520E+01 0.64378394654E+01 0.55112321483E+01 0.51624983510E+01
 0.52876952344E+01 0.58621001272E+01 0.69087403140E+01 0.84665583613E+01 0.10575022198E+02
 0.13260785988E+02 0.16518511615E+02 0.20291008829E+02 0.24448194429E+02 0.28768799607E+02
 0.32950524143E+02 0.36651340614E+02 0.39242711097E+02 0.39801351724E+02 0.37625758226E+02
 0.32559870366E+02 0.25231542835E+02 0.17019328207E+02 0.96664433647E+01 0.47470601240E+01
 0.33044524540E+01 0.57571638211E+01 0.11896028845E+02 0.20840078938E+02 0.31098525694E+02
 0.40960586928E+02 0.49134192886E+02 0.55231390772E+02 0.59756659461E+02 0.63630417494E+02
 0.67448750153E+02 0.70913109009E+02 0.73269021488E+02 0.73627794700E+02 0.71309295169E+02
 0.66161627811E+02 0.58684880389E+02 0.49867670899E+02 0.40822203705E+02 0.32427618591E+02
 0.25161572331E+02 0.19155357156E+02 0.14365752037E+02 0.10713553117E+02 0.10529262170E+02
 0.79366168547E+01 0.63337293708E+01 0.55013884549E+01 0.52599098284E+01 0.55092239433E+01
 0.62227022361E+01 0.74227696725E+01 0.91575536899E+01 0.11473105886E+02 0.14385677573E+02
 0.17867792396E+02 0.21836840688E+02 0.26126357802E+02 0.30464728648E+02 0.34507438840E+02
 0.37694532056E+02 0.38995471952E+02 0.37439643223E+02 0.32507896533E+02 0.24490173367E+02
 0.14637593369E+02 0.48950517246E+01 -.26860228442E+01 -.64803852683E+01 -.55258627815E+01
 0.40496427975E+00 0.10679009763E+02 0.23725453004E+02 0.37351789130E+02 0.49531322711E+02
 0.59224900077E+02 0.66659609439E+02 0.72897137402E+02 0.79025469895E+02 0.85239346136E+02
 0.90624052455E+02 0.93814624292E+02 0.93494526291E+02 0.88939304450E+02 0.80399333044E+02
 0.69083281555E+02 0.56709204625E+02 0.44868457979E+02 0.34561682964E+02 0.26119718294E+02
 0.19443325282E+02 0.14309428795E+02 0.13739452390E+02 0.10019395095E+02 0.75587088775E+01
 0.61052874960E+01 0.54146046146E+01 0.53039918079E+01 0.56778289875E+01 0.65179562954E+01
 0.78593086204E+01 0.97561365869E+01 0.12245900770E+02 0.15329681690E+02 0.18965453110E+02
 0.23044053836E+02 0.27351117222E+02 0.31569279229E+02 0.35257386317E+02 0.37440234458E+02
 0.36958333840E+02 0.32958264453E+02 0.25302356339E+02 0.14881420294E+02 0.35464154423E+01
 -.64018139327E+01 -.12849637692E+02 -.14270277994E+02 -.98830575697E+01 0.16649879305E+00
 0.14580619279E+02 0.31019439912E+02 0.46854582170E+02 0.60267901787E+02 0.70948790591E+02
 0.79899030455E+02 0.88538697598E+02 0.97683860743E+02 0.10667338155E+03 0.11377025376E+03
 0.11695688391E+03 0.11465762355E+03 0.10643635229E+03 0.93317840393E+02 0.77475702009E+02
 0.61398520485E+02 0.47003687761E+02 0.35189408996E+02 0.25973265983E+02 0.18959562025E+02
 0.17775068116E+02 0.12726531994E+02 0.92465378580E+01 0.70359503418E+01 0.57956722576E+01
 0.52719387743E+01 0.52998467571E+01 0.58010944968E+01 0.67666139949E+01 0.82383146533E+01
 0.10273446275E+02 0.12902814645E+02 0.16113808482E+02 0.19845538086E+02 0.23958569639E+02
 0.28200504764E+02 0.32218658575E+02 0.35270884466E+02 0.36141780493E+02 0.33736015182E+02
 0.27490419516E+02 0.17778791212E+02 0.60664164649E+01 -.54049730328E+01 -.14248140350E+02
 -.18466460222E+02 -.16715549688E+02 -.85135067967E+01 0.54225354097E+01 0.23019889602E+02
 0.41379612593E+02 0.57971020230E+02 0.71745556053E+02 0.83360521617E+02 0.94397654668E+02
 0.10617002064E+03 0.11865732653E+03 0.13009702912E+03 0.13792217688E+03 0.13966370515E+03
 0.13379214506E+03 0.12061989206E+03 0.10230163445E+03 0.82024617898E+02 0.62858827792E+02
 0.46731977319E+02 0.34168079136E+02 0.24744328698E+02 0.22601869751E+02 0.16032488923E+02
 0.11404131899E+02 0.83213965522E+01 0.64323469526E+01 0.54322460676E+01 0.50980507479E+01
 0.52830505855E+01 0.59116576608E+01 0.69909652519E+01 0.85860279450E+01 0.10752526386E+02
 0.13499630252E+02 0.16805631929E+02 0.20610618746E+02 0.24753373754E+02 0.28941541597E+02
 0.32708072852E+02 0.35004976035E+02 0.34620953825E+02 0.30649744878E+02 0.22908881691E+02
 0.12265043954E+02 0.56564651532E+00 -.98517396355E+01 -.16727191290E+02 -.18231063228E+02
 -.13221561362E+02 -.16556922109E+01 0.15024120982E+02 0.34096732173E+02 0.52616269519E+02
 0.68766081455E+02 0.82569203592E+02 0.95473757819E+02 0.10915826852E+03 0.12429147460E+03
 0.13958827014E+03 0.15231621889E+03 0.15942845667E+03 0.15804536340E+03 0.14708819845E+03
 0.12827837843E+03 0.10514310808E+03 0.81535744632E+02 0.60678051593E+02 0.44084062765E+02
 0.31673692556E+02 0.28085309970E+02 0.19834304819E+02 0.13969472745E+02 0.99377050483E+01
 0.73263092689E+01 0.57949133427E+01 0.50723204880E+01 0.49483375827E+01 0.52809323140E+01
 0.60277010956E+01 0.72357831176E+01 0.89694559435E+01 0.11259138270E+02 0.14120178120E+02
 0.17561788735E+02 0.21517779299E+02 0.25778439621E+02 0.30023498994E+02 0.33604720017E+02
 0.35362280627E+02 0.34185505915E+02 0.29421218717E+02 0.21263375050E+02 0.10892115364E+02
 0.22530202064E+00 -.85271984125E+01 -.13240888776E+02 -.12200665570E+02 -.45677883106E+01
 0.90871945253E+01 0.26670476327E+02 0.45281081265E+02 0.62529693446E+02 0.77640313204E+02
 0.91579537567E+02 0.10613570118E+03 0.12255659510E+03 0.14034659826E+03 0.15704364409E+03
 0.16951966329E+03 0.17403157818E+03 0.16781347258E+03 0.15111058089E+03 0.12733266168E+03
 0.10096079663E+03 0.76025072991E+02 0.55312516745E+02 0.39557933726E+02 0.33915327139E+02
 0.23926159105E+02 0.16801712614E+02 0.11802900777E+02 0.84428947652E+01 0.63499743759E+01
 0.52120874804E+01 0.47713107777E+01 0.48379493230E+01 0.53172213575E+01 0.62108013506E+01
 0.75697564469E+01 0.94464705122E+01 0.11893651448E+02 0.14970446765E+02 0.18691487217E+02
 0.22951548288E+02 0.27518400043E+02 0.32057421099E+02 0.35745786550E+02 0.37435261255E+02
 0.36173383205E+02 0.31560438715E+02 0.23998014827E+02 0.14691704883E+02 0.54379655838E+01
 -.16678052981E+01 -.45707738538E+01 -.17427730691E+01 0.72096282453E+01 0.21156837968E+02
 0.37730336716E+02 0.54363895757E+02 0.69559605341E+02 0.83544775176E+02 0.97842480881E+02
 0.11403411858E+03 0.13243218695E+03 0.15122768396E+03 0.16752138291E+03 0.17760946196E+03
 0.17758833111E+03 0.16581016985E+03 0.14431891991E+03 0.11774515395E+03 0.90633658364E+02
 0.66708780497E+02 0.47831166120E+02 0.39533882242E+02 0.27971465151E+02 0.19678726748E+02
 0.13778816101E+02 0.97061211502E+01 0.70570911920E+01 0.54920608467E+01 0.47269779542E+01
 0.45450684227E+01 0.48054707133E+01 0.54531447423E+01 0.65108701660E+01 0.80457841542E+01
 0.10141403718E+02 0.12889874264E+02 0.16368406256E+02 0.20577623691E+02 0.25390116020E+02
 0.30565453232E+02 0.35708565915E+02 0.39899297273E+02 0.42077202531E+02 0.41432971101E+02
 0.37673929745E+02 0.31193913635E+02 0.23091386832E+02 0.15053456177E+02 0.91162844754E+01
 0.72403743036E+01 0.10686046005E+02 0.19417955111E+02 0.31978557307E+02 0.46120024031E+02
 0.59960423354E+02 0.72953730464E+02 0.86005401019E+02 0.10064653054E+03 0.11778560286E+03
 0.13653329450E+03 0.15435516594E+03 0.16807447182E+03 0.17373661103E+03 0.16833617845E+03
 0.15200148425E+03 0.12821835210E+03 0.10164810724E+03 0.76432510908E+02 0.55463528130E+02
 0.44153807066E+02 0.31506502102E+02 0.22308551324E+02 0.15677849756E+02 0.10998134402E+02
 0.78436878054E+01 0.58706445385E+01 0.47905735600E+01 0.43716395217E+01 0.44384607422E+01
 0.48901464466E+01 0.57190422041E+01 0.69915697060E+01 0.88076018018E+01 0.11283392989E+02
 0.14544939688E+02 0.18680428706E+02 0.23664185178E+02 0.29328995557E+02 0.35410595758E+02
 0.41453121621E+02 0.46514565932E+02 0.49582091767E+02 0.49876197384E+02 0.47081957545E+02
 0.41513878256E+02 0.34186693467E+02 0.26758366451E+02 0.21251253636E+02 0.19489179941E+02
 0.22406436997E+02 0.29622485231E+02 0.39644772934E+02 0.50690950708E+02 0.61673969763E+02
 0.72732630187E+02 0.84960423304E+02 0.99484921789E+02 0.11623727286E+03 0.13348505336E+03
 0.14838511101E+03 0.15767323704E+03 0.15808642841E+03 0.14823479314E+03 0.12978460532E+03
 0.10648776427E+03 0.82442799378E+02 0.61115664611E+02 0.46934119880E+02 0.34008799199E+02
 0.24362705752E+02 0.17280088822E+02 0.12169011210E+02 0.86130277593E+01 0.62914543188E+01
 0.49298697898E+01 0.42896993175E+01 0.41757287695E+01 0.44623267951E+01 0.51179758148E+01
 0.61950873621E+01 0.77965658102E+01 0.10058629770E+02 0.13144316882E+02 0.17202492960E+02
 0.22292345480E+02 0.28335382104E+02 0.35129517186E+02 0.42378560011E+02 0.49544731578E+02
 0.55623648996E+02 0.59557196597E+02 0.60519501794E+02 0.58151482981E+02 0.52761488929E+02
 0.45430409694E+02 0.37898595333E+02 0.32142245143E+02 0.29730174963E+02 0.31259800082E+02
 0.36206084962E+02 0.43318151045E+02 0.51380934385E+02 0.59913645084E+02 0.69369103130E+02
 0.80674178891E+02 0.94202586634E+02 0.10906989258E+03 0.12323254442E+03 0.13387356441E+03
 0.13818693085E+03 0.13421770220E+03 0.12204991312E+03 0.10392037011E+03 0.83280055494E+02
 0.63560778738E+02 0.47271600528E+02 0.35031564093E+02 0.25535784294E+02 0.18367732673E+02
 0.13061113812E+02 0.92586357533E+01 0.66867075941E+01 0.51004550172E+01 0.42679855540E+01
 0.39900145920E+01 0.41323205297E+01 0.46475704777E+01 0.55721224953E+01 0.70073354214E+01
 0.91047501100E+01 0.12051478436E+02 0.16033664232E+02 0.21178156156E+02 0.27503632583E+02
 0.34900729952E+02 0.43121462777E+02 0.51750734891E+02 0.60078340998E+02 0.66949728500E+02
 0.71189527571E+02 0.71939796073E+02 0.68940116059E+02 0.62719108403E+02 0.54588988759E+02
 0.46366754948E+02 0.39865216812E+02 0.36339279448E+02 0.36137985542E+02 0.38748772553E+02
 0.43238934788E+02 0.48870718077E+02 0.55526817751E+02 0.63661320172E+02 0.73641665407E+02
 0.85146268693E+02 0.97004614656E+02 0.10722606780E+03 0.11343059364E+03 0.11362023120E+03
 0.10702952674E+03 0.94601465873E+02 0.78708220953E+02 0.62188057845E+02 0.45055899873E+02
 0.34355905560E+02 0.25622824995E+02 0.18772512531E+02 0.13541759474E+02 0.96816158807E+01
 0.69847802139E+01 0.52504216016E+01 0.42713740457E+01 0.38583584256E+01 0.38762522160E+01
 0.42684560355E+01 0.50618916047E+01 0.63583309620E+01 0.83195756473E+01 0.11146463018E+02
 0.15047896280E+02 0.20203425752E+02 0.26727678462E+02 0.34632881691E+02 0.43771831063E+02
 0.53757089262E+02 0.63891455595E+02 0.73136586356E+02 0.80104987528E+02 0.83535911375E+02
 0.82737042172E+02 0.77835148892E+02 0.69807115114E+02 0.60257218234E+02 0.50998318851E+02
 0.43574750673E+02 0.38895000891E+02 0.37110642385E+02 0.37790152494E+02 0.40307932280E+02