   9   9   0   0
  0.1255774E+02  0.4913700E-09  0.4913700E-09  0.5405130E-09  0.5000000E-15
  1.000000000000000E-004
  CAR 
 unknown system                          
     13.74558382    -20.45639821  301      1.23335873      1.00000000
    -20.456  0.0000E+00  0.0000E+00
    -20.342  0.0000E+00  0.0000E+00
    -20.228  0.0000E+00  0.0000E+00
    -20.114  0.0000E+00  0.0000E+00
    -20.000  0.0000E+00  0.0000E+00
    -19.886  0.0000E+00  0.0000E+00
    -19.772  0.0000E+00  0.0000E+00
    -19.658  0.0000E+00  0.0000E+00
    -19.544  0.0000E+00  0.0000E+00
    -19.430  0.0000E+00  0.0000E+00
    -19.316  0.0000E+00  0.0000E+00
    -19.202  0.0000E+00  0.0000E+00
    -19.088  0.0000E+00  0.0000E+00
    -18.974  0.0000E+00  0.0000E+00
    -18.860  0.0000E+00  0.0000E+00
    -18.746  0.0000E+00  0.0000E+00
    -18.632  0.0000E+00  0.0000E+00
    -18.518  0.0000E+00  0.0000E+00
    -18.404  0.7398E+00  0.1268E-01
    -18.290  0.1888E+01  0.1637E+00
    -18.176  0.3511E+01  0.4622E+00
    -18.062  0.7989E+01  0.1091E+01
    -17.948  0.4373E+01  0.1898E+01
    -17.834  0.1541E+00  0.2002E+01
    -17.720  0.1444E+01  0.2072E+01
    -17.606  0.3172E+01  0.2323E+01
    -17.492  0.5417E+01  0.2815E+01
    -17.378  0.6556E+01  0.3519E+01
    -17.264  0.1819E+01  0.3936E+01
    -17.150  0.0000E+00  0.4000E+01
    -17.036  0.6203E+00  0.4016E+01
    -16.922  0.2795E+01  0.4193E+01
    -16.808  0.7656E+01  0.4812E+01
    -16.694  0.3706E+01  0.5488E+01
    -16.580  0.2567E+01  0.5823E+01
    -16.466  0.6821E+01  0.6212E+01
    -16.352  0.6467E+01  0.7190E+01
    -16.238  0.4587E+01  0.7781E+01
    -16.124  0.1271E+02  0.9203E+01
    -16.010  0.0000E+00  0.1000E+02
    -15.896  0.3039E+02  0.1108E+02
    -15.782  0.0000E+00  0.1200E+02
    -15.668  0.0000E+00  0.1200E+02
    -15.554  0.0000E+00  0.1200E+02
    -15.440  0.0000E+00  0.1200E+02
    -15.326  0.0000E+00  0.1200E+02
    -15.212  0.0000E+00  0.1200E+02
    -15.098  0.0000E+00  0.1200E+02
    -14.984  0.0000E+00  0.1200E+02
    -14.870  0.0000E+00  0.1200E+02
    -14.756  0.0000E+00  0.1200E+02
    -14.642  0.0000E+00  0.1200E+02
    -14.528  0.0000E+00  0.1200E+02
    -14.414  0.0000E+00  0.1200E+02
    -14.300  0.0000E+00  0.1200E+02
    -14.186  0.0000E+00  0.1200E+02
    -14.072  0.0000E+00  0.1200E+02
    -13.958  0.0000E+00  0.1200E+02
    -13.844  0.0000E+00  0.1200E+02
    -13.730  0.0000E+00  0.1200E+02
    -13.616  0.0000E+00  0.1200E+02
    -13.502  0.0000E+00  0.1200E+02
    -13.388  0.0000E+00  0.1200E+02
    -13.274  0.0000E+00  0.1200E+02
    -13.160  0.0000E+00  0.1200E+02
    -13.046  0.0000E+00  0.1200E+02
    -12.932  0.0000E+00  0.1200E+02
    -12.818  0.0000E+00  0.1200E+02
    -12.704  0.0000E+00  0.1200E+02
    -12.590  0.0000E+00  0.1200E+02
    -12.476  0.0000E+00  0.1200E+02
    -12.362  0.0000E+00  0.1200E+02
    -12.248  0.0000E+00  0.1200E+02
    -12.134  0.0000E+00  0.1200E+02
    -12.020  0.0000E+00  0.1200E+02
    -11.906  0.0000E+00  0.1200E+02
    -11.792  0.0000E+00  0.1200E+02
    -11.678  0.0000E+00  0.1200E+02
    -11.564  0.0000E+00  0.1200E+02
    -11.450  0.0000E+00  0.1200E+02
    -11.336  0.0000E+00  0.1200E+02
    -11.222  0.0000E+00  0.1200E+02
    -11.108  0.0000E+00  0.1200E+02
    -10.994  0.0000E+00  0.1200E+02
    -10.880  0.0000E+00  0.1200E+02
    -10.766  0.0000E+00  0.1200E+02
    -10.652  0.0000E+00  0.1200E+02
    -10.538  0.0000E+00  0.1200E+02
    -10.424  0.0000E+00  0.1200E+02
    -10.310  0.0000E+00  0.1200E+02
    -10.196  0.0000E+00  0.1200E+02
    -10.082  0.0000E+00  0.1200E+02
     -9.968  0.0000E+00  0.1200E+02
     -9.854  0.0000E+00  0.1200E+02
     -9.740  0.0000E+00  0.1200E+02
     -9.626  0.0000E+00  0.1200E+02
     -9.512  0.0000E+00  0.1200E+02
     -9.398  0.0000E+00  0.1200E+02
     -9.284  0.0000E+00  0.1200E+02
     -9.170  0.0000E+00  0.1200E+02
     -9.056  0.0000E+00  0.1200E+02
     -8.942  0.0000E+00  0.1200E+02
     -8.828  0.0000E+00  0.1200E+02
     -8.714  0.0000E+00  0.1200E+02
     -8.600  0.0000E+00  0.1200E+02
     -8.486  0.0000E+00  0.1200E+02
     -8.372  0.0000E+00  0.1200E+02
     -8.258  0.2096E-01  0.1200E+02
     -8.144  0.3285E+00  0.1202E+02
     -8.030  0.4492E+00  0.1206E+02
     -7.916  0.6371E+00  0.1212E+02
     -7.802  0.8506E+00  0.1221E+02
     -7.688  0.1134E+01  0.1232E+02
     -7.574  0.1512E+01  0.1247E+02
     -7.460  0.2541E+01  0.1269E+02
     -7.346  0.6836E+01  0.1332E+02
     -7.232  0.1823E+01  0.1381E+02
     -7.118  0.7279E+00  0.1394E+02
     -7.004  0.3326E+00  0.1400E+02
     -6.890  0.2015E+00  0.1402E+02
     -6.776  0.3582E+00  0.1405E+02
     -6.662  0.6477E+00  0.1411E+02
     -6.548  0.1057E+01  0.1420E+02
     -6.434  0.1733E+01  0.1435E+02
     -6.320  0.3324E+01  0.1465E+02
     -6.206  0.3980E+01  0.1507E+02
     -6.092  0.2795E+01  0.1550E+02
     -5.978  0.1262E+01  0.1573E+02
     -5.864  0.8113E+00  0.1584E+02
     -5.750  0.5287E+00  0.1592E+02
     -5.636  0.2908E+00  0.1597E+02
     -5.522  0.3466E+00  0.1600E+02
     -5.408  0.1996E+01  0.1610E+02
     -5.294  0.3582E+01  0.1644E+02
     -5.180  0.3095E+01  0.1682E+02
     -5.066  0.2603E+01  0.1714E+02
     -4.951  0.2228E+01  0.1742E+02
     -4.837  0.1736E+01  0.1765E+02
     -4.723  0.1267E+01  0.1782E+02
     -4.609  0.1032E+01  0.1795E+02
     -4.495  0.2875E+01  0.1805E+02
     -4.381  0.1123E+02  0.1898E+02
     -4.267  0.5579E+01  0.1983E+02
     -4.153  0.8293E+01  0.2053E+02
     -4.039  0.6895E+01  0.2140E+02
     -3.925  0.3264E+01  0.2204E+02
     -3.811  0.6193E+01  0.2240E+02
     -3.697  0.6693E+01  0.2332E+02
     -3.583  0.2966E+01  0.2380E+02
     -3.469  0.3376E+00  0.2400E+02
     -3.355  0.0000E+00  0.2400E+02
     -3.241  0.0000E+00  0.2400E+02
     -3.127  0.0000E+00  0.2400E+02
     -3.013  0.0000E+00  0.2400E+02
     -2.899  0.0000E+00  0.2400E+02
     -2.785  0.0000E+00  0.2400E+02
     -2.671  0.0000E+00  0.2400E+02
     -2.557  0.0000E+00  0.2400E+02
     -2.443  0.0000E+00  0.2400E+02
     -2.329  0.0000E+00  0.2400E+02
     -2.215  0.7643E+01  0.2416E+02
     -2.101  0.1178E+02  0.2545E+02
     -1.987  0.8214E+01  0.2632E+02
     -1.873  0.5349E+01  0.2707E+02
     -1.759  0.4537E+01  0.2777E+02
     -1.645  0.3659E+01  0.2812E+02
     -1.531  0.1007E+02  0.2912E+02
     -1.417  0.3991E+01  0.2988E+02
     -1.303  0.3746E+01  0.3010E+02
     -1.189  0.1206E+02  0.3113E+02
     -1.075  0.1565E+01  0.3196E+02
     -0.961  0.1891E+02  0.3258E+02
     -0.847  0.1249E+01  0.3387E+02
     -0.733  0.5319E+01  0.3409E+02
     -0.619  0.7611E+01  0.3485E+02
     -0.505  0.9423E+01  0.3596E+02
     -0.391  0.1013E+02  0.3704E+02
     -0.277  0.5007E+01  0.3781E+02
     -0.163  0.8284E+01  0.3855E+02
     -0.049  0.7867E+01  0.3957E+02
      0.065  0.5719E+01  0.4020E+02
      0.179  0.1477E+02  0.4123E+02
      0.293  0.1715E+01  0.4200E+02
      0.407  0.1281E+02  0.4267E+02
      0.521  0.3450E+01  0.4371E+02
      0.635  0.4850E+01  0.4410E+02
      0.749  0.6912E+01  0.4469E+02
      0.863  0.8186E+01  0.4592E+02
      0.977  0.7172E+01  0.4660E+02
      1.091  0.5657E+01  0.4772E+02
      1.205  0.0000E+00  0.4800E+02
      1.319  0.0000E+00  0.4800E+02
      1.433  0.0000E+00  0.4800E+02
      1.547  0.0000E+00  0.4800E+02
      1.661  0.0000E+00  0.4800E+02
      1.775  0.0000E+00  0.4800E+02
      1.889  0.0000E+00  0.4800E+02
      2.003  0.0000E+00  0.4800E+02
      2.117  0.0000E+00  0.4800E+02
      2.231  0.0000E+00  0.4800E+02
      2.345  0.0000E+00  0.4800E+02
      2.459  0.0000E+00  0.4800E+02
      2.573  0.0000E+00  0.4800E+02
      2.687  0.0000E+00  0.4800E+02
      2.801  0.0000E+00  0.4800E+02
      2.915  0.0000E+00  0.4800E+02
      3.029  0.0000E+00  0.4800E+02
      3.143  0.0000E+00  0.4800E+02
      3.257  0.0000E+00  0.4800E+02
      3.371  0.0000E+00  0.4800E+02
      3.485  0.0000E+00  0.4800E+02
      3.599  0.0000E+00  0.4800E+02
      3.713  0.0000E+00  0.4800E+02
      3.827  0.0000E+00  0.4800E+02
      3.941  0.0000E+00  0.4800E+02
      4.055  0.0000E+00  0.4800E+02
      4.169  0.0000E+00  0.4800E+02
      4.283  0.0000E+00  0.4800E+02
      4.397  0.0000E+00  0.4800E+02
      4.511  0.0000E+00  0.4800E+02
      4.625  0.0000E+00  0.4800E+02
      4.739  0.0000E+00  0.4800E+02
      4.853  0.0000E+00  0.4800E+02
      4.967  0.0000E+00  0.4800E+02
      5.081  0.0000E+00  0.4800E+02
      5.195  0.0000E+00  0.4800E+02
      5.309  0.0000E+00  0.4800E+02
      5.423  0.0000E+00  0.4800E+02
      5.537  0.0000E+00  0.4800E+02
      5.651  0.0000E+00  0.4800E+02
      5.765  0.0000E+00  0.4800E+02
      5.879  0.0000E+00  0.4800E+02
      5.993  0.0000E+00  0.4800E+02
      6.107  0.0000E+00  0.4800E+02
      6.221  0.0000E+00  0.4800E+02
      6.335  0.0000E+00  0.4800E+02
      6.449  0.0000E+00  0.4800E+02
      6.563  0.0000E+00  0.4800E+02
      6.677  0.0000E+00  0.4800E+02
      6.791  0.0000E+00  0.4800E+02
      6.905  0.0000E+00  0.4800E+02
      7.019  0.0000E+00  0.4800E+02
      7.133  0.2587E-02  0.4800E+02
      7.247  0.3702E-01  0.4800E+02
      7.361  0.1115E+00  0.4801E+02
      7.475  0.1883E+00  0.4803E+02
      7.589  0.2196E+00  0.4805E+02
      7.703  0.2432E+00  0.4808E+02
      7.817  0.2881E+00  0.4811E+02
      7.931  0.3360E+00  0.4814E+02
      8.045  0.3853E+00  0.4818E+02
      8.159  0.4317E+00  0.4823E+02
      8.273  0.4765E+00  0.4828E+02
      8.387  0.5290E+00  0.4834E+02
      8.501  0.5835E+00  0.4840E+02
      8.615  0.6399E+00  0.4847E+02
      8.729  0.6982E+00  0.4855E+02
      8.843  0.7695E+00  0.4863E+02
      8.957  0.8822E+00  0.4873E+02
      9.071  0.1014E+01  0.4883E+02
      9.185  0.1236E+01  0.4896E+02
      9.299  0.1372E+01  0.4911E+02
      9.413  0.1396E+01  0.4927E+02
      9.527  0.1478E+01  0.4943E+02
      9.641  0.1753E+01  0.4963E+02
      9.755  0.1454E+01  0.4980E+02
      9.869  0.1477E+01  0.4997E+02
      9.983  0.1254E+01  0.5013E+02
     10.097  0.8838E+00  0.5025E+02
     10.211  0.3692E+01  0.5044E+02
     10.325  0.9237E+01  0.5123E+02
     10.439  0.3431E+01  0.5202E+02
     10.553  0.6979E+01  0.5257E+02
     10.667  0.6599E+01  0.5338E+02
     10.781  0.4782E+01  0.5408E+02
     10.895  0.2564E+01  0.5449E+02
     11.009  0.4388E+01  0.5485E+02
     11.123  0.6594E+01  0.5554E+02
     11.237  0.3954E+01  0.5610E+02
     11.351  0.4904E+01  0.5652E+02
     11.465  0.7443E+01  0.5735E+02
     11.579  0.2113E+01  0.5792E+02
     11.693  0.4852E-01  0.5800E+02
     11.807  0.0000E+00  0.5800E+02
     11.921  0.0000E+00  0.5800E+02
     12.035  0.0000E+00  0.5800E+02
     12.149  0.0000E+00  0.5800E+02
     12.263  0.0000E+00  0.5800E+02
     12.378  0.0000E+00  0.5800E+02
     12.492  0.0000E+00  0.5800E+02
     12.606  0.0000E+00  0.5800E+02
     12.720  0.0000E+00  0.5800E+02
     12.834  0.0000E+00  0.5800E+02
     12.948  0.0000E+00  0.5800E+02
     13.062  0.0000E+00  0.5800E+02
     13.176  0.0000E+00  0.5800E+02
     13.290  0.0000E+00  0.5800E+02
     13.404  0.0000E+00  0.5800E+02
     13.518  0.0000E+00  0.5800E+02
     13.632  0.0000E+00  0.5800E+02
     13.746  0.0000E+00  0.5800E+02
