Automatically generated mesh
     148
Reciprocal lattice
    0.00000000000000    0.00000000000000    0.00000000000000             1
    0.14285714285714    0.00000000000000    0.00000000000000             2
    0.28571428571429    0.00000000000000    0.00000000000000             2
    0.42857142857143    0.00000000000000    0.00000000000000             2
    0.00000000000000    0.14285714285714    0.00000000000000             2
    0.14285714285714    0.14285714285714    0.00000000000000             2
    0.28571428571429    0.14285714285714    0.00000000000000             2
    0.42857142857143    0.14285714285714    0.00000000000000             2
   -0.42857142857143    0.14285714285714    0.00000000000000             2
   -0.28571428571429    0.14285714285714    0.00000000000000             2
   -0.14285714285714    0.14285714285714    0.00000000000000             2
    0.00000000000000    0.28571428571429    0.00000000000000             2
    0.14285714285714    0.28571428571429    0.00000000000000             2
    0.28571428571429    0.28571428571429    0.00000000000000             2
    0.42857142857143    0.28571428571429    0.00000000000000             2
   -0.42857142857143    0.28571428571429    0.00000000000000             2
   -0.28571428571429    0.28571428571429    0.00000000000000             2
   -0.14285714285714    0.28571428571429    0.00000000000000             2
    0.00000000000000    0.42857142857143    0.00000000000000             2
    0.14285714285714    0.42857142857143    0.00000000000000             2
    0.28571428571429    0.42857142857143    0.00000000000000             2
    0.42857142857143    0.42857142857143    0.00000000000000             2
   -0.42857142857143    0.42857142857143    0.00000000000000             2
   -0.28571428571429    0.42857142857143    0.00000000000000             2
   -0.14285714285714    0.42857142857143    0.00000000000000             2
    0.00000000000000    0.00000000000000    0.16666666666667             2
    0.14285714285714    0.00000000000000    0.16666666666667             2
    0.28571428571429    0.00000000000000    0.16666666666667             2
    0.42857142857143    0.00000000000000    0.16666666666667             2
   -0.42857142857143    0.00000000000000    0.16666666666667             2
   -0.28571428571429    0.00000000000000    0.16666666666667             2
   -0.14285714285714   -0.00000000000000    0.16666666666667             2
    0.00000000000000    0.14285714285714    0.16666666666667             2
    0.14285714285714    0.14285714285714    0.16666666666667             2
    0.28571428571429    0.14285714285714    0.16666666666667             2
    0.42857142857143    0.14285714285714    0.16666666666667             2
   -0.42857142857143    0.14285714285714    0.16666666666667             2
   -0.28571428571429    0.14285714285714    0.16666666666667             2
   -0.14285714285714    0.14285714285714    0.16666666666667             2
    0.00000000000000    0.28571428571429    0.16666666666667             2
    0.14285714285714    0.28571428571429    0.16666666666667             2
    0.28571428571429    0.28571428571429    0.16666666666667             2
    0.42857142857143    0.28571428571429    0.16666666666667             2
   -0.42857142857143    0.28571428571429    0.16666666666667             2
   -0.28571428571429    0.28571428571429    0.16666666666667             2
   -0.14285714285714    0.28571428571429    0.16666666666667             2
    0.00000000000000    0.42857142857143    0.16666666666667             2
    0.14285714285714    0.42857142857143    0.16666666666667             2
    0.28571428571429    0.42857142857143    0.16666666666667             2
    0.42857142857143    0.42857142857143    0.16666666666667             2
   -0.42857142857143    0.42857142857143    0.16666666666667             2
   -0.28571428571429    0.42857142857143    0.16666666666667             2
   -0.14285714285714    0.42857142857143    0.16666666666667             2
    0.00000000000000   -0.42857142857143    0.16666666666667             2
    0.14285714285714   -0.42857142857143    0.16666666666667             2
    0.28571428571429   -0.42857142857143    0.16666666666667             2
    0.42857142857143   -0.42857142857143    0.16666666666667             2
   -0.42857142857143   -0.42857142857143    0.16666666666667             2
   -0.28571428571429   -0.42857142857143    0.16666666666667             2
   -0.14285714285714   -0.42857142857143    0.16666666666667             2
    0.00000000000000   -0.28571428571429    0.16666666666667             2
    0.14285714285714   -0.28571428571429    0.16666666666667             2
    0.28571428571429   -0.28571428571429    0.16666666666667             2
    0.42857142857143   -0.28571428571429    0.16666666666667             2
   -0.42857142857143   -0.28571428571429    0.16666666666667             2
   -0.28571428571429   -0.28571428571429    0.16666666666667             2
   -0.14285714285714   -0.28571428571429    0.16666666666667             2
    0.00000000000000   -0.14285714285714    0.16666666666667             2
    0.14285714285714   -0.14285714285714    0.16666666666667             2
    0.28571428571429   -0.14285714285714    0.16666666666667             2
    0.42857142857143   -0.14285714285714    0.16666666666667             2
   -0.42857142857143   -0.14285714285714    0.16666666666667             2
   -0.28571428571429   -0.14285714285714    0.16666666666667             2
   -0.14285714285714   -0.14285714285714    0.16666666666667             2
    0.00000000000000    0.00000000000000    0.33333333333333             2
    0.14285714285714    0.00000000000000    0.33333333333333             2
    0.28571428571429    0.00000000000000    0.33333333333333             2
    0.42857142857143    0.00000000000000    0.33333333333333             2
   -0.42857142857143    0.00000000000000    0.33333333333333             2
   -0.28571428571429    0.00000000000000    0.33333333333333             2
   -0.14285714285714   -0.00000000000000    0.33333333333333             2
    0.00000000000000    0.14285714285714    0.33333333333333             2
    0.14285714285714    0.14285714285714    0.33333333333333             2
    0.28571428571429    0.14285714285714    0.33333333333333             2
    0.42857142857143    0.14285714285714    0.33333333333333             2
   -0.42857142857143    0.14285714285714    0.33333333333333             2
   -0.28571428571429    0.14285714285714    0.33333333333333             2
   -0.14285714285714    0.14285714285714    0.33333333333333             2
    0.00000000000000    0.28571428571429    0.33333333333333             2
    0.14285714285714    0.28571428571429    0.33333333333333             2
    0.28571428571429    0.28571428571429    0.33333333333333             2
    0.42857142857143    0.28571428571429    0.33333333333333             2
   -0.42857142857143    0.28571428571429    0.33333333333333             2
   -0.28571428571429    0.28571428571429    0.33333333333333             2
   -0.14285714285714    0.28571428571429    0.33333333333333             2
    0.00000000000000    0.42857142857143    0.33333333333333             2
    0.14285714285714    0.42857142857143    0.33333333333333             2
    0.28571428571429    0.42857142857143    0.33333333333333             2
    0.42857142857143    0.42857142857143    0.33333333333333             2
   -0.42857142857143    0.42857142857143    0.33333333333333             2
   -0.28571428571429    0.42857142857143    0.33333333333333             2
   -0.14285714285714    0.42857142857143    0.33333333333333             2
    0.00000000000000   -0.42857142857143    0.33333333333333             2
    0.14285714285714   -0.42857142857143    0.33333333333333             2
    0.28571428571429   -0.42857142857143    0.33333333333333             2
    0.42857142857143   -0.42857142857143    0.33333333333333             2
   -0.42857142857143   -0.42857142857143    0.33333333333333             2
   -0.28571428571429   -0.42857142857143    0.33333333333333             2
   -0.14285714285714   -0.42857142857143    0.33333333333333             2
    0.00000000000000   -0.28571428571429    0.33333333333333             2
    0.14285714285714   -0.28571428571429    0.33333333333333             2
    0.28571428571429   -0.28571428571429    0.33333333333333             2
    0.42857142857143   -0.28571428571429    0.33333333333333             2
   -0.42857142857143   -0.28571428571429    0.33333333333333             2
   -0.28571428571429   -0.28571428571429    0.33333333333333             2
   -0.14285714285714   -0.28571428571429    0.33333333333333             2
    0.00000000000000   -0.14285714285714    0.33333333333333             2
    0.14285714285714   -0.14285714285714    0.33333333333333             2
    0.28571428571429   -0.14285714285714    0.33333333333333             2
    0.42857142857143   -0.14285714285714    0.33333333333333             2
   -0.42857142857143   -0.14285714285714    0.33333333333333             2
   -0.28571428571429   -0.14285714285714    0.33333333333333             2
   -0.14285714285714   -0.14285714285714    0.33333333333333             2
    0.00000000000000    0.00000000000000    0.50000000000000             1
    0.14285714285714    0.00000000000000    0.50000000000000             2
    0.28571428571429    0.00000000000000    0.50000000000000             2
    0.42857142857143    0.00000000000000    0.50000000000000             2
    0.00000000000000    0.14285714285714    0.50000000000000             2
    0.14285714285714    0.14285714285714    0.50000000000000             2
    0.28571428571429    0.14285714285714    0.50000000000000             2
    0.42857142857143    0.14285714285714    0.50000000000000             2
   -0.42857142857143    0.14285714285714    0.50000000000000             2
   -0.28571428571429    0.14285714285714    0.50000000000000             2
   -0.14285714285714    0.14285714285714    0.50000000000000             2
    0.00000000000000    0.28571428571429    0.50000000000000             2
    0.14285714285714    0.28571428571429    0.50000000000000             2
    0.28571428571429    0.28571428571429    0.50000000000000             2
    0.42857142857143    0.28571428571429    0.50000000000000             2
   -0.42857142857143    0.28571428571429    0.50000000000000             2
   -0.28571428571429    0.28571428571429    0.50000000000000             2
   -0.14285714285714    0.28571428571429    0.50000000000000             2
    0.00000000000000    0.42857142857143    0.50000000000000             2
    0.14285714285714    0.42857142857143    0.50000000000000             2
    0.28571428571429    0.42857142857143    0.50000000000000             2
    0.42857142857143    0.42857142857143    0.50000000000000             2
   -0.42857142857143    0.42857142857143    0.50000000000000             2
   -0.28571428571429    0.42857142857143    0.50000000000000             2
   -0.14285714285714    0.42857142857143    0.50000000000000             2
Tetrahedra
       880    0.00056689342404
         2         2         5         6        33
         2         1         2         5        33
         2         1         2        26        33
         2         2         6        33        34
         2         2        27        33        34
         2         2        26        27        33
         2         3         6         7        34
         2         2         3         6        34
         2         2         3        27        34
         2         3         7        34        35
         2         3        28        34        35
         2         3        27        28        34
         2         4         7         8        35
         2         3         4         7        35
         2         3         4        28        35
         2         4         8        35        36
         2         4        29        35        36
         2         4        28        29        35
         2         4         8         9        36
         2         4         4         8        36
         2         4         4        29        36
         2         4         9        36        37
         2         4        30        36        37
         2         4        29        30        36
         2         3         9        10        37
         2         3         4         9        37
         2         3         4        30        37
         2         3        10        37        38
         2         3        31        37        38
         2         3        30        31        37
         2         2        10        11        38
         2         2         3        10        38
         2         2         3        31        38
         2         2        11        38        39
         2         2        32        38        39
         2         2        31        32        38
         2         1         5        11        39
         2         1         2        11        39
         2         1         2        32        39
         2         1         5        33        39
         2         1        26        33        39
         2         1        26        32        39
         2         6        12        13        40
         2         5         6        12        40
         2         5         6        33        40
         2         6        13        40        41
         2         6        34        40        41
         2         6        33        34        40
         2         7        13        14        41
         2         6         7        13        41
         2         6         7        34        41
         2         7        14        41        42
         2         7        35        41        42
         2         7        34        35        41
         2         8        14        15        42
         2         7         8        14        42
         2         7         8        35        42
         2         8        15        42        43
         2         8        36        42        43
         2         8        35        36        42
         2         9        15        16        43
         2         8         9        15        43
         2         8         9        36        43
         2         9        16        43        44
         2         9        37        43        44
         2         9        36        37        43
         2        10        16        17        44
         2         9        10        16        44
         2         9        10        37        44
         2        10        17        44        45
         2        10        38        44        45
         2        10        37        38        44
         2        11        17        18        45
         2        10        11        17        45
         2        10        11        38        45
         2        11        18        45        46
         2        11        39        45        46
         2        11        38        39        45
         2         5        12        18        46
         2         5        11        18        46
         2         5        11        39        46
         2         5        12        40        46
         2         5        33        40        46
         2         5        33        39        46
         2        13        19        20        47
         2        12        13        19        47
         2        12        13        40        47
         2        13        20        47        48
         2        13        41        47        48
         2        13        40        41        47
         2        14        20        21        48
         2        13        14        20        48
         2        13        14        41        48
         2        14        21        48        49
         2        14        42        48        49
         2        14        41        42        48
         2        15        21        22        49
         2        14        15        21        49
         2        14        15        42        49
         2        15        22        49        50
         2        15        43        49        50
         2        15        42        43        49
         2        16        22        23        50
         2        15        16        22        50
         2        15        16        43        50
         2        16        23        50        51
         2        16        44        50        51
         2        16        43        44        50
         2        17        23        24        51
         2        16        17        23        51
         2        16        17        44        51
         2        17        24        51        52
         2        17        45        51        52
         2        17        44        45        51
         2        18        24        25        52
         2        17        18        24        52
         2        17        18        45        52
         2        18        25        52        53
         2        18        46        52        53
         2        18        45        46        52
         2        12        19        25        53
         2        12        18        25        53
         2        12        18        46        53
         2        12        19        47        53
         2        12        40        47        53
         2        12        40        46        53
         2        19        20        25        54
         2        19        19        20        54
         2        19        20        47        54
         2        20        25        54        55
         2        20        48        54        55
         2        20        47        48        54
         2        21        24        25        55
         2        20        21        25        55
         2        20        21        48        55
         2        21        24        55        56
         2        21        49        55        56
         2        21        48        49        55
         2        22        23        24        56
         2        21        22        24        56
         2        21        22        49        56
         2        22        23        56        57
         2        22        50        56        57
         2        22        49        50        56
         4        22        23        23        57
         2        22        23        50        57
         2        22        23        57        58
         2        23        51        57        58
         2        23        50        51        57
         2        21        22        24        58
         2        22        23        24        58
         2        23        24        51        58
         2        21        24        58        59
         2        24        52        58        59
         2        24        51        52        58
         2        20        21        25        59
         2        21        24        25        59
         2        24        25        52        59
         2        20        25        59        60
         2        25        53        59        60
         2        25        52        53        59
         2        19        19        20        60
         2        19        20        25        60
         2        19        25        53        60
         2        19        19        54        60
         2        19        47        54        60
         2        19        47        53        60
         2        12        18        25        61
         2        12        19        25        61
         2        19        25        54        61
         2        18        25        61        62
         2        25        55        61        62
         2        25        54        55        61
         2        17        18        24        62
         2        18        24        25        62
         2        24        25        55        62
         2        17        24        62        63
         2        24        56        62        63
         2        24        55        56        62
         2        16        17        23        63
         2        17        23        24        63
         2        23        24        56        63
         2        16        23        63        64
         2        23        57        63        64
         2        23        56        57        63
         2        15        16        22        64
         2        16        22        23        64
         2        22        23        57        64
         2        15        22        64        65
         2        22        58        64        65
         2        22        57        58        64
         2        14        15        21        65
         2        15        21        22        65
         2        21        22        58        65
         2        14        21        65        66
         2        21        59        65        66
         2        21        58        59        65
         2        13        14        20        66
         2        14        20        21        66
         2        20        21        59        66
         2        13        20        66        67
         2        20        60        66        67
         2        20        59        60        66
         2        12        13        19        67
         2        13        19        20        67
         2        19        20        60        67
         2        12        19        61        67
         2        19        54        61        67
         2        19        54        60        67
         2         5        11        18        68
         2         5        12        18        68
         2        12        18        61        68
         2        11        18        68        69
         2        18        62        68        69
         2        18        61        62        68
         2        10        11        17        69
         2        11        17        18        69
         2        17        18        62        69
         2        10        17        69        70
         2        17        63        69        70
         2        17        62        63        69
         2         9        10        16        70
         2        10        16        17        70
         2        16        17        63        70
         2         9        16        70        71
         2        16        64        70        71
         2        16        63        64        70
         2         8         9        15        71
         2         9        15        16        71
         2        15        16        64        71
         2         8        15        71        72
         2        15        65        71        72
         2        15        64        65        71
         2         7         8        14        72
         2         8        14        15        72
         2        14        15        65        72
         2         7        14        72        73
         2        14        66        72        73
         2        14        65        66        72
         2         6         7        13        73
         2         7        13        14        73
         2        13        14        66        73
         2         6        13        73        74
         2        13        67        73        74
         2        13        66        67        73
         2         5         6        12        74
         2         6        12        13        74
         2        12        13        67        74
         2         5        12        68        74
         2        12        61        68        74
         2        12        61        67        74
         2         1         2        11        26
         2         1         5        11        26
         2         5        11        26        68
         2         2        11        26        27
         2        11        26        27        69
         2        11        26        68        69
         2         2         3        10        27
         2         2        10        11        27
         2        10        11        27        69
         2         3        10        27        28
         2        10        27        28        70
         2        10        27        69        70
         2         3         4         9        28
         2         3         9        10        28
         2         9        10        28        70
         2         4         9        28        29
         2         9        28        29        71
         2         9        28        70        71
         2         4         4         8        29
         2         4         8         9        29
         2         8         9        29        71
         2         4         8        29        30
         2         8        29        30        72
         2         8        29        71        72
         2         3         4         7        30
         2         4         7         8        30
         2         7         8        30        72
         2         3         7        30        31
         2         7        30        31        73
         2         7        30        72        73
         2         2         3         6        31
         2         3         6         7        31
         2         6         7        31        73
         2         2         6        31        32
         2         6        31        32        74
         2         6        31        73        74
         2         1         2         5        32
         2         2         5         6        32
         2         5         6        32        74
         2         1         5        26        32
         2         5        26        32        68
         2         5        32        68        74
         2        27        33        34        82
         2        26        27        33        82
         2        26        27        75        82
         2        27        34        82        83
         2        27        76        82        83
         2        27        75        76        82
         2        28        34        35        83
         2        27        28        34        83
         2        27        28        76        83
         2        28        35        83        84
         2        28        77        83        84
         2        28        76        77        83
         2        29        35        36        84
         2        28        29        35        84
         2        28        29        77        84
         2        29        36        84        85
         2        29        78        84        85
         2        29        77        78        84
         2        30        36        37        85
         2        29        30        36        85
         2        29        30        78        85
         2        30        37        85        86
         2        30        79        85        86
         2        30        78        79        85
         2        31        37        38        86
         2        30        31        37        86
         2        30        31        79        86
         2        31        38        86        87
         2        31        80        86        87
         2        31        79        80        86
         2        32        38        39        87
         2        31        32        38        87
         2        31        32        80        87
         2        32        39        87        88
         2        32        81        87        88
         2        32        80        81        87
         2        26        33        39        88
         2        26        32        39        88
         2        26        32        81        88
         2        26        33        82        88
         2        26        75        82        88
         2        26        75        81        88
         2        34        40        41        89
         2        33        34        40        89
         2        33        34        82        89
         2        34        41        89        90
         2        34        83        89        90
         2        34        82        83        89
         2        35        41        42        90
         2        34        35        41        90
         2        34        35        83        90
         2        35        42        90        91
         2        35        84        90        91
         2        35        83        84        90
         2        36        42        43        91
         2        35        36        42        91
         2        35        36        84        91
         2        36        43        91        92
         2        36        85        91        92
         2        36        84        85        91
         2        37        43        44        92
         2        36        37        43        92
         2        36        37        85        92
         2        37        44        92        93
         2        37        86        92        93
         2        37        85        86        92
         2        38        44        45        93
         2        37        38        44        93
         2        37        38        86        93
         2        38        45        93        94
         2        38        87        93        94
         2        38        86        87        93
         2        39        45        46        94
         2        38        39        45        94
         2        38        39        87        94