       N       E                     dE             d eps       ncg     rms          rms(c)
DAV:   1     0.273300432849E+03    0.27330E+03   -0.22599E+04  8688   0.125E+03
DAV:   2    -0.628908765325E+02   -0.33619E+03   -0.32941E+03 11220   0.316E+02
DAV:   3    -0.801417248398E+02   -0.17251E+02   -0.17204E+02 10039   0.824E+01
DAV:   4    -0.803557452281E+02   -0.21402E+00   -0.21369E+00 10171   0.983E+00
DAV:   5    -0.803599119580E+02   -0.41667E-02   -0.41651E-02  9924   0.133E+00    0.185E+01
RMM:   6    -0.708925395948E+02    0.94674E+01   -0.40236E+01  9175   0.332E+01    0.518E+00
RMM:   7    -0.708638409154E+02    0.28699E-01   -0.18022E+00  9884   0.614E+00    0.340E+00
RMM:   8    -0.708776002678E+02   -0.13759E-01   -0.27584E-01  9709   0.406E+00    0.635E-01
RMM:   9    -0.708694045872E+02    0.81957E-02   -0.46950E-02 10059   0.113E+00    0.153E-01
RMM:  10    -0.708721351761E+02   -0.27306E-02   -0.17408E-02  9959   0.669E-01    0.196E-01
RMM:  11    -0.708712678356E+02    0.86734E-03   -0.43583E-03  9951   0.378E-01    0.183E-02
RMM:  12    -0.708713091150E+02   -0.41279E-04   -0.15970E-04  9169   0.754E-02    0.134E-02
RMM:  13    -0.708713098384E+02   -0.72341E-06   -0.79422E-06  6482   0.158E-02
   1 F= -.70871310E+02 E0= -.70871310E+02  d E =0.000000E+00
